<event>
 5    1  0.1043455E-009  0.9118800E+02  0.7561462E-02  0.1125453E+00
         25   -1    0    0    0    0  0.00000000000E+00  0.00000000000E+00  0.99999998245E-14  0.12509000000E+03  0.12509000000E+03 0.  0.
        -11    1    3    3    0    0 -0.23733399196E+01  0.48774425875E+02  0.17541011998E+01  0.48863628939E+02  0.51100000000E-03 0.  1.
         23    2    1    0    0    0 -0.25384964200E+02  0.45101393194E+01  0.48790494918E+01  0.98849899237E+02  0.95303513530E+02 0.  0.
         11    1    3    3    0    0 -0.23011624280E+02 -0.44264286555E+02  0.31249482919E+01  0.49986270298E+02  0.51100000000E-03 0. -1.
         22    1    1    0    0    0  0.25384964200E+02 -0.45101393194E+01 -0.48790494918E+01  0.26240100763E+02  0.00000000000E+00 0. -1.
</event>
<event>
 5    1  0.1043455E-009  0.9118800E+02  0.7561462E-02  0.1125453E+00
         25   -1    0    0    0    0  0.00000000000E+00  0.00000000000E+00  0.99999998245E-14  0.12509000000E+03  0.12509000000E+03 0.  0.
        -11    1    3    3    0    0  0.46573640867E+01  0.44276260049E+02  0.17392948869E+02  0.47797415357E+02  0.51100000000E-03 0.  1.
         23    2    1    0    0    0 -0.19546159244E+02  0.42308950747E+01  0.22639828446E+02  0.94882142638E+02  0.89945018457E+02 0.  0.
         11    1    3    3    0    0 -0.24203523331E+02 -0.40045364975E+02  0.52468795765E+01  0.47084727281E+02  0.51100000000E-03 0. -1.
         22    1    1    0    0    0  0.19546159244E+02 -0.42308950747E+01 -0.22639828446E+02  0.30207857362E+02  0.00000000000E+00 0. -1.
</event>
<event>
 5    1  0.1043455E-009  0.9118800E+02  0.7561462E-02  0.1125453E+00
         25   -1    0    0    0    0  0.00000000000E+00  0.00000000000E+00  0.99999998245E-14  0.12509000000E+03  0.12509000000E+03 0.  0.
        -11    1    3    3    0    0  0.34069067958E+01  0.43270361248E+02  0.33736289320E+02  0.54973342574E+02  0.51100000000E-03 0. -1.
         23    2    1    0    0    0 -0.14680517482E+02  0.24399682768E+02  0.13634456321E+01  0.96581736343E+02  0.92278441135E+02 0.  0.
         11    1    3    3    0    0 -0.18087424278E+02 -0.18870678480E+02 -0.32372843688E+02  0.41608393769E+02  0.51100000000E-03 0.  1.
         22    1    1    0    0    0  0.14680517482E+02 -0.24399682768E+02 -0.13634456321E+01  0.28508263657E+02  0.00000000000E+00 0. -1.
</event>
<event>
 5    1  0.1043455E-009  0.9118800E+02  0.7561462E-02  0.1125453E+00
         25   -1    0    0    0    0  0.00000000000E+00  0.00000000000E+00  0.99999998245E-14  0.12509000000E+03  0.12509000000E+03 0.  0.
        -11    1    3    3    0    0  0.25663415543E+02 -0.22425448217E+02 -0.37328969025E+02  0.50546647306E+02  0.51100000000E-03 0.  1.
         23    2    1    0    0    0  0.24801420261E+02 -0.14320533015E+02  0.69912359634E+01  0.95610083224E+02  0.90951759307E+02 0.  0.
         11    1    3    3    0    0 -0.86199528199E+00  0.81049152027E+01  0.44320204988E+02  0.45063435919E+02  0.51100000000E-03 0. -1.
         22    1    1    0    0    0 -0.24801420261E+02  0.14320533015E+02 -0.69912359634E+01  0.29479916776E+02  0.00000000000E+00 0.  1.
</event>
<event>
 5    1  0.1043455E-009  0.9118800E+02  0.7561462E-02  0.1125453E+00
         25   -1    0    0    0    0  0.00000000000E+00  0.00000000000E+00  0.99999998245E-14  0.12509000000E+03  0.12509000000E+03 0.  0.
        -11    1    3    3    0    0 -0.35101568833E+02  0.27592983164E+02 -0.38262149057E+02  0.58800381845E+02  0.51100000000E-03 0.  1.
         23    2    1    0    0    0 -0.73889800358E+01  0.56453580496E+01 -0.27963638856E+02  0.95620826419E+02  0.90966533700E+02 0.  0.
         11    1    3    3    0    0  0.27712588797E+02 -0.21947625114E+02  0.10298510200E+02  0.36820444574E+02  0.51100000000E-03 0. -1.
         22    1    1    0    0    0  0.73889800358E+01 -0.56453580496E+01  0.27963638856E+02  0.29469173581E+02  0.00000000000E+00 0.  1.
</event>
<event>
 5    1  0.1043455E-009  0.9118800E+02  0.7561462E-02  0.1125453E+00
         25   -1    0    0    0    0  0.00000000000E+00  0.00000000000E+00  0.99999998245E-14  0.12509000000E+03  0.12509000000E+03 0.  0.
        -11    1    3    3    0    0 -0.11082282569E+02  0.12267241371E+00  0.51468536796E+02  0.52648288820E+02  0.51100000000E-03 0. -1.
         23    2    1    0    0    0  0.94656067134E+01  0.20107413438E+02  0.20347033170E+02  0.94958495815E+02  0.90051143152E+02 0.  0.
         11    1    3    3    0    0  0.20547889282E+02  0.19984741024E+02 -0.31121503626E+02  0.42310206995E+02  0.51100000000E-03 0.  1.
         22    1    1    0    0    0 -0.94656067134E+01 -0.20107413438E+02 -0.20347033170E+02  0.30131504185E+02  0.00000000000E+00 0. -1.
</event>
<event>
 5    1  0.1043455E-009  0.9118800E+02  0.7561462E-02  0.1125453E+00
         25   -1    0    0    0    0  0.00000000000E+00  0.00000000000E+00  0.99999998245E-14  0.12509000000E+03  0.12509000000E+03 0.  0.
        -11    1    3    3    0    0  0.18879741216E+02 -0.11765052895E+02  0.30075093068E+02  0.37408185218E+02  0.51100000000E-03 0.  1.
         23    2    1    0    0    0  0.10048594923E+02 -0.94686832299E+01 -0.26763714611E+02  0.94974777241E+02  0.90073756834E+02 0.  0.
         11    1    3    3    0    0 -0.88311462932E+01  0.22963696647E+01 -0.56838807679E+02  0.57566592023E+02  0.51100000000E-03 0. -1.
         22    1    1    0    0    0 -0.10048594923E+02  0.94686832299E+01  0.26763714611E+02  0.30115222759E+02  0.00000000000E+00 0. -1.
</event>
<event>
 5    1  0.1043455E-009  0.9118800E+02  0.7561462E-02  0.1125453E+00
         25   -1    0    0    0    0  0.00000000000E+00  0.00000000000E+00  0.99999998245E-14  0.12509000000E+03  0.12509000000E+03 0.  0.
        -11    1    3    3    0    0 -0.23161539371E+02  0.12546313785E+02  0.33839577006E+02  0.42883375192E+02  0.51100000000E-03 0. -1.
         23    2    1    0    0    0  0.19129527877E+02  0.21745095702E+02  0.31130812348E+01  0.95961332014E+02  0.91433571205E+02 0.  0.
         11    1    3    3    0    0  0.42291067248E+02  0.91987819170E+01 -0.30726495772E+02  0.53077956822E+02  0.51100000000E-03 0.  1.
         22    1    1    0    0    0 -0.19129527877E+02 -0.21745095702E+02 -0.31130812348E+01  0.29128667986E+02  0.00000000000E+00 0.  1.
</event>
<event>
 5    1  0.1043455E-009  0.9118800E+02  0.7561462E-02  0.1125453E+00
         25   -1    0    0    0    0  0.00000000000E+00  0.00000000000E+00  0.99999998245E-14  0.12509000000E+03  0.12509000000E+03 0.  0.
        -11    1    3    3    0    0  0.41594490555E+02 -0.26794907908E+02  0.36655789616E+02  0.61576908391E+02  0.51100000000E-03 0. -1.
         23    2    1    0    0    0  0.24913532653E+02 -0.11961551128E+02  0.11644575311E+02  0.95100686090E+02  0.90248443454E+02 0.  0.
         11    1    3    3    0    0 -0.16680957902E+02  0.14833356780E+02 -0.25011214306E+02  0.33523777699E+02  0.51100000000E-03 0.  1.
         22    1    1    0    0    0 -0.24913532653E+02  0.11961551128E+02 -0.11644575311E+02  0.29989313910E+02  0.00000000000E+00 0. -1.
</event>
<event>
 5    1  0.1043455E-009  0.9118800E+02  0.7561462E-02  0.1125453E+00
         25   -1    0    0    0    0  0.00000000000E+00  0.00000000000E+00  0.99999998245E-14  0.12509000000E+03  0.12509000000E+03 0.  0.
        -11    1    3    3    0    0 -0.25705673263E+01 -0.37415665534E+02 -0.32283755785E+02  0.49485156680E+02  0.51100000000E-03 0.  1.
         23    2    1    0    0    0 -0.15034196515E+02 -0.23925042345E+02  0.96227224657E+01  0.95239849184E+02  0.90441126535E+02 0.  0.
         11    1    3    3    0    0 -0.12463629188E+02  0.13490623189E+02  0.41906478251E+02  0.45754692505E+02  0.51100000000E-03 0. -1.
         22    1    1    0    0    0  0.15034196515E+02  0.23925042345E+02 -0.96227224657E+01  0.29850150816E+02  0.00000000000E+00 0.  1.
</event>
<event>
 5    1  0.1043455E-009  0.9118800E+02  0.7561462E-02  0.1125453E+00
         25   -1    0    0    0    0  0.00000000000E+00  0.00000000000E+00  0.99999998245E-14  0.12509000000E+03  0.12509000000E+03 0.  0.
        -11    1    3    3    0    0  0.32508550604E+02 -0.45234934970E+02  0.24304682181E+02  0.60776004971E+02  0.51100000000E-03 0. -1.
         23    2    1    0    0    0  0.79956357461E+01 -0.25378570355E+02  0.18052594050E+02  0.92935712942E+02  0.87196035253E+02 0.  0.
         11    1    3    3    0    0 -0.24512914858E+02  0.19856364614E+02 -0.62520881305E+01  0.32159707971E+02  0.51100000000E-03 0.  1.
         22    1    1    0    0    0 -0.79956357461E+01  0.25378570355E+02 -0.18052594050E+02  0.32154287058E+02  0.00000000000E+00 0. -1.
</event>
<event>
 5    1  0.1043455E-009  0.9118800E+02  0.7561462E-02  0.1125453E+00
         25   -1    0    0    0    0  0.00000000000E+00  0.00000000000E+00  0.99999998245E-14  0.12509000000E+03  0.12509000000E+03 0.  0.
        -11    1    3    3    0    0  0.16979394076E+02 -0.26541728629E+02  0.17837383828E+02  0.36206842501E+02  0.51100000000E-03 0. -1.
         23    2    1    0    0    0 -0.49058325174E+00  0.28853207217E+02  0.82438148234E+01  0.95078190300E+02  0.90217257491E+02 0.  0.
         11    1    3    3    0    0 -0.17469977328E+02  0.55394935846E+02 -0.95935690041E+01  0.58871347799E+02  0.51100000000E-03 0.  1.
         22    1    1    0    0    0  0.49058325174E+00 -0.28853207217E+02 -0.82438148234E+01  0.30011809700E+02  0.00000000000E+00 0.  1.
</event>
<event>
 5    1  0.1043455E-009  0.9118800E+02  0.7561462E-02  0.1125453E+00
         25   -1    0    0    0    0  0.00000000000E+00  0.00000000000E+00  0.99999998245E-14  0.12509000000E+03  0.12509000000E+03 0.  0.
        -11    1    3    3    0    0  0.18971661878E+02 -0.42046468175E+02 -0.36734937014E+02  0.58968508868E+02  0.51100000000E-03 0. -1.
         23    2    1    0    0    0  0.17151260426E+02 -0.91701683667E+01 -0.23822797922E+02  0.94336407967E+02  0.89182814742E+02 0.  0.
         11    1    3    3    0    0 -0.18204014514E+01  0.32876299808E+02  0.12912139092E+02  0.35367899100E+02  0.51100000000E-03 0.  1.
         22    1    1    0    0    0 -0.17151260426E+02  0.91701683667E+01  0.23822797922E+02  0.30753592033E+02  0.00000000000E+00 0. -1.
</event>
<event>
 5    1  0.1043455E-009  0.9118800E+02  0.7561462E-02  0.1125453E+00
         25   -1    0    0    0    0  0.00000000000E+00  0.00000000000E+00  0.99999998245E-14  0.12509000000E+03  0.12509000000E+03 0.  0.
        -11    1    3    3    0    0 -0.30466687495E+02  0.17770013750E+02  0.47334259525E+01  0.35586482787E+02  0.51100000000E-03 0.  1.
         23    2    1    0    0    0  0.13604884604E+02 -0.24282054071E+02  0.64215044406E+01  0.96525218288E+02  0.92201795055E+02 0.  0.
         11    1    3    3    0    0  0.44071572099E+02 -0.42052067820E+02  0.16880784881E+01  0.60938735501E+02  0.51100000000E-03 0. -1.
         22    1    1    0    0    0 -0.13604884604E+02  0.24282054071E+02 -0.64215044406E+01  0.28564781712E+02  0.00000000000E+00 0. -1.
</event>
<event>
 5    1  0.1043455E-009  0.9118800E+02  0.7561462E-02  0.1125453E+00
         25   -1    0    0    0    0  0.00000000000E+00  0.00000000000E+00  0.99999998245E-14  0.12509000000E+03  0.12509000000E+03 0.  0.
        -11    1    3    3    0    0 -0.61586612859E+01 -0.42258494496E+02  0.56550278189E+01  0.43077706598E+02  0.51100000000E-03 0. -1.
         23    2    1    0    0    0 -0.24666654367E+02  0.44168148668E+01 -0.13267097680E+02  0.96735671017E+02  0.92486875151E+02 0.  0.
         11    1    3    3    0    0 -0.18507993081E+02  0.46675309362E+02 -0.18922125499E+02  0.53657964419E+02  0.51100000000E-03 0.  1.
         22    1    1    0    0    0  0.24666654367E+02 -0.44168148668E+01  0.13267097680E+02  0.28354328983E+02  0.00000000000E+00 0.  1.
</event>
<event>
 5    1  0.1043455E-009  0.9118800E+02  0.7561462E-02  0.1125453E+00
         25   -1    0    0    0    0  0.00000000000E+00  0.00000000000E+00  0.99999998245E-14  0.12509000000E+03  0.12509000000E+03 0.  0.
        -11    1    3    3    0    0  0.23655129783E+02  0.96277652780E+01  0.45543191520E+02  0.52215336094E+02  0.51100000000E-03 0.  1.
         23    2    1    0    0    0 -0.14671890832E+02  0.30290377443E+01  0.24335377560E+02  0.96512910379E+02  0.92185095425E+02 0.  0.
         11    1    3    3    0    0 -0.38327020615E+02 -0.65987275337E+01 -0.21207813961E+02  0.44297574285E+02  0.51100000000E-03 0. -1.
         22    1    1    0    0    0  0.14671890832E+02 -0.30290377443E+01 -0.24335377560E+02  0.28577089621E+02  0.00000000000E+00 0.  1.
</event>
<event>
 5    1  0.1043455E-009  0.9118800E+02  0.7561462E-02  0.1125453E+00
         25   -1    0    0    0    0  0.00000000000E+00  0.00000000000E+00  0.99999998245E-14  0.12509000000E+03  0.12509000000E+03 0.  0.
        -11    1    3    3    0    0 -0.25682295453E+02  0.28852677909E+02 -0.29916936124E+02  0.48857756698E+02  0.51100000000E-03 0.  1.
         23    2    1    0    0    0  0.16331800414E+02  0.21832818373E+02 -0.85323472276E+01  0.96520775087E+02  0.92195766775E+02 0.  0.
         11    1    3    3    0    0  0.42014095867E+02 -0.70198595356E+01  0.21384588896E+02  0.47663018389E+02  0.51100000000E-03 0. -1.
         22    1    1    0    0    0 -0.16331800414E+02 -0.21832818373E+02  0.85323472276E+01  0.28569224913E+02  0.00000000000E+00 0. -1.
</event>
<event>
 5    1  0.1043455E-009  0.9118800E+02  0.7561462E-02  0.1125453E+00
         25   -1    0    0    0    0  0.00000000000E+00  0.00000000000E+00  0.99999998245E-14  0.12509000000E+03  0.12509000000E+03 0.  0.
        -11    1    3    3    0    0  0.20782400467E+02 -0.20358207795E+02  0.21368013569E+02  0.36096492876E+02  0.51100000000E-03 0. -1.
         23    2    1    0    0    0 -0.98961797770E+00  0.13727564511E+01 -0.29499539856E+02  0.95541960205E+02  0.90858018380E+02 0.  0.
         11    1    3    3    0    0 -0.21772018444E+02  0.21730964246E+02 -0.50867553425E+02  0.59445467329E+02  0.51100000000E-03 0.  1.
         22    1    1    0    0    0  0.98961797770E+00 -0.13727564511E+01  0.29499539856E+02  0.29548039795E+02  0.00000000000E+00 0.  1.
</event>
<event>
 5    1  0.1043455E-009  0.9118800E+02  0.7561462E-02  0.1125453E+00
         25   -1    0    0    0    0  0.00000000000E+00  0.00000000000E+00  0.99999998245E-14  0.12509000000E+03  0.12509000000E+03 0.  0.
        -11    1    3    3    0    0 -0.47426106535E+02  0.38093621442E+02 -0.12088569330E+02  0.62020102260E+02  0.51100000000E-03 0. -1.
         23    2    1    0    0    0 -0.19235651948E+02  0.22224607772E+02 -0.80022905826E+01  0.94627233365E+02  0.89589804906E+02 0.  0.
         11    1    3    3    0    0  0.28190454586E+02 -0.15869013670E+02  0.40862787474E+01  0.32607131105E+02  0.51100000000E-03 0.  1.
         22    1    1    0    0    0  0.19235651948E+02 -0.22224607772E+02  0.80022905826E+01  0.30462766635E+02  0.00000000000E+00 0. -1.
</event>
<event>
 5    1  0.1043455E-009  0.9118800E+02  0.7561462E-02  0.1125453E+00
         25   -1    0    0    0    0  0.00000000000E+00  0.00000000000E+00  0.99999998245E-14  0.12509000000E+03  0.12509000000E+03 0.  0.
        -11    1    3    3    0    0  0.24383026503E+02 -0.56082744770E+01 -0.19880412810E+02  0.31956463162E+02  0.51100000000E-03 0. -1.
         23    2    1    0    0    0 -0.17837114182E+02  0.16763425237E+02  0.19436158600E+02  0.93833971315E+02  0.88475278150E+02 0.  0.
         11    1    3    3    0    0 -0.42220140685E+02  0.22371699714E+02  0.39316571410E+02  0.61877508153E+02  0.51100000000E-03 0.  1.
         22    1    1    0    0    0  0.17837114182E+02 -0.16763425237E+02 -0.19436158600E+02  0.31256028685E+02  0.00000000000E+00 0.  1.
</event>
<event>
 5    1  0.1043455E-009  0.9118800E+02  0.7561462E-02  0.1125453E+00
         25   -1    0    0    0    0  0.00000000000E+00  0.00000000000E+00  0.99999998245E-14  0.12509000000E+03  0.12509000000E+03 0.  0.
        -11    1    3    3    0    0 -0.79456932917E+00 -0.53728410358E+02 -0.27430601788E+02  0.60330848948E+02  0.51100000000E-03 0.  1.
         23    2    1    0    0    0 -0.96161864813E+01 -0.24952065412E+02 -0.20952324757E+02  0.91118298196E+02  0.84548611713E+02 0.  0.
         11    1    3    3    0    0 -0.88216171521E+01  0.28776344946E+02  0.64782770310E+01  0.30787449248E+02  0.51100000000E-03 0. -1.
         22    1    1    0    0    0  0.96161864813E+01  0.24952065412E+02  0.20952324757E+02  0.33971701804E+02  0.00000000000E+00 0.  1.
</event>
<event>
 5    1  0.1043455E-009  0.9118800E+02  0.7561462E-02  0.1125453E+00
         25   -1    0    0    0    0  0.00000000000E+00  0.00000000000E+00  0.99999998245E-14  0.12509000000E+03  0.12509000000E+03 0.  0.
        -11    1    3    3    0    0  0.40203142467E+01 -0.16780686387E+01  0.58106010004E+02  0.58269093350E+02  0.51100000000E-03 0.  1.
         23    2    1    0    0    0 -0.11700285278E+02  0.82951320509E+01  0.26843171693E+02  0.94655451246E+02  0.89629195538E+02 0.  0.
         11    1    3    3    0    0 -0.15720599525E+02  0.99732006897E+01 -0.31262838311E+02  0.36386357896E+02  0.51100000000E-03 0. -1.
         22    1    1    0    0    0  0.11700285278E+02 -0.82951320509E+01 -0.26843171693E+02  0.30434548754E+02  0.00000000000E+00 0.  1.
</event>
<event>
 5    1  0.1043455E-009  0.9118800E+02  0.7561462E-02  0.1125453E+00
         25   -1    0    0    0    0  0.00000000000E+00  0.00000000000E+00  0.99999998245E-14  0.12509000000E+03  0.12509000000E+03 0.  0.
        -11    1    3    3    0    0  0.28923858487E+01  0.32339825024E+02 -0.14312853084E+02  0.35483629213E+02  0.51100000000E-03 0. -1.
         23    2    1    0    0    0  0.23420596301E+02 -0.20219009708E+02  0.15932279964E+01  0.94108214059E+02  0.88862167952E+02 0.  0.
         11    1    3    3    0    0  0.20528210452E+02 -0.52558834732E+02  0.15906081080E+02  0.58624584846E+02  0.51100000000E-03 0.  1.
         22    1    1    0    0    0 -0.23420596301E+02  0.20219009708E+02 -0.15932279964E+01  0.30981785941E+02  0.00000000000E+00 0.  1.
</event>
<event>
 5    1  0.1043455E-009  0.9118800E+02  0.7561462E-02  0.1125453E+00
         25   -1    0    0    0    0  0.00000000000E+00  0.00000000000E+00  0.99999998245E-14  0.12509000000E+03  0.12509000000E+03 0.  0.
        -11    1    3    3    0    0 -0.23297322605E+02  0.26833319182E+02  0.26250179947E+02  0.44179907270E+02  0.51100000000E-03 0.  1.
         23    2    1    0    0    0 -0.64664725063E+01 -0.22969377647E+02  0.62788134595E+01  0.10041549748E+03  0.97336740542E+02 0.  0.
         11    1    3    3    0    0  0.16830850098E+02 -0.49802696829E+02 -0.19971366488E+02  0.56235590209E+02  0.51100000000E-03 0. -1.
         22    1    1    0    0    0  0.64664725063E+01  0.22969377647E+02 -0.62788134595E+01  0.24674502521E+02  0.00000000000E+00 0. -1.
</event>
<event>
 5    1  0.1043455E-009  0.9118800E+02  0.7561462E-02  0.1125453E+00
         25   -1    0    0    0    0  0.00000000000E+00  0.00000000000E+00  0.99999998245E-14  0.12509000000E+03  0.12509000000E+03 0.  0.
        -11    1    3    3    0    0 -0.14626321186E+02 -0.53280379516E+02  0.27403951227E+02  0.61674181437E+02  0.51100000000E-03 0.  1.
         23    2    1    0    0    0 -0.88502155670E+00 -0.23825480358E+02  0.17024363392E+02  0.95793827445E+02  0.91204120797E+02 0.  0.
         11    1    3    3    0    0  0.13741299629E+02  0.29454899157E+02 -0.10379587835E+02  0.34119646009E+02  0.51100000000E-03 0. -1.
         22    1    1    0    0    0  0.88502155670E+00  0.23825480358E+02 -0.17024363392E+02  0.29296172555E+02  0.00000000000E+00 0.  1.
</event>
<event>
 5    1  0.1043455E-009  0.9118800E+02  0.7561462E-02  0.1125453E+00
         25   -1    0    0    0    0  0.00000000000E+00  0.00000000000E+00  0.99999998245E-14  0.12509000000E+03  0.12509000000E+03 0.  0.
        -11    1    3    3    0    0  0.13286389144E+02  0.31299207486E+02  0.20996833254E+02  0.39962926979E+02  0.51100000000E-03 0.  1.
         23    2    1    0    0    0 -0.19316440340E+02 -0.13807227531E+02  0.17244658359E+02  0.95744767995E+02  0.91136809012E+02 0.  0.
         11    1    3    3    0    0 -0.32602829484E+02 -0.45106435018E+02 -0.37521748946E+01  0.55781841016E+02  0.51100000000E-03 0. -1.
         22    1    1    0    0    0  0.19316440340E+02  0.13807227531E+02 -0.17244658359E+02  0.29345232005E+02  0.00000000000E+00 0. -1.
</event>
<event>
 5    1  0.1043455E-009  0.9118800E+02  0.7561462E-02  0.1125453E+00
         25   -1    0    0    0    0  0.00000000000E+00  0.00000000000E+00  0.99999998245E-14  0.12509000000E+03  0.12509000000E+03 0.  0.
        -11    1    3    3    0    0 -0.60573029510E+01  0.26530538182E+02 -0.20321102067E+02  0.33963326762E+02  0.51100000000E-03 0.  1.
         23    2    1    0    0    0 -0.83637940072E+01 -0.24935778935E+02  0.13435857131E+02  0.95555810014E+02  0.90877084291E+02 0.  0.
         11    1    3    3    0    0 -0.23064910563E+01 -0.51466317117E+02  0.33756959198E+02  0.61592483252E+02  0.51100000000E-03 0. -1.
         22    1    1    0    0    0  0.83637940072E+01  0.24935778935E+02 -0.13435857131E+02  0.29534189986E+02  0.00000000000E+00 0. -1.
</event>
<event>
 5    1  0.1043455E-009  0.9118800E+02  0.7561462E-02  0.1125453E+00
         25   -1    0    0    0    0  0.00000000000E+00  0.00000000000E+00  0.99999998245E-14  0.12509000000E+03  0.12509000000E+03 0.  0.
        -11    1    3    3    0    0  0.42499782958E+02  0.23086566835E+02  0.25055599307E+02  0.54470213664E+02  0.51100000000E-03 0.  1.
         23    2    1    0    0    0  0.27845405925E+02 -0.66250647550E+01 -0.74015780156E+00  0.96457746374E+02  0.92110210551E+02 0.  0.
         11    1    3    3    0    0 -0.14654377033E+02 -0.29711631590E+02 -0.25795757108E+02  0.41987532709E+02  0.51100000000E-03 0. -1.
         22    1    1    0    0    0 -0.27845405925E+02  0.66250647550E+01  0.74015780156E+00  0.28632253626E+02  0.00000000000E+00 0.  1.
</event>
<event>
 5    1  0.1043455E-009  0.9118800E+02  0.7561462E-02  0.1125453E+00
         25   -1    0    0    0    0  0.00000000000E+00  0.00000000000E+00  0.99999998245E-14  0.12509000000E+03  0.12509000000E+03 0.  0.
        -11    1    3    3    0    0  0.36559953076E+02 -0.33730975597E+02 -0.12780758288E+02  0.51359095264E+02  0.51100000000E-03 0. -1.
         23    2    1    0    0    0  0.17126222022E+02  0.14749981964E+01 -0.26201543927E+02  0.93753056873E+02  0.88360803914E+02 0.  0.
         11    1    3    3    0    0 -0.19433731054E+02  0.35205973794E+02 -0.13420785639E+02  0.42393961609E+02  0.51100000000E-03 0.  1.
         22    1    1    0    0    0 -0.17126222022E+02 -0.14749981964E+01  0.26201543927E+02  0.31336943127E+02  0.00000000000E+00 0. -1.
</event>
<event>
 5    1  0.1043455E-009  0.9118800E+02  0.7561462E-02  0.1125453E+00
         25   -1    0    0    0    0  0.00000000000E+00  0.00000000000E+00  0.99999998245E-14  0.12509000000E+03  0.12509000000E+03 0.  0.
        -11    1    3    3    0    0  0.63431448381E+01  0.39728080846E+02  0.13716340278E+02  0.42505221855E+02  0.51100000000E-03 0. -1.
         23    2    1    0    0    0  0.14596590302E+02 -0.11540338892E+02  0.23259507474E+02  0.95303349330E+02  0.90528911600E+02 0.  0.
         11    1    3    3    0    0  0.82534454636E+01 -0.51268419738E+02  0.95431671963E+01  0.52798127475E+02  0.51100000000E-03 0.  1.
         22    1    1    0    0    0 -0.14596590302E+02  0.11540338892E+02 -0.23259507474E+02  0.29786650670E+02  0.00000000000E+00 0.  1.
</event>
<event>
 5    1  0.1043455E-009  0.9118800E+02  0.7561462E-02  0.1125453E+00
         25   -1    0    0    0    0  0.00000000000E+00  0.00000000000E+00  0.99999998245E-14  0.12509000000E+03  0.12509000000E+03 0.  0.
        -11    1    3    3    0    0  0.21437915052E+01  0.31269330066E+02 -0.13814127603E+02  0.34251962958E+02  0.51100000000E-03 0. -1.
         23    2    1    0    0    0  0.12106807398E+02 -0.27517892581E+02 -0.26878895740E+01  0.94906661088E+02  0.89979110748E+02 0.  0.
         11    1    3    3    0    0  0.99630158929E+01 -0.58787222648E+02  0.11126238029E+02  0.60654698130E+02  0.51100000000E-03 0.  1.
         22    1    1    0    0    0 -0.12106807398E+02  0.27517892581E+02  0.26878895740E+01  0.30183338912E+02  0.00000000000E+00 0.  1.
</event>
<event>
 5    1  0.1043455E-009  0.9118800E+02  0.7561462E-02  0.1125453E+00
         25   -1    0    0    0    0  0.00000000000E+00  0.00000000000E+00  0.99999998245E-14  0.12509000000E+03  0.12509000000E+03 0.  0.
        -11    1    3    3    0    0  0.56993210663E+02  0.47193754953E+01  0.18784360059E+02  0.60194275059E+02  0.51100000000E-03 0.  1.
         23    2    1    0    0    0  0.27245612062E+02  0.81770467907E+01 -0.18833696450E+01  0.96581500354E+02  0.92278121234E+02 0.  0.
         11    1    3    3    0    0 -0.29747598601E+02  0.34576712953E+01 -0.20667729704E+02  0.36387225295E+02  0.51100000000E-03 0. -1.
         22    1    1    0    0    0 -0.27245612062E+02 -0.81770467907E+01  0.18833696450E+01  0.28508499646E+02  0.00000000000E+00 0.  1.
</event>
<event>
 5    1  0.1043455E-009  0.9118800E+02  0.7561462E-02  0.1125453E+00
         25   -1    0    0    0    0  0.00000000000E+00  0.00000000000E+00  0.99999998245E-14  0.12509000000E+03  0.12509000000E+03 0.  0.
        -11    1    3    3    0    0 -0.42912563639E+00  0.51070736646E+02 -0.14946298740E+02  0.53214623334E+02  0.51100000000E-03 0. -1.
         23    2    1    0    0    0 -0.21269050827E+02  0.13404966972E+02 -0.14090433039E+02  0.96269764647E+02  0.91854567765E+02 0.  0.
         11    1    3    3    0    0 -0.20839925190E+02 -0.37665769674E+02  0.85586570069E+00  0.43055141313E+02  0.51100000000E-03 0.  1.
         22    1    1    0    0    0  0.21269050827E+02 -0.13404966972E+02  0.14090433039E+02  0.28820235353E+02  0.00000000000E+00 0.  1.
</event>
<event>
 5    1  0.1043455E-009  0.9118800E+02  0.7561462E-02  0.1125453E+00
         25   -1    0    0    0    0  0.00000000000E+00  0.00000000000E+00  0.99999998245E-14  0.12509000000E+03  0.12509000000E+03 0.  0.
        -11    1    3    3    0    0  0.21864931356E+02 -0.23517831256E+02  0.27956273191E+02  0.42576012274E+02  0.51100000000E-03 0. -1.
         23    2    1    0    0    0 -0.18254009951E+02  0.11546616022E+02  0.18414730698E+02  0.96706280590E+02  0.92447115574E+02 0.  0.
         11    1    3    3    0    0 -0.40118941307E+02  0.35064447278E+02 -0.95415424932E+01  0.54130268316E+02  0.51100000000E-03 0.  1.
         22    1    1    0    0    0  0.18254009951E+02 -0.11546616022E+02 -0.18414730698E+02  0.28383719410E+02  0.00000000000E+00 0. -1.
</event>
<event>
 5    1  0.1043455E-009  0.9118800E+02  0.7561462E-02  0.1125453E+00
         25   -1    0    0    0    0  0.00000000000E+00  0.00000000000E+00  0.99999998245E-14  0.12509000000E+03  0.12509000000E+03 0.  0.
        -11    1    3    3    0    0  0.35817808112E+02 -0.13325746688E+02 -0.29998727197E+02  0.48584097568E+02  0.51100000000E-03 0. -1.
         23    2    1    0    0    0 -0.13501967986E+02 -0.15414955191E+02 -0.46462404316E+01  0.10407782417E+03  0.10193469454E+03 0.  0.
         11    1    3    3    0    0 -0.49319776098E+02 -0.20892085023E+01  0.25352486765E+02  0.55493726601E+02  0.51100000000E-03 0.  1.
         22    1    1    0    0    0  0.13501967986E+02  0.15414955191E+02  0.46462404316E+01  0.21012175832E+02  0.00000000000E+00 0.  1.
</event>
<event>
 5    1  0.1043455E-009  0.9118800E+02  0.7561462E-02  0.1125453E+00
         25   -1    0    0    0    0  0.00000000000E+00  0.00000000000E+00  0.99999998245E-14  0.12509000000E+03  0.12509000000E+03 0.  0.
        -11    1    3    3    0    0 -0.12249886747E+02 -0.21862428461E+02  0.25142571980E+02  0.35498935611E+02  0.51100000000E-03 0.  1.
         23    2    1    0    0    0  0.51094202860E+01  0.68295515758E+01 -0.26598747284E+02  0.97157182250E+02  0.93055229596E+02 0.  0.
         11    1    3    3    0    0  0.17359307033E+02  0.28691980037E+02 -0.51741319264E+02  0.61658246638E+02  0.51100000000E-03 0. -1.
         22    1    1    0    0    0 -0.51094202860E+01 -0.68295515758E+01  0.26598747284E+02  0.27932817750E+02  0.00000000000E+00 0. -1.
</event>
<event>
 5    1  0.1043455E-009  0.9118800E+02  0.7561462E-02  0.1125453E+00
         25   -1    0    0    0    0  0.00000000000E+00  0.00000000000E+00  0.99999998245E-14  0.12509000000E+03  0.12509000000E+03 0.  0.
        -11    1    3    3    0    0 -0.31155211774E+02  0.46229144195E+02 -0.28265416604E+02  0.62503718047E+02  0.51100000000E-03 0.  1.
         23    2    1    0    0    0 -0.14668420887E+02  0.22237578553E+02 -0.11733666373E+02  0.95980699119E+02  0.91460063446E+02 0.  0.
         11    1    3    3    0    0  0.16486790888E+02 -0.23991565642E+02  0.16531750230E+02  0.33476981072E+02  0.51100000000E-03 0. -1.
         22    1    1    0    0    0  0.14668420887E+02 -0.22237578553E+02  0.11733666373E+02  0.29109300881E+02  0.00000000000E+00 0.  1.
</event>
<event>
 5    1  0.1043455E-009  0.9118800E+02  0.7561462E-02  0.1125453E+00
         25   -1    0    0    0    0  0.00000000000E+00  0.00000000000E+00  0.99999998245E-14  0.12509000000E+03  0.12509000000E+03 0.  0.
        -11    1    3    3    0    0  0.15573290630E+01  0.88277171085E+01 -0.38558239738E+02  0.39586509257E+02  0.51100000000E-03 0.  1.
         23    2    1    0    0    0 -0.13674335188E+02 -0.26297542373E+02  0.20271750634E+01  0.95380445705E+02  0.90635378338E+02 0.  0.
         11    1    3    3    0    0 -0.15231664251E+02 -0.35125259481E+02  0.40585414802E+02  0.55793936448E+02  0.51100000000E-03 0. -1.
         22    1    1    0    0    0  0.13674335188E+02  0.26297542373E+02 -0.20271750634E+01  0.29709554295E+02  0.00000000000E+00 0. -1.
</event>
<event>
 5    1  0.1043455E-009  0.9118800E+02  0.7561462E-02  0.1125453E+00
         25   -1    0    0    0    0  0.00000000000E+00  0.00000000000E+00  0.99999998245E-14  0.12509000000E+03  0.12509000000E+03 0.  0.
        -11    1    3    3    0    0 -0.55301318750E+02  0.47648603488E+01 -0.63556096633E+01  0.55868895856E+02  0.51100000000E-03 0.  1.
         23    2    1    0    0    0 -0.25506060524E+02  0.29310488806E+01 -0.23492642166E+02  0.90289793004E+02  0.83313818264E+02 0.  0.
         11    1    3    3    0    0  0.29795258226E+02 -0.18338114683E+01 -0.17137032503E+02  0.34420897148E+02  0.51100000000E-03 0. -1.
         22    1    1    0    0    0  0.25506060524E+02 -0.29310488806E+01  0.23492642166E+02  0.34800206996E+02  0.00000000000E+00 0.  1.
</event>
<event>
 5    1  0.1043455E-009  0.9118800E+02  0.7561462E-02  0.1125453E+00
         25   -1    0    0    0    0  0.00000000000E+00  0.00000000000E+00  0.99999998245E-14  0.12509000000E+03  0.12509000000E+03 0.  0.
        -11    1    3    3    0    0  0.23136584321E+01 -0.29362867830E+02 -0.31130084543E+02  0.42855725247E+02  0.51100000000E-03 0. -1.
         23    2    1    0    0    0  0.29093394917E+02 -0.13547431643E+01  0.46469981581E+01  0.95596686372E+02  0.90933332154E+02 0.  0.
         11    1    3    3    0    0  0.26779736485E+02  0.28008124666E+02  0.35777082701E+02  0.52740961125E+02  0.51100000000E-03 0.  1.
         22    1    1    0    0    0 -0.29093394917E+02  0.13547431643E+01 -0.46469981581E+01  0.29493313628E+02  0.00000000000E+00 0.  1.
</event>
<event>
 5    1  0.1043455E-009  0.9118800E+02  0.7561462E-02  0.1125453E+00
         25   -1    0    0    0    0  0.00000000000E+00  0.00000000000E+00  0.99999998245E-14  0.12509000000E+03  0.12509000000E+03 0.  0.
        -11    1    3    3    0    0 -0.25663107409E+02  0.30495401455E+02  0.40966830047E+01  0.40066786790E+02  0.51100000000E-03 0. -1.
         23    2    1    0    0    0 -0.12103567557E+02 -0.21463756288E+02 -0.14019670160E+02  0.96739685486E+02  0.92492304626E+02 0.  0.
         11    1    3    3    0    0  0.13559539851E+02 -0.51959157743E+02 -0.18116353165E+02  0.56672898696E+02  0.51100000000E-03 0.  1.
         22    1    1    0    0    0  0.12103567557E+02  0.21463756288E+02  0.14019670160E+02  0.28350314514E+02  0.00000000000E+00 0.  1.
</event>
<event>
 5    1  0.1043455E-009  0.9118800E+02  0.7561462E-02  0.1125453E+00
         25   -1    0    0    0    0  0.00000000000E+00  0.00000000000E+00  0.99999998245E-14  0.12509000000E+03  0.12509000000E+03 0.  0.
        -11    1    3    3    0    0  0.57907653919E+02  0.20514399410E-01 -0.39642858657E+01  0.58043193967E+02  0.51100000000E-03 0. -1.
         23    2    1    0    0    0  0.28860248910E+02  0.85492998490E+01  0.12492452175E+02  0.92500648113E+02  0.86569648520E+02 0.  0.
         11    1    3    3    0    0 -0.29047405009E+02  0.85287854496E+01  0.16456738041E+02  0.34457454146E+02  0.51100000000E-03 0.  1.
         22    1    1    0    0    0 -0.28860248910E+02 -0.85492998490E+01 -0.12492452175E+02  0.32589351887E+02  0.00000000000E+00 0. -1.
</event>
<event>
 5    1  0.1043455E-009  0.9118800E+02  0.7561462E-02  0.1125453E+00
         25   -1    0    0    0    0  0.00000000000E+00  0.00000000000E+00  0.99999998245E-14  0.12509000000E+03  0.12509000000E+03 0.  0.
        -11    1    3    3    0    0 -0.12208840075E+02  0.52346434748E+01  0.44440083033E+02  0.46382952132E+02  0.51100000000E-03 0. -1.
         23    2    1    0    0    0 -0.58924535226E+01  0.24244888313E+02 -0.49251966993E+01  0.99657871101E+02  0.96358176052E+02 0.  0.
         11    1    3    3    0    0  0.63163865526E+01  0.19010244838E+02 -0.49365279732E+02  0.53274918969E+02  0.51100000000E-03 0.  1.
         22    1    1    0    0    0  0.58924535226E+01 -0.24244888313E+02  0.49251966993E+01  0.25432128899E+02  0.00000000000E+00 0.  1.
</event>
<event>
 5    1  0.1043455E-009  0.9118800E+02  0.7561462E-02  0.1125453E+00
         25   -1    0    0    0    0  0.00000000000E+00  0.00000000000E+00  0.99999998245E-14  0.12509000000E+03  0.12509000000E+03 0.  0.
        -11    1    3    3    0    0  0.50709053643E+01  0.33794898094E+02  0.39971851383E+02  0.52588574060E+02  0.51100000000E-03 0.  1.
         23    2    1    0    0    0 -0.23999035458E+01 -0.57708195757E+01  0.30504953343E+02  0.93951373279E+02  0.88641110479E+02 0.  0.
         11    1    3    3    0    0 -0.74708089100E+01 -0.39565717670E+02 -0.94668980401E+01  0.41362799219E+02  0.51100000000E-03 0. -1.
         22    1    1    0    0    0  0.23999035458E+01  0.57708195757E+01 -0.30504953343E+02  0.31138626721E+02  0.00000000000E+00 0.  1.
</event>
<event>
 5    1  0.1043455E-009  0.9118800E+02  0.7561462E-02  0.1125453E+00
         25   -1    0    0    0    0  0.00000000000E+00  0.00000000000E+00  0.99999998245E-14  0.12509000000E+03  0.12509000000E+03 0.  0.
        -11    1    3    3    0    0 -0.26790449226E+02 -0.20331530297E+02  0.38359325407E+02  0.51015067772E+02  0.51100000000E-03 0.  1.
         23    2    1    0    0    0 -0.28230663569E+02 -0.62677661979E+00 -0.28430995969E+01  0.96709611881E+02  0.92451623027E+02 0.  0.
         11    1    3    3    0    0 -0.14402143436E+01  0.19704753677E+02 -0.41202425003E+02  0.45694544108E+02  0.51100000000E-03 0. -1.
         22    1    1    0    0    0  0.28230663569E+02  0.62677661979E+00  0.28430995969E+01  0.28380388119E+02  0.00000000000E+00 0. -1.
</event>
<event>
 5    1  0.1043455E-009  0.9118800E+02  0.7561462E-02  0.1125453E+00
         25   -1    0    0    0    0  0.00000000000E+00  0.00000000000E+00  0.99999998245E-14  0.12509000000E+03  0.12509000000E+03 0.  0.
        -11    1    3    3    0    0 -0.69837868961E+01 -0.27784686826E+02 -0.28152007550E+02  0.40165876448E+02  0.51100000000E-03 0.  1.
         23    2    1    0    0    0  0.11864316369E+02 -0.39309882474E+01  0.22563834704E+02  0.99295789254E+02  0.95886977507E+02 0.  0.
         11    1    3    3    0    0  0.18848103265E+02  0.23853698579E+02  0.50715842254E+02  0.59129912806E+02  0.51100000000E-03 0. -1.
         22    1    1    0    0    0 -0.11864316369E+02  0.39309882474E+01 -0.22563834704E+02  0.25794210746E+02  0.00000000000E+00 0.  1.
</event>
<event>
 5    1  0.1043455E-009  0.9118800E+02  0.7561462E-02  0.1125453E+00
         25   -1    0    0    0    0  0.00000000000E+00  0.00000000000E+00  0.99999998245E-14  0.12509000000E+03  0.12509000000E+03 0.  0.
        -11    1    3    3    0    0  0.11109815586E+02 -0.32110997716E+02 -0.33105918051E+02  0.47439919761E+02  0.51100000000E-03 0.  1.
         23    2    1    0    0    0  0.38094950273E+01 -0.22648045460E+02  0.15427431984E+02  0.97423199080E+02  0.93412139713E+02 0.  0.
         11    1    3    3    0    0 -0.73003205582E+01  0.94629522555E+01  0.48533350035E+02  0.49983279319E+02  0.51100000000E-03 0. -1.
         22    1    1    0    0    0 -0.38094950273E+01  0.22648045460E+02 -0.15427431984E+02  0.27666800920E+02  0.00000000000E+00 0. -1.
</event>
<event>
 5    1  0.1043455E-009  0.9118800E+02  0.7561462E-02  0.1125453E+00
         25   -1    0    0    0    0  0.00000000000E+00  0.00000000000E+00  0.99999998245E-14  0.12509000000E+03  0.12509000000E+03 0.  0.
        -11    1    3    3    0    0  0.31850972904E+02  0.30087430100E+02  0.33914383600E+00  0.43816126526E+02  0.51100000000E-03 0.  1.
         23    2    1    0    0    0  0.13990333445E+02 -0.21736531173E+02 -0.45263733739E+01  0.98847014779E+02  0.95299727479E+02 0.  0.
         11    1    3    3    0    0 -0.17860639459E+02 -0.51823961274E+02 -0.48655172099E+01  0.55030888253E+02  0.51100000000E-03 0. -1.
         22    1    1    0    0    0 -0.13990333445E+02  0.21736531173E+02  0.45263733739E+01  0.26242985221E+02  0.00000000000E+00 0. -1.
</event>
<event>
 5    1  0.1043455E-009  0.9118800E+02  0.7561462E-02  0.1125453E+00
         25   -1    0    0    0    0  0.00000000000E+00  0.00000000000E+00  0.99999998245E-14  0.12509000000E+03  0.12509000000E+03 0.  0.
        -11    1    3    3    0    0 -0.18359935085E+02 -0.27037833131E+01 -0.37157158430E+02  0.41533746321E+02  0.51100000000E-03 0.  1.
         23    2    1    0    0    0  0.24714562496E+02 -0.13836310695E+02 -0.52472399041E+01  0.96283982927E+02  0.91873928557E+02 0.  0.
         11    1    3    3    0    0  0.43074497582E+02 -0.11132527382E+02  0.31909918526E+02  0.54750236606E+02  0.51100000000E-03 0. -1.
         22    1    1    0    0    0 -0.24714562496E+02  0.13836310695E+02  0.52472399041E+01  0.28806017073E+02  0.00000000000E+00 0. -1.
</event>
<event>
 5    1  0.1043455E-009  0.9118800E+02  0.7561462E-02  0.1125453E+00
         25   -1    0    0    0    0  0.00000000000E+00  0.00000000000E+00  0.99999998245E-14  0.12509000000E+03  0.12509000000E+03 0.  0.
        -11    1    3    3    0    0  0.22937158312E+02  0.39306074553E+02  0.36896958138E+02  0.58587253292E+02  0.51100000000E-03 0.  1.
         23    2    1    0    0    0  0.42338861734E+01  0.27605011955E+02  0.60454803818E+01  0.96515355467E+02  0.92188413213E+02 0.  0.
         11    1    3    3    0    0 -0.18703272138E+02 -0.11701062598E+02 -0.30851477756E+02  0.37928102175E+02  0.51100000000E-03 0. -1.
         22    1    1    0    0    0 -0.42338861734E+01 -0.27605011955E+02 -0.60454803818E+01  0.28574644533E+02  0.00000000000E+00 0.  1.
</event>
<event>
 5    1  0.1043455E-009  0.9118800E+02  0.7561462E-02  0.1125453E+00
         25   -1    0    0    0    0  0.00000000000E+00  0.00000000000E+00  0.99999998245E-14  0.12509000000E+03  0.12509000000E+03 0.  0.
        -11    1    3    3    0    0 -0.31670484564E+02  0.11336222662E+02 -0.27102952542E+02  0.43198374663E+02  0.51100000000E-03 0.  1.
         23    2    1    0    0    0 -0.11653775142E+02  0.19881056923E+02  0.19673104028E+02  0.94789869283E+02  0.89816598673E+02 0.  0.
         11    1    3    3    0    0  0.20016709423E+02  0.85448342606E+01  0.46776056569E+02  0.51591494620E+02  0.51100000000E-03 0. -1.
         22    1    1    0    0    0  0.11653775142E+02 -0.19881056923E+02 -0.19673104028E+02  0.30300130717E+02  0.00000000000E+00 0.  1.
</event>
<event>
 5    1  0.1043455E-009  0.9118800E+02  0.7561462E-02  0.1125453E+00
         25   -1    0    0    0    0  0.00000000000E+00  0.00000000000E+00  0.99999998245E-14  0.12509000000E+03  0.12509000000E+03 0.  0.
        -11    1    3    3    0    0 -0.50397793886E+02 -0.10208397795E+02 -0.26128552385E+02  0.57678854566E+02  0.51100000000E-03 0.  1.
         23    2    1    0    0    0 -0.31896423618E+02 -0.23189135890E+02 -0.14706773005E+02  0.83001913382E+02  0.71539573593E+02 0.  0.
         11    1    3    3    0    0  0.18501370269E+02 -0.12980738096E+02  0.11421779380E+02  0.25323058816E+02  0.51100000000E-03 0. -1.
         22    1    1    0    0    0  0.31896423618E+02  0.23189135890E+02  0.14706773005E+02  0.42088086618E+02  0.00000000000E+00 0.  1.
</event>
<event>
 5    1  0.1043455E-009  0.9118800E+02  0.7561462E-02  0.1125453E+00
         25   -1    0    0    0    0  0.00000000000E+00  0.00000000000E+00  0.99999998245E-14  0.12509000000E+03  0.12509000000E+03 0.  0.
        -11    1    3    3    0    0 -0.20738821031E+01 -0.45374512269E+02 -0.23521480160E+02  0.51150829708E+02  0.51100000000E-03 0.  1.
         23    2    1    0    0    0  0.31169705490E+01 -0.83377876657E+00 -0.28626107893E+02  0.96282626889E+02  0.91872082240E+02 0.  0.
         11    1    3    3    0    0  0.51908526522E+01  0.44540733503E+02 -0.51046277335E+01  0.45131797181E+02  0.51100000000E-03 0. -1.
         22    1    1    0    0    0 -0.31169705490E+01  0.83377876657E+00  0.28626107893E+02  0.28807373111E+02  0.00000000000E+00 0.  1.
</event>
<event>
 5    1  0.1043455E-009  0.9118800E+02  0.7561462E-02  0.1125453E+00
         25   -1    0    0    0    0  0.00000000000E+00  0.00000000000E+00  0.99999998245E-14  0.12509000000E+03  0.12509000000E+03 0.  0.
        -11    1    3    3    0    0 -0.89798683058E+01 -0.26423303895E+02 -0.11562773824E+02  0.30208057903E+02  0.51100000000E-03 0. -1.
         23    2    1    0    0    0  0.12479032127E+02  0.29954244422E+02  0.36935074875E+01  0.92430774669E+02  0.86468624984E+02 0.  0.
         11    1    3    3    0    0  0.21458900433E+02  0.56377548316E+02  0.15256281312E+02  0.62222716765E+02  0.51100000000E-03 0.  1.
         22    1    1    0    0    0 -0.12479032127E+02 -0.29954244422E+02 -0.36935074875E+01  0.32659225331E+02  0.00000000000E+00 0.  1.
</event>
<event>
 5    1  0.1043455E-009  0.9118800E+02  0.7561462E-02  0.1125453E+00
         25   -1    0    0    0    0  0.00000000000E+00  0.00000000000E+00  0.99999998245E-14  0.12509000000E+03  0.12509000000E+03 0.  0.
        -11    1    3    3    0    0 -0.24365028315E+02 -0.18848946728E+02 -0.28150041351E+02  0.41729632468E+02  0.51100000000E-03 0.  1.
         23    2    1    0    0    0  0.10043774528E+02 -0.23225362385E+02  0.13884052840E+02  0.96227190228E+02  0.91796570476E+02 0.  0.
         11    1    3    3    0    0  0.34408802843E+02 -0.43764156563E+01  0.42034094191E+02  0.54497557760E+02  0.51100000000E-03 0. -1.
         22    1    1    0    0    0 -0.10043774528E+02  0.23225362385E+02 -0.13884052840E+02  0.28862809772E+02  0.00000000000E+00 0. -1.
</event>
<event>
 5    1  0.1043455E-009  0.9118800E+02  0.7561462E-02  0.1125453E+00
         25   -1    0    0    0    0  0.00000000000E+00  0.00000000000E+00  0.99999998245E-14  0.12509000000E+03  0.12509000000E+03 0.  0.
        -11    1    3    3    0    0  0.46224736532E+02  0.37978981920E+02  0.10081694970E+01  0.59834319091E+02  0.51100000000E-03 0.  1.
         23    2    1    0    0    0  0.29198104424E+02  0.72774665135E+01  0.17347500290E+01  0.94948663293E+02  0.90037483765E+02 0.  0.
         11    1    3    3    0    0 -0.17026632108E+02 -0.30701515406E+02  0.72658053197E+00  0.35114344202E+02  0.51100000000E-03 0. -1.
         22    1    1    0    0    0 -0.29198104424E+02 -0.72774665135E+01 -0.17347500290E+01  0.30141336707E+02  0.00000000000E+00 0.  1.
</event>
<event>
 5    1  0.1043455E-009  0.9118800E+02  0.7561462E-02  0.1125453E+00
         25   -1    0    0    0    0  0.00000000000E+00  0.00000000000E+00  0.99999998245E-14  0.12509000000E+03  0.12509000000E+03 0.  0.
        -11    1    3    3    0    0 -0.20190316173E+02 -0.22871498580E+02 -0.16008700731E+02  0.34453342564E+02  0.51100000000E-03 0.  1.
         23    2    1    0    0    0  0.14785323051E+02 -0.12265989719E+01  0.27198756210E+02  0.94108026820E+02  0.88861904379E+02 0.  0.
         11    1    3    3    0    0  0.34975639224E+02  0.21644899608E+02  0.43207456940E+02  0.59654684256E+02  0.51100000000E-03 0. -1.
         22    1    1    0    0    0 -0.14785323051E+02  0.12265989719E+01 -0.27198756210E+02  0.30981973180E+02  0.00000000000E+00 0. -1.
</event>
<event>
 5    1  0.1043455E-009  0.9118800E+02  0.7561462E-02  0.1125453E+00
         25   -1    0    0    0    0  0.00000000000E+00  0.00000000000E+00  0.99999998245E-14  0.12509000000E+03  0.12509000000E+03 0.  0.
        -11    1    3    3    0    0  0.14801505340E+02  0.44239770943E+02 -0.21091874833E+02  0.51196768235E+02  0.51100000000E-03 0.  1.
         23    2    1    0    0    0  0.24911468674E+02  0.11044827051E+02  0.82272037710E+01  0.96624997664E+02  0.92337066315E+02 0.  0.
         11    1    3    3    0    0  0.10109963334E+02 -0.33194943893E+02  0.29319078604E+02  0.45428229430E+02  0.51100000000E-03 0. -1.
         22    1    1    0    0    0 -0.24911468674E+02 -0.11044827051E+02 -0.82272037710E+01  0.28465002336E+02  0.00000000000E+00 0.  1.
</event>
<event>
 5    1  0.1043455E-009  0.9118800E+02  0.7561462E-02  0.1125453E+00
         25   -1    0    0    0    0  0.00000000000E+00  0.00000000000E+00  0.99999998245E-14  0.12509000000E+03  0.12509000000E+03 0.  0.
        -11    1    3    3    0    0 -0.11144058189E+02 -0.22281444715E+02 -0.48691447572E+02  0.54694696986E+02  0.51100000000E-03 0. -1.
         23    2    1    0    0    0 -0.13746960176E+02 -0.24522897051E+02 -0.75481515544E+01  0.95981135616E+02  0.91460660441E+02 0.  0.
         11    1    3    3    0    0 -0.26029019869E+01 -0.22414523364E+01  0.41143296017E+02  0.41286438630E+02  0.51100000000E-03 0.  1.
         22    1    1    0    0    0  0.13746960176E+02  0.24522897051E+02  0.75481515544E+01  0.29108864384E+02  0.00000000000E+00 0. -1.
</event>
<event>
 5    1  0.1043455E-009  0.9118800E+02  0.7561462E-02  0.1125453E+00
         25   -1    0    0    0    0  0.00000000000E+00  0.00000000000E+00  0.99999998245E-14  0.12509000000E+03  0.12509000000E+03 0.  0.
        -11    1    3    3    0    0 -0.14383160604E+02 -0.53728677375E+02  0.14493527302E+01  0.55639434801E+02  0.51100000000E-03 0.  1.
         23    2    1    0    0    0  0.62771446252E+01 -0.21281892679E+02 -0.15855485923E+02  0.97818807608E+02  0.93940412961E+02 0.  0.
         11    1    3    3    0    0  0.20660305230E+02  0.32446784696E+02 -0.17304838653E+02  0.42179372807E+02  0.51100000000E-03 0. -1.
         22    1    1    0    0    0 -0.62771446252E+01  0.21281892679E+02  0.15855485923E+02  0.27271192392E+02  0.00000000000E+00 0.  1.
</event>
<event>
 5    1  0.1043455E-009  0.9118800E+02  0.7561462E-02  0.1125453E+00
         25   -1    0    0    0    0  0.00000000000E+00  0.00000000000E+00  0.99999998245E-14  0.12509000000E+03  0.12509000000E+03 0.  0.
        -11    1    3    3    0    0 -0.21174989189E+02 -0.15649785348E+02  0.82245448467E+01  0.27585124376E+02  0.51100000000E-03 0.  1.
         23    2    1    0    0    0  0.18555672243E+02  0.25174795189E+02  0.22800439031E+02  0.86386727461E+02  0.77231621608E+02 0.  0.
         11    1    3    3    0    0  0.39730661432E+02  0.40824580537E+02  0.14575894184E+02  0.58801603086E+02  0.51100000000E-03 0. -1.
         22    1    1    0    0    0 -0.18555672243E+02 -0.25174795189E+02 -0.22800439031E+02  0.38703272539E+02  0.00000000000E+00 0. -1.
</event>
<event>
 5    1  0.1043455E-009  0.9118800E+02  0.7561462E-02  0.1125453E+00
         25   -1    0    0    0    0  0.00000000000E+00  0.00000000000E+00  0.99999998245E-14  0.12509000000E+03  0.12509000000E+03 0.  0.
        -11    1    3    3    0    0 -0.30223622917E+02  0.18300242479E+02 -0.11321658775E+02  0.37101835732E+02  0.51100000000E-03 0.  1.
         23    2    1    0    0    0  0.25631824500E+02 -0.48721129401E+01 -0.85398877898E+01  0.97637175097E+02  0.93698240996E+02 0.  0.
         11    1    3    3    0    0  0.55855447418E+02 -0.23172355419E+02  0.27817709851E+01  0.60535339364E+02  0.51100000000E-03 0. -1.
         22    1    1    0    0    0 -0.25631824500E+02  0.48721129401E+01  0.85398877898E+01  0.27452824903E+02  0.00000000000E+00 0. -1.
</event>
<event>
 5    1  0.1043455E-009  0.9118800E+02  0.7561462E-02  0.1125453E+00
         25   -1    0    0    0    0  0.00000000000E+00  0.00000000000E+00  0.99999998245E-14  0.12509000000E+03  0.12509000000E+03 0.  0.
        -11    1    3    3    0    0 -0.16027000589E+02 -0.42295184029E+02 -0.14722091057E+02  0.47565610532E+02  0.51100000000E-03 0.  1.
         23    2    1    0    0    0  0.98970287988E+01  0.31708187818E+01 -0.22336562670E+02  0.10045410540E+03  0.97386343957E+02 0.  0.
         11    1    3    3    0    0  0.25924029388E+02  0.45466002811E+02 -0.76144716129E+01  0.52888494869E+02  0.51100000000E-03 0. -1.
         22    1    1    0    0    0 -0.98970287988E+01 -0.31708187818E+01  0.22336562670E+02  0.24635894599E+02  0.00000000000E+00 0. -1.
</event>
<event>
 5    1  0.1043455E-009  0.9118800E+02  0.7561462E-02  0.1125453E+00
         25   -1    0    0    0    0  0.00000000000E+00  0.00000000000E+00  0.99999998245E-14  0.12509000000E+03  0.12509000000E+03 0.  0.
        -11    1    3    3    0    0  0.39384785084E+02 -0.10712411841E+02  0.15344013954E+02  0.43604539076E+02  0.51100000000E-03 0.  1.
         23    2    1    0    0    0 -0.14106157544E+02 -0.14418473937E+02  0.19041372398E+02  0.97351039419E+02  0.93315459287E+02 0.  0.
         11    1    3    3    0    0 -0.53490942628E+02 -0.37060620955E+01  0.36973584443E+01  0.53746500343E+02  0.51100000000E-03 0. -1.
         22    1    1    0    0    0  0.14106157544E+02  0.14418473937E+02 -0.19041372398E+02  0.27738960581E+02  0.00000000000E+00 0. -1.
</event>
<event>
 5    1  0.1043455E-009  0.9118800E+02  0.7561462E-02  0.1125453E+00
         25   -1    0    0    0    0  0.00000000000E+00  0.00000000000E+00  0.99999998245E-14  0.12509000000E+03  0.12509000000E+03 0.  0.
        -11    1    3    3    0    0  0.50936628017E+01  0.43807505916E+01  0.38765372296E+02  0.39343239140E+02  0.51100000000E-03 0.  1.
         23    2    1    0    0    0 -0.21722120111E+01 -0.28749503924E+02 -0.61335977934E+01  0.95613339694E+02  0.90956237965E+02 0.  0.
         11    1    3    3    0    0 -0.72658748128E+01 -0.33130254515E+02 -0.44898970090E+02  0.56270100555E+02  0.51100000000E-03 0. -1.
         22    1    1    0    0    0  0.21722120111E+01  0.28749503924E+02  0.61335977934E+01  0.29476660306E+02  0.00000000000E+00 0. -1.
</event>
<event>
 5    1  0.1043455E-009  0.9118800E+02  0.7561462E-02  0.1125453E+00
         25   -1    0    0    0    0  0.00000000000E+00  0.00000000000E+00  0.99999998245E-14  0.12509000000E+03  0.12509000000E+03 0.  0.
        -11    1    3    3    0    0 -0.29979847526E+02 -0.13584294210E+02  0.26764138577E+02  0.42422204338E+02  0.51100000000E-03 0. -1.
         23    2    1    0    0    0  0.18756362561E+02  0.86308792939E+01  0.19888296898E+02  0.96422290510E+02  0.92062047228E+02 0.  0.
         11    1    3    3    0    0  0.48736210087E+02  0.22215173504E+02 -0.68758416790E+01  0.54000086172E+02  0.51100000000E-03 0.  1.
         22    1    1    0    0    0 -0.18756362561E+02 -0.86308792939E+01 -0.19888296898E+02  0.28667709490E+02  0.00000000000E+00 0.  1.
</event>
<event>
 5    1  0.1043455E-009  0.9118800E+02  0.7561462E-02  0.1125453E+00
         25   -1    0    0    0    0  0.00000000000E+00  0.00000000000E+00  0.99999998245E-14  0.12509000000E+03  0.12509000000E+03 0.  0.
        -11    1    3    3    0    0  0.10571661181E+02  0.21929868112E+02  0.26043356917E+02  0.35650183384E+02  0.51100000000E-03 0. -1.
         23    2    1    0    0    0 -0.22313544267E+02 -0.18096074151E+02 -0.48339053184E+01  0.95957049616E+02  0.91427712281E+02 0.  0.
         11    1    3    3    0    0 -0.32885205448E+02 -0.40025942263E+02 -0.30877262235E+02  0.60306866233E+02  0.51100000000E-03 0.  1.
         22    1    1    0    0    0  0.22313544267E+02  0.18096074151E+02  0.48339053184E+01  0.29132950384E+02  0.00000000000E+00 0.  1.
</event>
<event>
 5    1  0.1043455E-009  0.9118800E+02  0.7561462E-02  0.1125453E+00
         25   -1    0    0    0    0  0.00000000000E+00  0.00000000000E+00  0.99999998245E-14  0.12509000000E+03  0.12509000000E+03 0.  0.
        -11    1    3    3    0    0  0.12233487870E+02  0.18785528293E+02 -0.33903115427E+02  0.40644501899E+02  0.51100000000E-03 0.  1.
         23    2    1    0    0    0 -0.28438686132E+02 -0.51559980281E+01 -0.56807879498E+01  0.95634702746E+02  0.90985613330E+02 0.  0.
         11    1    3    3    0    0 -0.40672174002E+02 -0.23941526321E+02  0.28222327478E+02  0.54990200847E+02  0.51100000000E-03 0. -1.
         22    1    1    0    0    0  0.28438686132E+02  0.51559980281E+01  0.56807879498E+01  0.29455297254E+02  0.00000000000E+00 0. -1.
</event>
<event>
 5    1  0.1043455E-009  0.9118800E+02  0.7561462E-02  0.1125453E+00
         25   -1    0    0    0    0  0.00000000000E+00  0.00000000000E+00  0.99999998245E-14  0.12509000000E+03  0.12509000000E+03 0.  0.
        -11    1    3    3    0    0  0.34376022796E+02  0.22469997813E+02  0.27767499680E+02  0.49574648599E+02  0.51100000000E-03 0.  1.
         23    2    1    0    0    0  0.10212121495E+02  0.33079094348E+02 -0.32716160428E+01  0.90316196931E+02  0.83353452528E+02 0.  0.
         11    1    3    3    0    0 -0.24163901301E+02  0.10609096535E+02 -0.31039115723E+02  0.40741548332E+02  0.51100000000E-03 0. -1.
         22    1    1    0    0    0 -0.10212121495E+02 -0.33079094348E+02  0.32716160428E+01  0.34773803069E+02  0.00000000000E+00 0.  1.
</event>
<event>
 5    1  0.1043455E-009  0.9118800E+02  0.7561462E-02  0.1125453E+00
         25   -1    0    0    0    0  0.00000000000E+00  0.00000000000E+00  0.99999998245E-14  0.12509000000E+03  0.12509000000E+03 0.  0.
        -11    1    3    3    0    0  0.38557105535E+02 -0.28551501430E+02  0.32277110182E+02  0.57824306854E+02  0.51100000000E-03 0.  1.
         23    2    1    0    0    0  0.20876257664E+02  0.27664331762E+01  0.20585341518E+02  0.95641272150E+02  0.90994644713E+02 0.  0.
         11    1    3    3    0    0 -0.17680847871E+02  0.31317934606E+02 -0.11691768664E+02  0.37816965296E+02  0.51100000000E-03 0. -1.
         22    1    1    0    0    0 -0.20876257664E+02 -0.27664331762E+01 -0.20585341518E+02  0.29448727850E+02  0.00000000000E+00 0.  1.
</event>
<event>
 5    1  0.1043455E-009  0.9118800E+02  0.7561462E-02  0.1125453E+00
         25   -1    0    0    0    0  0.00000000000E+00  0.00000000000E+00  0.99999998245E-14  0.12509000000E+03  0.12509000000E+03 0.  0.
        -11    1    3    3    0    0 -0.11833661762E+01 -0.12043876031E+02  0.52418215017E+02  0.53797068426E+02  0.51100000000E-03 0.  1.
         23    2    1    0    0    0  0.72770046844E+01 -0.25123026229E+02  0.13630512967E+02  0.95595727203E+02  0.90932012689E+02 0.  0.
         11    1    3    3    0    0  0.84603708606E+01 -0.13079150198E+02 -0.38787702050E+02  0.41798658777E+02  0.51100000000E-03 0. -1.
         22    1    1    0    0    0 -0.72770046844E+01  0.25123026229E+02 -0.13630512967E+02  0.29494272797E+02  0.00000000000E+00 0.  1.
</event>
<event>
 5    1  0.1043455E-009  0.9118800E+02  0.7561462E-02  0.1125453E+00
         25   -1    0    0    0    0  0.00000000000E+00  0.00000000000E+00  0.99999998245E-14  0.12509000000E+03  0.12509000000E+03 0.  0.
        -11    1    3    3    0    0  0.57792747663E+02 -0.19349684484E+01  0.81908914707E+00  0.57830931971E+02  0.51100000000E-03 0.  1.
         23    2    1    0    0    0  0.23564080245E+02  0.13415189313E+02  0.95421076948E+01  0.96344826468E+02  0.91956732140E+02 0.  0.
         11    1    3    3    0    0 -0.34228667418E+02  0.15350157762E+02  0.87230185478E+01  0.38513894498E+02  0.51100000000E-03 0. -1.
         22    1    1    0    0    0 -0.23564080245E+02 -0.13415189313E+02 -0.95421076948E+01  0.28745173532E+02  0.00000000000E+00 0.  1.
</event>
<event>
 5    1  0.1043455E-009  0.9118800E+02  0.7561462E-02  0.1125453E+00
         25   -1    0    0    0    0  0.00000000000E+00  0.00000000000E+00  0.99999998245E-14  0.12509000000E+03  0.12509000000E+03 0.  0.
        -11    1    3    3    0    0  0.17427534920E+02  0.24336825306E+02  0.19867867703E+02  0.35926761706E+02  0.51100000000E-03 0.  1.
         23    2    1    0    0    0 -0.25307883856E+02 -0.14313943021E+02  0.36522708595E+01  0.95786125981E+02  0.91193557327E+02 0.  0.
         11    1    3    3    0    0 -0.42735418776E+02 -0.38650768326E+02 -0.16215596843E+02  0.59859364275E+02  0.51100000000E-03 0. -1.
         22    1    1    0    0    0  0.25307883856E+02  0.14313943021E+02 -0.36522708595E+01  0.29303874019E+02  0.00000000000E+00 0. -1.
</event>
<event>
 5    1  0.1043455E-009  0.9118800E+02  0.7561462E-02  0.1125453E+00
         25   -1    0    0    0    0  0.00000000000E+00  0.00000000000E+00  0.99999998245E-14  0.12509000000E+03  0.12509000000E+03 0.  0.
        -11    1    3    3    0    0  0.13747617061E+02 -0.25470788585E+02 -0.19821857129E+02  0.35080821916E+02  0.51100000000E-03 0.  1.
         23    2    1    0    0    0  0.34815336511E+02  0.18216151865E+02 -0.83941068602E+01  0.84910442074E+02  0.74802314792E+02 0.  0.
         11    1    3    3    0    0  0.21067719449E+02  0.43686940450E+02  0.11427750269E+02  0.49829620158E+02  0.51100000000E-03 0. -1.
         22    1    1    0    0    0 -0.34815336511E+02 -0.18216151865E+02  0.83941068602E+01  0.40179557926E+02  0.00000000000E+00 0. -1.
</event>
<event>
 5    1  0.1043455E-009  0.9118800E+02  0.7561462E-02  0.1125453E+00
         25   -1    0    0    0    0  0.00000000000E+00  0.00000000000E+00  0.99999998245E-14  0.12509000000E+03  0.12509000000E+03 0.  0.
        -11    1    3    3    0    0 -0.58579034875E+01 -0.49464418833E+02 -0.30493869699E+02  0.58403080854E+02  0.51100000000E-03 0.  1.
         23    2    1    0    0    0 -0.89875767503E+01 -0.23803681731E+02  0.15792117102E+01  0.99597143953E+02  0.96279309170E+02 0.  0.
         11    1    3    3    0    0 -0.31296732629E+01  0.25660737101E+02  0.32073081409E+02  0.41194063100E+02  0.51100000000E-03 0. -1.
         22    1    1    0    0    0  0.89875767503E+01  0.23803681731E+02 -0.15792117102E+01  0.25492856047E+02  0.00000000000E+00 0.  1.
</event>
<event>
 5    1  0.1043455E-009  0.9118800E+02  0.7561462E-02  0.1125453E+00
         25   -1    0    0    0    0  0.00000000000E+00  0.00000000000E+00  0.99999998245E-14  0.12509000000E+03  0.12509000000E+03 0.  0.
        -11    1    3    3    0    0  0.97241354596E+01 -0.27902451864E+02  0.49966654928E+02  0.58049739323E+02  0.51100000000E-03 0.  1.
         23    2    1    0    0    0  0.13201382486E+01  0.50627607605E+01  0.23116854861E+02  0.10138845384E+03  0.98579182807E+02 0.  0.
         11    1    3    3    0    0 -0.84039972110E+01  0.32965212624E+02 -0.26849800068E+02  0.43338714522E+02  0.51100000000E-03 0. -1.
         22    1    1    0    0    0 -0.13201382486E+01 -0.50627607605E+01 -0.23116854861E+02  0.23701546155E+02  0.00000000000E+00 0.  1.
</event>
<event>
 5    1  0.1043455E-009  0.9118800E+02  0.7561462E-02  0.1125453E+00
         25   -1    0    0    0    0  0.00000000000E+00  0.00000000000E+00  0.99999998245E-14  0.12509000000E+03  0.12509000000E+03 0.  0.
        -11    1    3    3    0    0 -0.71249064641E+01 -0.58959468587E+02  0.11856207849E+02  0.60560324413E+02  0.51100000000E-03 0.  1.
         23    2    1    0    0    0 -0.13769225801E+02 -0.25273194634E+02  0.22113909928E+01  0.96224515485E+02  0.91792925566E+02 0.  0.
         11    1    3    3    0    0 -0.66443193370E+01  0.33686273954E+02 -0.96448168567E+01  0.35664191072E+02  0.51100000000E-03 0. -1.
         22    1    1    0    0    0  0.13769225801E+02  0.25273194634E+02 -0.22113909928E+01  0.28865484515E+02  0.00000000000E+00 0.  1.
</event>
<event>
 5    1  0.1043455E-009  0.9118800E+02  0.7561462E-02  0.1125453E+00
         25   -1    0    0    0    0  0.00000000000E+00  0.00000000000E+00  0.99999998245E-14  0.12509000000E+03  0.12509000000E+03 0.  0.
        -11    1    3    3    0    0 -0.13719699438E+02  0.29867262440E+02  0.84469693395E+01  0.33935745308E+02  0.51100000000E-03 0.  1.
         23    2    1    0    0    0  0.61166316095E+01 -0.26603160715E+02 -0.91133184880E+01  0.96311641531E+02  0.91911579130E+02 0.  0.
         11    1    3    3    0    0  0.19836331048E+02 -0.56470423155E+02 -0.17560287828E+02  0.62375896223E+02  0.51100000000E-03 0. -1.
         22    1    1    0    0    0 -0.61166316095E+01  0.26603160715E+02  0.91133184880E+01  0.28778358469E+02  0.00000000000E+00 0. -1.
</event>
<event>
 5    1  0.1043455E-009  0.9118800E+02  0.7561462E-02  0.1125453E+00
         25   -1    0    0    0    0  0.00000000000E+00  0.00000000000E+00  0.99999998245E-14  0.12509000000E+03  0.12509000000E+03 0.  0.
        -11    1    3    3    0    0  0.10209076321E+02 -0.29625100373E+02  0.21282412716E+02  0.37878924255E+02  0.51100000000E-03 0.  1.
         23    2    1    0    0    0 -0.21757221705E+02 -0.51264760748E+01 -0.19668387380E+02  0.95315801179E+02  0.90546115538E+02 0.  0.
         11    1    3    3    0    0 -0.31966298026E+02  0.24498624298E+02 -0.40950800097E+02  0.57436876924E+02  0.51100000000E-03 0. -1.
         22    1    1    0    0    0  0.21757221705E+02  0.51264760748E+01  0.19668387380E+02  0.29774198821E+02  0.00000000000E+00 0. -1.
</event>
<event>
 5    1  0.1043455E-009  0.9118800E+02  0.7561462E-02  0.1125453E+00
         25   -1    0    0    0    0  0.00000000000E+00  0.00000000000E+00  0.99999998245E-14  0.12509000000E+03  0.12509000000E+03 0.  0.
        -11    1    3    3    0    0 -0.15610708982E+02  0.47806301833E+02 -0.26304197586E+02  0.56754273326E+02  0.51100000000E-03 0. -1.
         23    2    1    0    0    0 -0.15624294110E+02  0.11746804671E+02 -0.25676770308E+02  0.92819231186E+02  0.87028772013E+02 0.  0.
         11    1    3    3    0    0 -0.13585128344E-01 -0.36059497162E+02  0.62742727801E+00  0.36064957859E+02  0.51100000000E-03 0.  1.
         22    1    1    0    0    0  0.15624294110E+02 -0.11746804671E+02  0.25676770308E+02  0.32270768814E+02  0.00000000000E+00 0. -1.
</event>
<event>
 5    1  0.1043455E-009  0.9118800E+02  0.7561462E-02  0.1125453E+00
         25   -1    0    0    0    0  0.00000000000E+00  0.00000000000E+00  0.99999998245E-14  0.12509000000E+03  0.12509000000E+03 0.  0.
        -11    1    3    3    0    0 -0.18799963880E+02  0.26624422263E+02 -0.33268350934E+01  0.32762269988E+02  0.51100000000E-03 0. -1.
         23    2    1    0    0    0  0.15367442888E+02 -0.25432651942E+02  0.23108206268E+01  0.95285336310E+02  0.90504018353E+02 0.  0.
         11    1    3    3    0    0  0.34167406768E+02 -0.52057074205E+02  0.56376557202E+01  0.62523066322E+02  0.51100000000E-03 0.  1.
         22    1    1    0    0    0 -0.15367442888E+02  0.25432651942E+02 -0.23108206268E+01  0.29804663690E+02  0.00000000000E+00 0.  1.
</event>
<event>
 5    1  0.1043455E-009  0.9118800E+02  0.7561462E-02  0.1125453E+00
         25   -1    0    0    0    0  0.00000000000E+00  0.00000000000E+00  0.99999998245E-14  0.12509000000E+03  0.12509000000E+03 0.  0.
        -11    1    3    3    0    0  0.99270648492E+01  0.45671184160E+02  0.30308917152E+02  0.55704884331E+02  0.51100000000E-03 0.  1.
         23    2    1    0    0    0 -0.15412305374E+02  0.22744112751E+02  0.81508947763E+01  0.96432175459E+02  0.92075477497E+02 0.  0.
         11    1    3    3    0    0 -0.25339370223E+02 -0.22927071410E+02 -0.22158022376E+02  0.40727291128E+02  0.51100000000E-03 0. -1.
         22    1    1    0    0    0  0.15412305374E+02 -0.22744112751E+02 -0.81508947763E+01  0.28657824541E+02  0.00000000000E+00 0.  1.
</event>
<event>
 5    1  0.1043455E-009  0.9118800E+02  0.7561462E-02  0.1125453E+00
         25   -1    0    0    0    0  0.00000000000E+00  0.00000000000E+00  0.99999998245E-14  0.12509000000E+03  0.12509000000E+03 0.  0.
        -11    1    3    3    0    0 -0.25830522849E+02 -0.74346193009E+01 -0.32104944900E+02  0.41871433724E+02  0.51100000000E-03 0.  1.
         23    2    1    0    0    0  0.24802715565E+02  0.41599734660E+00 -0.15959887064E+02  0.95593123076E+02  0.90928430268E+02 0.  0.
         11    1    3    3    0    0  0.50633238414E+02  0.78506166475E+01  0.16145057836E+02  0.53721689352E+02  0.51100000000E-03 0. -1.
         22    1    1    0    0    0 -0.24802715565E+02 -0.41599734660E+00  0.15959887064E+02  0.29496876924E+02  0.00000000000E+00 0. -1.
</event>
<event>
 5    1  0.1043455E-009  0.9118800E+02  0.7561462E-02  0.1125453E+00
         25   -1    0    0    0    0  0.00000000000E+00  0.00000000000E+00  0.99999998245E-14  0.12509000000E+03  0.12509000000E+03 0.  0.
        -11    1    3    3    0    0  0.12261823763E+02 -0.40670821711E+00 -0.40270924184E+02  0.42098278688E+02  0.51100000000E-03 0. -1.
         23    2    1    0    0    0  0.13184969511E+02 -0.11971882328E+02  0.16962243885E+02  0.10049554727E+03  0.97439560323E+02 0.  0.
         11    1    3    3    0    0  0.92314574771E+00 -0.11565174111E+02  0.57233168069E+02  0.58397268582E+02  0.51100000000E-03 0.  1.
         22    1    1    0    0    0 -0.13184969511E+02  0.11971882328E+02 -0.16962243885E+02  0.24594452730E+02  0.00000000000E+00 0.  1.
</event>
<event>
 5    1  0.1043455E-009  0.9118800E+02  0.7561462E-02  0.1125453E+00
         25   -1    0    0    0    0  0.00000000000E+00  0.00000000000E+00  0.99999998245E-14  0.12509000000E+03  0.12509000000E+03 0.  0.
        -11    1    3    3    0    0  0.35717997297E+02  0.12197010628E+02 -0.22994846754E+00  0.37743811092E+02  0.51100000000E-03 0.  1.
         23    2    1    0    0    0 -0.11078660667E+02 -0.13935768545E+02  0.22869098978E+02  0.96108315177E+02  0.91634437800E+02 0.  0.
         11    1    3    3    0    0 -0.46796657964E+02 -0.26132779173E+02  0.23099047446E+02  0.58364504085E+02  0.51100000000E-03 0. -1.
         22    1    1    0    0    0  0.11078660667E+02  0.13935768545E+02 -0.22869098978E+02  0.28981684823E+02  0.00000000000E+00 0. -1.
</event>
<event>
 5    1  0.1043455E-009  0.9118800E+02  0.7561462E-02  0.1125453E+00
         25   -1    0    0    0    0  0.00000000000E+00  0.00000000000E+00  0.99999998245E-14  0.12509000000E+03  0.12509000000E+03 0.  0.
        -11    1    3    3    0    0  0.32019477769E+02 -0.33438919160E+02 -0.40529202316E+02  0.61530679436E+02  0.51100000000E-03 0. -1.
         23    2    1    0    0    0  0.24176737076E+02 -0.15980462910E+02 -0.30013070175E+02  0.83368612298E+02  0.72177914384E+02 0.  0.
         11    1    3    3    0    0 -0.78427406936E+01  0.17458456250E+02  0.10516132142E+02  0.21837932862E+02  0.51100000000E-03 0.  1.
         22    1    1    0    0    0 -0.24176737076E+02  0.15980462910E+02  0.30013070175E+02  0.41721387702E+02  0.00000000000E+00 0. -1.
</event>
<event>
 5    1  0.1043455E-009  0.9118800E+02  0.7561462E-02  0.1125453E+00
         25   -1    0    0    0    0  0.00000000000E+00  0.00000000000E+00  0.99999998245E-14  0.12509000000E+03  0.12509000000E+03 0.  0.
        -11    1    3    3    0    0 -0.32659899667E+02  0.58569411412E+00  0.14617137493E+02  0.35786488967E+02  0.51100000000E-03 0.  1.
         23    2    1    0    0    0  0.27647565389E+02  0.17480939650E+01  0.28636351280E+01  0.97239612021E+02  0.93165970372E+02 0.  0.
         11    1    3    3    0    0  0.60307465056E+02  0.11623998509E+01 -0.11753502365E+02  0.61453123053E+02  0.51100000000E-03 0. -1.
         22    1    1    0    0    0 -0.27647565389E+02 -0.17480939650E+01 -0.28636351280E+01  0.27850387979E+02  0.00000000000E+00 0. -1.
</event>
<event>
 5    1  0.1043455E-009  0.9118800E+02  0.7561462E-02  0.1125453E+00
         25   -1    0    0    0    0  0.00000000000E+00  0.00000000000E+00  0.99999998245E-14  0.12509000000E+03  0.12509000000E+03 0.  0.
        -11    1    3    3    0    0  0.34415359084E+02 -0.15460645699E+02 -0.28908502362E+02  0.47530516676E+02  0.51100000000E-03 0.  1.
         23    2    1    0    0    0  0.81372114591E+01 -0.23336022623E+02  0.12649826330E+02  0.97326674040E+02  0.93282791614E+02 0.  0.
         11    1    3    3    0    0 -0.26278147625E+02 -0.78753769241E+01  0.41558328692E+02  0.49796157364E+02  0.51100000000E-03 0. -1.
         22    1    1    0    0    0 -0.81372114591E+01  0.23336022623E+02 -0.12649826330E+02  0.27763325960E+02  0.00000000000E+00 0. -1.
</event>
<event>
 5    1  0.1043455E-009  0.9118800E+02  0.7561462E-02  0.1125453E+00
         25   -1    0    0    0    0  0.00000000000E+00  0.00000000000E+00  0.99999998245E-14  0.12509000000E+03  0.12509000000E+03 0.  0.
        -11    1    3    3    0    0 -0.39130613844E+02 -0.36328791558E+02 -0.19344457819E+02  0.56790792251E+02  0.51100000000E-03 0. -1.
         23    2    1    0    0    0 -0.20301722635E+02 -0.10239086499E+01 -0.19669314785E+02  0.96804132946E+02  0.92579424715E+02 0.  0.
         11    1    3    3    0    0  0.18828891209E+02  0.35304882908E+02 -0.32485696569E+00  0.40013340696E+02  0.51100000000E-03 0.  1.
         22    1    1    0    0    0  0.20301722635E+02  0.10239086499E+01  0.19669314785E+02  0.28285867054E+02  0.00000000000E+00 0. -1.
</event>
<event>
 5    1  0.1043455E-009  0.9118800E+02  0.7561462E-02  0.1125453E+00
         25   -1    0    0    0    0  0.00000000000E+00  0.00000000000E+00  0.99999998245E-14  0.12509000000E+03  0.12509000000E+03 0.  0.
        -11    1    3    3    0    0 -0.41504983990E+02 -0.79067488018E+01 -0.19646168744E+02  0.46595625537E+02  0.51100000000E-03 0. -1.
         23    2    1    0    0    0  0.58710349675E+01 -0.82619400811E+01 -0.28542801208E+02  0.94801054718E+02  0.89832175580E+02 0.  0.
         11    1    3    3    0    0  0.47376018957E+02 -0.35519127929E+00 -0.88966324634E+01  0.48205429181E+02  0.51100000000E-03 0.  1.
         22    1    1    0    0    0 -0.58710349675E+01  0.82619400811E+01  0.28542801208E+02  0.30288945282E+02  0.00000000000E+00 0.  1.
</event>
<event>
 5    1  0.1043455E-009  0.9118800E+02  0.7561462E-02  0.1125453E+00
         25   -1    0    0    0    0  0.00000000000E+00  0.00000000000E+00  0.99999998245E-14  0.12509000000E+03  0.12509000000E+03 0.  0.
        -11    1    3    3    0    0 -0.34623081006E+02 -0.24842207305E+02 -0.65424796357E+01  0.43112608854E+02  0.51100000000E-03 0.  1.
         23    2    1    0    0    0 -0.15576459440E+02  0.19633322875E+02  0.14790489120E+02  0.95989277943E+02  0.91471795959E+02 0.  0.
         11    1    3    3    0    0  0.19046621566E+02  0.44475530180E+02  0.21332968756E+02  0.52876669090E+02  0.51100000000E-03 0. -1.
         22    1    1    0    0    0  0.15576459440E+02 -0.19633322875E+02 -0.14790489120E+02  0.29100722057E+02  0.00000000000E+00 0.  1.
</event>
<event>
 5    1  0.1043455E-009  0.9118800E+02  0.7561462E-02  0.1125453E+00
         25   -1    0    0    0    0  0.00000000000E+00  0.00000000000E+00  0.99999998245E-14  0.12509000000E+03  0.12509000000E+03 0.  0.
        -11    1    3    3    0    0  0.11351441296E+00  0.37087700384E+02  0.20547097392E+02  0.42399217172E+02  0.51100000000E-03 0.  1.
         23    2    1    0    0    0  0.18843390234E+02  0.89766974644E+01 -0.20686913784E+02  0.95702879441E+02  0.91079296651E+02 0.  0.
         11    1    3    3    0    0  0.18729875821E+02 -0.28111002919E+02 -0.41234011176E+02  0.53303662269E+02  0.51100000000E-03 0. -1.
         22    1    1    0    0    0 -0.18843390234E+02 -0.89766974644E+01  0.20686913784E+02  0.29387120559E+02  0.00000000000E+00 0. -1.
</event>
<event>
 5    1  0.1043455E-009  0.9118800E+02  0.7561462E-02  0.1125453E+00
         25   -1    0    0    0    0  0.00000000000E+00  0.00000000000E+00  0.99999998245E-14  0.12509000000E+03  0.12509000000E+03 0.  0.
        -11    1    3    3    0    0 -0.28860877388E+01 -0.30531686136E+02  0.14156887249E+02  0.33777667438E+02  0.51100000000E-03 0. -1.
         23    2    1    0    0    0  0.19389010826E+02  0.15769665941E+02 -0.17909011250E+02  0.94343475177E+02  0.89192726833E+02 0.  0.
         11    1    3    3    0    0  0.22275098565E+02  0.46301352077E+02 -0.32065898499E+02  0.60565807739E+02  0.51100000000E-03 0.  1.
         22    1    1    0    0    0 -0.19389010826E+02 -0.15769665941E+02  0.17909011250E+02  0.30746524823E+02  0.00000000000E+00 0.  1.
</event>
<event>
 5    1  0.1043455E-009  0.9118800E+02  0.7561462E-02  0.1125453E+00
         25   -1    0    0    0    0  0.00000000000E+00  0.00000000000E+00  0.99999998245E-14  0.12509000000E+03  0.12509000000E+03 0.  0.
        -11    1    3    3    0    0  0.61178497858E+01  0.28860485878E+01  0.17390432397E+02  0.18659702615E+02  0.51100000000E-03 0.  1.
         23    2    1    0    0    0  0.43653348323E+02  0.35524242367E+01 -0.24495840668E+02  0.74907525492E+02  0.55613457252E+02 0.  0.
         11    1    3    3    0    0  0.37535498537E+02  0.66637564895E+00 -0.41886273065E+02  0.56247822877E+02  0.51100000000E-03 0. -1.
         22    1    1    0    0    0 -0.43653348323E+02 -0.35524242367E+01  0.24495840668E+02  0.50182474508E+02  0.00000000000E+00 0. -1.
</event>
<event>
 5    1  0.1043455E-009  0.9118800E+02  0.7561462E-02  0.1125453E+00
         25   -1    0    0    0    0  0.00000000000E+00  0.00000000000E+00  0.99999998245E-14  0.12509000000E+03  0.12509000000E+03 0.  0.
        -11    1    3    3    0    0  0.41314379486E+02 -0.19147519114E+02 -0.10311799775E+02  0.46688742277E+02  0.51100000000E-03 0. -1.
         23    2    1    0    0    0 -0.80871185323E+01 -0.13912177730E+02 -0.22105550655E+02  0.97747623638E+02  0.93845577316E+02 0.  0.
         11    1    3    3    0    0 -0.49401498018E+02  0.52353413835E+01 -0.11793750880E+02  0.51058881362E+02  0.51100000000E-03 0.  1.
         22    1    1    0    0    0  0.80871185323E+01  0.13912177730E+02  0.22105550655E+02  0.27342376362E+02  0.00000000000E+00 0. -1.
</event>
<event>
 5    1  0.1043455E-009  0.9118800E+02  0.7561462E-02  0.1125453E+00
         25   -1    0    0    0    0  0.00000000000E+00  0.00000000000E+00  0.99999998245E-14  0.12509000000E+03  0.12509000000E+03 0.  0.
        -11    1    3    3    0    0  0.23405246997E+02  0.16786829490E+02 -0.17952708252E+02  0.33939696008E+02  0.51100000000E-03 0. -1.
         23    2    1    0    0    0  0.13396579607E+01 -0.37970885994E+01  0.32291111480E+02  0.92548819231E+02  0.86639226076E+02 0.  0.
         11    1    3    3    0    0 -0.22065589036E+02 -0.20583918089E+02  0.50243819732E+02  0.58609123222E+02  0.51100000000E-03 0.  1.
         22    1    1    0    0    0 -0.13396579607E+01  0.37970885994E+01 -0.32291111480E+02  0.32541180769E+02  0.00000000000E+00 0.  1.
</event>
<event>
 5    1  0.1043455E-009  0.9118800E+02  0.7561462E-02  0.1125453E+00
         25   -1    0    0    0    0  0.00000000000E+00  0.00000000000E+00  0.99999998245E-14  0.12509000000E+03  0.12509000000E+03 0.  0.
        -11    1    3    3    0    0  0.18811406003E+02  0.36211855232E+02  0.32878927239E+02  0.52404115409E+02  0.51100000000E-03 0.  1.
         23    2    1    0    0    0  0.25636592054E+02  0.86977790943E+01 -0.26867241464E+01  0.97885134627E+02  0.94028691797E+02 0.  0.
         11    1    3    3    0    0  0.68251860516E+01 -0.27514076138E+02 -0.35565651386E+02  0.45481019218E+02  0.51100000000E-03 0. -1.
         22    1    1    0    0    0 -0.25636592054E+02 -0.86977790943E+01  0.26867241464E+01  0.27204865373E+02  0.00000000000E+00 0. -1.
</event>
<event>
 5    1  0.1043455E-009  0.9118800E+02  0.7561462E-02  0.1125453E+00
         25   -1    0    0    0    0  0.00000000000E+00  0.00000000000E+00  0.99999998245E-14  0.12509000000E+03  0.12509000000E+03 0.  0.
        -11    1    3    3    0    0 -0.49418331399E+01  0.52657636259E+02  0.26022696989E+02  0.58944288357E+02  0.51100000000E-03 0.  1.
         23    2    1    0    0    0 -0.15822151397E+02  0.18870393040E+02  0.15600131761E+02  0.95938733831E+02  0.91402649469E+02 0.  0.
         11    1    3    3    0    0 -0.10880318257E+02 -0.33787243219E+02 -0.10422565228E+02  0.36994445474E+02  0.51100000000E-03 0. -1.
         22    1    1    0    0    0  0.15822151397E+02 -0.18870393040E+02 -0.15600131761E+02  0.29151266169E+02  0.00000000000E+00 0.  1.
</event>
<event>
 5    1  0.1043455E-009  0.9118800E+02  0.7561462E-02  0.1125453E+00
         25   -1    0    0    0    0  0.00000000000E+00  0.00000000000E+00  0.99999998245E-14  0.12509000000E+03  0.12509000000E+03 0.  0.
        -11    1    3    3    0    0 -0.39799911650E+02  0.22757722507E+02 -0.28947276615E+02  0.54220768389E+02  0.51100000000E-03 0.  1.
         23    2    1    0    0    0 -0.27678819062E+02 -0.57372190583E+01  0.30865929590E+00  0.96821148277E+02  0.92602412366E+02 0.  0.
         11    1    3    3    0    0  0.12121092588E+02 -0.28494941565E+02  0.29255935911E+02  0.42600379888E+02  0.51100000000E-03 0. -1.
         22    1    1    0    0    0  0.27678819062E+02  0.57372190583E+01 -0.30865929590E+00  0.28268851723E+02  0.00000000000E+00 0.  1.
</event>
<event>
 5    1  0.1043455E-009  0.9118800E+02  0.7561462E-02  0.1125453E+00
         25   -1    0    0    0    0  0.00000000000E+00  0.00000000000E+00  0.99999998245E-14  0.12509000000E+03  0.12509000000E+03 0.  0.
        -11    1    3    3    0    0 -0.49492506649E+02  0.32842119923E+02 -0.15932376702E+02  0.61497590872E+02  0.51100000000E-03 0.  1.
         23    2    1    0    0    0 -0.25112472052E+02  0.90239731756E+01 -0.12080879750E+02  0.95798089855E+02  0.91209966670E+02 0.  0.
         11    1    3    3    0    0  0.24380034598E+02 -0.23818146747E+02  0.38514969523E+01  0.34300498983E+02  0.51100000000E-03 0. -1.
         22    1    1    0    0    0  0.25112472052E+02 -0.90239731756E+01  0.12080879750E+02  0.29291910145E+02  0.00000000000E+00 0.  1.
</event>
<event>
 5    1  0.1043455E-009  0.9118800E+02  0.7561462E-02  0.1125453E+00
         25   -1    0    0    0    0  0.00000000000E+00  0.00000000000E+00  0.99999998245E-14  0.12509000000E+03  0.12509000000E+03 0.  0.
        -11    1    3    3    0    0 -0.27161116166E+02  0.12378296576E+02 -0.50094961537E+02  0.58313408656E+02  0.51100000000E-03 0. -1.
         23    2    1    0    0    0  0.33927531846E+01  0.53751690502E+01 -0.27269488806E+02  0.97089495786E+02  0.92964197172E+02 0.  0.
         11    1    3    3    0    0  0.30553869351E+02 -0.70031275261E+01  0.22825472730E+02  0.38776087130E+02  0.51100000000E-03 0.  1.
         22    1    1    0    0    0 -0.33927531846E+01 -0.53751690502E+01  0.27269488806E+02  0.28000504214E+02  0.00000000000E+00 0. -1.
</event>
<event>
 5    1  0.1043455E-009  0.9118800E+02  0.7561462E-02  0.1125453E+00
         25   -1    0    0    0    0  0.00000000000E+00  0.00000000000E+00  0.99999998245E-14  0.12509000000E+03  0.12509000000E+03 0.  0.
        -11    1    3    3    0    0  0.37555374550E+02 -0.88080007198E+01  0.34391541778E+02  0.51679446402E+02  0.51100000000E-03 0. -1.
         23    2    1    0    0    0 -0.35300043143E+01  0.11630815842E+01  0.30752423100E+02  0.94113795976E+02  0.88870025190E+02 0.  0.
         11    1    3    3    0    0 -0.41085378865E+02  0.99710823040E+01 -0.36391186776E+01  0.42434349574E+02  0.51100000000E-03 0.  1.
         22    1    1    0    0    0  0.35300043143E+01 -0.11630815842E+01 -0.30752423100E+02  0.30976204024E+02  0.00000000000E+00 0. -1.
</event>
<event>
 5    1  0.1043455E-009  0.9118800E+02  0.7561462E-02  0.1125453E+00
         25   -1    0    0    0    0  0.00000000000E+00  0.00000000000E+00  0.99999998245E-14  0.12509000000E+03  0.12509000000E+03 0.  0.
        -11    1    3    3    0    0 -0.81599665279E+01 -0.33896343894E+02 -0.20646538557E+02  0.40519461223E+02  0.51100000000E-03 0. -1.
         23    2    1    0    0    0  0.27101108385E+02  0.70043947594E+01 -0.62109659344E+01  0.96417579113E+02  0.92055645360E+02 0.  0.
         11    1    3    3    0    0  0.35261074913E+02  0.40900738654E+02  0.14435572623E+02  0.55898117890E+02  0.51100000000E-03 0.  1.
         22    1    1    0    0    0 -0.27101108385E+02 -0.70043947594E+01  0.62109659344E+01  0.28672420887E+02  0.00000000000E+00 0. -1.
</event>
<event>
 5    1  0.1043455E-009  0.9118800E+02  0.7561462E-02  0.1125453E+00
         25   -1    0    0    0    0  0.00000000000E+00  0.00000000000E+00  0.99999998245E-14  0.12509000000E+03  0.12509000000E+03 0.  0.
        -11    1    3    3    0    0  0.18535999767E+02 -0.14817038562E+01 -0.76562463556E+01  0.20109620638E+02  0.51100000000E-03 0. -1.
         23    2    1    0    0    0 -0.38317823967E+02 -0.10814155203E+02  0.15717852163E+02  0.82285181779E+02  0.70275164016E+02 0.  0.
         11    1    3    3    0    0 -0.56853823734E+02 -0.93324513467E+01  0.23374098518E+02  0.62175561141E+02  0.51100000000E-03 0.  1.
         22    1    1    0    0    0  0.38317823967E+02  0.10814155203E+02 -0.15717852163E+02  0.42804818221E+02  0.00000000000E+00 0.  1.
</event>
<event>
 5    1  0.1043455E-009  0.9118800E+02  0.7561462E-02  0.1125453E+00
         25   -1    0    0    0    0  0.00000000000E+00  0.00000000000E+00  0.99999998245E-14  0.12509000000E+03  0.12509000000E+03 0.  0.
        -11    1    3    3    0    0 -0.31502752146E+02 -0.20355467729E+02 -0.40867365997E+02  0.55469902316E+02  0.51100000000E-03 0. -1.
         23    2    1    0    0    0  0.22591259867E+01 -0.22154216941E+02 -0.19689349862E+02  0.95364867931E+02  0.90613876195E+02 0.  0.
         11    1    3    3    0    0  0.33761878132E+02 -0.17987492127E+01  0.21178016135E+02  0.39894965615E+02  0.51100000000E-03 0.  1.
         22    1    1    0    0    0 -0.22591259867E+01  0.22154216941E+02  0.19689349862E+02  0.29725132069E+02  0.00000000000E+00 0. -1.
</event>
<event>
 5    1  0.1043455E-009  0.9118800E+02  0.7561462E-02  0.1125453E+00
         25   -1    0    0    0    0  0.00000000000E+00  0.00000000000E+00  0.99999998245E-14  0.12509000000E+03  0.12509000000E+03 0.  0.
        -11    1    3    3    0    0  0.13721364434E+02  0.43453244467E+02 -0.17375627386E+02  0.48768562865E+02  0.51100000000E-03 0. -1.
         23    2    1    0    0    0 -0.78114235459E+01  0.20379540021E+01 -0.27412072881E+02  0.96513902751E+02  0.92186442009E+02 0.  0.
         11    1    3    3    0    0 -0.21532787980E+02 -0.41415290465E+02 -0.10036445495E+02  0.47745339886E+02  0.51100000000E-03 0.  1.
         22    1    1    0    0    0  0.78114235459E+01 -0.20379540021E+01  0.27412072881E+02  0.28576097249E+02  0.00000000000E+00 0. -1.
</event>
<event>
 5    1  0.1043455E-009  0.9118800E+02  0.7561462E-02  0.1125453E+00
         25   -1    0    0    0    0  0.00000000000E+00  0.00000000000E+00  0.99999998245E-14  0.12509000000E+03  0.12509000000E+03 0.  0.
        -11    1    3    3    0    0 -0.17711290430E+02 -0.47383123785E+01  0.41265181333E+02  0.45154807093E+02  0.51100000000E-03 0. -1.
         23    2    1    0    0    0 -0.18159944939E+02 -0.21962101908E+02 -0.64379909408E+01  0.95874161012E+02  0.91314234936E+02 0.  0.
         11    1    3    3    0    0 -0.44865450907E+00 -0.17223789530E+02 -0.47703172274E+02  0.50719353919E+02  0.51100000000E-03 0.  1.
         22    1    1    0    0    0  0.18159944939E+02  0.21962101908E+02  0.64379909408E+01  0.29215838988E+02  0.00000000000E+00 0. -1.
</event>
<event>
 5    1  0.1043455E-009  0.9118800E+02  0.7561462E-02  0.1125453E+00
         25   -1    0    0    0    0  0.00000000000E+00  0.00000000000E+00  0.99999998245E-14  0.12509000000E+03  0.12509000000E+03 0.  0.
        -11    1    3    3    0    0  0.21119244717E+02 -0.29190199520E+02  0.54089539758E+01  0.36432774103E+02  0.51100000000E-03 0. -1.
         23    2    1    0    0    0  0.34188200987E+01  0.26462387736E+02  0.13150082139E+02  0.95343219404E+02  0.90583986059E+02 0.  0.
         11    1    3    3    0    0 -0.17700424619E+02  0.55652587256E+02  0.77411281636E+01  0.58910445301E+02  0.51100000000E-03 0.  1.
         22    1    1    0    0    0 -0.34188200987E+01 -0.26462387736E+02 -0.13150082139E+02  0.29746780596E+02  0.00000000000E+00 0.  1.
</event>
<event>
 5    1  0.1043455E-009  0.9118800E+02  0.7561462E-02  0.1125453E+00
         25   -1    0    0    0    0  0.00000000000E+00  0.00000000000E+00  0.99999998245E-14  0.12509000000E+03  0.12509000000E+03 0.  0.
        -11    1    3    3    0    0  0.17093886151E+02  0.31708211211E+01  0.28571794305E+02  0.33445515101E+02  0.51100000000E-03 0.  1.
         23    2    1    0    0    0 -0.97209674926E+01  0.41616527745E+00 -0.27640544785E+02  0.95786926466E+02  0.91194655343E+02 0.  0.
         11    1    3    3    0    0 -0.26814853644E+02 -0.27546558436E+01 -0.56212339090E+02  0.62341411365E+02  0.51100000000E-03 0. -1.
         22    1    1    0    0    0  0.97209674926E+01 -0.41616527745E+00  0.27640544785E+02  0.29303073534E+02  0.00000000000E+00 0. -1.
</event>
<event>
 5    1  0.1043455E-009  0.9118800E+02  0.7561462E-02  0.1125453E+00
         25   -1    0    0    0    0  0.00000000000E+00  0.00000000000E+00  0.99999998245E-14  0.12509000000E+03  0.12509000000E+03 0.  0.
        -11    1    3    3    0    0 -0.18814961017E+02  0.23121227903E+02 -0.98357589764E+01  0.31390063599E+02  0.51100000000E-03 0. -1.
         23    2    1    0    0    0  0.13726651730E+02  0.29530048051E+02 -0.38102271873E+02  0.74967870880E+02  0.55749025434E+02 0.  0.
         11    1    3    3    0    0  0.32541612747E+02  0.64088201481E+01 -0.28266512897E+02  0.43577807282E+02  0.51100000000E-03 0.  1.
         22    1    1    0    0    0 -0.13726651730E+02 -0.29530048051E+02  0.38102271873E+02  0.50122129120E+02  0.00000000000E+00 0.  1.
</event>
<event>
 5    1  0.1043455E-009  0.9118800E+02  0.7561462E-02  0.1125453E+00
         25   -1    0    0    0    0  0.00000000000E+00  0.00000000000E+00  0.99999998245E-14  0.12509000000E+03  0.12509000000E+03 0.  0.
        -11    1    3    3    0    0 -0.12761134842E+02 -0.29514468702E+02  0.11362776624E+02  0.34103711207E+02  0.51100000000E-03 0. -1.
         23    2    1    0    0    0 -0.53919196587E+00  0.16886834805E+02 -0.25422420249E+02  0.94565331795E+02  0.89503332946E+02 0.  0.
         11    1    3    3    0    0  0.12221942876E+02  0.46401303507E+02 -0.36785196873E+02  0.60461620588E+02  0.51100000000E-03 0.  1.
         22    1    1    0    0    0  0.53919196587E+00 -0.16886834805E+02  0.25422420249E+02  0.30524668205E+02  0.00000000000E+00 0.  1.
</event>
<event>
 5    1  0.1043455E-009  0.9118800E+02  0.7561462E-02  0.1125453E+00
         25   -1    0    0    0    0  0.00000000000E+00  0.00000000000E+00  0.99999998245E-14  0.12509000000E+03  0.12509000000E+03 0.  0.
        -11    1    3    3    0    0 -0.12358759004E+01 -0.42915627574E+02 -0.22733203660E+02  0.48580624000E+02  0.51100000000E-03 0.  1.
         23    2    1    0    0    0  0.63103250821E+01 -0.21094916543E+02  0.18824484887E+02  0.96121449159E+02  0.91652365220E+02 0.  0.
         11    1    3    3    0    0  0.75462009825E+01  0.21820711031E+02  0.41557688547E+02  0.47540825159E+02  0.51100000000E-03 0. -1.
         22    1    1    0    0    0 -0.63103250821E+01  0.21094916543E+02 -0.18824484887E+02  0.28968550841E+02  0.00000000000E+00 0. -1.
</event>
<event>
 5    1  0.1043455E-009  0.9118800E+02  0.7561462E-02  0.1125453E+00
         25   -1    0    0    0    0  0.00000000000E+00  0.00000000000E+00  0.99999998245E-14  0.12509000000E+03  0.12509000000E+03 0.  0.
        -11    1    3    3    0    0 -0.21621582446E+02  0.13283716072E+02  0.16740318030E+02  0.30400463617E+02  0.51100000000E-03 0.  1.
         23    2    1    0    0    0  0.24247524239E+02 -0.22345160176E+02  0.15889848565E+02  0.88487597041E+02  0.80562515648E+02 0.  0.
         11    1    3    3    0    0  0.45869106685E+02 -0.35628876248E+02 -0.85046946500E+00  0.58087133423E+02  0.51100000000E-03 0. -1.
         22    1    1    0    0    0 -0.24247524239E+02  0.22345160176E+02 -0.15889848565E+02  0.36602402959E+02  0.00000000000E+00 0.  1.
</event>
<event>
 5    1  0.1043455E-009  0.9118800E+02  0.7561462E-02  0.1125453E+00
         25   -1    0    0    0    0  0.00000000000E+00  0.00000000000E+00  0.99999998245E-14  0.12509000000E+03  0.12509000000E+03 0.  0.
        -11    1    3    3    0    0 -0.21552653732E+02 -0.22360447706E+02  0.19517903338E+02  0.36680445138E+02  0.51100000000E-03 0.  1.
         23    2    1    0    0    0  0.24954640693E+02 -0.27121794323E+02  0.19420397068E+02  0.83430935660E+02  0.72285844973E+02 0.  0.
         11    1    3    3    0    0  0.46507294425E+02 -0.47613466166E+01 -0.97506269735E-01  0.46750490522E+02  0.51100000000E-03 0. -1.
         22    1    1    0    0    0 -0.24954640693E+02  0.27121794323E+02 -0.19420397068E+02  0.41659064340E+02  0.00000000000E+00 0. -1.
</event>
<event>
 5    1  0.1043455E-009  0.9118800E+02  0.7561462E-02  0.1125453E+00
         25   -1    0    0    0    0  0.00000000000E+00  0.00000000000E+00  0.99999998245E-14  0.12509000000E+03  0.12509000000E+03 0.  0.
        -11    1    3    3    0    0 -0.45527433421E+02  0.26837862375E+02  0.13762495819E+02  0.54611576998E+02  0.51100000000E-03 0.  1.
         23    2    1    0    0    0 -0.28722224435E+02 -0.83207650435E+01  0.30138207608E+01  0.95035309468E+02  0.90157781820E+02 0.  0.
         11    1    3    3    0    0  0.16805208986E+02 -0.35158627419E+02 -0.10748675058E+02  0.40423732470E+02  0.51100000000E-03 0. -1.
         22    1    1    0    0    0  0.28722224435E+02  0.83207650435E+01 -0.30138207608E+01  0.30054690532E+02  0.00000000000E+00 0.  1.
</event>
<event>
 5    1  0.1043455E-009  0.9118800E+02  0.7561462E-02  0.1125453E+00
         25   -1    0    0    0    0  0.00000000000E+00  0.00000000000E+00  0.99999998245E-14  0.12509000000E+03  0.12509000000E+03 0.  0.
        -11    1    3    3    0    0  0.28371297640E+02 -0.35555466205E+01  0.54414910452E+02  0.61469951369E+02  0.51100000000E-03 0. -1.
         23    2    1    0    0    0  0.12025694803E+02 -0.97318189237E+01  0.26627546318E+02  0.94294677985E+02  0.89124264027E+02 0.  0.
         11    1    3    3    0    0 -0.16345602837E+02 -0.61762723032E+01 -0.27787364134E+02  0.32824726616E+02  0.51100000000E-03 0.  1.
         22    1    1    0    0    0 -0.12025694803E+02  0.97318189237E+01 -0.26627546318E+02  0.30795322015E+02  0.00000000000E+00 0. -1.
</event>
<event>
 5    1  0.1043455E-009  0.9118800E+02  0.7561462E-02  0.1125453E+00
         25   -1    0    0    0    0  0.00000000000E+00  0.00000000000E+00  0.99999998245E-14  0.12509000000E+03  0.12509000000E+03 0.  0.
        -11    1    3    3    0    0  0.46970305832E+02 -0.85725906135E+01  0.16147283490E+02  0.50402715246E+02  0.51100000000E-03 0.  1.
         23    2    1    0    0    0  0.14848099780E+02 -0.21024871545E+02 -0.13652538913E+02  0.95954058119E+02  0.91423619268E+02 0.  0.
         11    1    3    3    0    0 -0.32122206052E+02 -0.12452280931E+02 -0.29799822402E+02  0.45551342873E+02  0.51100000000E-03 0. -1.
         22    1    1    0    0    0 -0.14848099780E+02  0.21024871545E+02  0.13652538913E+02  0.29135941881E+02  0.00000000000E+00 0. -1.
</event>
<event>
 5    1  0.1043455E-009  0.9118800E+02  0.7561462E-02  0.1125453E+00
         25   -1    0    0    0    0  0.00000000000E+00  0.00000000000E+00  0.99999998245E-14  0.12509000000E+03  0.12509000000E+03 0.  0.
        -11    1    3    3    0    0  0.76394908816E+01  0.49239341911E+02 -0.35189825527E+02  0.61001626483E+02  0.51100000000E-03 0.  1.
         23    2    1    0    0    0  0.38178974428E+01  0.16490605592E+02 -0.23800240213E+02  0.95884386706E+02  0.91328241887E+02 0.  0.
         11    1    3    3    0    0 -0.38215934389E+01 -0.32748736319E+02  0.11389585314E+02  0.34882760223E+02  0.51100000000E-03 0. -1.
         22    1    1    0    0    0 -0.38178974428E+01 -0.16490605592E+02  0.23800240213E+02  0.29205613294E+02  0.00000000000E+00 0.  1.
</event>
<event>
 5    1  0.1043455E-009  0.9118800E+02  0.7561462E-02  0.1125453E+00
         25   -1    0    0    0    0  0.00000000000E+00  0.00000000000E+00  0.99999998245E-14  0.12509000000E+03  0.12509000000E+03 0.  0.
        -11    1    3    3    0    0 -0.50695737757E+02 -0.17884338865E+02 -0.28759916591E+02  0.60967534032E+02  0.51100000000E-03 0. -1.
         23    2    1    0    0    0 -0.26210355193E+02 -0.26690933237E+01 -0.51143012692E+01  0.98252286685E+02  0.94515866302E+02 0.  0.
         11    1    3    3    0    0  0.24485382564E+02  0.15215245542E+02  0.23645615322E+02  0.37284752653E+02  0.51100000000E-03 0.  1.
         22    1    1    0    0    0  0.26210355193E+02  0.26690933237E+01  0.51143012692E+01  0.26837713315E+02  0.00000000000E+00 0. -1.
</event>
<event>
 5    1  0.1043455E-009  0.9118800E+02  0.7561462E-02  0.1125453E+00
         25   -1    0    0    0    0  0.00000000000E+00  0.00000000000E+00  0.99999998245E-14  0.12509000000E+03  0.12509000000E+03 0.  0.
        -11    1    3    3    0    0 -0.22593461005E+02  0.28509467156E+02 -0.25618829133E+02  0.44492455586E+02  0.51100000000E-03 0. -1.
         23    2    1    0    0    0 -0.26294006868E+02 -0.51826684605E+01  0.12514560554E+02  0.95512152286E+02  0.90816970655E+02 0.  0.
         11    1    3    3    0    0 -0.37005458630E+01 -0.33692135616E+02  0.38133389686E+02  0.51019696700E+02  0.51100000000E-03 0.  1.
         22    1    1    0    0    0  0.26294006868E+02  0.51826684605E+01 -0.12514560554E+02  0.29577847714E+02  0.00000000000E+00 0.  1.
</event>
<event>
 5    1  0.1043455E-009  0.9118800E+02  0.7561462E-02  0.1125453E+00
         25   -1    0    0    0    0  0.00000000000E+00  0.00000000000E+00  0.99999998245E-14  0.12509000000E+03  0.12509000000E+03 0.  0.
        -11    1    3    3    0    0  0.55443082209E+02  0.18426304236E+02 -0.45353112160E+01  0.58600623723E+02  0.51100000000E-03 0.  1.
         23    2    1    0    0    0  0.27260609802E+02 -0.71887090080E+01 -0.33057211131E+01  0.96704331503E+02  0.92444478231E+02 0.  0.
         11    1    3    3    0    0 -0.28182472407E+02 -0.25615013244E+02  0.12295901029E+01  0.38103707780E+02  0.51100000000E-03 0. -1.
         22    1    1    0    0    0 -0.27260609802E+02  0.71887090080E+01  0.33057211131E+01  0.28385668497E+02  0.00000000000E+00 0.  1.
</event>
<event>
 5    1  0.1043455E-009  0.9118800E+02  0.7561462E-02  0.1125453E+00
         25   -1    0    0    0    0  0.00000000000E+00  0.00000000000E+00  0.99999998245E-14  0.12509000000E+03  0.12509000000E+03 0.  0.
        -11    1    3    3    0    0 -0.33522969343E+02 -0.16974642375E+02  0.91967763779E+01  0.38684734112E+02  0.51100000000E-03 0.  1.
         23    2    1    0    0    0  0.18871604283E+02 -0.17177471490E+02 -0.13997998665E+02  0.95984211201E+02  0.91464866797E+02 0.  0.
         11    1    3    3    0    0  0.52394573626E+02 -0.20282911464E+00 -0.23194775043E+02  0.57299477089E+02  0.51100000000E-03 0. -1.
         22    1    1    0    0    0 -0.18871604283E+02  0.17177471490E+02  0.13997998665E+02  0.29105788799E+02  0.00000000000E+00 0. -1.
</event>
<event>
 5    1  0.1043455E-009  0.9118800E+02  0.7561462E-02  0.1125453E+00
         25   -1    0    0    0    0  0.00000000000E+00  0.00000000000E+00  0.99999998245E-14  0.12509000000E+03  0.12509000000E+03 0.  0.
        -11    1    3    3    0    0  0.48362596313E+02  0.59664741238E+01 -0.20519010360E+02  0.52873143674E+02  0.51100000000E-03 0. -1.
         23    2    1    0    0    0  0.15079604888E+02  0.25713218026E+02 -0.37639153023E+01  0.95044515759E+02  0.90170554244E+02 0.  0.
         11    1    3    3    0    0 -0.33282991424E+02  0.19746743903E+02  0.16755095057E+02  0.42171372085E+02  0.51100000000E-03 0.  1.
         22    1    1    0    0    0 -0.15079604888E+02 -0.25713218026E+02  0.37639153023E+01  0.30045484241E+02  0.00000000000E+00 0. -1.
</event>
<event>
 5    1  0.1043455E-009  0.9118800E+02  0.7561462E-02  0.1125453E+00
         25   -1    0    0    0    0  0.00000000000E+00  0.00000000000E+00  0.99999998245E-14  0.12509000000E+03  0.12509000000E+03 0.  0.
        -11    1    3    3    0    0 -0.10379495004E+02 -0.22233220951E+02 -0.45934263787E+02  0.52076929828E+02  0.51100000000E-03 0.  1.
         23    2    1    0    0    0 -0.81998282005E+01 -0.26918667687E+02 -0.13943587553E+01  0.96915612892E+02  0.92729930084E+02 0.  0.
         11    1    3    3    0    0  0.21796668033E+01 -0.46854467364E+01  0.44539905031E+02  0.44838683065E+02  0.51100000000E-03 0. -1.
         22    1    1    0    0    0  0.81998282005E+01  0.26918667687E+02  0.13943587553E+01  0.28174387108E+02  0.00000000000E+00 0.  1.
</event>
<event>
 5    1  0.1043455E-009  0.9118800E+02  0.7561462E-02  0.1125453E+00
         25   -1    0    0    0    0  0.00000000000E+00  0.00000000000E+00  0.99999998245E-14  0.12509000000E+03  0.12509000000E+03 0.  0.
        -11    1    3    3    0    0  0.28341933798E+02 -0.33022151247E+02  0.14391449685E+02  0.45834937643E+02  0.51100000000E-03 0.  1.
         23    2    1    0    0    0  0.21948976211E+02  0.39243214810E+01 -0.18810911656E+02  0.95917954252E+02  0.91374206945E+02 0.  0.
         11    1    3    3    0    0 -0.63929575874E+01  0.36946472728E+02 -0.33202361342E+02  0.50083016609E+02  0.51100000000E-03 0. -1.
         22    1    1    0    0    0 -0.21948976211E+02 -0.39243214810E+01  0.18810911656E+02  0.29172045748E+02  0.00000000000E+00 0. -1.
</event>
<event>
 5    1  0.1043455E-009  0.9118800E+02  0.7561462E-02  0.1125453E+00
         25   -1    0    0    0    0  0.00000000000E+00  0.00000000000E+00  0.99999998245E-14  0.12509000000E+03  0.12509000000E+03 0.  0.
        -11    1    3    3    0    0  0.11053102453E+02 -0.21796771958E+01  0.34281274867E+02  0.36085008982E+02  0.51100000000E-03 0. -1.
         23    2    1    0    0    0  0.20526872766E+02 -0.10306822806E+02 -0.21730310626E+02  0.93470551842E+02  0.87959959981E+02 0.  0.
         11    1    3    3    0    0  0.94737703130E+01 -0.81271456105E+01 -0.56011585492E+02  0.57385542860E+02  0.51100000000E-03 0.  1.
         22    1    1    0    0    0 -0.20526872766E+02  0.10306822806E+02  0.21730310626E+02  0.31619448158E+02  0.00000000000E+00 0.  1.
</event>
<event>
 5    1  0.1043455E-009  0.9118800E+02  0.7561462E-02  0.1125453E+00
         25   -1    0    0    0    0  0.00000000000E+00  0.00000000000E+00  0.99999998245E-14  0.12509000000E+03  0.12509000000E+03 0.  0.
        -11    1    3    3    0    0 -0.61192636093E+00  0.33507083275E+02  0.25302247505E+02  0.41991699329E+02  0.51100000000E-03 0. -1.
         23    2    1    0    0    0  0.21872387930E+02 -0.59881212029E+01 -0.10742268413E+02  0.99997067131E+02  0.96797511099E+02 0.  0.
         11    1    3    3    0    0  0.22484314291E+02 -0.39495204478E+02 -0.36044515918E+02  0.58005367802E+02  0.51100000000E-03 0.  1.
         22    1    1    0    0    0 -0.21872387930E+02  0.59881212029E+01  0.10742268413E+02  0.25092932869E+02  0.00000000000E+00 0.  1.
</event>
<event>
 5    1  0.1043455E-009  0.9118800E+02  0.7561462E-02  0.1125453E+00
         25   -1    0    0    0    0  0.00000000000E+00  0.00000000000E+00  0.99999998245E-14  0.12509000000E+03  0.12509000000E+03 0.  0.
        -11    1    3    3    0    0  0.98413524501E+01 -0.29651183367E+02  0.12963282576E+02  0.33824422959E+02  0.51100000000E-03 0.  1.
         23    2    1    0    0    0 -0.79690434096E+01  0.21859054861E+02 -0.17236531498E+02  0.96134483248E+02  0.91670152825E+02 0.  0.
         11    1    3    3    0    0 -0.17810395860E+02  0.51510238227E+02 -0.30199814074E+02  0.62310060290E+02  0.51100000000E-03 0. -1.
         22    1    1    0    0    0  0.79690434096E+01 -0.21859054861E+02  0.17236531498E+02  0.28955516752E+02  0.00000000000E+00 0. -1.
</event>
<event>
 5    1  0.1043455E-009  0.9118800E+02  0.7561462E-02  0.1125453E+00
         25   -1    0    0    0    0  0.00000000000E+00  0.00000000000E+00  0.99999998245E-14  0.12509000000E+03  0.12509000000E+03 0.  0.
        -11    1    3    3    0    0 -0.46549652770E+02  0.24555938286E+02 -0.31038917620E+02  0.61100562071E+02  0.51100000000E-03 0. -1.
         23    2    1    0    0    0 -0.19701808883E+02  0.16723420842E+02 -0.61797901884E+01  0.98518890036E+02  0.94868054736E+02 0.  0.
         11    1    3    3    0    0  0.26847843886E+02 -0.78325174443E+01  0.24859127431E+02  0.37418327966E+02  0.51100000000E-03 0.  1.
         22    1    1    0    0    0  0.19701808883E+02 -0.16723420842E+02  0.61797901884E+01  0.26571109964E+02  0.00000000000E+00 0. -1.
</event>
<event>
 5    1  0.1043455E-009  0.9118800E+02  0.7561462E-02  0.1125453E+00
         25   -1    0    0    0    0  0.00000000000E+00  0.00000000000E+00  0.99999998245E-14  0.12509000000E+03  0.12509000000E+03 0.  0.
        -11    1    3    3    0    0 -0.62152042831E+01 -0.35587327931E+02  0.67289310215E+01  0.36747315365E+02  0.51100000000E-03 0.  1.
         23    2    1    0    0    0  0.28172850346E+02  0.96437726261E+01 -0.53488069580E+01  0.94835717940E+02  0.89880430653E+02 0.  0.
         11    1    3    3    0    0  0.34388054629E+02  0.45231100558E+02 -0.12077737979E+02  0.58088402575E+02  0.51100000000E-03 0. -1.
         22    1    1    0    0    0 -0.28172850346E+02 -0.96437726261E+01  0.53488069580E+01  0.30254282060E+02  0.00000000000E+00 0. -1.
</event>
<event>
 5    1  0.1043455E-009  0.9118800E+02  0.7561462E-02  0.1125453E+00
         25   -1    0    0    0    0  0.00000000000E+00  0.00000000000E+00  0.99999998245E-14  0.12509000000E+03  0.12509000000E+03 0.  0.
        -11    1    3    3    0    0  0.22132344466E+02 -0.44649358422E+02  0.21978387015E+02  0.54465175802E+02  0.51100000000E-03 0. -1.
         23    2    1    0    0    0  0.29232553162E+02 -0.93430016083E+01  0.62125843338E+01  0.93778180386E+02  0.88396363437E+02 0.  0.
         11    1    3    3    0    0  0.71002086967E+01  0.35306356814E+02 -0.15765802681E+02  0.39313004584E+02  0.51100000000E-03 0.  1.
         22    1    1    0    0    0 -0.29232553162E+02  0.93430016083E+01 -0.62125843338E+01  0.31311819614E+02  0.00000000000E+00 0. -1.
</event>
<event>
 5    1  0.1043455E-009  0.9118800E+02  0.7561462E-02  0.1125453E+00
         25   -1    0    0    0    0  0.00000000000E+00  0.00000000000E+00  0.99999998245E-14  0.12509000000E+03  0.12509000000E+03 0.  0.
        -11    1    3    3    0    0  0.21927819600E+02  0.37505462432E+01  0.32319808394E+02  0.39236027888E+02  0.51100000000E-03 0.  1.
         23    2    1    0    0    0 -0.12160358009E+00  0.23898487217E+02 -0.16204078220E+02  0.96215709885E+02  0.91780925028E+02 0.  0.
         11    1    3    3    0    0 -0.22049423180E+02  0.20147940974E+02 -0.48523886614E+02  0.56979681997E+02  0.51100000000E-03 0. -1.
         22    1    1    0    0    0  0.12160358009E+00 -0.23898487217E+02  0.16204078220E+02  0.28874290115E+02  0.00000000000E+00 0. -1.
</event>
<event>
 5    1  0.1043455E-009  0.9118800E+02  0.7561462E-02  0.1125453E+00
         25   -1    0    0    0    0  0.00000000000E+00  0.00000000000E+00  0.99999998245E-14  0.12509000000E+03  0.12509000000E+03 0.  0.
        -11    1    3    3    0    0 -0.10542494387E+02 -0.34259061062E+02 -0.40972532299E+02  0.54438734886E+02  0.51100000000E-03 0.  1.
         23    2    1    0    0    0  0.11564136104E+02 -0.23294125934E+02 -0.41661097210E+01  0.98751776502E+02  0.95174636039E+02 0.  0.
         11    1    3    3    0    0  0.22106630491E+02  0.10964935129E+02  0.36806422578E+02  0.44313041616E+02  0.51100000000E-03 0. -1.
         22    1    1    0    0    0 -0.11564136104E+02  0.23294125934E+02  0.41661097210E+01  0.26338223498E+02  0.00000000000E+00 0.  1.
</event>
<event>
 5    1  0.1043455E-009  0.9118800E+02  0.7561462E-02  0.1125453E+00
         25   -1    0    0    0    0  0.00000000000E+00  0.00000000000E+00  0.99999998245E-14  0.12509000000E+03  0.12509000000E+03 0.  0.
        -11    1    3    3    0    0  0.43389965043E+02 -0.34096759250E+02  0.19007941106E+02  0.58365913710E+02  0.51100000000E-03 0. -1.
         23    2    1    0    0    0  0.20008870127E+02 -0.81768547759E+01  0.23031325876E+02  0.93504278394E+02  0.88007910261E+02 0.  0.
         11    1    3    3    0    0 -0.23381094916E+02  0.25919904474E+02  0.40233847696E+01  0.35138364684E+02  0.51100000000E-03 0.  1.
         22    1    1    0    0    0 -0.20008870127E+02  0.81768547759E+01 -0.23031325876E+02  0.31585721606E+02  0.00000000000E+00 0. -1.
</event>
<event>
 5    1  0.1043455E-009  0.9118800E+02  0.7561462E-02  0.1125453E+00
         25   -1    0    0    0    0  0.00000000000E+00  0.00000000000E+00  0.99999998245E-14  0.12509000000E+03  0.12509000000E+03 0.  0.
        -11    1    3    3    0    0  0.53287196065E+02  0.22818579895E+02 -0.18050252146E+02  0.60712638353E+02  0.51100000000E-03 0. -1.
         23    2    1    0    0    0  0.31103701188E+02  0.76813720449E+01 -0.34140691743E-01  0.93051821686E+02  0.87362444159E+02 0.  0.
         11    1    3    3    0    0 -0.22183494877E+02 -0.15137207851E+02  0.18016111454E+02  0.32339183334E+02  0.51100000000E-03 0.  1.
         22    1    1    0    0    0 -0.31103701188E+02 -0.76813720449E+01  0.34140691743E-01  0.32038178314E+02  0.00000000000E+00 0. -1.
</event>
<event>
 5    1  0.1043455E-009  0.9118800E+02  0.7561462E-02  0.1125453E+00
         25   -1    0    0    0    0  0.00000000000E+00  0.00000000000E+00  0.99999998245E-14  0.12509000000E+03  0.12509000000E+03 0.  0.
        -11    1    3    3    0    0 -0.19298206872E+02  0.30132092985E+02  0.16252516120E+02  0.39300230237E+02  0.51100000000E-03 0.  1.
         23    2    1    0    0    0  0.28290374048E+02  0.12189785435E+01  0.85294221446E+01  0.95516663790E+02  0.90823184524E+02 0.  0.
         11    1    3    3    0    0  0.47588580920E+02 -0.28913114442E+02 -0.77230939758E+01  0.56216433554E+02  0.51100000000E-03 0. -1.
         22    1    1    0    0    0 -0.28290374048E+02 -0.12189785435E+01 -0.85294221446E+01  0.29573336210E+02  0.00000000000E+00 0. -1.
</event>
<event>
 5    1  0.1043455E-009  0.9118800E+02  0.7561462E-02  0.1125453E+00
         25   -1    0    0    0    0  0.00000000000E+00  0.00000000000E+00  0.99999998245E-14  0.12509000000E+03  0.12509000000E+03 0.  0.
        -11    1    3    3    0    0 -0.50535068730E+00  0.21608049937E+02  0.21895637504E+02  0.30766575100E+02  0.51100000000E-03 0.  1.
         23    2    1    0    0    0 -0.61073886466E+01 -0.29961163457E+02 -0.11457419629E+02  0.92436608502E+02  0.86477064098E+02 0.  0.
         11    1    3    3    0    0 -0.56020379593E+01 -0.51569213394E+02 -0.33353057133E+02  0.61670033402E+02  0.51100000000E-03 0. -1.
         22    1    1    0    0    0  0.61073886466E+01  0.29961163457E+02  0.11457419629E+02  0.32653391498E+02  0.00000000000E+00 0. -1.
</event>
<event>
 5    1  0.1043455E-009  0.9118800E+02  0.7561462E-02  0.1125453E+00
         25   -1    0    0    0    0  0.00000000000E+00  0.00000000000E+00  0.99999998245E-14  0.12509000000E+03  0.12509000000E+03 0.  0.
        -11    1    3    3    0    0 -0.53454090164E+02 -0.14462642300E+02  0.14407974753E+02  0.57219730114E+02  0.51100000000E-03 0.  1.
         23    2    1    0    0    0 -0.17644149949E+02 -0.19091407754E+02 -0.55958683247E+01  0.98498429536E+02  0.94841072333E+02 0.  0.
         11    1    3    3    0    0  0.35809940215E+02 -0.46287654546E+01 -0.20003843078E+02  0.41278699422E+02  0.51100000000E-03 0. -1.
         22    1    1    0    0    0  0.17644149949E+02  0.19091407754E+02  0.55958683247E+01  0.26591570464E+02  0.00000000000E+00 0.  1.
</event>
<event>
 5    1  0.1043455E-009  0.9118800E+02  0.7561462E-02  0.1125453E+00
         25   -1    0    0    0    0  0.00000000000E+00  0.00000000000E+00  0.99999998245E-14  0.12509000000E+03  0.12509000000E+03 0.  0.
        -11    1    3    3    0    0  0.56841906514E+01 -0.11306152722E+02  0.51933764787E+02  0.53453297728E+02  0.51100000000E-03 0. -1.
         23    2    1    0    0    0  0.23798607030E+02  0.42102525327E+01  0.17890268494E+02  0.95020719501E+02  0.90137536603E+02 0.  0.
         11    1    3    3    0    0  0.18114416378E+02  0.15516405254E+02 -0.34043496294E+02  0.41567421773E+02  0.51100000000E-03 0.  1.
         22    1    1    0    0    0 -0.23798607030E+02 -0.42102525327E+01 -0.17890268494E+02  0.30069280499E+02  0.00000000000E+00 0.  1.
</event>
<event>
 5    1  0.1043455E-009  0.9118800E+02  0.7561462E-02  0.1125453E+00
         25   -1    0    0    0    0  0.00000000000E+00  0.00000000000E+00  0.99999998245E-14  0.12509000000E+03  0.12509000000E+03 0.  0.
        -11    1    3    3    0    0 -0.24680480146E+02 -0.52170728251E+02 -0.71816411921E+00  0.57718513030E+02  0.51100000000E-03 0. -1.
         23    2    1    0    0    0 -0.24151545571E+02 -0.15967808915E+02  0.81821763274E+01  0.95003190856E+02  0.90113207624E+02 0.  0.
         11    1    3    3    0    0  0.52893457477E+00  0.36202919336E+02  0.89003404466E+01  0.37284677825E+02  0.51100000000E-03 0.  1.
         22    1    1    0    0    0  0.24151545571E+02  0.15967808915E+02 -0.81821763274E+01  0.30086809144E+02  0.00000000000E+00 0. -1.
</event>
<event>
 5    1  0.1043455E-009  0.9118800E+02  0.7561462E-02  0.1125453E+00
         25   -1    0    0    0    0  0.00000000000E+00  0.00000000000E+00  0.99999998245E-14  0.12509000000E+03  0.12509000000E+03 0.  0.
        -11    1    3    3    0    0 -0.31892194864E+02 -0.43920279096E+02  0.26173062831E+02  0.60258876752E+02  0.51100000000E-03 0.  1.
         23    2    1    0    0    0 -0.18864053220E+02 -0.11555705071E+02  0.19113961880E+02  0.95854228036E+02  0.91286924968E+02 0.  0.
         11    1    3    3    0    0  0.13028141645E+02  0.32364574025E+02 -0.70591009505E+01  0.35595351284E+02  0.51100000000E-03 0. -1.
         22    1    1    0    0    0  0.18864053220E+02  0.11555705071E+02 -0.19113961880E+02  0.29235771964E+02  0.00000000000E+00 0.  1.
</event>
<event>
 5    1  0.1043455E-009  0.9118800E+02  0.7561462E-02  0.1125453E+00
         25   -1    0    0    0    0  0.00000000000E+00  0.00000000000E+00  0.99999998245E-14  0.12509000000E+03  0.12509000000E+03 0.  0.
        -11    1    3    3    0    0 -0.35611897014E+02 -0.50118571649E+01 -0.52543808081E+01  0.36344661769E+02  0.51100000000E-03 0.  1.
         23    2    1    0    0    0  0.18843320208E+02 -0.14709431123E+02  0.16779755765E+02  0.95883865645E+02  0.91327528200E+02 0.  0.
         11    1    3    3    0    0  0.54455217222E+02 -0.96975739577E+01  0.22034136573E+02  0.59539203876E+02  0.51100000000E-03 0. -1.
         22    1    1    0    0    0 -0.18843320208E+02  0.14709431123E+02 -0.16779755765E+02  0.29206134355E+02  0.00000000000E+00 0. -1.
</event>
<event>
 5    1  0.1043455E-009  0.9118800E+02  0.7561462E-02  0.1125453E+00
         25   -1    0    0    0    0  0.00000000000E+00  0.00000000000E+00  0.99999998245E-14  0.12509000000E+03  0.12509000000E+03 0.  0.
        -11    1    3    3    0    0 -0.45200214577E+02 -0.45536209704E+01 -0.18459507653E+01  0.45466497514E+02  0.51100000000E-03 0. -1.
         23    2    1    0    0    0 -0.74408386585E+01  0.25210681974E+02 -0.14345124803E+02  0.95144596828E+02  0.90309285981E+02 0.  0.
         11    1    3    3    0    0  0.37759375918E+02  0.29764302945E+02 -0.12499174038E+02  0.49678099313E+02  0.51100000000E-03 0.  1.
         22    1    1    0    0    0  0.74408386585E+01 -0.25210681974E+02  0.14345124803E+02  0.29945403172E+02  0.00000000000E+00 0. -1.
</event>
<event>
 5    1  0.1043455E-009  0.9118800E+02  0.7561462E-02  0.1125453E+00
         25   -1    0    0    0    0  0.00000000000E+00  0.00000000000E+00  0.99999998245E-14  0.12509000000E+03  0.12509000000E+03 0.  0.
        -11    1    3    3    0    0 -0.44401049048E+02  0.22575626730E+02 -0.29590898360E+02  0.57937322554E+02  0.51100000000E-03 0. -1.
         23    2    1    0    0    0 -0.72643555219E+01  0.97827030544E+01 -0.24737391281E+02  0.97514455262E+02  0.93534262800E+02 0.  0.
         11    1    3    3    0    0  0.37136693526E+02 -0.12792923675E+02  0.48535070791E+01  0.39577132708E+02  0.51100000000E-03 0.  1.
         22    1    1    0    0    0  0.72643555219E+01 -0.97827030544E+01  0.24737391281E+02  0.27575544738E+02  0.00000000000E+00 0. -1.
</event>
<event>
 5    1  0.1043455E-009  0.9118800E+02  0.7561462E-02  0.1125453E+00
         25   -1    0    0    0    0  0.00000000000E+00  0.00000000000E+00  0.99999998245E-14  0.12509000000E+03  0.12509000000E+03 0.  0.
        -11    1    3    3    0    0  0.53215813756E+01 -0.55387535523E+02  0.32411922142E+01  0.55736914580E+02  0.51100000000E-03 0. -1.
         23    2    1    0    0    0  0.21892375054E+02 -0.19117619319E+02  0.47408838736E+01  0.95641138667E+02  0.90994461214E+02 0.  0.
         11    1    3    3    0    0  0.16570793679E+02  0.36269916205E+02  0.14996916594E+01  0.39904224087E+02  0.51100000000E-03 0.  1.
         22    1    1    0    0    0 -0.21892375054E+02  0.19117619319E+02 -0.47408838736E+01  0.29448861333E+02  0.00000000000E+00 0. -1.
</event>
<event>
 5    1  0.1043455E-009  0.9118800E+02  0.7561462E-02  0.1125453E+00
         25   -1    0    0    0    0  0.00000000000E+00  0.00000000000E+00  0.99999998245E-14  0.12509000000E+03  0.12509000000E+03 0.  0.
        -11    1    3    3    0    0  0.47782472769E+01  0.49542510719E+02 -0.10537588329E+02  0.50875660030E+02  0.51100000000E-03 0. -1.
         23    2    1    0    0    0  0.26552317381E+02  0.11726726896E+02 -0.95824793637E+01  0.94522605725E+02  0.89443598990E+02 0.  0.
         11    1    3    3    0    0  0.21774070104E+02 -0.37815783824E+02  0.95510896561E+00  0.43646945695E+02  0.51100000000E-03 0.  1.
         22    1    1    0    0    0 -0.26552317381E+02 -0.11726726896E+02  0.95824793637E+01  0.30567394275E+02  0.00000000000E+00 0. -1.
</event>
<event>
 5    1  0.1043455E-009  0.9118800E+02  0.7561462E-02  0.1125453E+00
         25   -1    0    0    0    0  0.00000000000E+00  0.00000000000E+00  0.99999998245E-14  0.12509000000E+03  0.12509000000E+03 0.  0.
        -11    1    3    3    0    0  0.31960382800E+02  0.31765965195E+02  0.27681976724E+02  0.52885106118E+02  0.51100000000E-03 0.  1.
         23    2    1    0    0    0 -0.31697232997E+01  0.74588720855E+01  0.28344336105E+02  0.95609781075E+02  0.90951343747E+02 0.  0.
         11    1    3    3    0    0 -0.35130106100E+02 -0.24307093109E+02  0.66235938124E+00  0.42724674957E+02  0.51100000000E-03 0. -1.
         22    1    1    0    0    0  0.31697232997E+01 -0.74588720855E+01 -0.28344336105E+02  0.29480218925E+02  0.00000000000E+00 0. -1.
</event>
<event>
 5    1  0.1043455E-009  0.9118800E+02  0.7561462E-02  0.1125453E+00
         25   -1    0    0    0    0  0.00000000000E+00  0.00000000000E+00  0.99999998245E-14  0.12509000000E+03  0.12509000000E+03 0.  0.
        -11    1    3    3    0    0  0.58746573207E+01  0.29601955674E+02  0.27188892074E+02  0.40620477975E+02  0.51100000000E-03 0. -1.
         23    2    1    0    0    0  0.20799949145E+02  0.39265125925E+01 -0.19733110599E+02  0.96151253664E+02  0.91693034314E+02 0.  0.
         11    1    3    3    0    0  0.14925291825E+02 -0.25675443082E+02 -0.46922002674E+02  0.55530775689E+02  0.51100000000E-03 0.  1.
         22    1    1    0    0    0 -0.20799949145E+02 -0.39265125925E+01  0.19733110599E+02  0.28938746336E+02  0.00000000000E+00 0.  1.
</event>
<event>
 5    1  0.1043455E-009  0.9118800E+02  0.7561462E-02  0.1125453E+00
         25   -1    0    0    0    0  0.00000000000E+00  0.00000000000E+00  0.99999998245E-14  0.12509000000E+03  0.12509000000E+03 0.  0.
        -11    1    3    3    0    0  0.26346878013E+02 -0.29542203266E+02 -0.60464171572E+01  0.40043213102E+02  0.51100000000E-03 0.  1.
         23    2    1    0    0    0  0.15318831421E+01  0.17598113604E+02 -0.23128082737E+02  0.95987620725E+02  0.91469529642E+02 0.  0.
         11    1    3    3    0    0 -0.24814994871E+02  0.47140316869E+02 -0.17081665580E+02  0.55944407623E+02  0.51100000000E-03 0. -1.
         22    1    1    0    0    0 -0.15318831421E+01 -0.17598113604E+02  0.23128082737E+02  0.29102379275E+02  0.00000000000E+00 0. -1.
</event>
<event>
 5    1  0.1043455E-009  0.9118800E+02  0.7561462E-02  0.1125453E+00
         25   -1    0    0    0    0  0.00000000000E+00  0.00000000000E+00  0.99999998245E-14  0.12509000000E+03  0.12509000000E+03 0.  0.
        -11    1    3    3    0    0  0.37365349011E+02  0.85261420547E+01 -0.39249737263E+02  0.54858055749E+02  0.51100000000E-03 0.  1.
         23    2    1    0    0    0  0.66817884988E+01  0.23261563403E+02 -0.16238106456E+02  0.95945142293E+02  0.91411419411E+02 0.  0.
         11    1    3    3    0    0 -0.30683560512E+02  0.14735421348E+02  0.23011630807E+02  0.41087086544E+02  0.51100000000E-03 0. -1.
         22    1    1    0    0    0 -0.66817884988E+01 -0.23261563403E+02  0.16238106456E+02  0.29144857707E+02  0.00000000000E+00 0.  1.
</event>
<event>
 5    1  0.1043455E-009  0.9118800E+02  0.7561462E-02  0.1125453E+00
         25   -1    0    0    0    0  0.00000000000E+00  0.00000000000E+00  0.99999998245E-14  0.12509000000E+03  0.12509000000E+03 0.  0.
        -11    1    3    3    0    0 -0.43704971612E+02 -0.21861711832E+01 -0.13637874505E+02  0.45835526716E+02  0.51100000000E-03 0. -1.
         23    2    1    0    0    0  0.66733436773E+01 -0.65536781089E+01 -0.25631126018E+02  0.97805593583E+02  0.93922815666E+02 0.  0.
         11    1    3    3    0    0  0.50378315289E+02 -0.43675069256E+01 -0.11993251512E+02  0.51970066867E+02  0.51100000000E-03 0.  1.
         22    1    1    0    0    0 -0.66733436773E+01  0.65536781089E+01  0.25631126018E+02  0.27284406417E+02  0.00000000000E+00 0.  1.
</event>
<event>
 5    1  0.1043455E-009  0.9118800E+02  0.7561462E-02  0.1125453E+00
         25   -1    0    0    0    0  0.00000000000E+00  0.00000000000E+00  0.99999998245E-14  0.12509000000E+03  0.12509000000E+03 0.  0.
        -11    1    3    3    0    0  0.16801911622E+02  0.29582059082E+02 -0.41498009912E+01  0.34272777860E+02  0.51100000000E-03 0. -1.
         23    2    1    0    0    0  0.24345340895E+01 -0.29655487591E+02 -0.66387035598E+00  0.95327345140E+02  0.90562062184E+02 0.  0.
         11    1    3    3    0    0 -0.14367377533E+02 -0.59237546673E+02  0.34859306352E+01  0.61054567280E+02  0.51100000000E-03 0.  1.
         22    1    1    0    0    0 -0.24345340895E+01  0.29655487591E+02  0.66387035598E+00  0.29762654860E+02  0.00000000000E+00 0.  1.
</event>
<event>
 4    1  0.1043455E-009  0.9118800E+02  0.7561462E-02  0.1125453E+00
         25   -1    0    0    0    0  0.00000000000E+00  0.00000000000E+00  0.99999998245E-14  0.12509000000E+03  0.12509000000E+03 0.  0.
        -11    1    1    0    0    0 -0.61915253964E+01  0.82953849232E+00  0.25103292258E+02  0.25868869386E+02  0.51100000000E-03 0. -1.
         11    1    1    0    0    0 -0.41890675411E+02  0.16300536974E+02 -0.11835182076E+02  0.46482337797E+02  0.51100000000E-03 0.  1.
         22    1    1    0    0    0  0.48082200808E+02 -0.17130075466E+02 -0.13268110182E+02  0.52738792817E+02  0.00000000000E+00 0.  1.
</event>
<event>
 5    1  0.1043455E-009  0.9118800E+02  0.7561462E-02  0.1125453E+00
         25   -1    0    0    0    0  0.00000000000E+00  0.00000000000E+00  0.99999998245E-14  0.12509000000E+03  0.12509000000E+03 0.  0.
        -11    1    3    3    0    0  0.38727276108E+01  0.82738701652E+01 -0.33910701816E+02  0.35119661795E+02  0.51100000000E-03 0.  1.
         23    2    1    0    0    0  0.26940324850E+01 -0.24423703020E+02  0.16696349337E+02  0.95382371999E+02  0.90638036865E+02 0.  0.
         11    1    3    3    0    0 -0.11786951258E+01 -0.32697573186E+02  0.50607051153E+02  0.60262710204E+02  0.51100000000E-03 0. -1.
         22    1    1    0    0    0 -0.26940324850E+01  0.24423703020E+02 -0.16696349337E+02  0.29707628001E+02  0.00000000000E+00 0. -1.
</event>
<event>
 5    1  0.1043455E-009  0.9118800E+02  0.7561462E-02  0.1125453E+00
         25   -1    0    0    0    0  0.00000000000E+00  0.00000000000E+00  0.99999998245E-14  0.12509000000E+03  0.12509000000E+03 0.  0.
        -11    1    3    3    0    0  0.29163310051E+02  0.12464121358E+02 -0.38280735839E+02  0.49711846787E+02  0.51100000000E-03 0.  1.
         23    2    1    0    0    0  0.18834574504E+01 -0.16540221287E+02 -0.30587481604E+02  0.90265865222E+02  0.83277884586E+02 0.  0.
         11    1    3    3    0    0 -0.27279852601E+02 -0.29004342645E+02  0.76932542345E+01  0.40554018434E+02  0.51100000000E-03 0. -1.
         22    1    1    0    0    0 -0.18834574504E+01  0.16540221287E+02  0.30587481604E+02  0.34824134778E+02  0.00000000000E+00 0.  1.
</event>
<event>
 5    1  0.1043455E-009  0.9118800E+02  0.7561462E-02  0.1125453E+00
         25   -1    0    0    0    0  0.00000000000E+00  0.00000000000E+00  0.99999998245E-14  0.12509000000E+03  0.12509000000E+03 0.  0.
        -11    1    3    3    0    0 -0.81725984907E+01  0.31977880703E+02 -0.36992299091E+02  0.49576268643E+02  0.51100000000E-03 0. -1.
         23    2    1    0    0    0 -0.21361486283E+02  0.17103355278E+02  0.61181373316E+01  0.97049503171E+02  0.92910368654E+02 0.  0.
         11    1    3    3    0    0 -0.13188887792E+02 -0.14874525424E+02  0.43110436422E+02  0.47473234528E+02  0.51100000000E-03 0.  1.
         22    1    1    0    0    0  0.21361486283E+02 -0.17103355278E+02 -0.61181373316E+01  0.28040496829E+02  0.00000000000E+00 0. -1.
</event>
<event>
 5    1  0.1043455E-009  0.9118800E+02  0.7561462E-02  0.1125453E+00
         25   -1    0    0    0    0  0.00000000000E+00  0.00000000000E+00  0.99999998245E-14  0.12509000000E+03  0.12509000000E+03 0.  0.
        -11    1    3    3    0    0 -0.47018638470E+02 -0.27473103956E+02 -0.90213990975E+01  0.55198817438E+02  0.51100000000E-03 0.  1.
         23    2    1    0    0    0 -0.24906475344E+02  0.57493560651E+01 -0.14846034636E+02  0.95530021082E+02  0.90841579545E+02 0.  0.
         11    1    3    3    0    0  0.22112163126E+02  0.33222460021E+02 -0.58246355384E+01  0.40331203644E+02  0.51100000000E-03 0. -1.
         22    1    1    0    0    0  0.24906475344E+02 -0.57493560651E+01  0.14846034636E+02  0.29559978918E+02  0.00000000000E+00 0.  1.
</event>
<event>
 5    1  0.1043455E-009  0.9118800E+02  0.7561462E-02  0.1125453E+00
         25   -1    0    0    0    0  0.00000000000E+00  0.00000000000E+00  0.99999998245E-14  0.12509000000E+03  0.12509000000E+03 0.  0.
        -11    1    3    3    0    0  0.69008106154E+01  0.17027967222E+02  0.33361814977E+02  0.38086527194E+02  0.51100000000E-03 0.  1.
         23    2    1    0    0    0 -0.17215191853E+02 -0.24820862851E+02  0.39777128706E+01  0.94622636102E+02  0.89583385737E+02 0.  0.
         11    1    3    3    0    0 -0.24116002468E+02 -0.41848830074E+02 -0.29384102107E+02  0.56536108908E+02  0.51100000000E-03 0. -1.
         22    1    1    0    0    0  0.17215191853E+02  0.24820862851E+02 -0.39777128706E+01  0.30467363898E+02  0.00000000000E+00 0. -1.
</event>
<event>
 5    1  0.1043455E-009  0.9118800E+02  0.7561462E-02  0.1125453E+00
         25   -1    0    0    0    0  0.00000000000E+00  0.00000000000E+00  0.99999998245E-14  0.12509000000E+03  0.12509000000E+03 0.  0.
        -11    1    3    3    0    0 -0.16986931782E+00  0.41428236285E+02  0.12561013091E+02  0.43290953644E+02  0.51100000000E-03 0.  1.
         23    2    1    0    0    0 -0.15945554522E+02  0.11382763715E+02 -0.24617413303E+02  0.93628196864E+02  0.88183865823E+02 0.  0.
         11    1    3    3    0    0 -0.15775685204E+02 -0.30045472570E+02 -0.37178426395E+02  0.50337243221E+02  0.51100000000E-03 0. -1.
         22    1    1    0    0    0  0.15945554522E+02 -0.11382763715E+02  0.24617413303E+02  0.31461803136E+02  0.00000000000E+00 0. -1.
</event>
<event>
 5    1  0.1043455E-009  0.9118800E+02  0.7561462E-02  0.1125453E+00
         25   -1    0    0    0    0  0.00000000000E+00  0.00000000000E+00  0.99999998245E-14  0.12509000000E+03  0.12509000000E+03 0.  0.
        -11    1    3    3    0    0  0.47112978234E+02 -0.25545039563E+02 -0.91741405066E+01  0.54372296426E+02  0.51100000000E-03 0.  1.
         23    2    1    0    0    0  0.33354425201E+01 -0.40493914896E+01  0.15283222991E+02  0.10893142168E+03  0.10772629659E+03 0.  0.
         11    1    3    3    0    0 -0.43777535714E+02  0.21495648073E+02  0.24457363498E+02  0.54559125257E+02  0.51100000000E-03 0. -1.
         22    1    1    0    0    0 -0.33354425201E+01  0.40493914896E+01 -0.15283222991E+02  0.16158578318E+02  0.00000000000E+00 0.  1.
</event>
<event>
 5    1  0.1043455E-009  0.9118800E+02  0.7561462E-02  0.1125453E+00
         25   -1    0    0    0    0  0.00000000000E+00  0.00000000000E+00  0.99999998245E-14  0.12509000000E+03  0.12509000000E+03 0.  0.
        -11    1    3    3    0    0  0.48098310751E+02  0.26935660823E+02  0.19432459381E+02  0.58451670625E+02  0.51100000000E-03 0.  1.
         23    2    1    0    0    0  0.24508618266E+02  0.17396336317E+02 -0.60156281704E+01  0.94438855342E+02  0.89326394361E+02 0.  0.
         11    1    3    3    0    0 -0.23589692485E+02 -0.95393245059E+01 -0.25448087551E+02  0.35987184717E+02  0.51100000000E-03 0. -1.
         22    1    1    0    0    0 -0.24508618266E+02 -0.17396336317E+02  0.60156281704E+01  0.30651144658E+02  0.00000000000E+00 0.  1.
</event>
<event>
 5    1  0.1043455E-009  0.9118800E+02  0.7561462E-02  0.1125453E+00
         25   -1    0    0    0    0  0.00000000000E+00  0.00000000000E+00  0.99999998245E-14  0.12509000000E+03  0.12509000000E+03 0.  0.
        -11    1    3    3    0    0 -0.83645100618E+00  0.17261337726E+02  0.36433815808E+02  0.40324637195E+02  0.51100000000E-03 0. -1.
         23    2    1    0    0    0  0.11236609919E+01 -0.28204083196E+02  0.31851024267E+01  0.96684405473E+02  0.92417511659E+02 0.  0.
         11    1    3    3    0    0  0.19601119980E+01 -0.45465420921E+02 -0.33248713381E+02  0.56359768278E+02  0.51100000000E-03 0.  1.
         22    1    1    0    0    0 -0.11236609919E+01  0.28204083196E+02 -0.31851024267E+01  0.28405594527E+02  0.00000000000E+00 0.  1.
</event>
<event>
 5    1  0.1043455E-009  0.9118800E+02  0.7561462E-02  0.1125453E+00
         25   -1    0    0    0    0  0.00000000000E+00  0.00000000000E+00  0.99999998245E-14  0.12509000000E+03  0.12509000000E+03 0.  0.
        -11    1    3    3    0    0  0.53784132175E+02  0.13912783867E+02 -0.21322583787E+02  0.59505890535E+02  0.51100000000E-03 0.  1.
         23    2    1    0    0    0  0.27192905040E+02  0.74064454811E+01  0.37871085418E+01  0.96653197959E+02  0.92375261653E+02 0.  0.
         11    1    3    3    0    0 -0.26591227135E+02 -0.65063383863E+01  0.25109692329E+02  0.37147307424E+02  0.51100000000E-03 0. -1.
         22    1    1    0    0    0 -0.27192905040E+02 -0.74064454811E+01 -0.37871085418E+01  0.28436802041E+02  0.00000000000E+00 0.  1.
</event>
<event>
 5    1  0.1043455E-009  0.9118800E+02  0.7561462E-02  0.1125453E+00
         25   -1    0    0    0    0  0.00000000000E+00  0.00000000000E+00  0.99999998245E-14  0.12509000000E+03  0.12509000000E+03 0.  0.
        -11    1    3    3    0    0 -0.33274966165E+02 -0.12468059801E+02 -0.27810046833E+02  0.45122883259E+02  0.51100000000E-03 0. -1.
         23    2    1    0    0    0  0.17192831073E+02 -0.77512629528E+01 -0.21953959902E+02  0.96147783895E+02  0.91688300643E+02 0.  0.
         11    1    3    3    0    0  0.50467797238E+02  0.47167968486E+01  0.58560869309E+01  0.51024900636E+02  0.51100000000E-03 0.  1.
         22    1    1    0    0    0 -0.17192831073E+02  0.77512629528E+01  0.21953959902E+02  0.28942216105E+02  0.00000000000E+00 0.  1.
</event>
<event>
 5    1  0.1043455E-009  0.9118800E+02  0.7561462E-02  0.1125453E+00
         25   -1    0    0    0    0  0.00000000000E+00  0.00000000000E+00  0.99999998245E-14  0.12509000000E+03  0.12509000000E+03 0.  0.
        -11    1    3    3    0    0 -0.20854364371E+02  0.50008180782E+02  0.30625972466E+02  0.62238837137E+02  0.51100000000E-03 0.  1.
         23    2    1    0    0    0 -0.14377608988E+02  0.27690076756E+02  0.21469586591E+02  0.87216537795E+02  0.78564147839E+02 0.  0.
         11    1    3    3    0    0  0.64767553831E+01 -0.22318104026E+02 -0.91563858755E+01  0.24977700658E+02  0.51100000000E-03 0. -1.
         22    1    1    0    0    0  0.14377608988E+02 -0.27690076756E+02 -0.21469586591E+02  0.37873462205E+02  0.00000000000E+00 0.  1.
</event>
<event>
 5    1  0.1043455E-009  0.9118800E+02  0.7561462E-02  0.1125453E+00
         25   -1    0    0    0    0  0.00000000000E+00  0.00000000000E+00  0.99999998245E-14  0.12509000000E+03  0.12509000000E+03 0.  0.
        -11    1    3    3    0    0  0.26026882193E+02  0.36786770229E+02 -0.37976117745E+02  0.58930896648E+02  0.51100000000E-03 0.  1.
         23    2    1    0    0    0  0.25581701350E+02  0.14380528109E+02 -0.11620707162E+02  0.93526352118E+02  0.88039279148E+02 0.  0.
         11    1    3    3    0    0 -0.44518084235E+00 -0.22406242120E+02  0.26355410582E+02  0.34595455470E+02  0.51100000000E-03 0. -1.
         22    1    1    0    0    0 -0.25581701350E+02 -0.14380528109E+02  0.11620707162E+02  0.31563647882E+02  0.00000000000E+00 0.  1.
</event>
<event>
 5    1  0.1043455E-009  0.9118800E+02  0.7561462E-02  0.1125453E+00
         25   -1    0    0    0    0  0.00000000000E+00  0.00000000000E+00  0.99999998245E-14  0.12509000000E+03  0.12509000000E+03 0.  0.
        -11    1    3    3    0    0 -0.11067839329E+02  0.29231275072E+02 -0.35781374015E+02  0.47510748641E+02  0.51100000000E-03 0. -1.
         23    2    1    0    0    0  0.19564022011E+02  0.22061155324E+02  0.58678489860E+00  0.95597800218E+02  0.90934864373E+02 0.  0.
         11    1    3    3    0    0  0.30631861340E+02 -0.71701197478E+01  0.36368158914E+02  0.48087051577E+02  0.51100000000E-03 0.  1.
         22    1    1    0    0    0 -0.19564022011E+02 -0.22061155324E+02 -0.58678489860E+00  0.29492199782E+02  0.00000000000E+00 0.  1.
</event>
<event>
 5    1  0.1043455E-009  0.9118800E+02  0.7561462E-02  0.1125453E+00
         25   -1    0    0    0    0  0.00000000000E+00  0.00000000000E+00  0.99999998245E-14  0.12509000000E+03  0.12509000000E+03 0.  0.
        -11    1    3    3    0    0  0.29217954287E+02 -0.39777735102E+01  0.39405469502E+02  0.49216893052E+02  0.51100000000E-03 0.  1.
         23    2    1    0    0    0  0.12886842585E+02  0.26398701159E+02  0.11644236570E+02  0.93490152216E+02  0.87987829734E+02 0.  0.
         11    1    3    3    0    0 -0.16331111702E+02  0.30376474669E+02 -0.27761232932E+02  0.44273259163E+02  0.51100000000E-03 0. -1.
         22    1    1    0    0    0 -0.12886842585E+02 -0.26398701159E+02 -0.11644236570E+02  0.31599847784E+02  0.00000000000E+00 0. -1.
</event>
<event>
 5    1  0.1043455E-009  0.9118800E+02  0.7561462E-02  0.1125453E+00
         25   -1    0    0    0    0  0.00000000000E+00  0.00000000000E+00  0.99999998245E-14  0.12509000000E+03  0.12509000000E+03 0.  0.
        -11    1    3    3    0    0  0.14668156393E+02 -0.20219069201E+02  0.22911262742E+02  0.33895302506E+02  0.51100000000E-03 0.  1.
         23    2    1    0    0    0 -0.89675175659E+01  0.11585465638E+01 -0.28947131691E+02  0.94763525847E+02  0.89779901962E+02 0.  0.
         11    1    3    3    0    0 -0.23635673958E+02  0.21377615764E+02 -0.51858394433E+02  0.60868223341E+02  0.51100000000E-03 0. -1.
         22    1    1    0    0    0  0.89675175659E+01 -0.11585465638E+01  0.28947131691E+02  0.30326474153E+02  0.00000000000E+00 0. -1.
</event>
<event>
 5    1  0.1043455E-009  0.9118800E+02  0.7561462E-02  0.1125453E+00
         25   -1    0    0    0    0  0.00000000000E+00  0.00000000000E+00  0.99999998245E-14  0.12509000000E+03  0.12509000000E+03 0.  0.
        -11    1    3    3    0    0  0.25172357031E+02  0.21057982592E+01 -0.24859588341E+02  0.35441234143E+02  0.51100000000E-03 0. -1.
         23    2    1    0    0    0  0.86100772842E+01  0.55057559319E+01  0.30288928948E+02  0.93123361202E+02  0.87464818101E+02 0.  0.
         11    1    3    3    0    0 -0.16562279747E+02  0.33999576727E+01  0.55148517289E+02  0.57682127059E+02  0.51100000000E-03 0.  1.
         22    1    1    0    0    0 -0.86100772842E+01 -0.55057559319E+01 -0.30288928948E+02  0.31966638798E+02  0.00000000000E+00 0.  1.
</event>
<event>
 5    1  0.1043455E-009  0.9118800E+02  0.7561462E-02  0.1125453E+00
         25   -1    0    0    0    0  0.00000000000E+00  0.00000000000E+00  0.99999998245E-14  0.12509000000E+03  0.12509000000E+03 0.  0.
        -11    1    3    3    0    0 -0.56900201608E+02  0.21943499351E+02 -0.12368856243E+02  0.62226511326E+02  0.51100000000E-03 0.  1.
         23    2    1    0    0    0 -0.22630465898E+02  0.13215624526E+02 -0.66856092815E+01  0.98043963510E+02  0.94239751119E+02 0.  0.
         11    1    3    3    0    0  0.34269735711E+02 -0.87278748251E+01  0.56832469613E+01  0.35817452184E+02  0.51100000000E-03 0. -1.
         22    1    1    0    0    0  0.22630465898E+02 -0.13215624526E+02  0.66856092815E+01  0.27046036490E+02  0.00000000000E+00 0.  1.
</event>
<event>
 5    1  0.1043455E-009  0.9118800E+02  0.7561462E-02  0.1125453E+00
         25   -1    0    0    0    0  0.00000000000E+00  0.00000000000E+00  0.99999998245E-14  0.12509000000E+03  0.12509000000E+03 0.  0.
        -11    1    3    3    0    0  0.79891745112E+01  0.27964055693E+02  0.40846629147E+02  0.50142421492E+02  0.51100000000E-03 0.  1.
         23    2    1    0    0    0 -0.23212611337E+02  0.53494187652E+01  0.11172835634E+02  0.98778902298E+02  0.95210281361E+02 0.  0.
         11    1    3    3    0    0 -0.31201785848E+02 -0.22614636928E+02 -0.29673793513E+02  0.48636480806E+02  0.51100000000E-03 0. -1.
         22    1    1    0    0    0  0.23212611337E+02 -0.53494187652E+01 -0.11172835634E+02  0.26311097702E+02  0.00000000000E+00 0. -1.
</event>
<event>
 5    1  0.1043455E-009  0.9118800E+02  0.7561462E-02  0.1125453E+00
         25   -1    0    0    0    0  0.00000000000E+00  0.00000000000E+00  0.99999998245E-14  0.12509000000E+03  0.12509000000E+03 0.  0.
        -11    1    3    3    0    0 -0.34122767475E+02  0.83671211099E+01  0.18792624577E+02  0.39843879261E+02  0.51100000000E-03 0.  1.
         23    2    1    0    0    0 -0.55372224164E+01  0.34621454229E+01 -0.28789751431E+02  0.95568870779E+02  0.90895060325E+02 0.  0.
         11    1    3    3    0    0  0.28585545059E+02 -0.49049756870E+01 -0.47582376008E+02  0.55724991518E+02  0.51100000000E-03 0. -1.
         22    1    1    0    0    0  0.55372224164E+01 -0.34621454229E+01  0.28789751431E+02  0.29521129221E+02  0.00000000000E+00 0. -1.
</event>
<event>
 5    1  0.1043455E-009  0.9118800E+02  0.7561462E-02  0.1125453E+00
         25   -1    0    0    0    0  0.00000000000E+00  0.00000000000E+00  0.99999998245E-14  0.12509000000E+03  0.12509000000E+03 0.  0.
        -11    1    3    3    0    0  0.62651556357E+01 -0.52014073542E+02  0.30005052300E+02  0.60373994280E+02  0.51100000000E-03 0.  1.
         23    2    1    0    0    0  0.83002713282E+01 -0.27274831372E+02  0.40403051190E+01  0.96295295696E+02  0.91889330051E+02 0.  0.
         11    1    3    3    0    0  0.20351156926E+01  0.24739242169E+02 -0.25964747181E+02  0.35921301416E+02  0.51100000000E-03 0. -1.
         22    1    1    0    0    0 -0.83002713282E+01  0.27274831372E+02 -0.40403051190E+01  0.28794704304E+02  0.00000000000E+00 0.  1.
</event>
<event>
 5    1  0.1043455E-009  0.9118800E+02  0.7561462E-02  0.1125453E+00
         25   -1    0    0    0    0  0.00000000000E+00  0.00000000000E+00  0.99999998245E-14  0.12509000000E+03  0.12509000000E+03 0.  0.
        -11    1    3    3    0    0  0.22821485345E+02 -0.16959925458E+02 -0.80606088464E+01  0.29553894500E+02  0.51100000000E-03 0. -1.
         23    2    1    0    0    0  0.27672934665E+02  0.29429639443E+02 -0.23092352967E+02  0.78558808781E+02  0.63295613440E+02 0.  0.
         11    1    3    3    0    0  0.48514493207E+01  0.46389564900E+02 -0.15031744120E+02  0.49004914281E+02  0.51100000000E-03 0.  1.
         22    1    1    0    0    0 -0.27672934665E+02 -0.29429639443E+02  0.23092352967E+02  0.46531191219E+02  0.00000000000E+00 0.  1.
</event>
<event>
 5    1  0.1043455E-009  0.9118800E+02  0.7561462E-02  0.1125453E+00
         25   -1    0    0    0    0  0.00000000000E+00  0.00000000000E+00  0.99999998245E-14  0.12509000000E+03  0.12509000000E+03 0.  0.
        -11    1    3    3    0    0 -0.13401489569E+02  0.43379736903E+02  0.41922172584E+01  0.45595791277E+02  0.51100000000E-03 0.  1.
         23    2    1    0    0    0 -0.30900607252E+02 -0.76121700214E+00 -0.44574671610E+01  0.93860270681E+02  0.88512453468E+02 0.  0.
         11    1    3    3    0    0 -0.17499117683E+02 -0.44140953905E+02 -0.86496844194E+01  0.48264479404E+02  0.51100000000E-03 0. -1.
         22    1    1    0    0    0  0.30900607252E+02  0.76121700214E+00  0.44574671610E+01  0.31229729319E+02  0.00000000000E+00 0. -1.
</event>
<event>
 5    1  0.1043455E-009  0.9118800E+02  0.7561462E-02  0.1125453E+00
         25   -1    0    0    0    0  0.00000000000E+00  0.00000000000E+00  0.99999998245E-14  0.12509000000E+03  0.12509000000E+03 0.  0.
        -11    1    3    3    0    0 -0.30215727447E+02  0.18606809932E+00 -0.13961122636E+02  0.33285698911E+02  0.51100000000E-03 0.  1.
         23    2    1    0    0    0  0.23884668176E+02 -0.35971190737E+01  0.16831123598E+02  0.95650173895E+02  0.91006881086E+02 0.  0.
         11    1    3    3    0    0  0.54100395623E+02 -0.37831871730E+01  0.30792246234E+02  0.62364474984E+02  0.51100000000E-03 0. -1.
         22    1    1    0    0    0 -0.23884668176E+02  0.35971190737E+01 -0.16831123598E+02  0.29439826105E+02  0.00000000000E+00 0. -1.
</event>
<event>
 5    1  0.1043455E-009  0.9118800E+02  0.7561462E-02  0.1125453E+00
         25   -1    0    0    0    0  0.00000000000E+00  0.00000000000E+00  0.99999998245E-14  0.12509000000E+03  0.12509000000E+03 0.  0.
        -11    1    3    3    0    0 -0.46437023138E+02  0.16674263243E+02  0.28925038588E+02  0.57193408975E+02  0.51100000000E-03 0. -1.
         23    2    1    0    0    0 -0.23527055290E+02  0.18589635586E+02 -0.11908371776E+01  0.95081418311E+02  0.90221733152E+02 0.  0.
         11    1    3    3    0    0  0.22909967848E+02  0.19153723425E+01 -0.30115875766E+02  0.37888009335E+02  0.51100000000E-03 0.  1.
         22    1    1    0    0    0  0.23527055290E+02 -0.18589635586E+02  0.11908371776E+01  0.30008581689E+02  0.00000000000E+00 0. -1.
</event>
<event>
 5    1  0.1043455E-009  0.9118800E+02  0.7561462E-02  0.1125453E+00
         25   -1    0    0    0    0  0.00000000000E+00  0.00000000000E+00  0.99999998245E-14  0.12509000000E+03  0.12509000000E+03 0.  0.
        -11    1    3    3    0    0  0.66095592879E+01  0.36111828397E+02  0.28568345286E+02  0.46517746901E+02  0.51100000000E-03 0.  1.
         23    2    1    0    0    0  0.75211107606E+01  0.22438437705E+02 -0.18189208241E+02  0.95242087340E+02  0.90444222097E+02 0.  0.
         11    1    3    3    0    0  0.91155147265E+00 -0.13673390692E+02 -0.46757553527E+02  0.48724340439E+02  0.51100000000E-03 0. -1.
         22    1    1    0    0    0 -0.75211107606E+01 -0.22438437705E+02  0.18189208241E+02  0.29847912660E+02  0.00000000000E+00 0.  1.
</event>
<event>
 5    1  0.1043455E-009  0.9118800E+02  0.7561462E-02  0.1125453E+00
         25   -1    0    0    0    0  0.00000000000E+00  0.00000000000E+00  0.99999998245E-14  0.12509000000E+03  0.12509000000E+03 0.  0.
        -11    1    3    3    0    0 -0.48743908338E+02 -0.75761448880E+01 -0.13380976781E+02  0.51111809901E+02  0.51100000000E-03 0. -1.
         23    2    1    0    0    0 -0.11623233070E+02  0.21780397131E+02 -0.96450696966E+01  0.98585045451E+02  0.94955245095E+02 0.  0.
         11    1    3    3    0    0  0.37120675268E+02  0.29356542019E+02  0.37359070844E+01  0.47473235551E+02  0.51100000000E-03 0.  1.
         22    1    1    0    0    0  0.11623233070E+02 -0.21780397131E+02  0.96450696966E+01  0.26504954549E+02  0.00000000000E+00 0.  1.
</event>
<event>
 5    1  0.1043455E-009  0.9118800E+02  0.7561462E-02  0.1125453E+00
         25   -1    0    0    0    0  0.00000000000E+00  0.00000000000E+00  0.99999998245E-14  0.12509000000E+03  0.12509000000E+03 0.  0.
        -11    1    3    3    0    0 -0.82599373279E+01  0.39711084921E+02  0.13987191508E+02  0.42904992213E+02  0.51100000000E-03 0. -1.
         23    2    1    0    0    0  0.28874461161E+02  0.37385239085E+01  0.24948967196E+01  0.95867823866E+02  0.91305553362E+02 0.  0.
         11    1    3    3    0    0  0.37134398489E+02 -0.35972561012E+02 -0.11492294788E+02  0.52962831653E+02  0.51100000000E-03 0.  1.
         22    1    1    0    0    0 -0.28874461161E+02 -0.37385239085E+01 -0.24948967196E+01  0.29222176134E+02  0.00000000000E+00 0.  1.
</event>
<event>
 5    1  0.1043455E-009  0.9118800E+02  0.7561462E-02  0.1125453E+00
         25   -1    0    0    0    0  0.00000000000E+00  0.00000000000E+00  0.99999998245E-14  0.12509000000E+03  0.12509000000E+03 0.  0.
        -11    1    3    3    0    0  0.57217957337E+02  0.23366940176E+01 -0.10649900103E+02  0.58247533452E+02  0.51100000000E-03 0. -1.
         23    2    1    0    0    0  0.20427390897E+02  0.65649268294E+01 -0.19248017438E+02  0.96265310263E+02  0.91848501466E+02 0.  0.
         11    1    3    3    0    0 -0.36790566440E+02  0.42282328118E+01 -0.85981173351E+01  0.38017776811E+02  0.51100000000E-03 0.  1.
         22    1    1    0    0    0 -0.20427390897E+02 -0.65649268294E+01  0.19248017438E+02  0.28824689737E+02  0.00000000000E+00 0. -1.
</event>
<event>
 5    1  0.1043455E-009  0.9118800E+02  0.7561462E-02  0.1125453E+00
         25   -1    0    0    0    0  0.00000000000E+00  0.00000000000E+00  0.99999998245E-14  0.12509000000E+03  0.12509000000E+03 0.  0.
        -11    1    3    3    0    0 -0.28768351584E+02  0.43324351165E+02 -0.80304029747E+01  0.52622284528E+02  0.51100000000E-03 0.  1.
         23    2    1    0    0    0 -0.31649917338E+02  0.72127565575E+01  0.70662491867E+01  0.91868425651E+02  0.85651238342E+02 0.  0.
         11    1    3    3    0    0 -0.28815657536E+01 -0.36111594608E+02  0.15096652161E+02  0.39246141123E+02  0.51100000000E-03 0. -1.
         22    1    1    0    0    0  0.31649917338E+02 -0.72127565575E+01 -0.70662491867E+01  0.33221574349E+02  0.00000000000E+00 0.  1.
</event>
<event>
 5    1  0.1043455E-009  0.9118800E+02  0.7561462E-02  0.1125453E+00
         25   -1    0    0    0    0  0.00000000000E+00  0.00000000000E+00  0.99999998245E-14  0.12509000000E+03  0.12509000000E+03 0.  0.
        -11    1    3    3    0    0  0.51301102099E+02 -0.24518574457E+02  0.25651858137E+02  0.62377731573E+02  0.51100000000E-03 0. -1.
         23    2    1    0    0    0  0.25360301496E+02 -0.94942154702E+01  0.14584092354E+02  0.94333199627E+02  0.89178314532E+02 0.  0.
         11    1    3    3    0    0 -0.25940800603E+02  0.15024358987E+02 -0.11067765783E+02  0.31955468054E+02  0.51100000000E-03 0.  1.
         22    1    1    0    0    0 -0.25360301496E+02  0.94942154702E+01 -0.14584092354E+02  0.30756800373E+02  0.00000000000E+00 0. -1.
</event>
<event>
 5    1  0.1043455E-009  0.9118800E+02  0.7561462E-02  0.1125453E+00
         25   -1    0    0    0    0  0.00000000000E+00  0.00000000000E+00  0.99999998245E-14  0.12509000000E+03  0.12509000000E+03 0.  0.
        -11    1    3    3    0    0 -0.72373670524E+01  0.19989881481E+02  0.44439525834E+02  0.49263031780E+02  0.51100000000E-03 0. -1.
         23    2    1    0    0    0  0.58810107163E+01 -0.18895525056E+02  0.19618871142E+02  0.97223761304E+02  0.93144685855E+02 0.  0.
         11    1    3    3    0    0  0.13118377769E+02 -0.38885406538E+02 -0.24820654692E+02  0.47960729524E+02  0.51100000000E-03 0.  1.
         22    1    1    0    0    0 -0.58810107163E+01  0.18895525056E+02 -0.19618871142E+02  0.27866238696E+02  0.00000000000E+00 0. -1.
</event>
<event>
 5    1  0.1043455E-009  0.9118800E+02  0.7561462E-02  0.1125453E+00
         25   -1    0    0    0    0  0.00000000000E+00  0.00000000000E+00  0.99999998245E-14  0.12509000000E+03  0.12509000000E+03 0.  0.
        -11    1    3    3    0    0 -0.88237486867E+01 -0.49601858794E+02 -0.98081421898E+01  0.51326431691E+02  0.51100000000E-03 0.  1.
         23    2    1    0    0    0 -0.88592225217E+01 -0.22632667779E+02  0.21494116934E+02  0.92644344863E+02  0.86777036697E+02 0.  0.
         11    1    3    3    0    0 -0.35473835034E-01  0.26969191015E+02  0.31302259124E+02  0.41317913172E+02  0.51100000000E-03 0. -1.
         22    1    1    0    0    0  0.88592225217E+01  0.22632667779E+02 -0.21494116934E+02  0.32445655137E+02  0.00000000000E+00 0.  1.
</event>
<event>
 5    1  0.1043455E-009  0.9118800E+02  0.7561462E-02  0.1125453E+00
         25   -1    0    0    0    0  0.00000000000E+00  0.00000000000E+00  0.99999998245E-14  0.12509000000E+03  0.12509000000E+03 0.  0.
        -11    1    3    3    0    0  0.90785952525E+00 -0.32074226051E+02  0.42687844145E+02  0.53402548850E+02  0.51100000000E-03 0.  1.
         23    2    1    0    0    0 -0.22471093955E+02 -0.75843668534E+01  0.16704249952E+02  0.96081300434E+02  0.91597552601E+02 0.  0.
         11    1    3    3    0    0 -0.23378953480E+02  0.24489859197E+02 -0.25983594193E+02  0.42678751584E+02  0.51100000000E-03 0. -1.
         22    1    1    0    0    0  0.22471093955E+02  0.75843668534E+01 -0.16704249952E+02  0.29008699566E+02  0.00000000000E+00 0.  1.
</event>
<event>
 5    1  0.1043455E-009  0.9118800E+02  0.7561462E-02  0.1125453E+00
         25   -1    0    0    0    0  0.00000000000E+00  0.00000000000E+00  0.99999998245E-14  0.12509000000E+03  0.12509000000E+03 0.  0.
        -11    1    3    3    0    0 -0.14539198426E+02 -0.34127095470E+02 -0.43934162631E+02  0.57500065934E+02  0.51100000000E-03 0. -1.
         23    2    1    0    0    0 -0.13193069158E+02 -0.74413684500E-01 -0.25820479527E+02  0.96094142120E+02  0.91615088144E+02 0.  0.
         11    1    3    3    0    0  0.13461292673E+01  0.34052681786E+02  0.18113683104E+02  0.38594076186E+02  0.51100000000E-03 0.  1.
         22    1    1    0    0    0  0.13193069158E+02  0.74413684500E-01  0.25820479527E+02  0.28995857880E+02  0.00000000000E+00 0.  1.
</event>
<event>
 5    1  0.1043455E-009  0.9118800E+02  0.7561462E-02  0.1125453E+00
         25   -1    0    0    0    0  0.00000000000E+00  0.00000000000E+00  0.99999998245E-14  0.12509000000E+03  0.12509000000E+03 0.  0.
        -11    1    3    3    0    0  0.13708294327E+02  0.21278019032E+02 -0.20004116309E+02  0.32261991520E+02  0.51100000000E-03 0. -1.
         23    2    1    0    0    0 -0.20178305612E+02 -0.19860661082E+02  0.11898637771E+02  0.94378642870E+02  0.89242034789E+02 0.  0.
         11    1    3    3    0    0 -0.33886599938E+02 -0.41138680114E+02  0.31902754079E+02  0.62116651350E+02  0.51100000000E-03 0.  1.
         22    1    1    0    0    0  0.20178305612E+02  0.19860661082E+02 -0.11898637771E+02  0.30711357130E+02  0.00000000000E+00 0.  1.
</event>
<event>
 5    1  0.1043455E-009  0.9118800E+02  0.7561462E-02  0.1125453E+00
         25   -1    0    0    0    0  0.00000000000E+00  0.00000000000E+00  0.99999998245E-14  0.12509000000E+03  0.12509000000E+03 0.  0.
        -11    1    3    3    0    0  0.19506720753E+02 -0.28740209207E+02  0.24965440199E+02  0.42775986072E+02  0.51100000000E-03 0.  1.
         23    2    1    0    0    0 -0.19438506443E+02  0.88524054999E+01  0.17619868319E+02  0.97401006240E+02  0.93382416124E+02 0.  0.
         11    1    3    3    0    0 -0.38945227196E+02  0.37592614707E+02 -0.73455718806E+01  0.54625020168E+02  0.51100000000E-03 0. -1.
         22    1    1    0    0    0  0.19438506443E+02 -0.88524054999E+01 -0.17619868319E+02  0.27688993760E+02  0.00000000000E+00 0. -1.
</event>
<event>
 5    1  0.1043455E-009  0.9118800E+02  0.7561462E-02  0.1125453E+00
         25   -1    0    0    0    0  0.00000000000E+00  0.00000000000E+00  0.99999998245E-14  0.12509000000E+03  0.12509000000E+03 0.  0.
        -11    1    3    3    0    0 -0.44109512286E+02 -0.28625675452E+02  0.31389056834E+02  0.61240111515E+02  0.51100000000E-03 0.  1.
         23    2    1    0    0    0 -0.17435985179E+02 -0.19536667492E+02  0.84539348477E+01  0.97573387376E+02  0.93613043716E+02 0.  0.
         11    1    3    3    0    0  0.26673527107E+02  0.90890079601E+01 -0.22935121986E+02  0.36333275861E+02  0.51100000000E-03 0. -1.
         22    1    1    0    0    0  0.17435985179E+02  0.19536667492E+02 -0.84539348477E+01  0.27516612624E+02  0.00000000000E+00 0.  1.
</event>
<event>
 5    1  0.1043455E-009  0.9118800E+02  0.7561462E-02  0.1125453E+00
         25   -1    0    0    0    0  0.00000000000E+00  0.00000000000E+00  0.99999998245E-14  0.12509000000E+03  0.12509000000E+03 0.  0.
        -11    1    3    3    0    0 -0.31196868780E+02 -0.24612350643E+02 -0.30106277717E+02  0.49853790067E+02  0.51100000000E-03 0.  1.
         23    2    1    0    0    0  0.11897112997E+02 -0.10804413487E+02 -0.24968398520E+02  0.95396607248E+02  0.90657680873E+02 0.  0.
         11    1    3    3    0    0  0.43093981777E+02  0.13807937155E+02  0.51378791961E+01  0.45542817181E+02  0.51100000000E-03 0. -1.
         22    1    1    0    0    0 -0.11897112997E+02  0.10804413487E+02  0.24968398520E+02  0.29693392752E+02  0.00000000000E+00 0. -1.
</event>
<event>
 5    1  0.1043455E-009  0.9118800E+02  0.7561462E-02  0.1125453E+00
         25   -1    0    0    0    0  0.00000000000E+00  0.00000000000E+00  0.99999998245E-14  0.12509000000E+03  0.12509000000E+03 0.  0.
        -11    1    3    3    0    0  0.27364449304E+02 -0.24281304102E+02 -0.10352338425E+02  0.38020596073E+02  0.51100000000E-03 0.  1.
         23    2    1    0    0    0 -0.26762562840E+01  0.84202756475E+01  0.27397291160E+02  0.96303285137E+02  0.91900205525E+02 0.  0.
         11    1    3    3    0    0 -0.30040705588E+02  0.32701579750E+02  0.37749629585E+02  0.58282689064E+02  0.51100000000E-03 0. -1.
         22    1    1    0    0    0  0.26762562840E+01 -0.84202756475E+01 -0.27397291160E+02  0.28786714863E+02  0.00000000000E+00 0.  1.
</event>
<event>
 5    1  0.1043455E-009  0.9118800E+02  0.7561462E-02  0.1125453E+00
         25   -1    0    0    0    0  0.00000000000E+00  0.00000000000E+00  0.99999998245E-14  0.12509000000E+03  0.12509000000E+03 0.  0.
        -11    1    3    3    0    0  0.25303673395E+02  0.15666853618E+02 -0.36686189385E+01  0.29986412836E+02  0.51100000000E-03 0. -1.
         23    2    1    0    0    0 -0.29791615616E+02 -0.13439362703E+02  0.33571516624E-01  0.92407314096E+02  0.86434679039E+02 0.  0.
         11    1    3    3    0    0 -0.55095289010E+02 -0.29106216322E+02  0.37021904552E+01  0.62420901260E+02  0.51100000000E-03 0.  1.
         22    1    1    0    0    0  0.29791615616E+02  0.13439362703E+02 -0.33571516624E-01  0.32682685904E+02  0.00000000000E+00 0.  1.
</event>
<event>
 5    1  0.1043455E-009  0.9118800E+02  0.7561462E-02  0.1125453E+00
         25   -1    0    0    0    0  0.00000000000E+00  0.00000000000E+00  0.99999998245E-14  0.12509000000E+03  0.12509000000E+03 0.  0.
        -11    1    3    3    0    0 -0.51762382953E+02  0.21833525644E+02 -0.77381460664E+01  0.56709135383E+02  0.51100000000E-03 0. -1.
         23    2    1    0    0    0 -0.15360837207E+02  0.20883472305E+02  0.10112528367E+02  0.97263071222E+02  0.93197462725E+02 0.  0.
         11    1    3    3    0    0  0.36401545746E+02 -0.95005333887E+00  0.17850674434E+02  0.40553935839E+02  0.51100000000E-03 0.  1.
         22    1    1    0    0    0  0.15360837207E+02 -0.20883472305E+02 -0.10112528367E+02  0.27826928778E+02  0.00000000000E+00 0. -1.
</event>
<event>
 5    1  0.1043455E-009  0.9118800E+02  0.7561462E-02  0.1125453E+00
         25   -1    0    0    0    0  0.00000000000E+00  0.00000000000E+00  0.99999998245E-14  0.12509000000E+03  0.12509000000E+03 0.  0.
        -11    1    3    3    0    0 -0.44928550065E+02  0.35762191709E+02  0.18110984338E+02  0.60212263873E+02  0.51100000000E-03 0.  1.
         23    2    1    0    0    0 -0.13362353413E+02  0.25845258709E+02  0.65010475001E+01  0.95277359978E+02  0.90492993206E+02 0.  0.
         11    1    3    3    0    0  0.31566196652E+02 -0.99169330001E+01 -0.11609936838E+02  0.35065096105E+02  0.51100000000E-03 0. -1.
         22    1    1    0    0    0  0.13362353413E+02 -0.25845258709E+02 -0.65010475001E+01  0.29812640022E+02  0.00000000000E+00 0.  1.
</event>
<event>
 5    1  0.1043455E-009  0.9118800E+02  0.7561462E-02  0.1125453E+00
         25   -1    0    0    0    0  0.00000000000E+00  0.00000000000E+00  0.99999998245E-14  0.12509000000E+03  0.12509000000E+03 0.  0.
        -11    1    3    3    0    0 -0.46825544734E+02  0.60613387057E+01  0.10184843794E+02  0.48302199846E+02  0.51100000000E-03 0. -1.
         23    2    1    0    0    0 -0.18272997521E+02 -0.29096150453E+01 -0.24675624053E+02  0.94247582447E+02  0.89058138744E+02 0.  0.
         11    1    3    3    0    0  0.28552547213E+02 -0.89709537510E+01 -0.34860467847E+02  0.45945382601E+02  0.51100000000E-03 0.  1.
         22    1    1    0    0    0  0.18272997521E+02  0.29096150453E+01  0.24675624053E+02  0.30842417553E+02  0.00000000000E+00 0. -1.
</event>
<event>
 5    1  0.1043455E-009  0.9118800E+02  0.7561462E-02  0.1125453E+00
         25   -1    0    0    0    0  0.00000000000E+00  0.00000000000E+00  0.99999998245E-14  0.12509000000E+03  0.12509000000E+03 0.  0.
        -11    1    3    3    0    0  0.11734711842E+02 -0.41107822725E+02  0.23266667614E+02  0.48671289004E+02  0.51100000000E-03 0. -1.
         23    2    1    0    0    0  0.20674948240E+02 -0.11059900265E+01  0.28361223186E+02  0.89975392224E+02  0.82840422056E+02 0.  0.
         11    1    3    3    0    0  0.89402363975E+01  0.40001832698E+02  0.50945555726E+01  0.41304103220E+02  0.51100000000E-03 0.  1.
         22    1    1    0    0    0 -0.20674948240E+02  0.11059900265E+01 -0.28361223186E+02  0.35114607776E+02  0.00000000000E+00 0.  1.
</event>
<event>
 5    1  0.1043455E-009  0.9118800E+02  0.7561462E-02  0.1125453E+00
         25   -1    0    0    0    0  0.00000000000E+00  0.00000000000E+00  0.99999998245E-14  0.12509000000E+03  0.12509000000E+03 0.  0.
        -11    1    3    3    0    0  0.32987509695E+02 -0.12287425330E+02 -0.50727205334E+02  0.61744683807E+02  0.51100000000E-03 0.  1.
         23    2    1    0    0    0  0.12756995769E+02 -0.12233514311E+02 -0.24988882771E+02  0.94482091290E+02  0.89386920179E+02 0.  0.
         11    1    3    3    0    0 -0.20230513926E+02  0.53911018703E-01  0.25738322564E+02  0.32737407484E+02  0.51100000000E-03 0. -1.
         22    1    1    0    0    0 -0.12756995769E+02  0.12233514311E+02  0.24988882771E+02  0.30607908710E+02  0.00000000000E+00 0.  1.
</event>
<event>
 5    1  0.1043455E-009  0.9118800E+02  0.7561462E-02  0.1125453E+00
         25   -1    0    0    0    0  0.00000000000E+00  0.00000000000E+00  0.99999998245E-14  0.12509000000E+03  0.12509000000E+03 0.  0.
        -11    1    3    3    0    0  0.43467931318E+02  0.28776029690E+01 -0.17627667438E+01  0.43598727031E+02  0.51100000000E-03 0.  1.
         23    2    1    0    0    0 -0.70243793824E+00  0.28204573858E+02  0.86732910176E+01  0.95573608238E+02  0.90901579794E+02 0.  0.
         11    1    3    3    0    0 -0.44170369256E+02  0.25326970889E+02  0.10436057761E+02  0.51974881207E+02  0.51100000000E-03 0. -1.
         22    1    1    0    0    0  0.70243793824E+00 -0.28204573858E+02 -0.86732910176E+01  0.29516391762E+02  0.00000000000E+00 0. -1.
</event>
<event>
 5    1  0.1043455E-009  0.9118800E+02  0.7561462E-02  0.1125453E+00
         25   -1    0    0    0    0  0.00000000000E+00  0.00000000000E+00  0.99999998245E-14  0.12509000000E+03  0.12509000000E+03 0.  0.
        -11    1    3    3    0    0 -0.35565287105E+02 -0.13360974450E+02  0.20800180969E+02  0.43313425329E+02  0.51100000000E-03 0.  1.
         23    2    1    0    0    0 -0.35137046211E+00  0.23261739034E+02  0.20441875571E+02  0.94120624143E+02  0.88879635734E+02 0.  0.
         11    1    3    3    0    0  0.35213916643E+02  0.36622713484E+02 -0.35830539779E+00  0.50807198814E+02  0.51100000000E-03 0. -1.
         22    1    1    0    0    0  0.35137046211E+00 -0.23261739034E+02 -0.20441875571E+02  0.30969375857E+02  0.00000000000E+00 0. -1.
</event>
<event>
 5    1  0.1043455E-009  0.9118800E+02  0.7561462E-02  0.1125453E+00
         25   -1    0    0    0    0  0.00000000000E+00  0.00000000000E+00  0.99999998245E-14  0.12509000000E+03  0.12509000000E+03 0.  0.
        -11    1    3    3    0    0  0.34302519551E+02  0.30677347861E+02 -0.94997719503E+01  0.46989447611E+02  0.51100000000E-03 0.  1.
         23    2    1    0    0    0 -0.65507974195E+00  0.12991571133E+01 -0.28576013789E+02  0.96476969704E+02  0.92136313039E+02 0.  0.
         11    1    3    3    0    0 -0.34957599293E+02 -0.29378190748E+02 -0.19076241839E+02  0.49487522093E+02  0.51100000000E-03 0. -1.
         22    1    1    0    0    0  0.65507974195E+00 -0.12991571133E+01  0.28576013789E+02  0.28613030296E+02  0.00000000000E+00 0. -1.
</event>
<event>
 5    1  0.1043455E-009  0.9118800E+02  0.7561462E-02  0.1125453E+00
         25   -1    0    0    0    0  0.00000000000E+00  0.00000000000E+00  0.99999998245E-14  0.12509000000E+03  0.12509000000E+03 0.  0.
        -11    1    3    3    0    0 -0.11557835341E+02 -0.17492311054E+02 -0.26162293289E+02  0.33526558043E+02  0.51100000000E-03 0.  1.
         23    2    1    0    0    0  0.17716678044E+02  0.69887223724E+01  0.22657158821E+02  0.95491524243E+02  0.90788553436E+02 0.  0.
         11    1    3    3    0    0  0.29274513386E+02  0.24481033426E+02  0.48819452110E+02  0.61964966200E+02  0.51100000000E-03 0. -1.
         22    1    1    0    0    0 -0.17716678044E+02 -0.69887223724E+01 -0.22657158821E+02  0.29598475757E+02  0.00000000000E+00 0. -1.
</event>
<event>
 5    1  0.1043455E-009  0.9118800E+02  0.7561462E-02  0.1125453E+00
         25   -1    0    0    0    0  0.00000000000E+00  0.00000000000E+00  0.99999998245E-14  0.12509000000E+03  0.12509000000E+03 0.  0.
        -11    1    3    3    0    0 -0.12392139686E+02  0.15225051906E+02  0.34370391661E+02  0.39581449630E+02  0.51100000000E-03 0.  1.
         23    2    1    0    0    0 -0.19753491929E+02 -0.17686710249E+02 -0.11227746682E+02  0.96296207988E+02  0.91890571957E+02 0.  0.
         11    1    3    3    0    0 -0.73613522430E+01 -0.32911762155E+02 -0.45598138344E+02  0.56714758359E+02  0.51100000000E-03 0. -1.
         22    1    1    0    0    0  0.19753491929E+02  0.17686710249E+02  0.11227746682E+02  0.28793792012E+02  0.00000000000E+00 0. -1.
</event>
<event>
 5    1  0.1043455E-009  0.9118800E+02  0.7561462E-02  0.1125453E+00
         25   -1    0    0    0    0  0.00000000000E+00  0.00000000000E+00  0.99999998245E-14  0.12509000000E+03  0.12509000000E+03 0.  0.
        -11    1    3    3    0    0  0.31258996375E+02 -0.34138495538E+02 -0.32593275807E+02  0.56611689253E+02  0.51100000000E-03 0.  1.
         23    2    1    0    0    0 -0.87829069007E+00 -0.11762161852E+02 -0.26289486668E+02  0.96275820240E+02  0.91862814064E+02 0.  0.
         11    1    3    3    0    0 -0.32137287065E+02  0.22376333686E+02  0.63037891394E+01  0.39664130987E+02  0.51100000000E-03 0. -1.
         22    1    1    0    0    0  0.87829069007E+00  0.11762161852E+02  0.26289486668E+02  0.28814179760E+02  0.00000000000E+00 0.  1.
</event>
<event>
 5    1  0.1043455E-009  0.9118800E+02  0.7561462E-02  0.1125453E+00
         25   -1    0    0    0    0  0.00000000000E+00  0.00000000000E+00  0.99999998245E-14  0.12509000000E+03  0.12509000000E+03 0.  0.
        -11    1    3    3    0    0 -0.39173276018E+02 -0.33461981379E+02 -0.14824269886E+02  0.53609782034E+02  0.51100000000E-03 0.  1.
         23    2    1    0    0    0 -0.25531336091E+02 -0.14416663970E+00  0.10349483856E+02  0.97540377086E+02  0.93568923471E+02 0.  0.
         11    1    3    3    0    0  0.13641939927E+02  0.33317814739E+02  0.25173753742E+02  0.43930595053E+02  0.51100000000E-03 0. -1.
         22    1    1    0    0    0  0.25531336091E+02  0.14416663970E+00 -0.10349483856E+02  0.27549622914E+02  0.00000000000E+00 0.  1.
</event>
<event>
 5    1  0.1043455E-009  0.9118800E+02  0.7561462E-02  0.1125453E+00
         25   -1    0    0    0    0  0.00000000000E+00  0.00000000000E+00  0.99999998245E-14  0.12509000000E+03  0.12509000000E+03 0.  0.
        -11    1    3    3    0    0 -0.22878677356E+02  0.25973901667E+02  0.18610406155E+02  0.39299168730E+02  0.51100000000E-03 0. -1.
         23    2    1    0    0    0 -0.14790725794E+02 -0.16260340375E+02 -0.18699976175E+02  0.96230801335E+02  0.91801491154E+02 0.  0.
         11    1    3    3    0    0  0.80879515613E+01 -0.42234242042E+02 -0.37310382330E+02  0.56931632606E+02  0.51100000000E-03 0.  1.
         22    1    1    0    0    0  0.14790725794E+02  0.16260340375E+02  0.18699976175E+02  0.28859198665E+02  0.00000000000E+00 0.  1.
</event>
<event>
 5    1  0.1043455E-009  0.9118800E+02  0.7561462E-02  0.1125453E+00
         25   -1    0    0    0    0  0.00000000000E+00  0.00000000000E+00  0.99999998245E-14  0.12509000000E+03  0.12509000000E+03 0.  0.
        -11    1    3    3    0    0 -0.25753703706E+02 -0.62415190062E+01 -0.47927167145E+02  0.54765163790E+02  0.51100000000E-03 0. -1.
         23    2    1    0    0    0 -0.82485509959E+01 -0.23816123904E+02 -0.15842434079E+02  0.95320400257E+02  0.90552468968E+02 0.  0.
         11    1    3    3    0    0  0.17505152710E+02 -0.17574604897E+02  0.32084733066E+02  0.40555236467E+02  0.51100000000E-03 0.  1.
         22    1    1    0    0    0  0.82485509959E+01  0.23816123904E+02  0.15842434079E+02  0.29769599743E+02  0.00000000000E+00 0. -1.
</event>
<event>
 5    1  0.1043455E-009  0.9118800E+02  0.7561462E-02  0.1125453E+00
         25   -1    0    0    0    0  0.00000000000E+00  0.00000000000E+00  0.99999998245E-14  0.12509000000E+03  0.12509000000E+03 0.  0.
        -11    1    3    3    0    0  0.30741054652E+02 -0.29020085436E+01 -0.28300211924E+02  0.41884795451E+02  0.51100000000E-03 0.  1.
         23    2    1    0    0    0 -0.16245217930E+02 -0.22149796633E+02 -0.10005872312E+02  0.95855806370E+02  0.91289087725E+02 0.  0.
         11    1    3    3    0    0 -0.46986272583E+02 -0.19247788089E+02  0.18294339612E+02  0.53971010919E+02  0.51100000000E-03 0. -1.
         22    1    1    0    0    0  0.16245217930E+02  0.22149796633E+02  0.10005872312E+02  0.29234193630E+02  0.00000000000E+00 0. -1.
</event>
<event>
 5    1  0.1043455E-009  0.9118800E+02  0.7561462E-02  0.1125453E+00
         25   -1    0    0    0    0  0.00000000000E+00  0.00000000000E+00  0.99999998245E-14  0.12509000000E+03  0.12509000000E+03 0.  0.
        -11    1    3    3    0    0 -0.47490146513E+00 -0.32621725291E+01 -0.34859035980E+02  0.35014563980E+02  0.51100000000E-03 0.  1.
         23    2    1    0    0    0  0.85835347904E+01 -0.15606998649E+02  0.23643761017E+02  0.95487923868E+02  0.90783592643E+02 0.  0.
         11    1    3    3    0    0  0.90584362555E+01 -0.12344826120E+02  0.58502796997E+02  0.60473359887E+02  0.51100000000E-03 0. -1.
         22    1    1    0    0    0 -0.85835347904E+01  0.15606998649E+02 -0.23643761017E+02  0.29602076132E+02  0.00000000000E+00 0. -1.
</event>
<event>
 5    1  0.1043455E-009  0.9118800E+02  0.7561462E-02  0.1125453E+00
         25   -1    0    0    0    0  0.00000000000E+00  0.00000000000E+00  0.99999998245E-14  0.12509000000E+03  0.12509000000E+03 0.  0.
        -11    1    3    3    0    0  0.48410391489E+02 -0.26398625581E+02  0.12564880382E+02  0.56553776672E+02  0.51100000000E-03 0.  1.
         23    2    1    0    0    0  0.14652091893E+02 -0.24779273392E+02 -0.68070002518E+01  0.95509069671E+02  0.90812724606E+02 0.  0.
         11    1    3    3    0    0 -0.33758299595E+02  0.16193521886E+01 -0.19371880634E+02  0.38955292999E+02  0.51100000000E-03 0. -1.
         22    1    1    0    0    0 -0.14652091893E+02  0.24779273392E+02  0.68070002518E+01  0.29580930329E+02  0.00000000000E+00 0.  1.
</event>
<event>
 5    1  0.1043455E-009  0.9118800E+02  0.7561462E-02  0.1125453E+00
         25   -1    0    0    0    0  0.00000000000E+00  0.00000000000E+00  0.99999998245E-14  0.12509000000E+03  0.12509000000E+03 0.  0.
        -11    1    3    3    0    0  0.20212077004E+02 -0.12256276824E+02  0.28916417598E+02  0.37348408070E+02  0.51100000000E-03 0. -1.
         23    2    1    0    0    0 -0.26113220462E+02 -0.48208365141E+01 -0.83367007110E+01  0.97257620900E+02  0.93190146994E+02 0.  0.
         11    1    3    3    0    0 -0.46325297466E+02  0.74354403098E+01 -0.37253118309E+02  0.59909212830E+02  0.51100000000E-03 0.  1.
         22    1    1    0    0    0  0.26113220462E+02  0.48208365141E+01  0.83367007110E+01  0.27832379100E+02  0.00000000000E+00 0.  1.
</event>
<event>
 5    1  0.1043455E-009  0.9118800E+02  0.7561462E-02  0.1125453E+00
         25   -1    0    0    0    0  0.00000000000E+00  0.00000000000E+00  0.99999998245E-14  0.12509000000E+03  0.12509000000E+03 0.  0.
        -11    1    3    3    0    0 -0.44653429175E+02  0.14644007412E+02  0.17943371468E+02  0.50302487712E+02  0.51100000000E-03 0.  1.
         23    2    1    0    0    0 -0.22787338496E+02 -0.54627093503E+01 -0.16980838693E+02  0.96151222004E+02  0.91692991122E+02 0.  0.
         11    1    3    3    0    0  0.21866090679E+02 -0.20106716762E+02 -0.34924210161E+02  0.45848734292E+02  0.51100000000E-03 0. -1.
         22    1    1    0    0    0  0.22787338496E+02  0.54627093503E+01  0.16980838693E+02  0.28938777996E+02  0.00000000000E+00 0. -1.
</event>
<event>
 5    1  0.1043455E-009  0.9118800E+02  0.7561462E-02  0.1125453E+00
         25   -1    0    0    0    0  0.00000000000E+00  0.00000000000E+00  0.99999998245E-14  0.12509000000E+03  0.12509000000E+03 0.  0.
        -11    1    3    3    0    0  0.19623458425E+01  0.50059739380E+02  0.79612304429E+01  0.50726812421E+02  0.51100000000E-03 0.  1.
         23    2    1    0    0    0 -0.24926571002E+02  0.27366191790E+02 -0.39251276481E+01  0.87865693129E+02  0.79591023407E+02 0.  0.
         11    1    3    3    0    0 -0.26888916844E+02 -0.22693547590E+02 -0.11886358091E+02  0.37138880707E+02  0.51100000000E-03 0. -1.
         22    1    1    0    0    0  0.24926571002E+02 -0.27366191790E+02  0.39251276481E+01  0.37224306871E+02  0.00000000000E+00 0.  1.
</event>
<event>
 5    1  0.1043455E-009  0.9118800E+02  0.7561462E-02  0.1125453E+00
         25   -1    0    0    0    0  0.00000000000E+00  0.00000000000E+00  0.99999998245E-14  0.12509000000E+03  0.12509000000E+03 0.  0.
        -11    1    3    3    0    0  0.87887901307E+01 -0.14382182892E+02 -0.33428857881E+02  0.37437662269E+02  0.51100000000E-03 0. -1.
         23    2    1    0    0    0  0.19327233512E+01 -0.10336012875E+02  0.25815823020E+02  0.97214826460E+02  0.93132685905E+02 0.  0.
         11    1    3    3    0    0 -0.68560667795E+01  0.40461700176E+01  0.59244680900E+02  0.59777164191E+02  0.51100000000E-03 0.  1.
         22    1    1    0    0    0 -0.19327233512E+01  0.10336012875E+02 -0.25815823020E+02  0.27875173540E+02  0.00000000000E+00 0.  1.
</event>
<event>
 5    1  0.1043455E-009  0.9118800E+02  0.7561462E-02  0.1125453E+00
         25   -1    0    0    0    0  0.00000000000E+00  0.00000000000E+00  0.99999998245E-14  0.12509000000E+03  0.12509000000E+03 0.  0.
        -11    1    3    3    0    0  0.11732211382E+02 -0.29558607488E+02 -0.50646300755E+01  0.32202585899E+02  0.51100000000E-03 0. -1.
         23    2    1    0    0    0 -0.10489882887E+02  0.23028768191E+02 -0.21794166454E+02  0.91693181307E+02  0.85394917879E+02 0.  0.
         11    1    3    3    0    0 -0.22222094269E+02  0.52587375678E+02 -0.16729536378E+02  0.59490595409E+02  0.51100000000E-03 0.  1.
         22    1    1    0    0    0  0.10489882887E+02 -0.23028768191E+02  0.21794166454E+02  0.33396818693E+02  0.00000000000E+00 0.  1.
</event>
<event>
 5    1  0.1043455E-009  0.9118800E+02  0.7561462E-02  0.1125453E+00
         25   -1    0    0    0    0  0.00000000000E+00  0.00000000000E+00  0.99999998245E-14  0.12509000000E+03  0.12509000000E+03 0.  0.
        -11    1    3    3    0    0  0.30480210203E+02  0.89825521001E+01 -0.41029009853E+02  0.51895174208E+02  0.51100000000E-03 0.  1.
         23    2    1    0    0    0  0.22526534388E+02 -0.18406563348E+02 -0.93209154230E+01  0.94542892279E+02  0.89471965946E+02 0.  0.
         11    1    3    3    0    0 -0.79536758152E+01 -0.27389115448E+02  0.31708094430E+02  0.42647718071E+02  0.51100000000E-03 0. -1.
         22    1    1    0    0    0 -0.22526534388E+02  0.18406563348E+02  0.93209154230E+01  0.30547107721E+02  0.00000000000E+00 0. -1.
</event>
<event>
 5    1  0.1043455E-009  0.9118800E+02  0.7561462E-02  0.1125453E+00
         25   -1    0    0    0    0  0.00000000000E+00  0.00000000000E+00  0.99999998245E-14  0.12509000000E+03  0.12509000000E+03 0.  0.
        -11    1    3    3    0    0  0.19080901009E+02 -0.14057943532E+02  0.44059925420E+02  0.50029826983E+02  0.51100000000E-03 0.  1.
         23    2    1    0    0    0  0.21408007393E+02 -0.18056975201E+02 -0.26409847702E+01  0.96959377281E+02  0.92788948201E+02 0.  0.
         11    1    3    3    0    0  0.23271063844E+01 -0.39990316696E+01 -0.46700910190E+02  0.46929550299E+02  0.51100000000E-03 0. -1.
         22    1    1    0    0    0 -0.21408007393E+02  0.18056975201E+02  0.26409847702E+01  0.28130622719E+02  0.00000000000E+00 0. -1.
</event>
<event>
 5    1  0.1043455E-009  0.9118800E+02  0.7561462E-02  0.1125453E+00
         25   -1    0    0    0    0  0.00000000000E+00  0.00000000000E+00  0.99999998245E-14  0.12509000000E+03  0.12509000000E+03 0.  0.
        -11    1    3    3    0    0 -0.21770384767E+02 -0.53922877336E+00  0.35776712723E+02  0.41883333131E+02  0.51100000000E-03 0.  1.
         23    2    1    0    0    0 -0.11886710816E+02  0.28743314383E+02 -0.55565754673E+01  0.93493361782E+02  0.87992392573E+02 0.  0.
         11    1    3    3    0    0  0.98836739508E+01  0.29282543156E+02 -0.41333288191E+02  0.51610028651E+02  0.51100000000E-03 0. -1.
         22    1    1    0    0    0  0.11886710816E+02 -0.28743314383E+02  0.55565754673E+01  0.31596638218E+02  0.00000000000E+00 0.  1.
</event>
<event>
 5    1  0.1043455E-009  0.9118800E+02  0.7561462E-02  0.1125453E+00
         25   -1    0    0    0    0  0.00000000000E+00  0.00000000000E+00  0.99999998245E-14  0.12509000000E+03  0.12509000000E+03 0.  0.
        -11    1    3    3    0    0 -0.69706394105E+01 -0.14489734440E+01  0.44952002599E+02  0.45512326635E+02  0.51100000000E-03 0.  1.
         23    2    1    0    0    0 -0.28504112958E+02  0.65165771244E+01  0.15527855246E+00  0.95850055671E+02  0.91281207418E+02 0.  0.
         11    1    3    3    0    0 -0.21533473548E+02  0.79655505684E+01 -0.44796724047E+02  0.50337729035E+02  0.51100000000E-03 0. -1.
         22    1    1    0    0    0  0.28504112958E+02 -0.65165771244E+01 -0.15527855246E+00  0.29239944329E+02  0.00000000000E+00 0.  1.
</event>
<event>
 5    1  0.1043455E-009  0.9118800E+02  0.7561462E-02  0.1125453E+00
         25   -1    0    0    0    0  0.00000000000E+00  0.00000000000E+00  0.99999998245E-14  0.12509000000E+03  0.12509000000E+03 0.  0.
        -11    1    3    3    0    0  0.24448992976E+02  0.36186861044E+02 -0.43212619376E+02  0.61437550760E+02  0.51100000000E-03 0.  1.
         23    2    1    0    0    0  0.16717314062E+02  0.20391301604E+02 -0.14800199145E+02  0.94852280752E+02  0.89903478790E+02 0.  0.
         11    1    3    3    0    0 -0.77316789141E+01 -0.15795559440E+02  0.28412420231E+02  0.33414729992E+02  0.51100000000E-03 0. -1.
         22    1    1    0    0    0 -0.16717314062E+02 -0.20391301604E+02  0.14800199145E+02  0.30237719248E+02  0.00000000000E+00 0.  1.
</event>
<event>
 5    1  0.1043455E-009  0.9118800E+02  0.7561462E-02  0.1125453E+00
         25   -1    0    0    0    0  0.00000000000E+00  0.00000000000E+00  0.99999998245E-14  0.12509000000E+03  0.12509000000E+03 0.  0.
        -11    1    3    3    0    0  0.56082430301E+00  0.37518896557E+01  0.45882893324E+02  0.46039451560E+02  0.51100000000E-03 0.  1.
         23    2    1    0    0    0  0.27716128419E+02 -0.85441732958E+01  0.66120358200E+01  0.95342635586E+02  0.90583179846E+02 0.  0.
         11    1    3    3    0    0  0.27155304116E+02 -0.12296062951E+02 -0.39270857504E+02  0.49303184026E+02  0.51100000000E-03 0. -1.
         22    1    1    0    0    0 -0.27716128419E+02  0.85441732958E+01 -0.66120358200E+01  0.29747364414E+02  0.00000000000E+00 0.  1.
</event>
<event>
 5    1  0.1043455E-009  0.9118800E+02  0.7561462E-02  0.1125453E+00
         25   -1    0    0    0    0  0.00000000000E+00  0.00000000000E+00  0.99999998245E-14  0.12509000000E+03  0.12509000000E+03 0.  0.
        -11    1    3    3    0    0 -0.14886543725E+02 -0.37366119835E+02  0.35655436097E+02  0.53750778777E+02  0.51100000000E-03 0. -1.
         23    2    1    0    0    0  0.85208317910E+01 -0.35402739447E+01  0.28021797155E+02  0.95588148706E+02  0.90921586783E+02 0.  0.
         11    1    3    3    0    0  0.23407375517E+02  0.33825845890E+02 -0.76336389424E+01  0.41837369929E+02  0.51100000000E-03 0.  1.
         22    1    1    0    0    0 -0.85208317910E+01  0.35402739447E+01 -0.28021797155E+02  0.29501851294E+02  0.00000000000E+00 0. -1.
</event>
<event>
 5    1  0.1043455E-009  0.9118800E+02  0.7561462E-02  0.1125453E+00
         25   -1    0    0    0    0  0.00000000000E+00  0.00000000000E+00  0.99999998245E-14  0.12509000000E+03  0.12509000000E+03 0.  0.
        -11    1    3    3    0    0  0.66743477179E+01  0.58202776791E+02 -0.11529981696E+02  0.59708044867E+02  0.51100000000E-03 0.  1.
         23    2    1    0    0    0 -0.33274691784E+00  0.24722013819E+02 -0.17982939548E+02  0.94517548306E+02  0.89436525734E+02 0.  0.
         11    1    3    3    0    0 -0.70070946357E+01 -0.33480762972E+02 -0.64529578513E+01  0.34809503440E+02  0.51100000000E-03 0. -1.
         22    1    1    0    0    0  0.33274691784E+00 -0.24722013819E+02  0.17982939548E+02  0.30572451694E+02  0.00000000000E+00 0.  1.
</event>
<event>
 5    1  0.1043455E-009  0.9118800E+02  0.7561462E-02  0.1125453E+00
         25   -1    0    0    0    0  0.00000000000E+00  0.00000000000E+00  0.99999998245E-14  0.12509000000E+03  0.12509000000E+03 0.  0.
        -11    1    3    3    0    0  0.53975503652E+02 -0.13045142466E+02  0.88773110749E+01  0.56234663586E+02  0.51100000000E-03 0.  1.
         23    2    1    0    0    0  0.19174573999E+02 -0.89371161888E+00  0.22483472378E+02  0.95527024191E+02  0.90837452695E+02 0.  0.
         11    1    3    3    0    0 -0.34800929653E+02  0.12151430847E+02  0.13606161303E+02  0.39292360606E+02  0.51100000000E-03 0. -1.
         22    1    1    0    0    0 -0.19174573999E+02  0.89371161888E+00 -0.22483472378E+02  0.29562975809E+02  0.00000000000E+00 0.  1.
</event>
<event>
 5    1  0.1043455E-009  0.9118800E+02  0.7561462E-02  0.1125453E+00
         25   -1    0    0    0    0  0.00000000000E+00  0.00000000000E+00  0.99999998245E-14  0.12509000000E+03  0.12509000000E+03 0.  0.
        -11    1    3    3    0    0  0.37734236131E+02  0.17208639929E+02  0.11363651248E+02  0.43001656184E+02  0.51100000000E-03 0.  1.
         23    2    1    0    0    0  0.10555081893E+02 -0.14898741027E+02  0.30755724855E+02  0.89322740540E+02  0.81848977564E+02 0.  0.
         11    1    3    3    0    0 -0.27179154238E+02 -0.32107380955E+02  0.19392073607E+02  0.46321084356E+02  0.51100000000E-03 0. -1.
         22    1    1    0    0    0 -0.10555081893E+02  0.14898741027E+02 -0.30755724855E+02  0.35767259460E+02  0.00000000000E+00 0. -1.
</event>
<event>
 5    1  0.1043455E-009  0.9118800E+02  0.7561462E-02  0.1125453E+00
         25   -1    0    0    0    0  0.00000000000E+00  0.00000000000E+00  0.99999998245E-14  0.12509000000E+03  0.12509000000E+03 0.  0.
        -11    1    3    3    0    0  0.26289707309E+00  0.43226837050E+02 -0.45173878774E+02  0.62524458254E+02  0.51100000000E-03 0.  1.
         23    2    1    0    0    0 -0.13342993867E+00  0.28714073032E+02 -0.31467353819E+02  0.82490585098E+02  0.70639836352E+02 0.  0.
         11    1    3    3    0    0 -0.39632701177E+00 -0.14512764018E+02  0.13706524956E+02  0.19966126844E+02  0.51100000000E-03 0. -1.
         22    1    1    0    0    0  0.13342993867E+00 -0.28714073032E+02  0.31467353819E+02  0.42599414902E+02  0.00000000000E+00 0.  1.
</event>
<event>
 5    1  0.1043455E-009  0.9118800E+02  0.7561462E-02  0.1125453E+00
         25   -1    0    0    0    0  0.00000000000E+00  0.00000000000E+00  0.99999998245E-14  0.12509000000E+03  0.12509000000E+03 0.  0.
        -11    1    3    3    0    0 -0.42026517798E+02  0.21596744567E+02 -0.38026987236E+02  0.60652282171E+02  0.51100000000E-03 0.  1.
         23    2    1    0    0    0 -0.14089340509E+02  0.19424483903E+02 -0.17892210319E+02  0.95157554711E+02  0.90327232536E+02 0.  0.
         11    1    3    3    0    0  0.27937177289E+02 -0.21722606633E+01  0.20134776917E+02  0.34505272539E+02  0.51100000000E-03 0. -1.
         22    1    1    0    0    0  0.14089340509E+02 -0.19424483903E+02  0.17892210319E+02  0.29932445289E+02  0.00000000000E+00 0.  1.
</event>
<event>
 5    1  0.1043455E-009  0.9118800E+02  0.7561462E-02  0.1125453E+00
         25   -1    0    0    0    0  0.00000000000E+00  0.00000000000E+00  0.99999998245E-14  0.12509000000E+03  0.12509000000E+03 0.  0.
        -11    1    3    3    0    0  0.43727345649E+02  0.24981409484E+02 -0.92014938076E+01  0.51193935831E+02  0.51100000000E-03 0.  1.
         23    2    1    0    0    0  0.25280822674E+02 -0.14388031560E+02  0.14813199260E+01  0.95963899060E+02  0.91437083105E+02 0.  0.
         11    1    3    3    0    0 -0.18446522975E+02 -0.39369441044E+02  0.10682813734E+02  0.44769963228E+02  0.51100000000E-03 0. -1.
         22    1    1    0    0    0 -0.25280822674E+02  0.14388031560E+02 -0.14813199260E+01  0.29126100940E+02  0.00000000000E+00 0. -1.
</event>
<event>
 5    1  0.1043455E-009  0.9118800E+02  0.7561462E-02  0.1125453E+00
         25   -1    0    0    0    0  0.00000000000E+00  0.00000000000E+00  0.99999998245E-14  0.12509000000E+03  0.12509000000E+03 0.  0.
        -11    1    3    3    0    0  0.52306321920E+02 -0.25378264694E+02  0.91646878906E+00  0.58145056084E+02  0.51100000000E-03 0.  1.
         23    2    1    0    0    0  0.23665660385E+02 -0.63871822780E+01 -0.15352710080E+02  0.96166561654E+02  0.91713915491E+02 0.  0.
         11    1    3    3    0    0 -0.28640661535E+02  0.18991082416E+02 -0.16269178869E+02  0.38021505570E+02  0.51100000000E-03 0. -1.
         22    1    1    0    0    0 -0.23665660385E+02  0.63871822780E+01  0.15352710080E+02  0.28923438346E+02  0.00000000000E+00 0.  1.
</event>
<event>
 5    1  0.1043455E-009  0.9118800E+02  0.7561462E-02  0.1125453E+00
         25   -1    0    0    0    0  0.00000000000E+00  0.00000000000E+00  0.99999998245E-14  0.12509000000E+03  0.12509000000E+03 0.  0.
        -11    1    3    3    0    0 -0.68999218250E+01 -0.37513464839E+02 -0.34845447529E-01  0.38142760517E+02  0.51100000000E-03 0.  1.
         23    2    1    0    0    0 -0.14700225864E+02  0.76232642297E+01 -0.28540085914E+02  0.92093828981E+02  0.85979800154E+02 0.  0.
         11    1    3    3    0    0 -0.78003040386E+01  0.45136729069E+02 -0.28505240466E+02  0.53951068464E+02  0.51100000000E-03 0. -1.
         22    1    1    0    0    0  0.14700225864E+02 -0.76232642297E+01  0.28540085914E+02  0.32996171019E+02  0.00000000000E+00 0. -1.
</event>
<event>
 5    1  0.1043455E-009  0.9118800E+02  0.7561462E-02  0.1125453E+00
         25   -1    0    0    0    0  0.00000000000E+00  0.00000000000E+00  0.99999998245E-14  0.12509000000E+03  0.12509000000E+03 0.  0.
        -11    1    3    3    0    0 -0.19895508513E+02 -0.23045178124E+02  0.49695404874E+02  0.58279882975E+02  0.51100000000E-03 0. -1.
         23    2    1    0    0    0  0.76536271782E+01 -0.13451091270E+02  0.16718356902E+02  0.10230813610E+03  0.99739367298E+02 0.  0.
         11    1    3    3    0    0  0.27549135691E+02  0.95940868535E+01 -0.32977047972E+02  0.44028253123E+02  0.51100000000E-03 0.  1.
         22    1    1    0    0    0 -0.76536271782E+01  0.13451091270E+02 -0.16718356902E+02  0.22781863902E+02  0.00000000000E+00 0. -1.
</event>
<event>
 5    1  0.1043455E-009  0.9118800E+02  0.7561462E-02  0.1125453E+00
         25   -1    0    0    0    0  0.00000000000E+00  0.00000000000E+00  0.99999998245E-14  0.12509000000E+03  0.12509000000E+03 0.  0.
        -11    1    3    3    0    0 -0.26896380563E+02 -0.12849212258E+02  0.20928794484E+02  0.36421586756E+02  0.51100000000E-03 0.  1.
         23    2    1    0    0    0 -0.27965074291E+01  0.15530289290E+02 -0.24988097584E+02  0.95536398526E+02  0.90850360942E+02 0.  0.
         11    1    3    3    0    0  0.24099873133E+02  0.28379501548E+02 -0.45916892068E+02  0.59114811770E+02  0.51100000000E-03 0. -1.
         22    1    1    0    0    0  0.27965074291E+01 -0.15530289290E+02  0.24988097584E+02  0.29553601474E+02  0.00000000000E+00 0. -1.
</event>
<event>
 5    1  0.1043455E-009  0.9118800E+02  0.7561462E-02  0.1125453E+00
         25   -1    0    0    0    0  0.00000000000E+00  0.00000000000E+00  0.99999998245E-14  0.12509000000E+03  0.12509000000E+03 0.  0.
        -11    1    3    3    0    0  0.57139033206E+01 -0.45405501724E+02  0.38150160434E+02  0.59579719866E+02  0.51100000000E-03 0.  1.
         23    2    1    0    0    0 -0.42287595942E+01 -0.28284524457E+02  0.84593939322E+01  0.95266216250E+02  0.90477587730E+02 0.  0.
         11    1    3    3    0    0 -0.99426629148E+01  0.17120977267E+02 -0.29690766502E+02  0.35686496383E+02  0.51100000000E-03 0. -1.
         22    1    1    0    0    0  0.42287595942E+01  0.28284524457E+02 -0.84593939322E+01  0.29823783750E+02  0.00000000000E+00 0.  1.
</event>
<event>
 5    1  0.1043455E-009  0.9118800E+02  0.7561462E-02  0.1125453E+00
         25   -1    0    0    0    0  0.00000000000E+00  0.00000000000E+00  0.99999998245E-14  0.12509000000E+03  0.12509000000E+03 0.  0.
        -11    1    3    3    0    0 -0.31002072237E+02 -0.69811478134E+01 -0.23537853276E+02  0.39546117950E+02  0.51100000000E-03 0.  1.
         23    2    1    0    0    0  0.20957008765E+02 -0.27772586126E+01 -0.25813529394E+02  0.91724633501E+02  0.85440977929E+02 0.  0.
         11    1    3    3    0    0  0.51959081003E+02  0.42038892009E+01 -0.22756761178E+01  0.52178515551E+02  0.51100000000E-03 0. -1.
         22    1    1    0    0    0 -0.20957008765E+02  0.27772586126E+01  0.25813529394E+02  0.33365366499E+02  0.00000000000E+00 0. -1.
</event>
<event>
 5    1  0.1043455E-009  0.9118800E+02  0.7561462E-02  0.1125453E+00
         25   -1    0    0    0    0  0.00000000000E+00  0.00000000000E+00  0.99999998245E-14  0.12509000000E+03  0.12509000000E+03 0.  0.
        -11    1    3    3    0    0  0.94720426148E+01  0.13521709463E+02  0.11456116751E+02  0.20094746312E+02  0.51100000000E-03 0.  1.
         23    2    1    0    0    0  0.18119778414E+02 -0.42708344075E+02  0.12666415573E+02  0.76998762680E+02  0.60133537626E+02 0.  0.
         11    1    3    3    0    0  0.86477357995E+01 -0.56230053538E+02  0.12102988227E+01  0.56904016368E+02  0.51100000000E-03 0. -1.
         22    1    1    0    0    0 -0.18119778414E+02  0.42708344075E+02 -0.12666415573E+02  0.48091237320E+02  0.00000000000E+00 0. -1.
</event>
<event>
 5    1  0.1043455E-009  0.9118800E+02  0.7561462E-02  0.1125453E+00
         25   -1    0    0    0    0  0.00000000000E+00  0.00000000000E+00  0.99999998245E-14  0.12509000000E+03  0.12509000000E+03 0.  0.
        -11    1    3    3    0    0 -0.25958941937E+02 -0.30301135767E+02 -0.32598401115E+02  0.51523598970E+02  0.51100000000E-03 0. -1.
         23    2    1    0    0    0 -0.28950876843E+02  0.18502292879E+01 -0.19959603949E+01  0.96011477405E+02  0.91502149249E+02 0.  0.
         11    1    3    3    0    0 -0.29919349062E+01  0.32151365055E+02  0.30602440720E+02  0.44487878436E+02  0.51100000000E-03 0.  1.
         22    1    1    0    0    0  0.28950876843E+02 -0.18502292879E+01  0.19959603949E+01  0.29078522595E+02  0.00000000000E+00 0. -1.
</event>
<event>
 5    1  0.1043455E-009  0.9118800E+02  0.7561462E-02  0.1125453E+00
         25   -1    0    0    0    0  0.00000000000E+00  0.00000000000E+00  0.99999998245E-14  0.12509000000E+03  0.12509000000E+03 0.  0.
        -11    1    3    3    0    0  0.28133636809E+02 -0.16828388392E+02 -0.11539898866E+02  0.34754358605E+02  0.51100000000E-03 0. -1.
         23    2    1    0    0    0 -0.68078583474E+01 -0.12832541753E+02  0.31539164787E+02  0.90366233232E+02  0.83428509096E+02 0.  0.
         11    1    3    3    0    0 -0.34941495156E+02  0.39958466392E+01  0.43079063652E+02  0.55611874627E+02  0.51100000000E-03 0.  1.
         22    1    1    0    0    0  0.68078583474E+01  0.12832541753E+02 -0.31539164787E+02  0.34723766768E+02  0.00000000000E+00 0.  1.
</event>
<event>
 5    1  0.1043455E-009  0.9118800E+02  0.7561462E-02  0.1125453E+00
         25   -1    0    0    0    0  0.00000000000E+00  0.00000000000E+00  0.99999998245E-14  0.12509000000E+03  0.12509000000E+03 0.  0.
        -11    1    3    3    0    0 -0.49179860766E+02 -0.14405672376E+02 -0.22684662712E+02  0.56042626849E+02  0.51100000000E-03 0.  1.
         23    2    1    0    0    0 -0.13671544298E+02 -0.31546819055E+01 -0.28099468051E+02  0.93682305940E+02  0.88260586901E+02 0.  0.
         11    1    3    3    0    0  0.35508316468E+02  0.11250990470E+02 -0.54148053391E+01  0.37639679091E+02  0.51100000000E-03 0. -1.
         22    1    1    0    0    0  0.13671544298E+02  0.31546819055E+01  0.28099468051E+02  0.31407694060E+02  0.00000000000E+00 0.  1.
</event>
<event>
 5    1  0.1043455E-009  0.9118800E+02  0.7561462E-02  0.1125453E+00
         25   -1    0    0    0    0  0.00000000000E+00  0.00000000000E+00  0.99999998245E-14  0.12509000000E+03  0.12509000000E+03 0.  0.
        -11    1    3    3    0    0  0.49969544766E+02 -0.12116887492E+02  0.36105225387E+01  0.51544255159E+02  0.51100000000E-03 0.  1.
         23    2    1    0    0    0  0.32049958522E+02  0.44867879546E+01 -0.21230705918E+02  0.86385039321E+02  0.77228887324E+02 0.  0.
         11    1    3    3    0    0 -0.17919586244E+02  0.16603675447E+02 -0.24841228456E+02  0.34840784162E+02  0.51100000000E-03 0. -1.
         22    1    1    0    0    0 -0.32049958522E+02 -0.44867879546E+01  0.21230705918E+02  0.38704960679E+02  0.00000000000E+00 0.  1.
</event>
<event>
 5    1  0.1043455E-009  0.9118800E+02  0.7561462E-02  0.1125453E+00
         25   -1    0    0    0    0  0.00000000000E+00  0.00000000000E+00  0.99999998245E-14  0.12509000000E+03  0.12509000000E+03 0.  0.
        -11    1    3    3    0    0  0.29491494435E+02  0.16293161393E+02 -0.22531585388E+02  0.40532551025E+02  0.51100000000E-03 0.  1.
         23    2    1    0    0    0 -0.19485509669E+02  0.21159225425E+02  0.33331496861E+01  0.96133000941E+02  0.91668130097E+02 0.  0.
         11    1    3    3    0    0 -0.48977004105E+02  0.48660640320E+01  0.25864735074E+02  0.55600449917E+02  0.51100000000E-03 0. -1.
         22    1    1    0    0    0  0.19485509669E+02 -0.21159225425E+02 -0.33331496861E+01  0.28956999059E+02  0.00000000000E+00 0. -1.
</event>
<event>
 5    1  0.1043455E-009  0.9118800E+02  0.7561462E-02  0.1125453E+00
         25   -1    0    0    0    0  0.00000000000E+00  0.00000000000E+00  0.99999998245E-14  0.12509000000E+03  0.12509000000E+03 0.  0.
        -11    1    3    3    0    0 -0.33953856727E+02  0.10536961668E+02  0.19735863232E+01  0.35605996561E+02  0.51100000000E-03 0.  1.
         23    2    1    0    0    0  0.24092557042E+02 -0.12153397242E+02  0.30099721106E+01  0.97938272588E+02  0.94099356725E+02 0.  0.
         11    1    3    3    0    0  0.58046413770E+02 -0.22690358910E+02  0.10363857875E+01  0.62332276027E+02  0.51100000000E-03 0. -1.
         22    1    1    0    0    0 -0.24092557042E+02  0.12153397242E+02 -0.30099721106E+01  0.27151727412E+02  0.00000000000E+00 0. -1.
</event>
<event>
 5    1  0.1043455E-009  0.9118800E+02  0.7561462E-02  0.1125453E+00
         25   -1    0    0    0    0  0.00000000000E+00  0.00000000000E+00  0.99999998245E-14  0.12509000000E+03  0.12509000000E+03 0.  0.
        -11    1    3    3    0    0  0.24307799788E+02  0.11925628252E+02 -0.11815059210E+02  0.29541248521E+02  0.51100000000E-03 0. -1.
         23    2    1    0    0    0 -0.85997897250E+01 -0.19464404773E+02  0.27956177649E+02  0.89956436201E+02  0.82811793295E+02 0.  0.
         11    1    3    3    0    0 -0.32907589513E+02 -0.31390033026E+02  0.39771236859E+02  0.60415187680E+02  0.51100000000E-03 0.  1.
         22    1    1    0    0    0  0.85997897250E+01  0.19464404773E+02 -0.27956177649E+02  0.35133563799E+02  0.00000000000E+00 0.  1.
</event>
<event>
 5    1  0.1043455E-009  0.9118800E+02  0.7561462E-02  0.1125453E+00
         25   -1    0    0    0    0  0.00000000000E+00  0.00000000000E+00  0.99999998245E-14  0.12509000000E+03  0.12509000000E+03 0.  0.
        -11    1    3    3    0    0 -0.23782659930E+01  0.32079381128E+02  0.30173081359E+02  0.44103941792E+02  0.51100000000E-03 0.  1.
         23    2    1    0    0    0 -0.25870113798E+02  0.64504609915E+01 -0.94365202706E+01  0.96807158033E+02  0.92583512013E+02 0.  0.
         11    1    3    3    0    0 -0.23491847805E+02 -0.25628920137E+02 -0.39609601629E+02  0.52703216241E+02  0.51100000000E-03 0. -1.
         22    1    1    0    0    0  0.25870113798E+02 -0.64504609915E+01  0.94365202706E+01  0.28282841967E+02  0.00000000000E+00 0.  1.
</event>
<event>
 5    1  0.1043455E-009  0.9118800E+02  0.7561462E-02  0.1125453E+00
         25   -1    0    0    0    0  0.00000000000E+00  0.00000000000E+00  0.99999998245E-14  0.12509000000E+03  0.12509000000E+03 0.  0.
        -11    1    3    3    0    0  0.64697224512E+01 -0.10700427521E+02  0.42983665394E+02  0.44765521875E+02  0.51100000000E-03 0. -1.
         23    2    1    0    0    0 -0.20992508883E+02  0.17732339895E+02  0.11498356487E+02  0.95301856230E+02  0.90526848457E+02 0.  0.
         11    1    3    3    0    0 -0.27462231334E+02  0.28432767416E+02 -0.31485308908E+02  0.50536334355E+02  0.51100000000E-03 0.  1.
         22    1    1    0    0    0  0.20992508883E+02 -0.17732339895E+02 -0.11498356487E+02  0.29788143770E+02  0.00000000000E+00 0.  1.
</event>
<event>
 5    1  0.1043455E-009  0.9118800E+02  0.7561462E-02  0.1125453E+00
         25   -1    0    0    0    0  0.00000000000E+00  0.00000000000E+00  0.99999998245E-14  0.12509000000E+03  0.12509000000E+03 0.  0.
        -11    1    3    3    0    0 -0.62075721167E+01  0.41111012402E+02  0.35035463577E+02  0.54370331989E+02  0.51100000000E-03 0. -1.
         23    2    1    0    0    0  0.19501230172E+02  0.21630504724E+02  0.15173288719E+02  0.92250916526E+02  0.86208040208E+02 0.  0.
         11    1    3    3    0    0  0.25708802289E+02 -0.19480507678E+02 -0.19862174857E+02  0.37880584537E+02  0.51100000000E-03 0.  1.
         22    1    1    0    0    0 -0.19501230172E+02 -0.21630504724E+02 -0.15173288719E+02  0.32839083474E+02  0.00000000000E+00 0. -1.
</event>
<event>
 5    1  0.1043455E-009  0.9118800E+02  0.7561462E-02  0.1125453E+00
         25   -1    0    0    0    0  0.00000000000E+00  0.00000000000E+00  0.99999998245E-14  0.12509000000E+03  0.12509000000E+03 0.  0.
        -11    1    3    3    0    0 -0.40248700847E+02 -0.55590574275E+01 -0.34972866408E+01  0.40781025654E+02  0.51100000000E-03 0.  1.
         23    2    1    0    0    0  0.77251168229E+01  0.32484004431E+01 -0.28352849976E+02  0.95524587147E+02  0.90834096641E+02 0.  0.
         11    1    3    3    0    0  0.47973817670E+02  0.88074578706E+01 -0.24855563336E+02  0.54743561493E+02  0.51100000000E-03 0. -1.
         22    1    1    0    0    0 -0.77251168229E+01 -0.32484004431E+01  0.28352849976E+02  0.29565412853E+02  0.00000000000E+00 0. -1.
</event>
<event>
 5    1  0.1043455E-009  0.9118800E+02  0.7561462E-02  0.1125453E+00
         25   -1    0    0    0    0  0.00000000000E+00  0.00000000000E+00  0.99999998245E-14  0.12509000000E+03  0.12509000000E+03 0.  0.
        -11    1    3    3    0    0 -0.43942119705E+02 -0.39517920316E+01 -0.17187052219E+02  0.47348931441E+02  0.51100000000E-03 0. -1.
         23    2    1    0    0    0 -0.54686693499E+01  0.23376827012E+02 -0.18844181147E+02  0.94569751824E+02  0.89509510172E+02 0.  0.
         11    1    3    3    0    0  0.38473450355E+02  0.27328619044E+02 -0.16571289278E+01  0.47220820382E+02  0.51100000000E-03 0.  1.
         22    1    1    0    0    0  0.54686693499E+01 -0.23376827012E+02  0.18844181147E+02  0.30520248176E+02  0.00000000000E+00 0.  1.
</event>
<event>
 5    1  0.1043455E-009  0.9118800E+02  0.7561462E-02  0.1125453E+00
         25   -1    0    0    0    0  0.00000000000E+00  0.00000000000E+00  0.99999998245E-14  0.12509000000E+03  0.12509000000E+03 0.  0.
        -11    1    3    3    0    0  0.35070039666E+02 -0.26859444435E+02 -0.33743669342E+01  0.44302638634E+02  0.51100000000E-03 0. -1.
         23    2    1    0    0    0 -0.15639108651E+02 -0.24562772004E+02 -0.68284485492E+01  0.95181151853E+02  0.90359905215E+02 0.  0.
         11    1    3    3    0    0 -0.50709148317E+02  0.22966724309E+01 -0.34540816151E+01  0.50878513218E+02  0.51100000000E-03 0.  1.
         22    1    1    0    0    0  0.15639108651E+02  0.24562772004E+02  0.68284485492E+01  0.29908848147E+02  0.00000000000E+00 0.  1.
</event>
<event>
 5    1  0.1043455E-009  0.9118800E+02  0.7561462E-02  0.1125453E+00
         25   -1    0    0    0    0  0.00000000000E+00  0.00000000000E+00  0.99999998245E-14  0.12509000000E+03  0.12509000000E+03 0.  0.
        -11    1    3    3    0    0 -0.26123826813E+02  0.35307114580E+01  0.17433928620E+02  0.31604779989E+02  0.51100000000E-03 0.  1.
         23    2    1    0    0    0 -0.10565013845E+02 -0.36085360311E+02 -0.14475225989E+02  0.84799741701E+02  0.74616963747E+02 0.  0.
         11    1    3    3    0    0  0.15558812968E+02 -0.39616071769E+02 -0.31909154609E+02  0.53194961712E+02  0.51100000000E-03 0. -1.
         22    1    1    0    0    0  0.10565013845E+02  0.36085360311E+02  0.14475225989E+02  0.40290258299E+02  0.00000000000E+00 0. -1.
</event>
<event>
 5    1  0.1043455E-009  0.9118800E+02  0.7561462E-02  0.1125453E+00
         25   -1    0    0    0    0  0.00000000000E+00  0.00000000000E+00  0.99999998245E-14  0.12509000000E+03  0.12509000000E+03 0.  0.
        -11    1    3    3    0    0 -0.11562479865E+02 -0.36572816891E+02 -0.31877261708E+01  0.38489264404E+02  0.51100000000E-03 0.  1.
         23    2    1    0    0    0  0.75101258304E+01  0.16635223538E+02 -0.20536519047E+02  0.97614897330E+02  0.93668494779E+02 0.  0.
         11    1    3    3    0    0  0.19072605695E+02  0.53208040430E+02 -0.17348792876E+02  0.59125632926E+02  0.51100000000E-03 0. -1.
         22    1    1    0    0    0 -0.75101258304E+01 -0.16635223538E+02  0.20536519047E+02  0.27475102670E+02  0.00000000000E+00 0. -1.
</event>
<event>
 5    1  0.1043455E-009  0.9118800E+02  0.7561462E-02  0.1125453E+00
         25   -1    0    0    0    0  0.00000000000E+00  0.00000000000E+00  0.99999998245E-14  0.12509000000E+03  0.12509000000E+03 0.  0.
        -11    1    3    3    0    0 -0.22215263509E+02 -0.22917354850E+02 -0.27044698660E+02  0.41834660414E+02  0.51100000000E-03 0. -1.
         23    2    1    0    0    0 -0.22535472936E+00 -0.14897696646E+02  0.23345115683E+02  0.97395477503E+02  0.93375009835E+02 0.  0.
         11    1    3    3    0    0  0.21989908779E+02  0.80196582038E+01  0.50389814343E+02  0.55560817089E+02  0.51100000000E-03 0.  1.
         22    1    1    0    0    0  0.22535472936E+00  0.14897696646E+02 -0.23345115683E+02  0.27694522497E+02  0.00000000000E+00 0.  1.
</event>
<event>
 5    1  0.1043455E-009  0.9118800E+02  0.7561462E-02  0.1125453E+00
         25   -1    0    0    0    0  0.00000000000E+00  0.00000000000E+00  0.99999998245E-14  0.12509000000E+03  0.12509000000E+03 0.  0.
        -11    1    3    3    0    0  0.12599015078E+02 -0.19691873602E+02  0.46459999043E+02  0.52009966144E+02  0.51100000000E-03 0. -1.
         23    2    1    0    0    0  0.26328374737E+02 -0.10242966689E+02  0.53942968298E+01  0.96328913074E+02  0.91935082384E+02 0.  0.
         11    1    3    3    0    0  0.13729359658E+02  0.94489069128E+01 -0.41065702214E+02  0.44318946931E+02  0.51100000000E-03 0.  1.
         22    1    1    0    0    0 -0.26328374737E+02  0.10242966689E+02 -0.53942968298E+01  0.28761086926E+02  0.00000000000E+00 0. -1.
</event>
<event>
 5    1  0.1043455E-009  0.9118800E+02  0.7561462E-02  0.1125453E+00
         25   -1    0    0    0    0  0.00000000000E+00  0.00000000000E+00  0.99999998245E-14  0.12509000000E+03  0.12509000000E+03 0.  0.
        -11    1    3    3    0    0 -0.20111400724E+02  0.40817065922E+02  0.13245802316E+02  0.47391482239E+02  0.51100000000E-03 0.  1.
         23    2    1    0    0    0  0.18866190766E+02  0.24209863326E+02 -0.58174546647E+01  0.93850707193E+02  0.88498936861E+02 0.  0.
         11    1    3    3    0    0  0.38977591490E+02 -0.16607202596E+02 -0.19063256981E+02  0.46459224954E+02  0.51100000000E-03 0. -1.
         22    1    1    0    0    0 -0.18866190766E+02 -0.24209863326E+02  0.58174546647E+01  0.31239292807E+02  0.00000000000E+00 0. -1.
</event>
<event>
 5    1  0.1043455E-009  0.9118800E+02  0.7561462E-02  0.1125453E+00
         25   -1    0    0    0    0  0.00000000000E+00  0.00000000000E+00  0.99999998245E-14  0.12509000000E+03  0.12509000000E+03 0.  0.
        -11    1    3    3    0    0 -0.12616437810E+02  0.45488317510E+02 -0.22994253618E+01  0.47261494794E+02  0.51100000000E-03 0.  1.
         23    2    1    0    0    0 -0.11069744361E+02  0.38310451577E+01 -0.26959663615E+02  0.95695449324E+02  0.91069091420E+02 0.  0.
         11    1    3    3    0    0  0.15466934496E+01 -0.41657272353E+02 -0.24660238253E+02  0.48433954530E+02  0.51100000000E-03 0. -1.
         22    1    1    0    0    0  0.11069744361E+02 -0.38310451577E+01  0.26959663615E+02  0.29394550676E+02  0.00000000000E+00 0.  1.
</event>
<event>
 5    1  0.1043455E-009  0.9118800E+02  0.7561462E-02  0.1125453E+00
         25   -1    0    0    0    0  0.00000000000E+00  0.00000000000E+00  0.99999998245E-14  0.12509000000E+03  0.12509000000E+03 0.  0.
        -11    1    3    3    0    0  0.13289116627E+02  0.76166008822E+01  0.29120005780E+02  0.32902704549E+02  0.51100000000E-03 0.  1.
         23    2    1    0    0    0 -0.37884927687E+01 -0.15698638206E+02 -0.25620814644E+02  0.94804259758E+02  0.89836638441E+02 0.  0.
         11    1    3    3    0    0 -0.17077609395E+02 -0.23315239088E+02 -0.54740820424E+02  0.61901555210E+02  0.51100000000E-03 0. -1.
         22    1    1    0    0    0  0.37884927687E+01  0.15698638206E+02  0.25620814644E+02  0.30285740242E+02  0.00000000000E+00 0. -1.
</event>
<event>
 5    1  0.1043455E-009  0.9118800E+02  0.7561462E-02  0.1125453E+00
         25   -1    0    0    0    0  0.00000000000E+00  0.00000000000E+00  0.99999998245E-14  0.12509000000E+03  0.12509000000E+03 0.  0.
        -11    1    3    3    0    0  0.34122080833E+02 -0.46097538117E+02  0.19736153718E+02  0.60653237215E+02  0.51100000000E-03 0.  1.
         23    2    1    0    0    0  0.20328081173E+02 -0.38991437429E+02  0.73494531514E+01  0.80507744129E+02  0.67036701337E+02 0.  0.
         11    1    3    3    0    0 -0.13793999659E+02  0.71061006885E+01 -0.12386700567E+02  0.19854506914E+02  0.51100000000E-03 0. -1.
         22    1    1    0    0    0 -0.20328081173E+02  0.38991437429E+02 -0.73494531514E+01  0.44582255871E+02  0.00000000000E+00 0.  1.
</event>
<event>
 5    1  0.1043455E-009  0.9118800E+02  0.7561462E-02  0.1125453E+00
         25   -1    0    0    0    0  0.00000000000E+00  0.00000000000E+00  0.99999998245E-14  0.12509000000E+03  0.12509000000E+03 0.  0.
        -11    1    3    3    0    0 -0.11468384775E+02  0.55127749688E+02 -0.23115145181E+02  0.60867910856E+02  0.51100000000E-03 0. -1.
         23    2    1    0    0    0  0.28627186709E+01  0.29469184523E+02 -0.59918186212E+01  0.94881890409E+02  0.89944667672E+02 0.  0.
         11    1    3    3    0    0  0.14331103446E+02 -0.25658565165E+02  0.17123326560E+02  0.34013979553E+02  0.51100000000E-03 0.  1.
         22    1    1    0    0    0 -0.28627186709E+01 -0.29469184523E+02  0.59918186212E+01  0.30208109591E+02  0.00000000000E+00 0. -1.
</event>
<event>
 5    1  0.1043455E-009  0.9118800E+02  0.7561462E-02  0.1125453E+00
         25   -1    0    0    0    0  0.00000000000E+00  0.00000000000E+00  0.99999998245E-14  0.12509000000E+03  0.12509000000E+03 0.  0.
        -11    1    3    3    0    0  0.50393504480E+01 -0.22463889038E+02  0.54826635937E+02  0.59464118358E+02  0.51100000000E-03 0.  1.
         23    2    1    0    0    0 -0.58172062322E+01  0.36627748194E+00  0.28642622940E+02  0.95860325072E+02  0.91295279322E+02 0.  0.
         11    1    3    3    0    0 -0.10856556680E+02  0.22830166520E+02 -0.26184012997E+02  0.36396206714E+02  0.51100000000E-03 0. -1.
         22    1    1    0    0    0  0.58172062322E+01 -0.36627748194E+00 -0.28642622940E+02  0.29229674928E+02  0.00000000000E+00 0.  1.
</event>
<event>
 5    1  0.1043455E-009  0.9118800E+02  0.7561462E-02  0.1125453E+00
         25   -1    0    0    0    0  0.00000000000E+00  0.00000000000E+00  0.99999998245E-14  0.12509000000E+03  0.12509000000E+03 0.  0.
        -11    1    3    3    0    0 -0.41405715062E+01 -0.32136090753E+02 -0.26609394279E+02  0.41927705941E+02  0.51100000000E-03 0.  1.
         23    2    1    0    0    0 -0.28811199751E+01  0.14602040574E+02  0.14592305192E+02  0.10424639638E+03  0.10214134983E+03 0.  0.
         11    1    3    3    0    0  0.12594515311E+01  0.46738131327E+02  0.41201699470E+02  0.62318690436E+02  0.51100000000E-03 0. -1.
         22    1    1    0    0    0  0.28811199751E+01 -0.14602040574E+02 -0.14592305192E+02  0.20843603624E+02  0.00000000000E+00 0. -1.
</event>
<event>
 5    1  0.1043455E-009  0.9118800E+02  0.7561462E-02  0.1125453E+00
         25   -1    0    0    0    0  0.00000000000E+00  0.00000000000E+00  0.99999998245E-14  0.12509000000E+03  0.12509000000E+03 0.  0.
        -11    1    3    3    0    0 -0.11640684261E+02  0.23384758670E+02  0.44641762534E+02  0.51722716774E+02  0.51100000000E-03 0. -1.
         23    2    1    0    0    0  0.11525987826E+02  0.31578456808E+02  0.24557691930E+02  0.83459151310E+02  0.72334655419E+02 0.  0.
         11    1    3    3    0    0  0.23166672087E+02  0.81936981381E+01 -0.20084070603E+02  0.31736434535E+02  0.51100000000E-03 0.  1.
         22    1    1    0    0    0 -0.11525987826E+02 -0.31578456808E+02 -0.24557691930E+02  0.41630848690E+02  0.00000000000E+00 0. -1.
</event>
<event>
 5    1  0.1043455E-009  0.9118800E+02  0.7561462E-02  0.1125453E+00
         25   -1    0    0    0    0  0.00000000000E+00  0.00000000000E+00  0.99999998245E-14  0.12509000000E+03  0.12509000000E+03 0.  0.
        -11    1    3    3    0    0  0.41934343139E+02  0.31395183109E+02 -0.90719977166E+01  0.53164347074E+02  0.51100000000E-03 0. -1.
         23    2    1    0    0    0  0.20142395544E+02  0.83839015956E+01  0.19495025519E+02  0.95831464080E+02  0.91255726305E+02 0.  0.
         11    1    3    3    0    0 -0.21791947595E+02 -0.23011281513E+02  0.28567023235E+02  0.42667117006E+02  0.51100000000E-03 0.  1.
         22    1    1    0    0    0 -0.20142395544E+02 -0.83839015956E+01 -0.19495025519E+02  0.29258535920E+02  0.00000000000E+00 0. -1.
</event>
<event>
 5    1  0.1043455E-009  0.9118800E+02  0.7561462E-02  0.1125453E+00
         25   -1    0    0    0    0  0.00000000000E+00  0.00000000000E+00  0.99999998245E-14  0.12509000000E+03  0.12509000000E+03 0.  0.
        -11    1    3    3    0    0  0.50637455199E+02 -0.97415399459E+01  0.24419422391E+02  0.57055741689E+02  0.51100000000E-03 0.  1.
         23    2    1    0    0    0  0.14690966563E+02 -0.20876889947E+02  0.64374630953E+01  0.98763018336E+02  0.95189410269E+02 0.  0.
         11    1    3    3    0    0 -0.35946488636E+02 -0.11135350001E+02 -0.17981959296E+02  0.41707276647E+02  0.51100000000E-03 0. -1.
         22    1    1    0    0    0 -0.14690966563E+02  0.20876889947E+02 -0.64374630953E+01  0.26326981664E+02  0.00000000000E+00 0.  1.
</event>
<event>
 5    1  0.1043455E-009  0.9118800E+02  0.7561462E-02  0.1125453E+00
         25   -1    0    0    0    0  0.00000000000E+00  0.00000000000E+00  0.99999998245E-14  0.12509000000E+03  0.12509000000E+03 0.  0.
        -11    1    3    3    0    0 -0.12930167452E+02  0.46568807684E+01 -0.50201753065E+02  0.52048936396E+02  0.51100000000E-03 0. -1.
         23    2    1    0    0    0 -0.26340295335E+02 -0.86429040200E+01 -0.11569995837E+02  0.95050430231E+02  0.90178758780E+02 0.  0.
         11    1    3    3    0    0 -0.13410127883E+02 -0.13299784788E+02  0.38631757228E+02  0.43001493835E+02  0.51100000000E-03 0.  1.
         22    1    1    0    0    0  0.26340295335E+02  0.86429040200E+01  0.11569995837E+02  0.30039569769E+02  0.00000000000E+00 0. -1.
</event>
<event>
 5    1  0.1043455E-009  0.9118800E+02  0.7561462E-02  0.1125453E+00
         25   -1    0    0    0    0  0.00000000000E+00  0.00000000000E+00  0.99999998245E-14  0.12509000000E+03  0.12509000000E+03 0.  0.
        -11    1    3    3    0    0 -0.32273605075E+02  0.51001361699E+02 -0.15729204446E+02  0.62370925538E+02  0.51100000000E-03 0.  1.
         23    2    1    0    0    0 -0.18008320176E+02  0.22298893416E+02 -0.73484626802E+01  0.95500472344E+02  0.90800881444E+02 0.  0.
         11    1    3    3    0    0  0.14265284899E+02 -0.28702468283E+02  0.83807417658E+01  0.33129546806E+02  0.51100000000E-03 0. -1.
         22    1    1    0    0    0  0.18008320176E+02 -0.22298893416E+02  0.73484626802E+01  0.29589527656E+02  0.00000000000E+00 0.  1.
</event>
<event>
 5    1  0.1043455E-009  0.9118800E+02  0.7561462E-02  0.1125453E+00
         25   -1    0    0    0    0  0.00000000000E+00  0.00000000000E+00  0.99999998245E-14  0.12509000000E+03  0.12509000000E+03 0.  0.
        -11    1    3    3    0    0  0.11261745744E+02 -0.28223814796E+02  0.37145768669E+02  0.47991861488E+02  0.51100000000E-03 0.  1.
         23    2    1    0    0    0  0.96829841666E+01 -0.30561431844E+02 -0.70398551460E+01  0.92267433689E+02  0.86232003690E+02 0.  0.
         11    1    3    3    0    0 -0.15787615770E+01 -0.23376170487E+01 -0.44185623815E+02  0.44275572201E+02  0.51100000000E-03 0. -1.
         22    1    1    0    0    0 -0.96829841666E+01  0.30561431844E+02  0.70398551460E+01  0.32822566311E+02  0.00000000000E+00 0.  1.
</event>
<event>
 5    1  0.1043455E-009  0.9118800E+02  0.7561462E-02  0.1125453E+00
         25   -1    0    0    0    0  0.00000000000E+00  0.00000000000E+00  0.99999998245E-14  0.12509000000E+03  0.12509000000E+03 0.  0.
        -11    1    3    3    0    0 -0.27875682071E+02 -0.21288342518E+02  0.45212921988E+01  0.35365085346E+02  0.51100000000E-03 0. -1.
         23    2    1    0    0    0  0.19844056244E+02  0.60430554534E+01  0.23688968854E+02  0.93602346344E+02  0.88147188884E+02 0.  0.
         11    1    3    3    0    0  0.47719738315E+02  0.27331397972E+02  0.19167676655E+02  0.58237260998E+02  0.51100000000E-03 0.  1.
         22    1    1    0    0    0 -0.19844056244E+02 -0.60430554534E+01 -0.23688968854E+02  0.31487653656E+02  0.00000000000E+00 0.  1.
</event>
<event>
 5    1  0.1043455E-009  0.9118800E+02  0.7561462E-02  0.1125453E+00
         25   -1    0    0    0    0  0.00000000000E+00  0.00000000000E+00  0.99999998245E-14  0.12509000000E+03  0.12509000000E+03 0.  0.
        -11    1    3    3    0    0 -0.29062588349E+02 -0.62651222395E+01 -0.20507228202E+02  0.36116924108E+02  0.51100000000E-03 0. -1.
         23    2    1    0    0    0 -0.14346218450E+01  0.66875624413E+00  0.30505403246E+02  0.94543559913E+02  0.89472899356E+02 0.  0.
         11    1    3    3    0    0  0.27627966504E+02  0.69338784837E+01  0.51012631449E+02  0.58426635805E+02  0.51100000000E-03 0.  1.
         22    1    1    0    0    0  0.14346218450E+01 -0.66875624413E+00 -0.30505403246E+02  0.30546440087E+02  0.00000000000E+00 0.  1.
</event>
<event>
 5    1  0.1043455E-009  0.9118800E+02  0.7561462E-02  0.1125453E+00
         25   -1    0    0    0    0  0.00000000000E+00  0.00000000000E+00  0.99999998245E-14  0.12509000000E+03  0.12509000000E+03 0.  0.
        -11    1    3    3    0    0 -0.18320809035E+02 -0.10713747313E+02  0.31676793071E+02  0.38129459014E+02  0.51100000000E-03 0. -1.
         23    2    1    0    0    0  0.26767320996E+02 -0.94989851081E+01 -0.49833746291E+01  0.96253318254E+02  0.91832167898E+02 0.  0.
         11    1    3    3    0    0  0.45088130031E+02  0.12147622053E+01 -0.36660167700E+02  0.58123859240E+02  0.51100000000E-03 0.  1.
         22    1    1    0    0    0 -0.26767320996E+02  0.94989851081E+01  0.49833746291E+01  0.28836681746E+02  0.00000000000E+00 0.  1.
</event>
<event>
 5    1  0.1043455E-009  0.9118800E+02  0.7561462E-02  0.1125453E+00
         25   -1    0    0    0    0  0.00000000000E+00  0.00000000000E+00  0.99999998245E-14  0.12509000000E+03  0.12509000000E+03 0.  0.
        -11    1    3    3    0    0  0.28499952824E+02  0.43582319791E+01  0.21730204453E+02  0.36103230919E+02  0.51100000000E-03 0. -1.
         23    2    1    0    0    0 -0.99444810836E+01 -0.29682148741E+02 -0.39889411003E+01  0.93533157493E+02  0.88048947987E+02 0.  0.
         11    1    3    3    0    0 -0.38444433908E+02 -0.34040380720E+02 -0.25719145553E+02  0.57429926574E+02  0.51100000000E-03 0.  1.
         22    1    1    0    0    0  0.99444810836E+01  0.29682148741E+02  0.39889411003E+01  0.31556842507E+02  0.00000000000E+00 0.  1.
</event>
<event>
 5    1  0.1043455E-009  0.9118800E+02  0.7561462E-02  0.1125453E+00
         25   -1    0    0    0    0  0.00000000000E+00  0.00000000000E+00  0.99999998245E-14  0.12509000000E+03  0.12509000000E+03 0.  0.
        -11    1    3    3    0    0  0.20431206575E+02  0.10667119040E+02  0.11672963042E+02  0.25835628445E+02  0.51100000000E-03 0.  1.
         23    2    1    0    0    0 -0.13377976545E+02 -0.68471786273E+01  0.45750462837E+02  0.76934429591E+02  0.59999562458E+02 0.  0.
         11    1    3    3    0    0 -0.33809183121E+02 -0.17514297667E+02  0.34077499795E+02  0.51098801146E+02  0.51100000000E-03 0. -1.
         22    1    1    0    0    0  0.13377976545E+02  0.68471786273E+01 -0.45750462837E+02  0.48155570409E+02  0.00000000000E+00 0. -1.
</event>
<event>
 5    1  0.1043455E-009  0.9118800E+02  0.7561462E-02  0.1125453E+00
         25   -1    0    0    0    0  0.00000000000E+00  0.00000000000E+00  0.99999998245E-14  0.12509000000E+03  0.12509000000E+03 0.  0.
        -11    1    3    3    0    0 -0.15121419476E+02  0.32125399473E+02  0.78172824365E+01  0.36356684711E+02  0.51100000000E-03 0. -1.
         23    2    1    0    0    0 -0.74128614305E+01 -0.18546418538E+02 -0.21776164105E+02  0.95541370958E+02  0.90857207123E+02 0.  0.
         11    1    3    3    0    0  0.77085580455E+01 -0.50671818010E+02 -0.29593446541E+02  0.59184686246E+02  0.51100000000E-03 0.  1.
         22    1    1    0    0    0  0.74128614305E+01  0.18546418538E+02  0.21776164105E+02  0.29548629042E+02  0.00000000000E+00 0.  1.
</event>
<event>
 5    1  0.1043455E-009  0.9118800E+02  0.7561462E-02  0.1125453E+00
         25   -1    0    0    0    0  0.00000000000E+00  0.00000000000E+00  0.99999998245E-14  0.12509000000E+03  0.12509000000E+03 0.  0.
        -11    1    3    3    0    0 -0.29639291058E+02 -0.17193648842E+02  0.31301718415E+02  0.46410200505E+02  0.51100000000E-03 0. -1.
         23    2    1    0    0    0 -0.79862236934E+01 -0.39797357867E+02  0.21168394839E+02  0.79311070326E+02  0.64765233529E+02 0.  0.
         11    1    3    3    0    0  0.21653067365E+02 -0.22603709025E+02 -0.10133323577E+02  0.32900869820E+02  0.51100000000E-03 0.  1.
         22    1    1    0    0    0  0.79862236934E+01  0.39797357867E+02 -0.21168394839E+02  0.45778929674E+02  0.00000000000E+00 0. -1.
</event>
<event>
 5    1  0.1043455E-009  0.9118800E+02  0.7561462E-02  0.1125453E+00
         25   -1    0    0    0    0  0.00000000000E+00  0.00000000000E+00  0.99999998245E-14  0.12509000000E+03  0.12509000000E+03 0.  0.
        -11    1    3    3    0    0 -0.46888456107E+02 -0.11329248456E+02  0.15312446602E+02  0.50609783717E+02  0.51100000000E-03 0.  1.
         23    2    1    0    0    0 -0.13428822175E+02 -0.27038137218E+02 -0.74173170345E+01  0.94002852797E+02  0.88713728435E+02 0.  0.
         11    1    3    3    0    0  0.33459633932E+02 -0.15708888762E+02 -0.22729763636E+02  0.43393069080E+02  0.51100000000E-03 0. -1.
         22    1    1    0    0    0  0.13428822175E+02  0.27038137218E+02  0.74173170345E+01  0.31087147203E+02  0.00000000000E+00 0. -1.
</event>
<event>
 5    1  0.1043455E-009  0.9118800E+02  0.7561462E-02  0.1125453E+00
         25   -1    0    0    0    0  0.00000000000E+00  0.00000000000E+00  0.99999998245E-14  0.12509000000E+03  0.12509000000E+03 0.  0.
        -11    1    3    3    0    0  0.22924454651E+02 -0.37895753490E+02  0.34721808199E+02  0.56278083820E+02  0.51100000000E-03 0.  1.
         23    2    1    0    0    0 -0.74471703871E+01 -0.25194315887E+02  0.12506037144E+02  0.95993353031E+02  0.91477368574E+02 0.  0.
         11    1    3    3    0    0 -0.30371625038E+02  0.12701437603E+02 -0.22215771055E+02  0.39715269210E+02  0.51100000000E-03 0. -1.
         22    1    1    0    0    0  0.74471703871E+01  0.25194315887E+02 -0.12506037144E+02  0.29096646969E+02  0.00000000000E+00 0.  1.
</event>
<event>
 5    1  0.1043455E-009  0.9118800E+02  0.7561462E-02  0.1125453E+00
         25   -1    0    0    0    0  0.00000000000E+00  0.00000000000E+00  0.99999998245E-14  0.12509000000E+03  0.12509000000E+03 0.  0.
        -11    1    3    3    0    0 -0.13252755546E+02  0.41351959176E+02  0.39062232884E+02  0.58407859877E+02  0.51100000000E-03 0.  1.
         23    2    1    0    0    0  0.92578997513E+01  0.23628092693E+02  0.17558364576E+02  0.94230777089E+02  0.89034531009E+02 0.  0.
         11    1    3    3    0    0  0.22510655298E+02 -0.17723866483E+02 -0.21503868309E+02  0.35822917211E+02  0.51100000000E-03 0. -1.
         22    1    1    0    0    0 -0.92578997513E+01 -0.23628092693E+02 -0.17558364576E+02  0.30859222911E+02  0.00000000000E+00 0.  1.
</event>
<event>
 5    1  0.1043455E-009  0.9118800E+02  0.7561462E-02  0.1125453E+00
         25   -1    0    0    0    0  0.00000000000E+00  0.00000000000E+00  0.99999998245E-14  0.12509000000E+03  0.12509000000E+03 0.  0.
        -11    1    3    3    0    0 -0.34985520630E+02 -0.61236792478E+01 -0.33499881351E+02  0.48823438553E+02  0.51100000000E-03 0.  1.
         23    2    1    0    0    0 -0.23371936428E+02 -0.83852932530E+01  0.13179134226E+02  0.96978612018E+02  0.92814875180E+02 0.  0.
         11    1    3    3    0    0  0.11613584202E+02 -0.22616140052E+01  0.46679015577E+02  0.48155173465E+02  0.51100000000E-03 0. -1.
         22    1    1    0    0    0  0.23371936428E+02  0.83852932530E+01 -0.13179134226E+02  0.28111387982E+02  0.00000000000E+00 0.  1.
</event>
<event>
 5    1  0.1043455E-009  0.9118800E+02  0.7561462E-02  0.1125453E+00
         25   -1    0    0    0    0  0.00000000000E+00  0.00000000000E+00  0.99999998245E-14  0.12509000000E+03  0.12509000000E+03 0.  0.
        -11    1    3    3    0    0 -0.33010720501E+01  0.19999605253E+02 -0.25314005911E+02  0.32429618907E+02  0.51100000000E-03 0. -1.
         23    2    1    0    0    0  0.41622104951E+02  0.11758432597E+02 -0.15503074110E+02  0.79144318325E+02  0.64442357643E+02 0.  0.
         11    1    3    3    0    0  0.44923177001E+02 -0.82411726562E+01  0.98109318009E+01  0.46714699418E+02  0.51100000000E-03 0.  1.
         22    1    1    0    0    0 -0.41622104951E+02 -0.11758432597E+02  0.15503074110E+02  0.45945681675E+02  0.00000000000E+00 0.  1.
</event>
<event>
 5    1  0.1043455E-009  0.9118800E+02  0.7561462E-02  0.1125453E+00
         25   -1    0    0    0    0  0.00000000000E+00  0.00000000000E+00  0.99999998245E-14  0.12509000000E+03  0.12509000000E+03 0.  0.
        -11    1    3    3    0    0 -0.17935608207E+02  0.56575783839E+02 -0.44584088071E+01  0.59517919723E+02  0.51100000000E-03 0. -1.
         23    2    1    0    0    0 -0.56884364390E+01  0.30230126466E+02  0.10992620683E+02  0.92424168238E+02  0.86459067250E+02 0.  0.
         11    1    3    3    0    0  0.12247171768E+02 -0.26345657374E+02  0.15451029490E+02  0.32906248515E+02  0.51100000000E-03 0.  1.
         22    1    1    0    0    0  0.56884364390E+01 -0.30230126466E+02 -0.10992620683E+02  0.32665831762E+02  0.00000000000E+00 0. -1.
</event>
<event>
 5    1  0.1043455E-009  0.9118800E+02  0.7561462E-02  0.1125453E+00
         25   -1    0    0    0    0  0.00000000000E+00  0.00000000000E+00  0.99999998245E-14  0.12509000000E+03  0.12509000000E+03 0.  0.
        -11    1    3    3    0    0 -0.38004643903E+02 -0.41743064190E+02  0.74499140351E+01  0.56941527777E+02  0.51100000000E-03 0. -1.
         23    2    1    0    0    0 -0.39063383909E+01 -0.30409009353E+02 -0.27890918296E+01  0.94304510517E+02  0.89138063369E+02 0.  0.
         11    1    3    3    0    0  0.34098305513E+02  0.11334054837E+02 -0.10239005865E+02  0.37362982740E+02  0.51100000000E-03 0.  1.
         22    1    1    0    0    0  0.39063383909E+01  0.30409009353E+02  0.27890918296E+01  0.30785489483E+02  0.00000000000E+00 0. -1.
</event>
<event>
 5    1  0.1043455E-009  0.9118800E+02  0.7561462E-02  0.1125453E+00
         25   -1    0    0    0    0  0.00000000000E+00  0.00000000000E+00  0.99999998245E-14  0.12509000000E+03  0.12509000000E+03 0.  0.
        -11    1    3    3    0    0  0.31626378221E+02 -0.91182267651E+00  0.51418037900E+02  0.60372790575E+02  0.51100000000E-03 0. -1.
         23    2    1    0    0    0  0.21169911999E+02 -0.89901175189E+01  0.19432975156E+02  0.94979737456E+02  0.90080645072E+02 0.  0.
         11    1    3    3    0    0 -0.10456466222E+02 -0.80782948424E+01 -0.31985062744E+02  0.34606946881E+02  0.51100000000E-03 0.  1.
         22    1    1    0    0    0 -0.21169911999E+02  0.89901175189E+01 -0.19432975156E+02  0.30110262544E+02  0.00000000000E+00 0. -1.
</event>
<event>
 5    1  0.1043455E-009  0.9118800E+02  0.7561462E-02  0.1125453E+00
         25   -1    0    0    0    0  0.00000000000E+00  0.00000000000E+00  0.99999998245E-14  0.12509000000E+03  0.12509000000E+03 0.  0.
        -11    1    3    3    0    0 -0.27051533748E+02  0.27190576783E+02  0.13135283947E+02  0.40541936665E+02  0.51100000000E-03 0. -1.
         23    2    1    0    0    0  0.24493407930E+02  0.19598371532E+02  0.35038179749E+01  0.93525780714E+02  0.88038467268E+02 0.  0.
         11    1    3    3    0    0  0.51544941678E+02 -0.75922052513E+01 -0.96314659718E+01  0.52983844049E+02  0.51100000000E-03 0.  1.
         22    1    1    0    0    0 -0.24493407930E+02 -0.19598371532E+02 -0.35038179749E+01  0.31564219286E+02  0.00000000000E+00 0.  1.
</event>
<event>
 5    1  0.1043455E-009  0.9118800E+02  0.7561462E-02  0.1125453E+00
         25   -1    0    0    0    0  0.00000000000E+00  0.00000000000E+00  0.99999998245E-14  0.12509000000E+03  0.12509000000E+03 0.  0.
        -11    1    3    3    0    0 -0.11712201233E+02 -0.44225149433E+02 -0.17116493012E+00  0.45750068828E+02  0.51100000000E-03 0. -1.
         23    2    1    0    0    0 -0.11320896149E+02 -0.11623323921E+01  0.26392545699E+02  0.96348389490E+02  0.91961578839E+02 0.  0.
         11    1    3    3    0    0  0.39130508356E+00  0.43062817041E+02  0.26563710629E+02  0.50598320662E+02  0.51100000000E-03 0.  1.
         22    1    1    0    0    0  0.11320896149E+02  0.11623323921E+01 -0.26392545699E+02  0.28741610510E+02  0.00000000000E+00 0. -1.
</event>
<event>
 5    1  0.1043455E-009  0.9118800E+02  0.7561462E-02  0.1125453E+00
         25   -1    0    0    0    0  0.00000000000E+00  0.00000000000E+00  0.99999998245E-14  0.12509000000E+03  0.12509000000E+03 0.  0.
        -11    1    3    3    0    0  0.42152434892E+02 -0.10690477971E+02 -0.24980141380E+02  0.50150987530E+02  0.51100000000E-03 0. -1.
         23    2    1    0    0    0  0.23274215069E+02 -0.82872268460E+01  0.16221204536E+02  0.95535056378E+02  0.90848512947E+02 0.  0.
         11    1    3    3    0    0 -0.18878219823E+02  0.24032511251E+01  0.41201345916E+02  0.45384068848E+02  0.51100000000E-03 0.  1.
         22    1    1    0    0    0 -0.23274215069E+02  0.82872268460E+01 -0.16221204536E+02  0.29554943622E+02  0.00000000000E+00 0. -1.
</event>
<event>
 5    1  0.1043455E-009  0.9118800E+02  0.7561462E-02  0.1125453E+00
         25   -1    0    0    0    0  0.00000000000E+00  0.00000000000E+00  0.99999998245E-14  0.12509000000E+03  0.12509000000E+03 0.  0.
        -11    1    3    3    0    0 -0.23952943356E+02  0.47032657939E+02 -0.29791024142E+02  0.60607916380E+02  0.51100000000E-03 0.  1.
         23    2    1    0    0    0 -0.96803824929E+01  0.28156720244E+02 -0.49670857623E+01  0.94904198022E+02  0.89975686500E+02 0.  0.
         11    1    3    3    0    0  0.14272560863E+02 -0.18875937696E+02  0.24823938380E+02  0.34296281642E+02  0.51100000000E-03 0. -1.
         22    1    1    0    0    0  0.96803824929E+01 -0.28156720244E+02  0.49670857623E+01  0.30185801978E+02  0.00000000000E+00 0.  1.
</event>
<event>
 5    1  0.1043455E-009  0.9118800E+02  0.7561462E-02  0.1125453E+00
         25   -1    0    0    0    0  0.00000000000E+00  0.00000000000E+00  0.99999998245E-14  0.12509000000E+03  0.12509000000E+03 0.  0.
        -11    1    3    3    0    0 -0.96745020496E+01  0.56849387235E+02 -0.67729769150E+01  0.58063086686E+02  0.51100000000E-03 0.  1.
         23    2    1    0    0    0 -0.24634251986E+00  0.42383330294E+02 -0.18404466742E+02  0.78882513946E+02  0.63932145583E+02 0.  0.
         11    1    3    3    0    0  0.94281595298E+01 -0.14466056942E+02 -0.11631489827E+02  0.20819427260E+02  0.51100000000E-03 0. -1.
         22    1    1    0    0    0  0.24634251986E+00 -0.42383330294E+02  0.18404466742E+02  0.46207486054E+02  0.00000000000E+00 0.  1.
</event>
<event>
 5    1  0.1043455E-009  0.9118800E+02  0.7561462E-02  0.1125453E+00
         25   -1    0    0    0    0  0.00000000000E+00  0.00000000000E+00  0.99999998245E-14  0.12509000000E+03  0.12509000000E+03 0.  0.
        -11    1    3    3    0    0 -0.33480175914E+02 -0.20726745132E+02 -0.36537912138E+02  0.53717214808E+02  0.51100000000E-03 0.  1.
         23    2    1    0    0    0 -0.27296381352E+02 -0.96260698685E+01  0.36969156655E+01  0.95910883470E+02  0.91364526631E+02 0.  0.
         11    1    3    3    0    0  0.61837945621E+01  0.11100675264E+02  0.40234827804E+02  0.42193668662E+02  0.51100000000E-03 0. -1.
         22    1    1    0    0    0  0.27296381352E+02  0.96260698685E+01 -0.36969156655E+01  0.29179116530E+02  0.00000000000E+00 0.  1.
</event>
<event>
 5    1  0.1043455E-009  0.9118800E+02  0.7561462E-02  0.1125453E+00
         25   -1    0    0    0    0  0.00000000000E+00  0.00000000000E+00  0.99999998245E-14  0.12509000000E+03  0.12509000000E+03 0.  0.
        -11    1    3    3    0    0 -0.39462204407E+02 -0.96373409952E+01  0.90940209497E+01  0.41627456509E+02  0.51100000000E-03 0. -1.
         23    2    1    0    0    0 -0.26444279697E+01  0.22185667634E+02 -0.17155964764E+02  0.96920442413E+02  0.92736444740E+02 0.  0.
         11    1    3    3    0    0  0.36817776437E+02  0.31823008629E+02 -0.26249985713E+02  0.55292985904E+02  0.51100000000E-03 0.  1.
         22    1    1    0    0    0  0.26444279697E+01 -0.22185667634E+02  0.17155964764E+02  0.28169557587E+02  0.00000000000E+00 0.  1.
</event>
<event>
 5    1  0.1043455E-009  0.9118800E+02  0.7561462E-02  0.1125453E+00
         25   -1    0    0    0    0  0.00000000000E+00  0.00000000000E+00  0.99999998245E-14  0.12509000000E+03  0.12509000000E+03 0.  0.
        -11    1    3    3    0    0 -0.21396412063E+02 -0.15137096510E+02  0.35994577629E+02  0.44525810030E+02  0.51100000000E-03 0. -1.
         23    2    1    0    0    0 -0.17428674137E+02 -0.19756833733E+02 -0.14249584850E+02  0.95137674051E+02  0.90299696534E+02 0.  0.
         11    1    3    3    0    0  0.39677379256E+01 -0.46197372228E+01 -0.50244162479E+02  0.50611864021E+02  0.51100000000E-03 0.  1.
         22    1    1    0    0    0  0.17428674137E+02  0.19756833733E+02  0.14249584850E+02  0.29952325949E+02  0.00000000000E+00 0. -1.
</event>
<event>
 5    1  0.1043455E-009  0.9118800E+02  0.7561462E-02  0.1125453E+00
         25   -1    0    0    0    0  0.00000000000E+00  0.00000000000E+00  0.99999998245E-14  0.12509000000E+03  0.12509000000E+03 0.  0.
        -11    1    3    3    0    0  0.14266540298E+02 -0.33352622058E+02  0.25151166852E+02  0.44141961493E+02  0.51100000000E-03 0. -1.
         23    2    1    0    0    0 -0.25095025294E+02 -0.17711729185E+02 -0.17604837791E+01  0.94323704345E+02  0.89164994549E+02 0.  0.
         11    1    3    3    0    0 -0.39361565591E+02  0.15640892873E+02 -0.26911650631E+02  0.50181742851E+02  0.51100000000E-03 0.  1.
         22    1    1    0    0    0  0.25095025294E+02  0.17711729185E+02  0.17604837791E+01  0.30766295655E+02  0.00000000000E+00 0.  1.
</event>
<event>
 5    1  0.1043455E-009  0.9118800E+02  0.7561462E-02  0.1125453E+00
         25   -1    0    0    0    0  0.00000000000E+00  0.00000000000E+00  0.99999998245E-14  0.12509000000E+03  0.12509000000E+03 0.  0.
        -11    1    3    3    0    0  0.39508563580E+02 -0.41564695766E+01 -0.28277052551E+02  0.48762634637E+02  0.51100000000E-03 0.  1.
         23    2    1    0    0    0  0.19170635191E+02  0.23360846295E+02  0.24758021464E+01  0.94768852437E+02  0.89787323174E+02 0.  0.
         11    1    3    3    0    0 -0.20337928389E+02  0.27517315872E+02  0.30752854698E+02  0.46006217800E+02  0.51100000000E-03 0. -1.
         22    1    1    0    0    0 -0.19170635191E+02 -0.23360846295E+02 -0.24758021464E+01  0.30321147563E+02  0.00000000000E+00 0.  1.
</event>
<event>
 5    1  0.1043455E-009  0.9118800E+02  0.7561462E-02  0.1125453E+00
         25   -1    0    0    0    0  0.00000000000E+00  0.00000000000E+00  0.99999998245E-14  0.12509000000E+03  0.12509000000E+03 0.  0.
        -11    1    3    3    0    0  0.32674462154E+02 -0.13577797608E+01 -0.73675563460E+01  0.33522304958E+02  0.51100000000E-03 0.  1.
         23    2    1    0    0    0 -0.28721493902E+02 -0.59958041182E+01  0.14088003163E+01  0.95715545157E+02  0.91096690321E+02 0.  0.
         11    1    3    3    0    0 -0.61395956056E+02 -0.46380243573E+01  0.87763566623E+01  0.62193240199E+02  0.51100000000E-03 0. -1.
         22    1    1    0    0    0  0.28721493902E+02  0.59958041182E+01 -0.14088003163E+01  0.29374454843E+02  0.00000000000E+00 0. -1.
</event>
<event>
 5    1  0.1043455E-009  0.9118800E+02  0.7561462E-02  0.1125453E+00
         25   -1    0    0    0    0  0.00000000000E+00  0.00000000000E+00  0.99999998245E-14  0.12509000000E+03  0.12509000000E+03 0.  0.
        -11    1    3    3    0    0 -0.23413912932E+01  0.45655706373E+01  0.40465410104E+02  0.40789409943E+02  0.51100000000E-03 0.  1.
         23    2    1    0    0    0  0.10559010743E+02 -0.28172962927E+02 -0.76399880903E+00  0.94993617457E+02  0.90099917400E+02 0.  0.
         11    1    3    3    0    0  0.12900402036E+02 -0.32738533565E+02 -0.41229408913E+02  0.54204207514E+02  0.51100000000E-03 0. -1.
         22    1    1    0    0    0 -0.10559010743E+02  0.28172962927E+02  0.76399880903E+00  0.30096382543E+02  0.00000000000E+00 0. -1.
</event>
<event>
 5    1  0.1043455E-009  0.9118800E+02  0.7561462E-02  0.1125453E+00
         25   -1    0    0    0    0  0.00000000000E+00  0.00000000000E+00  0.99999998245E-14  0.12509000000E+03  0.12509000000E+03 0.  0.
        -11    1    3    3    0    0  0.44421353016E+02  0.21314183375E+02  0.12376848232E+02  0.50800958546E+02  0.51100000000E-03 0.  1.
         23    2    1    0    0    0  0.91645301269E+01  0.22804259869E+02 -0.15726113232E+02  0.95912379843E+02  0.91366575339E+02 0.  0.
         11    1    3    3    0    0 -0.35256822889E+02  0.14900764943E+01 -0.28102961464E+02  0.45111421298E+02  0.51100000000E-03 0. -1.
         22    1    1    0    0    0 -0.91645301269E+01 -0.22804259869E+02  0.15726113232E+02  0.29177620157E+02  0.00000000000E+00 0.  1.
</event>
<event>
 5    1  0.1043455E-009  0.9118800E+02  0.7561462E-02  0.1125453E+00
         25   -1    0    0    0    0  0.00000000000E+00  0.00000000000E+00  0.99999998245E-14  0.12509000000E+03  0.12509000000E+03 0.  0.
        -11    1    3    3    0    0 -0.85063309835E+01  0.34105731541E+02  0.70039793667E+01  0.35841516681E+02  0.51100000000E-03 0.  1.
         23    2    1    0    0    0 -0.66163595366E+01 -0.26243173139E+02  0.98547841733E+01  0.96287272333E+02  0.91878407106E+02 0.  0.
         11    1    3    3    0    0  0.18899714469E+01 -0.60348904680E+02  0.28508048066E+01  0.60445755653E+02  0.51100000000E-03 0. -1.
         22    1    1    0    0    0  0.66163595366E+01  0.26243173139E+02 -0.98547841733E+01  0.28802727667E+02  0.00000000000E+00 0. -1.
</event>
<event>
 5    1  0.1043455E-009  0.9118800E+02  0.7561462E-02  0.1125453E+00
         25   -1    0    0    0    0  0.00000000000E+00  0.00000000000E+00  0.99999998245E-14  0.12509000000E+03  0.12509000000E+03 0.  0.
        -11    1    3    3    0    0 -0.16128235291E+02 -0.36136637288E+02 -0.39979201298E+02  0.56252227199E+02  0.51100000000E-03 0.  1.
         23    2    1    0    0    0  0.38911038339E+01 -0.31698340855E+02 -0.11928333998E+02  0.90998789198E+02  0.84371612415E+02 0.  0.
         11    1    3    3    0    0  0.20019339125E+02  0.44382964334E+01  0.28050867300E+02  0.34746561999E+02  0.51100000000E-03 0. -1.
         22    1    1    0    0    0 -0.38911038339E+01  0.31698340855E+02  0.11928333998E+02  0.34091210802E+02  0.00000000000E+00 0.  1.
</event>
<event>
 5    1  0.1043455E-009  0.9118800E+02  0.7561462E-02  0.1125453E+00
         25   -1    0    0    0    0  0.00000000000E+00  0.00000000000E+00  0.99999998245E-14  0.12509000000E+03  0.12509000000E+03 0.  0.
        -11    1    3    3    0    0 -0.27913872897E+02 -0.53041912675E+02 -0.51220526413E+01  0.60156996467E+02  0.51100000000E-03 0. -1.
         23    2    1    0    0    0 -0.40752104364E+01 -0.27752622187E+02  0.55160537984E+01  0.96502551218E+02  0.92171037554E+02 0.  0.
         11    1    3    3    0    0  0.23838662460E+02  0.25289290489E+02  0.10638106440E+02  0.36345554751E+02  0.51100000000E-03 0.  1.
         22    1    1    0    0    0  0.40752104364E+01  0.27752622187E+02 -0.55160537984E+01  0.28587448782E+02  0.00000000000E+00 0. -1.
</event>
<event>
 5    1  0.1043455E-009  0.9118800E+02  0.7561462E-02  0.1125453E+00
         25   -1    0    0    0    0  0.00000000000E+00  0.00000000000E+00  0.99999998245E-14  0.12509000000E+03  0.12509000000E+03 0.  0.
        -11    1    3    3    0    0  0.15261982126E+02  0.30188606000E+02  0.19726248987E+02  0.39158714611E+02  0.51100000000E-03 0.  1.
         23    2    1    0    0    0 -0.27779971201E+02  0.11046304450E+02 -0.84170910927E+01  0.94032069219E+02  0.88754915229E+02 0.  0.
         11    1    3    3    0    0 -0.43041953328E+02 -0.19142301550E+02 -0.28143340079E+02  0.54873354608E+02  0.51100000000E-03 0. -1.
         22    1    1    0    0    0  0.27779971201E+02 -0.11046304450E+02  0.84170910927E+01  0.31057930781E+02  0.00000000000E+00 0. -1.
</event>
<event>
 5    1  0.1043455E-009  0.9118800E+02  0.7561462E-02  0.1125453E+00
         25   -1    0    0    0    0  0.00000000000E+00  0.00000000000E+00  0.99999998245E-14  0.12509000000E+03  0.12509000000E+03 0.  0.
        -11    1    3    3    0    0 -0.12659688387E+02 -0.28954018934E+02  0.50216505059E+01  0.31997185760E+02  0.51100000000E-03 0. -1.
         23    2    1    0    0    0 -0.27015652003E+02 -0.24436801738E+02 -0.34887992156E+02  0.74650187064E+02  0.55031588198E+02 0.  0.
         11    1    3    3    0    0 -0.14355963616E+02  0.45172171957E+01 -0.39909642662E+02  0.42653001304E+02  0.51100000000E-03 0.  1.
         22    1    1    0    0    0  0.27015652003E+02  0.24436801738E+02  0.34887992156E+02  0.50439812936E+02  0.00000000000E+00 0.  1.
</event>
<event>
 5    1  0.1043455E-009  0.9118800E+02  0.7561462E-02  0.1125453E+00
         25   -1    0    0    0    0  0.00000000000E+00  0.00000000000E+00  0.99999998245E-14  0.12509000000E+03  0.12509000000E+03 0.  0.
        -11    1    3    3    0    0  0.42664754870E+02 -0.33160126768E+02  0.10385028798E+02  0.55024759325E+02  0.51100000000E-03 0.  1.
         23    2    1    0    0    0  0.26900918651E+02  0.44426137946E+01  0.10702671149E+02  0.95799328937E+02  0.91211665995E+02 0.  0.
         11    1    3    3    0    0 -0.15763836219E+02  0.37602740562E+02  0.31764235041E+00  0.40774569612E+02  0.51100000000E-03 0. -1.
         22    1    1    0    0    0 -0.26900918651E+02 -0.44426137946E+01 -0.10702671149E+02  0.29290671063E+02  0.00000000000E+00 0.  1.
</event>
<event>
 5    1  0.1043455E-009  0.9118800E+02  0.7561462E-02  0.1125453E+00
         25   -1    0    0    0    0  0.00000000000E+00  0.00000000000E+00  0.99999998245E-14  0.12509000000E+03  0.12509000000E+03 0.  0.
        -11    1    3    3    0    0  0.16551056535E+02  0.45864231579E+02 -0.85828558410E+01  0.49508894407E+02  0.51100000000E-03 0.  1.
         23    2    1    0    0    0  0.93466881968E+00  0.12183339873E+01 -0.25351744489E+02  0.99691793525E+02  0.96402203315E+02 0.  0.
         11    1    3    3    0    0 -0.15616387716E+02 -0.44645897592E+02 -0.16768888648E+02  0.50182899118E+02  0.51100000000E-03 0. -1.
         22    1    1    0    0    0 -0.93466881968E+00 -0.12183339873E+01  0.25351744489E+02  0.25398206475E+02  0.00000000000E+00 0.  1.
</event>
<event>
 5    1  0.1043455E-009  0.9118800E+02  0.7561462E-02  0.1125453E+00
         25   -1    0    0    0    0  0.00000000000E+00  0.00000000000E+00  0.99999998245E-14  0.12509000000E+03  0.12509000000E+03 0.  0.
        -11    1    3    3    0    0 -0.30553341881E+02 -0.89633588198E+01  0.12195336427E+02  0.34096550151E+02  0.51100000000E-03 0.  1.
         23    2    1    0    0    0  0.21027981465E+01  0.29151154552E+02 -0.16108287504E+02  0.91718028256E+02  0.85431306961E+02 0.  0.
         11    1    3    3    0    0  0.32656140027E+02  0.38114513372E+02 -0.28303623931E+02  0.57621478104E+02  0.51100000000E-03 0. -1.
         22    1    1    0    0    0 -0.21027981465E+01 -0.29151154552E+02  0.16108287504E+02  0.33371971744E+02  0.00000000000E+00 0. -1.
</event>
<event>
 5    1  0.1043455E-009  0.9118800E+02  0.7561462E-02  0.1125453E+00
         25   -1    0    0    0    0  0.00000000000E+00  0.00000000000E+00  0.99999998245E-14  0.12509000000E+03  0.12509000000E+03 0.  0.
        -11    1    3    3    0    0 -0.94144439364E+01 -0.33852876286E+02 -0.29093130993E+02  0.45618628418E+02  0.51100000000E-03 0.  1.
         23    2    1    0    0    0 -0.29631862395E+02 -0.10495056228E+02  0.67505892850E+01  0.92937800543E+02  0.87199030040E+02 0.  0.
         11    1    3    3    0    0 -0.20217418458E+02  0.23357820058E+02  0.35843720278E+02  0.47319172126E+02  0.51100000000E-03 0. -1.
         22    1    1    0    0    0  0.29631862395E+02  0.10495056228E+02 -0.67505892850E+01  0.32152199457E+02  0.00000000000E+00 0. -1.
</event>
<event>
 5    1  0.1043455E-009  0.9118800E+02  0.7561462E-02  0.1125453E+00
         25   -1    0    0    0    0  0.00000000000E+00  0.00000000000E+00  0.99999998245E-14  0.12509000000E+03  0.12509000000E+03 0.  0.
        -11    1    3    3    0    0 -0.53044570289E+02  0.60612318164E+01  0.32095515799E+02  0.62294358516E+02  0.51100000000E-03 0. -1.
         23    2    1    0    0    0 -0.24495991483E+02 -0.71811788672E+00  0.16738591597E+02  0.95412571866E+02  0.90679706271E+02 0.  0.
         11    1    3    3    0    0  0.28548578806E+02 -0.67793497031E+01 -0.15356924202E+02  0.33118213349E+02  0.51100000000E-03 0.  1.
         22    1    1    0    0    0  0.24495991483E+02  0.71811788672E+00 -0.16738591597E+02  0.29677428134E+02  0.00000000000E+00 0. -1.
</event>
<event>
 5    1  0.1043455E-009  0.9118800E+02  0.7561462E-02  0.1125453E+00
         25   -1    0    0    0    0  0.00000000000E+00  0.00000000000E+00  0.99999998245E-14  0.12509000000E+03  0.12509000000E+03 0.  0.
        -11    1    3    3    0    0  0.50290538950E+02 -0.60331709270E+01 -0.20158724112E+02  0.54515242065E+02  0.51100000000E-03 0. -1.
         23    2    1    0    0    0  0.12552976687E+02  0.78696463320E+01 -0.26010524190E+02  0.95155806746E+02  0.90324811828E+02 0.  0.
         11    1    3    3    0    0 -0.37737562262E+02  0.13902817259E+02 -0.58518000784E+01  0.40640564682E+02  0.51100000000E-03 0.  1.
         22    1    1    0    0    0 -0.12552976687E+02 -0.78696463320E+01  0.26010524190E+02  0.29934193254E+02  0.00000000000E+00 0. -1.
</event>
<event>
 5    1  0.1043455E-009  0.9118800E+02  0.7561462E-02  0.1125453E+00
         25   -1    0    0    0    0  0.00000000000E+00  0.00000000000E+00  0.99999998245E-14  0.12509000000E+03  0.12509000000E+03 0.  0.
        -11    1    3    3    0    0 -0.28437958096E+02  0.87699014155E+01  0.23362542248E+02  0.37834336416E+02  0.51100000000E-03 0.  1.
         23    2    1    0    0    0 -0.40761468684E+00 -0.27122703161E+02 -0.11936793233E+02  0.95453971096E+02  0.90736797325E+02 0.  0.
         11    1    3    3    0    0  0.28030343409E+02 -0.35892604577E+02 -0.35299335481E+02  0.57619634680E+02  0.51100000000E-03 0. -1.
         22    1    1    0    0    0  0.40761468684E+00  0.27122703161E+02  0.11936793233E+02  0.29636028904E+02  0.00000000000E+00 0.  1.
</event>
<event>
 5    1  0.1043455E-009  0.9118800E+02  0.7561462E-02  0.1125453E+00
         25   -1    0    0    0    0  0.00000000000E+00  0.00000000000E+00  0.99999998245E-14  0.12509000000E+03  0.12509000000E+03 0.  0.
        -11    1    3    3    0    0  0.11529503761E+02 -0.10306116488E+02  0.20741227938E+02  0.25871683955E+02  0.51100000000E-03 0.  1.
         23    2    1    0    0    0 -0.25573118472E+02 -0.22200318560E+02 -0.22772857014E+02  0.84280178276E+02  0.73740808927E+02 0.  0.
         11    1    3    3    0    0 -0.37102622233E+02 -0.11894202072E+02 -0.43514084952E+02  0.58408494322E+02  0.51100000000E-03 0. -1.
         22    1    1    0    0    0  0.25573118472E+02  0.22200318560E+02  0.22772857014E+02  0.40809821724E+02  0.00000000000E+00 0. -1.
</event>
<event>
 5    1  0.1043455E-009  0.9118800E+02  0.7561462E-02  0.1125453E+00
         25   -1    0    0    0    0  0.00000000000E+00  0.00000000000E+00  0.99999998245E-14  0.12509000000E+03  0.12509000000E+03 0.  0.
        -11    1    3    3    0    0 -0.71395605214E+01 -0.16240735223E+01 -0.60623639957E+02  0.61064201143E+02  0.51100000000E-03 0.  1.
         23    2    1    0    0    0 -0.13775381931E+02 -0.19904173868E+01 -0.39418926427E+02  0.83285996969E+02  0.72034593230E+02 0.  0.
         11    1    3    3    0    0 -0.66358214095E+01 -0.36634386455E+00  0.21204713530E+02  0.22221795827E+02  0.51100000000E-03 0. -1.
         22    1    1    0    0    0  0.13775381931E+02  0.19904173868E+01  0.39418926427E+02  0.41804003031E+02  0.00000000000E+00 0.  1.
</event>
<event>
 5    1  0.1043455E-009  0.9118800E+02  0.7561462E-02  0.1125453E+00
         25   -1    0    0    0    0  0.00000000000E+00  0.00000000000E+00  0.99999998245E-14  0.12509000000E+03  0.12509000000E+03 0.  0.
        -11    1    3    3    0    0 -0.41531842542E+01  0.74326840329E+01  0.33275330582E+02  0.34347363174E+02  0.51100000000E-03 0.  1.
         23    2    1    0    0    0 -0.13693706938E+02  0.55840034226E+01 -0.26411484788E+02  0.94820126650E+02  0.89858729043E+02 0.  0.
         11    1    3    3    0    0 -0.95405226841E+01 -0.18486806102E+01 -0.59686815370E+02  0.60472763476E+02  0.51100000000E-03 0. -1.
         22    1    1    0    0    0  0.13693706938E+02 -0.55840034226E+01  0.26411484788E+02  0.30269873350E+02  0.00000000000E+00 0. -1.
</event>
<event>
 5    1  0.1043455E-009  0.9118800E+02  0.7561462E-02  0.1125453E+00
         25   -1    0    0    0    0  0.00000000000E+00  0.00000000000E+00  0.99999998245E-14  0.12509000000E+03  0.12509000000E+03 0.  0.
        -11    1    3    3    0    0  0.18841680922E+02  0.23508514742E+02  0.22929606662E+02  0.37860613668E+02  0.51100000000E-03 0. -1.
         23    2    1    0    0    0  0.11344148266E+01  0.54536751677E+01 -0.28967740902E+02  0.95591534230E+02  0.90926244472E+02 0.  0.
         11    1    3    3    0    0 -0.17707266095E+02 -0.18054839575E+02 -0.51897347563E+02  0.57730920563E+02  0.51100000000E-03 0.  1.
         22    1    1    0    0    0 -0.11344148266E+01 -0.54536751677E+01  0.28967740902E+02  0.29498465770E+02  0.00000000000E+00 0.  1.
</event>
<event>
 5    1  0.1043455E-009  0.9118800E+02  0.7561462E-02  0.1125453E+00
         25   -1    0    0    0    0  0.00000000000E+00  0.00000000000E+00  0.99999998245E-14  0.12509000000E+03  0.12509000000E+03 0.  0.
        -11    1    3    3    0    0 -0.49601954380E+02 -0.22021421615E+02  0.16598348200E+02  0.56752110547E+02  0.51100000000E-03 0. -1.
         23    2    1    0    0    0 -0.23855039320E+02 -0.13953189126E+02 -0.10997087054E+02  0.95346255928E+02  0.90588179185E+02 0.  0.
         11    1    3    3    0    0  0.25746915060E+02  0.80682324888E+01 -0.27595435254E+02  0.38594145381E+02  0.51100000000E-03 0.  1.
         22    1    1    0    0    0  0.23855039320E+02  0.13953189126E+02  0.10997087054E+02  0.29743744072E+02  0.00000000000E+00 0. -1.
</event>
<event>
 5    1  0.1043455E-009  0.9118800E+02  0.7561462E-02  0.1125453E+00
         25   -1    0    0    0    0  0.00000000000E+00  0.00000000000E+00  0.99999998245E-14  0.12509000000E+03  0.12509000000E+03 0.  0.
        -11    1    3    3    0    0 -0.19780534716E+02  0.21286603038E+02 -0.38551201292E+02  0.48276123953E+02  0.51100000000E-03 0.  1.
         23    2    1    0    0    0 -0.30447128283E+02  0.19129069413E+01  0.20542443193E+01  0.94513755081E+02  0.89431220198E+02 0.  0.
         11    1    3    3    0    0 -0.10666593567E+02 -0.19373696097E+02  0.40605445612E+02  0.46237631128E+02  0.51100000000E-03 0. -1.
         22    1    1    0    0    0  0.30447128283E+02 -0.19129069413E+01 -0.20542443193E+01  0.30576244919E+02  0.00000000000E+00 0. -1.
</event>
<event>
 5    1  0.1043455E-009  0.9118800E+02  0.7561462E-02  0.1125453E+00
         25   -1    0    0    0    0  0.00000000000E+00  0.00000000000E+00  0.99999998245E-14  0.12509000000E+03  0.12509000000E+03 0.  0.
        -11    1    3    3    0    0 -0.15924489923E+02 -0.52390673791E+02  0.85444315580E+01  0.55420026980E+02  0.51100000000E-03 0. -1.
         23    2    1    0    0    0  0.97731865179E+01 -0.24775279498E+02 -0.89384468541E+01  0.96996842806E+02  0.92839442229E+02 0.  0.
         11    1    3    3    0    0  0.25697676441E+02  0.27615394293E+02 -0.17482878412E+02  0.41576815826E+02  0.51100000000E-03 0.  1.
         22    1    1    0    0    0 -0.97731865179E+01  0.24775279498E+02  0.89384468541E+01  0.28093157194E+02  0.00000000000E+00 0. -1.
</event>
<event>
 5    1  0.1043455E-009  0.9118800E+02  0.7561462E-02  0.1125453E+00
         25   -1    0    0    0    0  0.00000000000E+00  0.00000000000E+00  0.99999998245E-14  0.12509000000E+03  0.12509000000E+03 0.  0.
        -11    1    3    3    0    0 -0.52608121889E+02 -0.79017727530E+01 -0.10157639184E+02  0.54159303313E+02  0.51100000000E-03 0. -1.
         23    2    1    0    0    0 -0.22591363143E+02 -0.15535160582E+02  0.14797704238E+02  0.93934214764E+02  0.88616893139E+02 0.  0.
         11    1    3    3    0    0  0.30016758746E+02 -0.76333878294E+01  0.24955343422E+02  0.39774911451E+02  0.51100000000E-03 0.  1.
         22    1    1    0    0    0  0.22591363143E+02  0.15535160582E+02 -0.14797704238E+02  0.31155785236E+02  0.00000000000E+00 0. -1.
</event>
<event>
 5    1  0.1043455E-009  0.9118800E+02  0.7561462E-02  0.1125453E+00
         25   -1    0    0    0    0  0.00000000000E+00  0.00000000000E+00  0.99999998245E-14  0.12509000000E+03  0.12509000000E+03 0.  0.
        -11    1    3    3    0    0 -0.47240095562E+02  0.17222629323E+02  0.20840787848E+01  0.50324834566E+02  0.51100000000E-03 0. -1.
         23    2    1    0    0    0 -0.20413596139E+02 -0.17900399135E+02 -0.10022208140E+02  0.96148959028E+02  0.91689903859E+02 0.  0.
         11    1    3    3    0    0  0.26826499422E+02 -0.35123028458E+02 -0.12106286925E+02  0.45824124462E+02  0.51100000000E-03 0.  1.
         22    1    1    0    0    0  0.20413596139E+02  0.17900399135E+02  0.10022208140E+02  0.28941040972E+02  0.00000000000E+00 0. -1.
</event>
<event>
 5    1  0.1043455E-009  0.9118800E+02  0.7561462E-02  0.1125453E+00
         25   -1    0    0    0    0  0.00000000000E+00  0.00000000000E+00  0.99999998245E-14  0.12509000000E+03  0.12509000000E+03 0.  0.
        -11    1    3    3    0    0  0.29974043009E+02 -0.23542935663E+02 -0.32943404043E+02  0.50378377744E+02  0.51100000000E-03 0. -1.
         23    2    1    0    0    0  0.10301355191E+02  0.17497785898E+02 -0.17018612104E+02  0.98596159432E+02  0.94969885051E+02 0.  0.
         11    1    3    3    0    0 -0.19672687818E+02  0.41040721561E+02  0.15924791939E+02  0.48217781687E+02  0.51100000000E-03 0.  1.
         22    1    1    0    0    0 -0.10301355191E+02 -0.17497785898E+02  0.17018612104E+02  0.26493840568E+02  0.00000000000E+00 0.  1.
</event>
<event>
 5    1  0.1043455E-009  0.9118800E+02  0.7561462E-02  0.1125453E+00
         25   -1    0    0    0    0  0.00000000000E+00  0.00000000000E+00  0.99999998245E-14  0.12509000000E+03  0.12509000000E+03 0.  0.
        -11    1    3    3    0    0 -0.22507405787E+02 -0.13428584848E+02  0.40616378315E+01  0.26521823249E+02  0.51100000000E-03 0.  1.
         23    2    1    0    0    0  0.11345512583E+02  0.11041039853E+01 -0.39734780621E+02  0.83752456624E+02  0.72840109130E+02 0.  0.
         11    1    3    3    0    0  0.33852918371E+02  0.14532688834E+02 -0.43796418453E+02  0.57230633375E+02  0.51100000000E-03 0. -1.
         22    1    1    0    0    0 -0.11345512583E+02 -0.11041039853E+01  0.39734780621E+02  0.41337543376E+02  0.00000000000E+00 0. -1.
</event>
<event>
 5    1  0.1043455E-009  0.9118800E+02  0.7561462E-02  0.1125453E+00
         25   -1    0    0    0    0  0.00000000000E+00  0.00000000000E+00  0.99999998245E-14  0.12509000000E+03  0.12509000000E+03 0.  0.
        -11    1    3    3    0    0 -0.39493937485E+02  0.14609525656E+02 -0.21295410601E+02  0.47187962987E+02  0.51100000000E-03 0.  1.
         23    2    1    0    0    0  0.15489919534E+01 -0.20640401103E+01 -0.32180569668E+02  0.92806123191E+02  0.87009929318E+02 0.  0.
         11    1    3    3    0    0  0.41042929438E+02 -0.16673565766E+02 -0.10885159067E+02  0.45618160204E+02  0.51100000000E-03 0. -1.
         22    1    1    0    0    0 -0.15489919534E+01  0.20640401103E+01  0.32180569668E+02  0.32283876809E+02  0.00000000000E+00 0. -1.
</event>
<event>
 5    1  0.1043455E-009  0.9118800E+02  0.7561462E-02  0.1125453E+00
         25   -1    0    0    0    0  0.00000000000E+00  0.00000000000E+00  0.99999998245E-14  0.12509000000E+03  0.12509000000E+03 0.  0.
        -11    1    3    3    0    0 -0.96072901560E+00  0.56961190416E+02  0.70973737825E+01  0.57409693683E+02  0.51100000000E-03 0.  1.
         23    2    1    0    0    0  0.15064802001E+02  0.28580187607E+02 -0.54340459416E+01  0.92328677708E+02  0.86320799864E+02 0.  0.
         11    1    3    3    0    0  0.16025531016E+02 -0.28381002809E+02 -0.12531419724E+02  0.34918984025E+02  0.51100000000E-03 0. -1.
         22    1    1    0    0    0 -0.15064802001E+02 -0.28580187607E+02  0.54340459416E+01  0.32761322292E+02  0.00000000000E+00 0.  1.
</event>
<event>
 5    1  0.1043455E-009  0.9118800E+02  0.7561462E-02  0.1125453E+00
         25   -1    0    0    0    0  0.00000000000E+00  0.00000000000E+00  0.99999998245E-14  0.12509000000E+03  0.12509000000E+03 0.  0.
        -11    1    3    3    0    0 -0.18672640803E+02 -0.44391126661E+02 -0.23339014247E+02  0.53515878270E+02  0.51100000000E-03 0. -1.
         23    2    1    0    0    0  0.10172098399E+01 -0.75123716528E+01 -0.28463107152E+02  0.95634628461E+02  0.90985511201E+02 0.  0.
         11    1    3    3    0    0  0.19689850643E+02  0.36878755008E+02 -0.51240929053E+01  0.42118750191E+02  0.51100000000E-03 0.  1.
         22    1    1    0    0    0 -0.10172098399E+01  0.75123716528E+01  0.28463107152E+02  0.29455371539E+02  0.00000000000E+00 0. -1.
</event>
<event>
 5    1  0.1043455E-009  0.9118800E+02  0.7561462E-02  0.1125453E+00
         25   -1    0    0    0    0  0.00000000000E+00  0.00000000000E+00  0.99999998245E-14  0.12509000000E+03  0.12509000000E+03 0.  0.
        -11    1    3    3    0    0 -0.22984132442E+02  0.98430450556E+01  0.38369428614E+02  0.45797040652E+02  0.51100000000E-03 0. -1.
         23    2    1    0    0    0 -0.41757267380E+01  0.29003897177E+02 -0.35447085635E+01  0.95573433397E+02  0.90901339194E+02 0.  0.
         11    1    3    3    0    0  0.18808405704E+02  0.19160852121E+02 -0.41914137177E+02  0.49776392745E+02  0.51100000000E-03 0.  1.
         22    1    1    0    0    0  0.41757267380E+01 -0.29003897177E+02  0.35447085635E+01  0.29516566603E+02  0.00000000000E+00 0. -1.
</event>
<event>
 5    1  0.1043455E-009  0.9118800E+02  0.7561462E-02  0.1125453E+00
         25   -1    0    0    0    0  0.00000000000E+00  0.00000000000E+00  0.99999998245E-14  0.12509000000E+03  0.12509000000E+03 0.  0.
        -11    1    3    3    0    0  0.41040854254E+02 -0.54158760782E+01 -0.16806446061E+02  0.44678183278E+02  0.51100000000E-03 0.  1.
         23    2    1    0    0    0  0.11496630808E+02  0.98419885827E+01  0.23629104622E+02  0.97029853093E+02  0.92883908977E+02 0.  0.
         11    1    3    3    0    0 -0.29544223446E+02  0.15257864661E+02  0.40435550683E+02  0.52351669815E+02  0.51100000000E-03 0. -1.
         22    1    1    0    0    0 -0.11496630808E+02 -0.98419885827E+01 -0.23629104622E+02  0.28060146907E+02  0.00000000000E+00 0. -1.
</event>
<event>
 5    1  0.1043455E-009  0.9118800E+02  0.7561462E-02  0.1125453E+00
         25   -1    0    0    0    0  0.00000000000E+00  0.00000000000E+00  0.99999998245E-14  0.12509000000E+03  0.12509000000E+03 0.  0.
        -11    1    3    3    0    0  0.59521508281E+00  0.49200580527E+02 -0.68680880304E+01  0.49681204078E+02  0.51100000000E-03 0. -1.
         23    2    1    0    0    0  0.23137991331E+02  0.26149103737E+02  0.13316964294E+02  0.87720442776E+02  0.79362410962E+02 0.  0.
         11    1    3    3    0    0  0.22542776249E+02 -0.23051476789E+02  0.20185052324E+02  0.38039238698E+02  0.51100000000E-03 0.  1.
         22    1    1    0    0    0 -0.23137991331E+02 -0.26149103737E+02 -0.13316964294E+02  0.37369557224E+02  0.00000000000E+00 0. -1.
</event>
<event>
 5    1  0.1043455E-009  0.9118800E+02  0.7561462E-02  0.1125453E+00
         25   -1    0    0    0    0  0.00000000000E+00  0.00000000000E+00  0.99999998245E-14  0.12509000000E+03  0.12509000000E+03 0.  0.
        -11    1    3    3    0    0 -0.17992860664E+02  0.36507625651E+02  0.77502779391E+01  0.41432071803E+02  0.51100000000E-03 0. -1.
         23    2    1    0    0    0  0.23834047848E+02  0.83389168809E+01 -0.13848836830E+02  0.96290874091E+02  0.91883310673E+02 0.  0.
         11    1    3    3    0    0  0.41826908512E+02 -0.28168708770E+02 -0.21599114769E+02  0.54858802288E+02  0.51100000000E-03 0.  1.
         22    1    1    0    0    0 -0.23834047848E+02 -0.83389168809E+01  0.13848836830E+02  0.28799125909E+02  0.00000000000E+00 0.  1.
</event>
<event>
 5    1  0.1043455E-009  0.9118800E+02  0.7561462E-02  0.1125453E+00
         25   -1    0    0    0    0  0.00000000000E+00  0.00000000000E+00  0.99999998245E-14  0.12509000000E+03  0.12509000000E+03 0.  0.
        -11    1    3    3    0    0 -0.17698631672E+02  0.23208806330E+02 -0.22394170366E+02  0.36788437327E+02  0.51100000000E-03 0. -1.
         23    2    1    0    0    0 -0.58185635987E+01 -0.27115519141E+02  0.72957137483E+01  0.96413624710E+02  0.92050271754E+02 0.  0.
         11    1    3    3    0    0  0.11880068073E+02 -0.50324325471E+02  0.29689884115E+02  0.59625187383E+02  0.51100000000E-03 0.  1.
         22    1    1    0    0    0  0.58185635987E+01  0.27115519141E+02 -0.72957137483E+01  0.28676375290E+02  0.00000000000E+00 0.  1.
</event>
<event>
 5    1  0.1043455E-009  0.9118800E+02  0.7561462E-02  0.1125453E+00
         25   -1    0    0    0    0  0.00000000000E+00  0.00000000000E+00  0.99999998245E-14  0.12509000000E+03  0.12509000000E+03 0.  0.
        -11    1    3    3    0    0 -0.36311055227E+02  0.24716610758E+01 -0.23053338117E+02  0.43081994369E+02  0.51100000000E-03 0. -1.
         23    2    1    0    0    0 -0.11853767319E+02 -0.18355298117E+02  0.19091953811E+02  0.96073944635E+02  0.91587506620E+02 0.  0.
         11    1    3    3    0    0  0.24457287909E+02 -0.20826959193E+02  0.42145291928E+02  0.52991950266E+02  0.51100000000E-03 0.  1.
         22    1    1    0    0    0  0.11853767319E+02  0.18355298117E+02 -0.19091953811E+02  0.29016055365E+02  0.00000000000E+00 0. -1.
</event>
<event>
 5    1  0.1043455E-009  0.9118800E+02  0.7561462E-02  0.1125453E+00
         25   -1    0    0    0    0  0.00000000000E+00  0.00000000000E+00  0.99999998245E-14  0.12509000000E+03  0.12509000000E+03 0.  0.
        -11    1    3    3    0    0 -0.10025754534E+02 -0.14994210674E+02 -0.36081922669E+02  0.40339152835E+02  0.51100000000E-03 0. -1.
         23    2    1    0    0    0  0.71539501843E+01  0.27216455233E+02 -0.27209663040E+01  0.96817785790E+02  0.92597870110E+02 0.  0.
         11    1    3    3    0    0  0.17179704719E+02  0.42210665908E+02  0.33360956365E+02  0.56478632955E+02  0.51100000000E-03 0.  1.
         22    1    1    0    0    0 -0.71539501843E+01 -0.27216455233E+02  0.27209663040E+01  0.28272214210E+02  0.00000000000E+00 0.  1.
</event>
<event>
 5    1  0.1043455E-009  0.9118800E+02  0.7561462E-02  0.1125453E+00
         25   -1    0    0    0    0  0.00000000000E+00  0.00000000000E+00  0.99999998245E-14  0.12509000000E+03  0.12509000000E+03 0.  0.
        -11    1    3    3    0    0 -0.78085651800E+01  0.50412694228E+00 -0.14620885531E+02  0.16583067512E+02  0.51100000000E-03 0.  1.
         23    2    1    0    0    0  0.39599529827E+02  0.29905526096E+02  0.37760724392E+01  0.75323324638E+02  0.56540969729E+02 0.  0.
         11    1    3    3    0    0  0.47408095007E+02  0.29401399153E+02  0.18396957970E+02  0.58740257125E+02  0.51100000000E-03 0. -1.
         22    1    1    0    0    0 -0.39599529827E+02 -0.29905526096E+02 -0.37760724392E+01  0.49766675362E+02  0.00000000000E+00 0. -1.
</event>
<event>
 5    1  0.1043455E-009  0.9118800E+02  0.7561462E-02  0.1125453E+00
         25   -1    0    0    0    0  0.00000000000E+00  0.00000000000E+00  0.99999998245E-14  0.12509000000E+03  0.12509000000E+03 0.  0.
        -11    1    3    3    0    0  0.43911195250E+01 -0.24575762229E+02 -0.56588842913E+02  0.61851007771E+02  0.51100000000E-03 0.  1.
         23    2    1    0    0    0  0.44959692987E+01 -0.17350832480E+02 -0.24558240128E+02  0.94686508656E+02  0.89672529994E+02 0.  0.
         11    1    3    3    0    0  0.10484977373E+00  0.72249297491E+01  0.32030602785E+02  0.32835500885E+02  0.51100000000E-03 0. -1.
         22    1    1    0    0    0 -0.44959692987E+01  0.17350832480E+02  0.24558240128E+02  0.30403491344E+02  0.00000000000E+00 0.  1.
</event>
<event>
 5    1  0.1043455E-009  0.9118800E+02  0.7561462E-02  0.1125453E+00
         25   -1    0    0    0    0  0.00000000000E+00  0.00000000000E+00  0.99999998245E-14  0.12509000000E+03  0.12509000000E+03 0.  0.
        -11    1    3    3    0    0  0.44764623337E+02  0.16209037200E+02  0.33239671325E+02  0.58064448155E+02  0.51100000000E-03 0.  1.
         23    2    1    0    0    0  0.28581208657E+02  0.25658090040E+02  0.28109994692E+02  0.77493835507E+02  0.61154719091E+02 0.  0.
         11    1    3    3    0    0 -0.16183414680E+02  0.94490528401E+01 -0.51296766327E+01  0.19429387352E+02  0.51100000000E-03 0. -1.
         22    1    1    0    0    0 -0.28581208657E+02 -0.25658090040E+02 -0.28109994692E+02  0.47596164493E+02  0.00000000000E+00 0.  1.
</event>
<event>
 5    1  0.1043455E-009  0.9118800E+02  0.7561462E-02  0.1125453E+00
         25   -1    0    0    0    0  0.00000000000E+00  0.00000000000E+00  0.99999998245E-14  0.12509000000E+03  0.12509000000E+03 0.  0.
        -11    1    3    3    0    0  0.20852983315E+02  0.29064512673E+02  0.29363860642E+02  0.46279899764E+02  0.51100000000E-03 0. -1.
         23    2    1    0    0    0 -0.82160842127E+01 -0.12016320702E+02  0.24173208370E+02  0.96872274969E+02  0.92671450036E+02 0.  0.
         11    1    3    3    0    0 -0.29069067527E+02 -0.41080833375E+02 -0.51906522721E+01  0.50592375206E+02  0.51100000000E-03 0.  1.
         22    1    1    0    0    0  0.82160842127E+01  0.12016320702E+02 -0.24173208370E+02  0.28217725031E+02  0.00000000000E+00 0. -1.
</event>
<event>
 5    1  0.1043455E-009  0.9118800E+02  0.7561462E-02  0.1125453E+00
         25   -1    0    0    0    0  0.00000000000E+00  0.00000000000E+00  0.99999998245E-14  0.12509000000E+03  0.12509000000E+03 0.  0.
        -11    1    3    3    0    0 -0.24886025708E+02  0.16792945198E+02 -0.20457896126E+02  0.36329640765E+02  0.51100000000E-03 0. -1.
         23    2    1    0    0    0  0.14886350733E+02 -0.21350068278E+02  0.73357598497E+01  0.98048509172E+02  0.94245784652E+02 0.  0.
         11    1    3    3    0    0  0.39772376441E+02 -0.38143013476E+02  0.27793655976E+02  0.61718868407E+02  0.51100000000E-03 0.  1.
         22    1    1    0    0    0 -0.14886350733E+02  0.21350068278E+02 -0.73357598497E+01  0.27041490828E+02  0.00000000000E+00 0.  1.
</event>
<event>
 5    1  0.1043455E-009  0.9118800E+02  0.7561462E-02  0.1125453E+00
         25   -1    0    0    0    0  0.00000000000E+00  0.00000000000E+00  0.99999998245E-14  0.12509000000E+03  0.12509000000E+03 0.  0.
        -11    1    3    3    0    0 -0.21798735097E+02  0.13428846843E+02 -0.26081491394E+02  0.36548091236E+02  0.51100000000E-03 0.  1.
         23    2    1    0    0    0  0.26375694967E+02 -0.93741439811E+01  0.24284694123E+01  0.96992859148E+02  0.92834074572E+02 0.  0.
         11    1    3    3    0    0  0.48174430064E+02 -0.22802990824E+02  0.28509960807E+02  0.60444767912E+02  0.51100000000E-03 0. -1.
         22    1    1    0    0    0 -0.26375694967E+02  0.93741439811E+01 -0.24284694123E+01  0.28097140852E+02  0.00000000000E+00 0. -1.
</event>
<event>
 5    1  0.1043455E-009  0.9118800E+02  0.7561462E-02  0.1125453E+00
         25   -1    0    0    0    0  0.00000000000E+00  0.00000000000E+00  0.99999998245E-14  0.12509000000E+03  0.12509000000E+03 0.  0.
        -11    1    3    3    0    0 -0.14608122648E+01 -0.84267160893E+01 -0.43131366790E+02  0.43971107763E+02  0.51100000000E-03 0.  1.
         23    2    1    0    0    0 -0.14293498356E+02  0.24754236767E+02 -0.50897108930E+01  0.96055856476E+02  0.91562798522E+02 0.  0.
         11    1    3    3    0    0 -0.12832686092E+02  0.33180952857E+02  0.38041655897E+02  0.52084748712E+02  0.51100000000E-03 0. -1.
         22    1    1    0    0    0  0.14293498356E+02 -0.24754236767E+02  0.50897108930E+01  0.29034143524E+02  0.00000000000E+00 0. -1.
</event>
<event>
 5    1  0.1043455E-009  0.9118800E+02  0.7561462E-02  0.1125453E+00
         25   -1    0    0    0    0  0.00000000000E+00  0.00000000000E+00  0.99999998245E-14  0.12509000000E+03  0.12509000000E+03 0.  0.
        -11    1    3    3    0    0  0.38849281115E+02 -0.39661444048E+02  0.14580762593E+02  0.57401179650E+02  0.51100000000E-03 0. -1.
         23    2    1    0    0    0  0.81309970851E+01 -0.18017348602E+02  0.21796219694E+02  0.95665296821E+02  0.91027665347E+02 0.  0.
         11    1    3    3    0    0 -0.30718284030E+02  0.21644095446E+02  0.72154571009E+01  0.38264117171E+02  0.51100000000E-03 0.  1.
         22    1    1    0    0    0 -0.81309970851E+01  0.18017348602E+02 -0.21796219694E+02  0.29424703179E+02  0.00000000000E+00 0. -1.
</event>
<event>
 5    1  0.1043455E-009  0.9118800E+02  0.7561462E-02  0.1125453E+00
         25   -1    0    0    0    0  0.00000000000E+00  0.00000000000E+00  0.99999998245E-14  0.12509000000E+03  0.12509000000E+03 0.  0.
        -11    1    3    3    0    0 -0.56177507249E+02  0.24302519380E+02 -0.24934747543E+00  0.61209369735E+02  0.51100000000E-03 0.  1.
         23    2    1    0    0    0 -0.20186013447E+02  0.18041525741E+02  0.28199213678E+01  0.97870085480E+02  0.94008669203E+02 0.  0.
         11    1    3    3    0    0  0.35991493801E+02 -0.62609936390E+01  0.30692688432E+01  0.36660715745E+02  0.51100000000E-03 0. -1.
         22    1    1    0    0    0  0.20186013447E+02 -0.18041525741E+02 -0.28199213678E+01  0.27219914520E+02  0.00000000000E+00 0.  1.
</event>
<event>
 5    1  0.1043455E-009  0.9118800E+02  0.7561462E-02  0.1125453E+00
         25   -1    0    0    0    0  0.00000000000E+00  0.00000000000E+00  0.99999998245E-14  0.12509000000E+03  0.12509000000E+03 0.  0.
        -11    1    3    3    0    0 -0.23080500579E+02  0.13548685372E+02  0.16506264704E+02  0.31444127544E+02  0.51100000000E-03 0.  1.
         23    2    1    0    0    0  0.25900498744E+02 -0.15030071565E+02 -0.92787734283E+01  0.93739808250E+02  0.88342046206E+02 0.  0.
         11    1    3    3    0    0  0.48980999323E+02 -0.28578756937E+02 -0.25785038132E+02  0.62295680705E+02  0.51100000000E-03 0. -1.
         22    1    1    0    0    0 -0.25900498744E+02  0.15030071565E+02  0.92787734283E+01  0.31350191750E+02  0.00000000000E+00 0. -1.
</event>
<event>
 5    1  0.1043455E-009  0.9118800E+02  0.7561462E-02  0.1125453E+00
         25   -1    0    0    0    0  0.00000000000E+00  0.00000000000E+00  0.99999998245E-14  0.12509000000E+03  0.12509000000E+03 0.  0.
        -11    1    3    3    0    0 -0.38517473890E+02 -0.37294443874E+02 -0.17487376470E+02  0.56393968426E+02  0.51100000000E-03 0. -1.
         23    2    1    0    0    0 -0.22326687596E+02 -0.18192603945E+02  0.10944323836E+02  0.94280422893E+02  0.89104254103E+02 0.  0.
         11    1    3    3    0    0  0.16190786294E+02  0.19101839929E+02  0.28431700306E+02  0.37886454467E+02  0.51100000000E-03 0.  1.
         22    1    1    0    0    0  0.22326687596E+02  0.18192603945E+02 -0.10944323836E+02  0.30809577107E+02  0.00000000000E+00 0. -1.
</event>
<event>
 5    1  0.1043455E-009  0.9118800E+02  0.7561462E-02  0.1125453E+00
         25   -1    0    0    0    0  0.00000000000E+00  0.00000000000E+00  0.99999998245E-14  0.12509000000E+03  0.12509000000E+03 0.  0.
        -11    1    3    3    0    0  0.42632863417E+02 -0.14867002932E+01 -0.23454274162E+02  0.48681354723E+02  0.51100000000E-03 0. -1.
         23    2    1    0    0    0  0.20923342799E+02 -0.60145379659E+01  0.18750439327E+02  0.96357789577E+02  0.91974364343E+02 0.  0.
         11    1    3    3    0    0 -0.21709520618E+02 -0.45278376727E+01  0.42204713489E+02  0.47676434854E+02  0.51100000000E-03 0.  1.
         22    1    1    0    0    0 -0.20923342799E+02  0.60145379659E+01 -0.18750439327E+02  0.28732210423E+02  0.00000000000E+00 0. -1.
</event>
<event>
 5    1  0.1043455E-009  0.9118800E+02  0.7561462E-02  0.1125453E+00
         25   -1    0    0    0    0  0.00000000000E+00  0.00000000000E+00  0.99999998245E-14  0.12509000000E+03  0.12509000000E+03 0.  0.
        -11    1    3    3    0    0 -0.24703034958E+02  0.28761628482E+02  0.29139135695E+02  0.47817992831E+02  0.51100000000E-03 0.  1.
         23    2    1    0    0    0 -0.63399356469E+01  0.23986791242E+02 -0.15163487909E+02  0.96012649645E+02  0.91503751771E+02 0.  0.
         11    1    3    3    0    0  0.18363099311E+02 -0.47748372405E+01 -0.44302623604E+02  0.48194656814E+02  0.51100000000E-03 0. -1.
         22    1    1    0    0    0  0.63399356469E+01 -0.23986791242E+02  0.15163487909E+02  0.29077350355E+02  0.00000000000E+00 0. -1.
</event>
<event>
 5    1  0.1043455E-009  0.9118800E+02  0.7561462E-02  0.1125453E+00
         25   -1    0    0    0    0  0.00000000000E+00  0.00000000000E+00  0.99999998245E-14  0.12509000000E+03  0.12509000000E+03 0.  0.
        -11    1    3    3    0    0 -0.32951398416E+02  0.35524568441E+02 -0.36550552886E+01  0.48591656175E+02  0.51100000000E-03 0.  1.
         23    2    1    0    0    0  0.17253296302E+01  0.17179053198E+02  0.23227064531E+02  0.96148798265E+02  0.91689684535E+02 0.  0.
         11    1    3    3    0    0  0.34676728046E+02 -0.18345515243E+02  0.26882119820E+02  0.47557142090E+02  0.51100000000E-03 0. -1.
         22    1    1    0    0    0 -0.17253296302E+01 -0.17179053198E+02 -0.23227064531E+02  0.28941201735E+02  0.00000000000E+00 0.  1.
</event>
<event>
 5    1  0.1043455E-009  0.9118800E+02  0.7561462E-02  0.1125453E+00
         25   -1    0    0    0    0  0.00000000000E+00  0.00000000000E+00  0.99999998245E-14  0.12509000000E+03  0.12509000000E+03 0.  0.
        -11    1    3    3    0    0 -0.10542588958E+02  0.60149573188E+02  0.44780182413E+01  0.61230466144E+02  0.51100000000E-03 0.  1.
         23    2    1    0    0    0 -0.29150081211E+01  0.26108994003E+02 -0.69070420544E+01  0.97925978388E+02  0.94083012139E+02 0.  0.
         11    1    3    3    0    0  0.76275808366E+01 -0.34040579185E+02 -0.11385060296E+02  0.36695512244E+02  0.51100000000E-03 0. -1.
         22    1    1    0    0    0  0.29150081211E+01 -0.26108994003E+02  0.69070420544E+01  0.27164021612E+02  0.00000000000E+00 0.  1.
</event>
<event>
 5    1  0.1043455E-009  0.9118800E+02  0.7561462E-02  0.1125453E+00
         25   -1    0    0    0    0  0.00000000000E+00  0.00000000000E+00  0.99999998245E-14  0.12509000000E+03  0.12509000000E+03 0.  0.
        -11    1    3    3    0    0  0.99272553435E+01 -0.43548705429E+02 -0.12866877690E+02  0.46482219019E+02  0.51100000000E-03 0.  1.
         23    2    1    0    0    0  0.16132118348E+02 -0.11837359341E+02  0.22897436585E+02  0.94681762289E+02  0.89665908736E+02 0.  0.
         11    1    3    3    0    0  0.62048630040E+01  0.31711346088E+02  0.35764314274E+02  0.48199543270E+02  0.51100000000E-03 0. -1.
         22    1    1    0    0    0 -0.16132118348E+02  0.11837359341E+02 -0.22897436585E+02  0.30408237711E+02  0.00000000000E+00 0. -1.
</event>
<event>
 5    1  0.1043455E-009  0.9118800E+02  0.7561462E-02  0.1125453E+00
         25   -1    0    0    0    0  0.00000000000E+00  0.00000000000E+00  0.99999998245E-14  0.12509000000E+03  0.12509000000E+03 0.  0.
        -11    1    3    3    0    0 -0.27772360866E+02  0.43126523945E+02 -0.12200837789E+02  0.52726288876E+02  0.51100000000E-03 0. -1.
         23    2    1    0    0    0  0.70696341900E+01  0.28336546728E+02 -0.17647177132E+02  0.90967244121E+02  0.84324830473E+02 0.  0.
         11    1    3    3    0    0  0.34841995056E+02 -0.14789977217E+02 -0.54463393426E+01  0.38240955245E+02  0.51100000000E-03 0.  1.
         22    1    1    0    0    0 -0.70696341900E+01 -0.28336546728E+02  0.17647177132E+02  0.34122755879E+02  0.00000000000E+00 0. -1.
</event>
<event>
 5    1  0.1043455E-009  0.9118800E+02  0.7561462E-02  0.1125453E+00
         25   -1    0    0    0    0  0.00000000000E+00  0.00000000000E+00  0.99999998245E-14  0.12509000000E+03  0.12509000000E+03 0.  0.
        -11    1    3    3    0    0  0.19908001098E+02  0.32012474489E+02 -0.24806855981E+02  0.45127675927E+02  0.51100000000E-03 0. -1.
         23    2    1    0    0    0 -0.24465715550E+02  0.94109550704E+01 -0.90171147123E+01  0.97369147372E+02  0.93339729963E+02 0.  0.
         11    1    3    3    0    0 -0.44373716648E+02 -0.22601519418E+02  0.15789741268E+02  0.52241471445E+02  0.51100000000E-03 0.  1.
         22    1    1    0    0    0  0.24465715550E+02 -0.94109550704E+01  0.90171147123E+01  0.27720852628E+02  0.00000000000E+00 0.  1.
</event>
<event>
 5    1  0.1043455E-009  0.9118800E+02  0.7561462E-02  0.1125453E+00
         25   -1    0    0    0    0  0.00000000000E+00  0.00000000000E+00  0.99999998245E-14  0.12509000000E+03  0.12509000000E+03 0.  0.
        -11    1    3    3    0    0  0.59548145479E+02  0.48962682732E+00 -0.17829290419E+02  0.62161925337E+02  0.51100000000E-03 0.  1.
         23    2    1    0    0    0  0.27976965850E+02  0.51096736018E+01 -0.81286794021E+01  0.95511379151E+02  0.90815905744E+02 0.  0.
         11    1    3    3    0    0 -0.31571179629E+02  0.46200467745E+01  0.97006110174E+01  0.33349453815E+02  0.51100000000E-03 0. -1.
         22    1    1    0    0    0 -0.27976965850E+02 -0.51096736018E+01  0.81286794021E+01  0.29578620849E+02  0.00000000000E+00 0.  1.
</event>
<event>
 5    1  0.1043455E-009  0.9118800E+02  0.7561462E-02  0.1125453E+00
         25   -1    0    0    0    0  0.00000000000E+00  0.00000000000E+00  0.99999998245E-14  0.12509000000E+03  0.12509000000E+03 0.  0.
        -11    1    3    3    0    0  0.21930789403E+02  0.88927736999E+01 -0.51565491088E+02  0.56736591538E+02  0.51100000000E-03 0.  1.
         23    2    1    0    0    0 -0.20572051353E+01 -0.10160119358E+02 -0.27526007358E+02  0.95676717296E+02  0.91043357985E+02 0.  0.
         11    1    3    3    0    0 -0.23987994538E+02 -0.19052893058E+02  0.24039483729E+02  0.38940125759E+02  0.51100000000E-03 0. -1.
         22    1    1    0    0    0  0.20572051353E+01  0.10160119358E+02  0.27526007358E+02  0.29413282704E+02  0.00000000000E+00 0.  1.
</event>
<event>
 5    1  0.1043455E-009  0.9118800E+02  0.7561462E-02  0.1125453E+00
         25   -1    0    0    0    0  0.00000000000E+00  0.00000000000E+00  0.99999998245E-14  0.12509000000E+03  0.12509000000E+03 0.  0.
        -11    1    3    3    0    0 -0.36199574433E+02  0.39225552315E+02  0.32464120188E+02  0.62473772443E+02  0.51100000000E-03 0.  1.
         23    2    1    0    0    0 -0.20397485664E+02  0.23450522521E+02  0.21066453306E+02  0.87542964394E+02  0.79082177082E+02 0.  0.
         11    1    3    3    0    0  0.15802088769E+02 -0.15775029793E+02 -0.11397666882E+02  0.25069191950E+02  0.51100000000E-03 0. -1.
         22    1    1    0    0    0  0.20397485664E+02 -0.23450522521E+02 -0.21066453306E+02  0.37547035606E+02  0.00000000000E+00 0.  1.
</event>
<event>
 5    1  0.1043455E-009  0.9118800E+02  0.7561462E-02  0.1125453E+00
         25   -1    0    0    0    0  0.00000000000E+00  0.00000000000E+00  0.99999998245E-14  0.12509000000E+03  0.12509000000E+03 0.  0.
        -11    1    3    3    0    0  0.40503121595E+02  0.81056042954E+01 -0.94089741884E+01  0.42364283017E+02  0.51100000000E-03 0.  1.
         23    2    1    0    0    0  0.40323458179E+01 -0.28181722842E+02  0.58480967290E+01  0.96026800753E+02  0.91523094967E+02 0.  0.
         11    1    3    3    0    0 -0.36470775778E+02 -0.36287327137E+02  0.15257070917E+02  0.53662517736E+02  0.51100000000E-03 0. -1.
         22    1    1    0    0    0 -0.40323458179E+01  0.28181722842E+02 -0.58480967290E+01  0.29063199247E+02  0.00000000000E+00 0. -1.
</event>
<event>
 5    1  0.1043455E-009  0.9118800E+02  0.7561462E-02  0.1125453E+00
         25   -1    0    0    0    0  0.00000000000E+00  0.00000000000E+00  0.99999998245E-14  0.12509000000E+03  0.12509000000E+03 0.  0.
        -11    1    3    3    0    0 -0.12400212001E+02  0.14868640638E+01  0.51490488080E+02  0.52983453883E+02  0.51100000000E-03 0.  1.
         23    2    1    0    0    0  0.17650644383E+02  0.84727086073E+01  0.21525457291E+02  0.95992279301E+02  0.91475900299E+02 0.  0.
         11    1    3    3    0    0  0.30050856384E+02  0.69858445435E+01 -0.29965030789E+02  0.43008825418E+02  0.51100000000E-03 0. -1.
         22    1    1    0    0    0 -0.17650644383E+02 -0.84727086073E+01 -0.21525457291E+02  0.29097720699E+02  0.00000000000E+00 0.  1.
</event>
<event>
 5    1  0.1043455E-009  0.9118800E+02  0.7561462E-02  0.1125453E+00
         25   -1    0    0    0    0  0.00000000000E+00  0.00000000000E+00  0.99999998245E-14  0.12509000000E+03  0.12509000000E+03 0.  0.
        -11    1    3    3    0    0  0.11018777810E+02 -0.34955681641E+02  0.15102580307E+02  0.39640901549E+02  0.51100000000E-03 0. -1.
         23    2    1    0    0    0 -0.33513046685E+01  0.20489592358E+02  0.18859520476E+02  0.97041182724E+02  0.92899165733E+02 0.  0.
         11    1    3    3    0    0 -0.14370082479E+02  0.55445273999E+02  0.37569401696E+01  0.57400281175E+02  0.51100000000E-03 0.  1.
         22    1    1    0    0    0  0.33513046685E+01 -0.20489592358E+02 -0.18859520476E+02  0.28048817276E+02  0.00000000000E+00 0.  1.
</event>
<event>
 5    1  0.1043455E-009  0.9118800E+02  0.7561462E-02  0.1125453E+00
         25   -1    0    0    0    0  0.00000000000E+00  0.00000000000E+00  0.99999998245E-14  0.12509000000E+03  0.12509000000E+03 0.  0.
        -11    1    3    3    0    0 -0.22357499287E+02  0.23916674554E+02  0.72880543502E+01  0.33540733930E+02  0.51100000000E-03 0. -1.
         23    2    1    0    0    0  0.18006057011E+02 -0.12826882388E+02 -0.20632388689E+02  0.94850250267E+02  0.89900653568E+02 0.  0.
         11    1    3    3    0    0  0.40363556298E+02 -0.36743556942E+02 -0.27920443039E+02  0.61309516337E+02  0.51100000000E-03 0.  1.
         22    1    1    0    0    0 -0.18006057011E+02  0.12826882388E+02  0.20632388689E+02  0.30239749733E+02  0.00000000000E+00 0.  1.
</event>
<event>
 5    1  0.1043455E-009  0.9118800E+02  0.7561462E-02  0.1125453E+00
         25   -1    0    0    0    0  0.00000000000E+00  0.00000000000E+00  0.99999998245E-14  0.12509000000E+03  0.12509000000E+03 0.  0.
        -11    1    3    3    0    0 -0.10868066998E+02 -0.43267776072E+02 -0.15260730336E+02  0.47149816724E+02  0.51100000000E-03 0.  1.
         23    2    1    0    0    0 -0.18002004051E+02 -0.10904752635E+02  0.20362817273E+02  0.95804677616E+02  0.91219001013E+02 0.  0.
         11    1    3    3    0    0 -0.71339370527E+01  0.32363023437E+02  0.35623547609E+02  0.48654860892E+02  0.51100000000E-03 0. -1.
         22    1    1    0    0    0  0.18002004051E+02  0.10904752635E+02 -0.20362817273E+02  0.29285322384E+02  0.00000000000E+00 0. -1.
</event>
<event>
 5    1  0.1043455E-009  0.9118800E+02  0.7561462E-02  0.1125453E+00
         25   -1    0    0    0    0  0.00000000000E+00  0.00000000000E+00  0.99999998245E-14  0.12509000000E+03  0.12509000000E+03 0.  0.
        -11    1    3    3    0    0  0.41671845911E+02  0.83260609857E+01  0.16287931524E+02  0.45510029079E+02  0.51100000000E-03 0.  1.
         23    2    1    0    0    0  0.14353652627E+02 -0.14838494894E+02 -0.19892558148E+02  0.96420815426E+02  0.92060042925E+02 0.  0.
         11    1    3    3    0    0 -0.27318193283E+02 -0.23164555880E+02 -0.36180489672E+02  0.50910786348E+02  0.51100000000E-03 0. -1.
         22    1    1    0    0    0 -0.14353652627E+02  0.14838494894E+02  0.19892558148E+02  0.28669184574E+02  0.00000000000E+00 0. -1.
</event>
<event>
 5    1  0.1043455E-009  0.9118800E+02  0.7561462E-02  0.1125453E+00
         25   -1    0    0    0    0  0.00000000000E+00  0.00000000000E+00  0.99999998245E-14  0.12509000000E+03  0.12509000000E+03 0.  0.
        -11    1    3    3    0    0 -0.76456967120E+01 -0.24188855303E+02 -0.36899069732E+02  0.44778328982E+02  0.51100000000E-03 0. -1.
         23    2    1    0    0    0  0.10236564744E+02  0.19956489028E+02 -0.19118294920E+02  0.95618693400E+02  0.90963600493E+02 0.  0.
         11    1    3    3    0    0  0.17882261456E+02  0.44145344332E+02  0.17780774812E+02  0.50840364418E+02  0.51100000000E-03 0.  1.
         22    1    1    0    0    0 -0.10236564744E+02 -0.19956489028E+02  0.19118294920E+02  0.29471306600E+02  0.00000000000E+00 0.  1.
</event>
<event>
 5    1  0.1043455E-009  0.9118800E+02  0.7561462E-02  0.1125453E+00
         25   -1    0    0    0    0  0.00000000000E+00  0.00000000000E+00  0.99999998245E-14  0.12509000000E+03  0.12509000000E+03 0.  0.
        -11    1    3    3    0    0 -0.99478262641E+01  0.16837534148E+02 -0.19284098736E+02  0.27465219240E+02  0.51100000000E-03 0. -1.
         23    2    1    0    0    0 -0.93824322672E+01 -0.35344623316E+02  0.98308691343E+01  0.87222884708E+02  0.78574252757E+02 0.  0.
         11    1    3    3    0    0  0.56539399682E+00 -0.52182157463E+02  0.29114967871E+02  0.59757665469E+02  0.51100000000E-03 0.  1.
         22    1    1    0    0    0  0.93824322672E+01  0.35344623316E+02 -0.98308691343E+01  0.37867115292E+02  0.00000000000E+00 0.  1.
</event>
<event>
 5    1  0.1043455E-009  0.9118800E+02  0.7561462E-02  0.1125453E+00
         25   -1    0    0    0    0  0.00000000000E+00  0.00000000000E+00  0.99999998245E-14  0.12509000000E+03  0.12509000000E+03 0.  0.
        -11    1    3    3    0    0  0.53248766439E+02  0.44844386096E+01  0.21193983774E+02  0.57486748607E+02  0.51100000000E-03 0.  1.
         23    2    1    0    0    0  0.22107162817E+02  0.19357073834E+02  0.64995477014E+01  0.94995696958E+02  0.90102804423E+02 0.  0.
         11    1    3    3    0    0 -0.31141603622E+02  0.14872635225E+02 -0.14694436073E+02  0.37508948351E+02  0.51100000000E-03 0. -1.
         22    1    1    0    0    0 -0.22107162817E+02 -0.19357073834E+02 -0.64995477014E+01  0.30094303042E+02  0.00000000000E+00 0.  1.
</event>
<event>
 5    1  0.1043455E-009  0.9118800E+02  0.7561462E-02  0.1125453E+00
         25   -1    0    0    0    0  0.00000000000E+00  0.00000000000E+00  0.99999998245E-14  0.12509000000E+03  0.12509000000E+03 0.  0.
        -11    1    3    3    0    0  0.56521615385E+02  0.75341676431E+01 -0.23856680294E+02  0.61810985130E+02  0.51100000000E-03 0. -1.
         23    2    1    0    0    0  0.20546302363E+02  0.58560065804E+01 -0.15254396996E+02  0.98838524202E+02  0.95288582133E+02 0.  0.
         11    1    3    3    0    0 -0.35975313022E+02 -0.16781610627E+01  0.86022832985E+01  0.37027539073E+02  0.51100000000E-03 0.  1.
         22    1    1    0    0    0 -0.20546302363E+02 -0.58560065804E+01  0.15254396996E+02  0.26251475798E+02  0.00000000000E+00 0. -1.
</event>
<event>
 5    1  0.1043455E-009  0.9118800E+02  0.7561462E-02  0.1125453E+00
         25   -1    0    0    0    0  0.00000000000E+00  0.00000000000E+00  0.99999998245E-14  0.12509000000E+03  0.12509000000E+03 0.  0.
        -11    1    3    3    0    0  0.27926191289E+02 -0.25033054779E+02  0.48819141202E+02  0.61561632040E+02  0.51100000000E-03 0.  1.
         23    2    1    0    0    0  0.14739429578E+02 -0.18991036583E+02  0.20026776857E+02  0.93801311212E+02  0.88429089891E+02 0.  0.
         11    1    3    3    0    0 -0.13186761710E+02  0.60420181962E+01 -0.28792364345E+02  0.32239679172E+02  0.51100000000E-03 0. -1.
         22    1    1    0    0    0 -0.14739429578E+02  0.18991036583E+02 -0.20026776857E+02  0.31288688788E+02  0.00000000000E+00 0.  1.
</event>
<event>
 5    1  0.1043455E-009  0.9118800E+02  0.7561462E-02  0.1125453E+00
         25   -1    0    0    0    0  0.00000000000E+00  0.00000000000E+00  0.99999998245E-14  0.12509000000E+03  0.12509000000E+03 0.  0.
        -11    1    3    3    0    0  0.15418254896E+02  0.83718344845E+01  0.58917933838E+02  0.61474654328E+02  0.51100000000E-03 0.  1.
         23    2    1    0    0    0  0.13041022049E+02  0.89159311944E+01  0.24759488391E+02  0.95720043403E+02  0.91102866906E+02 0.  0.
         11    1    3    3    0    0 -0.23772328463E+01  0.54409670988E+00 -0.34158445448E+02  0.34245389075E+02  0.51100000000E-03 0. -1.
         22    1    1    0    0    0 -0.13041022049E+02 -0.89159311944E+01 -0.24759488391E+02  0.29369956597E+02  0.00000000000E+00 0.  1.
</event>
<event>
 5    1  0.1043455E-009  0.9118800E+02  0.7561462E-02  0.1125453E+00
         25   -1    0    0    0    0  0.00000000000E+00  0.00000000000E+00  0.99999998245E-14  0.12509000000E+03  0.12509000000E+03 0.  0.
        -11    1    3    3    0    0  0.63425695760E+00 -0.34836733304E+02 -0.13378507121E+02  0.37322710542E+02  0.51100000000E-03 0.  1.
         23    2    1    0    0    0 -0.44861434926E+01  0.24703429129E+02 -0.12392399075E+02  0.97090777707E+02  0.92965922073E+02 0.  0.
         11    1    3    3    0    0 -0.51204004502E+01  0.59540162433E+02  0.98610804611E+00  0.59768067165E+02  0.51100000000E-03 0. -1.
         22    1    1    0    0    0  0.44861434926E+01 -0.24703429129E+02  0.12392399075E+02  0.27999222293E+02  0.00000000000E+00 0. -1.
</event>
<event>
 5    1  0.1043455E-009  0.9118800E+02  0.7561462E-02  0.1125453E+00
         25   -1    0    0    0    0  0.00000000000E+00  0.00000000000E+00  0.99999998245E-14  0.12509000000E+03  0.12509000000E+03 0.  0.
        -11    1    3    3    0    0  0.37809960121E+02  0.14315912397E+02 -0.16965004459E+02  0.43844609802E+02  0.51100000000E-03 0. -1.
         23    2    1    0    0    0  0.14080165213E+02 -0.24594764940E+02  0.77758588386E+01  0.95702630340E+02  0.91078954531E+02 0.  0.
         11    1    3    3    0    0 -0.23729794908E+02 -0.38910677337E+02  0.24740863297E+02  0.51858020538E+02  0.51100000000E-03 0.  1.
         22    1    1    0    0    0 -0.14080165213E+02  0.24594764940E+02 -0.77758588386E+01  0.29387369660E+02  0.00000000000E+00 0.  1.
</event>
<event>
 5    1  0.1043455E-009  0.9118800E+02  0.7561462E-02  0.1125453E+00
         25   -1    0    0    0    0  0.00000000000E+00  0.00000000000E+00  0.99999998245E-14  0.12509000000E+03  0.12509000000E+03 0.  0.
        -11    1    3    3    0    0  0.88319314357E+01  0.26116499175E+02  0.52555825497E+02  0.59348035654E+02  0.51100000000E-03 0. -1.
         23    2    1    0    0    0 -0.21338033296E+01  0.21342826979E+02  0.14600451594E+02  0.99143081747E+02  0.95687554528E+02 0.  0.
         11    1    3    3    0    0 -0.10965734765E+02 -0.47736721962E+01 -0.37955373903E+02  0.39795046093E+02  0.51100000000E-03 0.  1.
         22    1    1    0    0    0  0.21338033296E+01 -0.21342826979E+02 -0.14600451594E+02  0.25946918253E+02  0.00000000000E+00 0. -1.
</event>
<event>
 5    1  0.1043455E-009  0.9118800E+02  0.7561462E-02  0.1125453E+00
         25   -1    0    0    0    0  0.00000000000E+00  0.00000000000E+00  0.99999998245E-14  0.12509000000E+03  0.12509000000E+03 0.  0.
        -11    1    3    3    0    0 -0.14367055598E+01  0.38441489418E+02  0.88163372509E+01  0.39465681729E+02  0.51100000000E-03 0.  1.
         23    2    1    0    0    0  0.23424898348E+02 -0.12262599961E+02  0.12057854134E+02  0.96029905941E+02  0.91527338911E+02 0.  0.
         11    1    3    3    0    0  0.24861603908E+02 -0.50704089379E+02  0.32415168827E+01  0.56564224211E+02  0.51100000000E-03 0. -1.
         22    1    1    0    0    0 -0.23424898348E+02  0.12262599961E+02 -0.12057854134E+02  0.29060094059E+02  0.00000000000E+00 0. -1.
</event>
<event>
 5    1  0.1043455E-009  0.9118800E+02  0.7561462E-02  0.1125453E+00
         25   -1    0    0    0    0  0.00000000000E+00  0.00000000000E+00  0.99999998245E-14  0.12509000000E+03  0.12509000000E+03 0.  0.
        -11    1    3    3    0    0 -0.22417590258E+02  0.55496589644E+01  0.25858681945E+02  0.34670138445E+02  0.51100000000E-03 0.  1.
         23    2    1    0    0    0  0.11986464977E+02  0.13399860623E+02 -0.23596727179E+02  0.95424580048E+02  0.90696269694E+02 0.  0.
         11    1    3    3    0    0  0.34404055234E+02  0.78502016582E+01 -0.49455409124E+02  0.60754441603E+02  0.51100000000E-03 0. -1.
         22    1    1    0    0    0 -0.11986464977E+02 -0.13399860623E+02  0.23596727179E+02  0.29665419952E+02  0.00000000000E+00 0. -1.
</event>
<event>
 5    1  0.1043455E-009  0.9118800E+02  0.7561462E-02  0.1125453E+00
         25   -1    0    0    0    0  0.00000000000E+00  0.00000000000E+00  0.99999998245E-14  0.12509000000E+03  0.12509000000E+03 0.  0.
        -11    1    3    3    0    0  0.20029963850E+02  0.83652982401E+01  0.33220841543E+02  0.39683774765E+02  0.51100000000E-03 0. -1.
         23    2    1    0    0    0 -0.17136787389E+02 -0.23892050543E+02  0.14113012233E+02  0.92475943591E+02  0.86533944020E+02 0.  0.
         11    1    3    3    0    0 -0.37166751239E+02 -0.32257348783E+02 -0.19107829310E+02  0.52792168826E+02  0.51100000000E-03 0.  1.
         22    1    1    0    0    0  0.17136787389E+02  0.23892050543E+02 -0.14113012233E+02  0.32614056409E+02  0.00000000000E+00 0. -1.
</event>
<event>
 5    1  0.1043455E-009  0.9118800E+02  0.7561462E-02  0.1125453E+00
         25   -1    0    0    0    0  0.00000000000E+00  0.00000000000E+00  0.99999998245E-14  0.12509000000E+03  0.12509000000E+03 0.  0.
        -11    1    3    3    0    0  0.21712619825E+02  0.15865275731E+02 -0.27466655741E+02  0.38439068817E+02  0.51100000000E-03 0.  1.
         23    2    1    0    0    0 -0.24634797598E+02 -0.11442520211E+02 -0.22962349544E+01  0.97830557297E+02  0.93956057413E+02 0.  0.
         11    1    3    3    0    0 -0.46347417424E+02 -0.27307795942E+02  0.25170420786E+02  0.59391488480E+02  0.51100000000E-03 0. -1.
         22    1    1    0    0    0  0.24634797598E+02  0.11442520211E+02  0.22962349544E+01  0.27259442703E+02  0.00000000000E+00 0. -1.
</event>
<event>
 5    1  0.1043455E-009  0.9118800E+02  0.7561462E-02  0.1125453E+00
         25   -1    0    0    0    0  0.00000000000E+00  0.00000000000E+00  0.99999998245E-14  0.12509000000E+03  0.12509000000E+03 0.  0.
        -11    1    3    3    0    0 -0.31945814479E+02  0.26873989076E+02 -0.16155915070E+02  0.44763377259E+02  0.51100000000E-03 0.  1.
         23    2    1    0    0    0  0.60451146630E+01  0.22635991715E+02  0.17620430065E+02  0.95774285991E+02  0.91177314992E+02 0.  0.
         11    1    3    3    0    0  0.37990929142E+02 -0.42379973614E+01  0.33776345135E+02  0.51010908732E+02  0.51100000000E-03 0. -1.
         22    1    1    0    0    0 -0.60451146630E+01 -0.22635991715E+02 -0.17620430065E+02  0.29315714009E+02  0.00000000000E+00 0.  1.
</event>
<event>
 5    1  0.1043455E-009  0.9118800E+02  0.7561462E-02  0.1125453E+00
         25   -1    0    0    0    0  0.00000000000E+00  0.00000000000E+00  0.99999998245E-14  0.12509000000E+03  0.12509000000E+03 0.  0.
        -11    1    3    3    0    0 -0.14127321107E+02  0.15280502963E+02 -0.58799971633E+02  0.62373966018E+02  0.51100000000E-03 0. -1.
         23    2    1    0    0    0 -0.63517153241E+01  0.33444108926E+01 -0.25634709926E+02  0.98469186249E+02  0.94802494248E+02 0.  0.
         11    1    3    3    0    0  0.77756057832E+01 -0.11936092071E+02  0.33165261706E+02  0.36095220231E+02  0.51100000000E-03 0.  1.
         22    1    1    0    0    0  0.63517153241E+01 -0.33444108926E+01  0.25634709926E+02  0.26620813751E+02  0.00000000000E+00 0. -1.
</event>
<event>
 5    1  0.1043455E-009  0.9118800E+02  0.7561462E-02  0.1125453E+00
         25   -1    0    0    0    0  0.00000000000E+00  0.00000000000E+00  0.99999998245E-14  0.12509000000E+03  0.12509000000E+03 0.  0.
        -11    1    3    3    0    0  0.41880477704E+02  0.13441904592E+02 -0.31845813358E+02  0.54302992924E+02  0.51100000000E-03 0.  1.
         23    2    1    0    0    0  0.25193036319E+02  0.12740670867E+02  0.64926037077E+01  0.96121609019E+02  0.91652583403E+02 0.  0.
         11    1    3    3    0    0 -0.16687441385E+02 -0.70123372497E+00  0.38338417066E+02  0.41818616095E+02  0.51100000000E-03 0. -1.
         22    1    1    0    0    0 -0.25193036319E+02 -0.12740670867E+02 -0.64926037077E+01  0.28968390981E+02  0.00000000000E+00 0.  1.
</event>
<event>
 5    1  0.1043455E-009  0.9118800E+02  0.7561462E-02  0.1125453E+00
         25   -1    0    0    0    0  0.00000000000E+00  0.00000000000E+00  0.99999998245E-14  0.12509000000E+03  0.12509000000E+03 0.  0.
        -11    1    3    3    0    0  0.32955759281E+02  0.42286606828E+02  0.15610195807E+02  0.55838314804E+02  0.51100000000E-03 0. -1.
         23    2    1    0    0    0  0.32685069466E+02  0.91569883247E+01  0.11640159272E+02  0.89206054996E+02  0.81670452055E+02 0.  0.
         11    1    3    3    0    0 -0.27068981436E+00 -0.33129618503E+02 -0.39700365348E+01  0.33367740192E+02  0.51100000000E-03 0.  1.
         22    1    1    0    0    0 -0.32685069466E+02 -0.91569883247E+01 -0.11640159272E+02  0.35883945004E+02  0.00000000000E+00 0. -1.
</event>
<event>
 5    1  0.1043455E-009  0.9118800E+02  0.7561462E-02  0.1125453E+00
         25   -1    0    0    0    0  0.00000000000E+00  0.00000000000E+00  0.99999998245E-14  0.12509000000E+03  0.12509000000E+03 0.  0.
        -11    1    3    3    0    0  0.86640486166E+01 -0.14281396575E+02 -0.40143859229E+02  0.43480495175E+02  0.51100000000E-03 0.  1.
         23    2    1    0    0    0 -0.25913700337E+02  0.10731523883E+02 -0.12119619879E+02  0.94535611510E+02  0.89461786186E+02 0.  0.
         11    1    3    3    0    0 -0.34577748953E+02  0.25012920458E+02  0.28024239350E+02  0.51055116335E+02  0.51100000000E-03 0. -1.
         22    1    1    0    0    0  0.25913700337E+02 -0.10731523883E+02  0.12119619879E+02  0.30554388490E+02  0.00000000000E+00 0. -1.
</event>
<event>
 5    1  0.1043455E-009  0.9118800E+02  0.7561462E-02  0.1125453E+00
         25   -1    0    0    0    0  0.00000000000E+00  0.00000000000E+00  0.99999998245E-14  0.12509000000E+03  0.12509000000E+03 0.  0.
        -11    1    3    3    0    0  0.19745114084E+02  0.80038398640E+01  0.55917172173E+02  0.59838625710E+02  0.51100000000E-03 0.  1.
         23    2    1    0    0    0  0.12305121400E+02 -0.88824232077E+01  0.25571733913E+02  0.95354044828E+02  0.90598933961E+02 0.  0.
         11    1    3    3    0    0 -0.74399926838E+01 -0.16886263072E+02 -0.30345438260E+02  0.35515419118E+02  0.51100000000E-03 0. -1.
         22    1    1    0    0    0 -0.12305121400E+02  0.88824232077E+01 -0.25571733913E+02  0.29735955172E+02  0.00000000000E+00 0.  1.
</event>
<event>
 5    1  0.1043455E-009  0.9118800E+02  0.7561462E-02  0.1125453E+00
         25   -1    0    0    0    0  0.00000000000E+00  0.00000000000E+00  0.99999998245E-14  0.12509000000E+03  0.12509000000E+03 0.  0.
        -11    1    3    3    0    0  0.33919496862E+02 -0.77641747237E+01 -0.35486507585E+00  0.34798571896E+02  0.51100000000E-03 0.  1.
         23    2    1    0    0    0 -0.18473337896E+02 -0.25118179375E+02 -0.12814309456E+02  0.91379561335E+02  0.84934271969E+02 0.  0.
         11    1    3    3    0    0 -0.52392834758E+02 -0.17354004651E+02 -0.12459444380E+02  0.56580989440E+02  0.51100000000E-03 0. -1.
         22    1    1    0    0    0  0.18473337896E+02  0.25118179375E+02  0.12814309456E+02  0.33710438665E+02  0.00000000000E+00 0. -1.
</event>
<event>
 5    1  0.1043455E-009  0.9118800E+02  0.7561462E-02  0.1125453E+00
         25   -1    0    0    0    0  0.00000000000E+00  0.00000000000E+00  0.99999998245E-14  0.12509000000E+03  0.12509000000E+03 0.  0.
        -11    1    3    3    0    0  0.11068897012E+02  0.99725002276E+01  0.37044333423E+02  0.39928108907E+02  0.51100000000E-03 0.  1.
         23    2    1    0    0    0 -0.25588538219E+02  0.14901203635E+02 -0.40348674638E+01  0.95205232753E+02  0.90393235534E+02 0.  0.
         11    1    3    3    0    0 -0.36657435231E+02  0.49287034070E+01 -0.41079200887E+02  0.55277123847E+02  0.51100000000E-03 0. -1.
         22    1    1    0    0    0  0.25588538219E+02 -0.14901203635E+02  0.40348674638E+01  0.29884767247E+02  0.00000000000E+00 0. -1.
</event>
<event>
 5    1  0.1043455E-009  0.9118800E+02  0.7561462E-02  0.1125453E+00
         25   -1    0    0    0    0  0.00000000000E+00  0.00000000000E+00  0.99999998245E-14  0.12509000000E+03  0.12509000000E+03 0.  0.
        -11    1    3    3    0    0 -0.22295155108E+02  0.48337998338E+02 -0.29083794541E+02  0.60658908083E+02  0.51100000000E-03 0. -1.
         23    2    1    0    0    0 -0.23240636477E+01  0.27467102223E+02 -0.81110139085E+01  0.96356195466E+02  0.91972196243E+02 0.  0.
         11    1    3    3    0    0  0.19971091460E+02 -0.20870896115E+02  0.20972780633E+02  0.35697287383E+02  0.51100000000E-03 0.  1.
         22    1    1    0    0    0  0.23240636477E+01 -0.27467102223E+02  0.81110139085E+01  0.28733804534E+02  0.00000000000E+00 0. -1.
</event>
<event>
 5    1  0.1043455E-009  0.9118800E+02  0.7561462E-02  0.1125453E+00
         25   -1    0    0    0    0  0.00000000000E+00  0.00000000000E+00  0.99999998245E-14  0.12509000000E+03  0.12509000000E+03 0.  0.
        -11    1    3    3    0    0 -0.17731517280E+02 -0.52742930246E+02 -0.11362060955E+02  0.56791899294E+02  0.51100000000E-03 0.  1.
         23    2    1    0    0    0  0.94513831516E+01 -0.21877969664E+02 -0.12980122885E+02  0.97952244194E+02  0.94117927901E+02 0.  0.
         11    1    3    3    0    0  0.27182900432E+02  0.30864960582E+02 -0.16180619303E+01  0.41160344900E+02  0.51100000000E-03 0. -1.
         22    1    1    0    0    0 -0.94513831516E+01  0.21877969664E+02  0.12980122885E+02  0.27137755806E+02  0.00000000000E+00 0.  1.
</event>
<event>
 5    1  0.1043455E-009  0.9118800E+02  0.7561462E-02  0.1125453E+00
         25   -1    0    0    0    0  0.00000000000E+00  0.00000000000E+00  0.99999998245E-14  0.12509000000E+03  0.12509000000E+03 0.  0.
        -11    1    3    3    0    0  0.69573130678E+01 -0.43908738071E+02 -0.27743682496E+02  0.52403181228E+02  0.51100000000E-03 0.  1.
         23    2    1    0    0    0 -0.29608603269E+01 -0.28373752796E+01 -0.30091537814E+02  0.94720310500E+02  0.89719669977E+02 0.  0.
         11    1    3    3    0    0 -0.99181733947E+01  0.41071362791E+02 -0.23478553175E+01  0.42317129272E+02  0.51100000000E-03 0. -1.
         22    1    1    0    0    0  0.29608603269E+01  0.28373752796E+01  0.30091537814E+02  0.30369689500E+02  0.00000000000E+00 0.  1.
</event>
<event>
 5    1  0.1043455E-009  0.9118800E+02  0.7561462E-02  0.1125453E+00
         25   -1    0    0    0    0  0.00000000000E+00  0.00000000000E+00  0.99999998245E-14  0.12509000000E+03  0.12509000000E+03 0.  0.
        -11    1    3    3    0    0  0.47758584693E+02  0.38603820344E+02  0.30921074516E+01  0.61487384770E+02  0.51100000000E-03 0.  1.
         23    2    1    0    0    0  0.20504112666E+02  0.18623238402E+02 -0.65440120373E+01  0.96628311041E+02  0.92341554873E+02 0.  0.
         11    1    3    3    0    0 -0.27254472027E+02 -0.19980581942E+02 -0.96361194890E+01  0.35140926272E+02  0.51100000000E-03 0. -1.
         22    1    1    0    0    0 -0.20504112666E+02 -0.18623238402E+02  0.65440120373E+01  0.28461688959E+02  0.00000000000E+00 0.  1.
</event>
<event>
 5    1  0.1043455E-009  0.9118800E+02  0.7561462E-02  0.1125453E+00
         25   -1    0    0    0    0  0.00000000000E+00  0.00000000000E+00  0.99999998245E-14  0.12509000000E+03  0.12509000000E+03 0.  0.
        -11    1    3    3    0    0  0.24340757057E+02 -0.45661737625E+02  0.33323921360E+02  0.61546327852E+02  0.51100000000E-03 0.  1.
         23    2    1    0    0    0  0.20265947585E+02 -0.21389596335E+02  0.17152230946E+02  0.90995682448E+02  0.84367006199E+02 0.  0.
         11    1    3    3    0    0 -0.40748094724E+01  0.24272141290E+02 -0.16171690414E+02  0.29449354596E+02  0.51100000000E-03 0. -1.
         22    1    1    0    0    0 -0.20265947585E+02  0.21389596335E+02 -0.17152230946E+02  0.34094317552E+02  0.00000000000E+00 0.  1.
</event>
<event>
 5    1  0.1043455E-009  0.9118800E+02  0.7561462E-02  0.1125453E+00
         25   -1    0    0    0    0  0.00000000000E+00  0.00000000000E+00  0.99999998245E-14  0.12509000000E+03  0.12509000000E+03 0.  0.
        -11    1    3    3    0    0 -0.34850968426E+02 -0.49747757322E+01 -0.44814373066E+02  0.56988300794E+02  0.51100000000E-03 0.  1.
         23    2    1    0    0    0 -0.20458810388E+02  0.15397389815E+02 -0.16967321263E+02  0.94373025434E+02  0.89234160517E+02 0.  0.
         11    1    3    3    0    0  0.14392158037E+02  0.20372165548E+02  0.27847051803E+02  0.37384724641E+02  0.51100000000E-03 0. -1.
         22    1    1    0    0    0  0.20458810388E+02 -0.15397389815E+02  0.16967321263E+02  0.30716974566E+02  0.00000000000E+00 0.  1.
</event>
<event>
 5    1  0.1043455E-009  0.9118800E+02  0.7561462E-02  0.1125453E+00
         25   -1    0    0    0    0  0.00000000000E+00  0.00000000000E+00  0.99999998245E-14  0.12509000000E+03  0.12509000000E+03 0.  0.
        -11    1    3    3    0    0 -0.18809079939E+02 -0.39800923325E+02  0.67477765550E+01  0.44535687650E+02  0.51100000000E-03 0. -1.
         23    2    1    0    0    0  0.24119526413E+02 -0.16124625776E+02 -0.65807120276E+01  0.95340027200E+02  0.90579577748E+02 0.  0.
         11    1    3    3    0    0  0.42928606352E+02  0.23676297550E+02 -0.13328488583E+02  0.50804339551E+02  0.51100000000E-03 0.  1.
         22    1    1    0    0    0 -0.24119526413E+02  0.16124625776E+02  0.65807120276E+01  0.29749972800E+02  0.00000000000E+00 0. -1.
</event>
<event>
 5    1  0.1043455E-009  0.9118800E+02  0.7561462E-02  0.1125453E+00
         25   -1    0    0    0    0  0.00000000000E+00  0.00000000000E+00  0.99999998245E-14  0.12509000000E+03  0.12509000000E+03 0.  0.
        -11    1    3    3    0    0 -0.35376329478E+01  0.47018440479E+02  0.70006011802E+01  0.47668197041E+02  0.51100000000E-03 0.  1.
         23    2    1    0    0    0 -0.22232533676E+02  0.32515505427E+01  0.17745549534E+02  0.96458502260E+02  0.92111237074E+02 0.  0.
         11    1    3    3    0    0 -0.18694900728E+02 -0.43766889937E+02  0.10744948354E+02  0.48790305219E+02  0.51100000000E-03 0. -1.
         22    1    1    0    0    0  0.22232533676E+02 -0.32515505427E+01 -0.17745549534E+02  0.28631497740E+02  0.00000000000E+00 0. -1.
</event>
<event>
 5    1  0.1043455E-009  0.9118800E+02  0.7561462E-02  0.1125453E+00
         25   -1    0    0    0    0  0.00000000000E+00  0.00000000000E+00  0.99999998245E-14  0.12509000000E+03  0.12509000000E+03 0.  0.
        -11    1    3    3    0    0  0.19342655827E+00  0.13640943605E+02 -0.47826227965E+02  0.49733900288E+02  0.51100000000E-03 0. -1.
         23    2    1    0    0    0 -0.21497793772E+02  0.12786011985E+02 -0.25470146812E+01  0.99947913306E+02  0.96733969478E+02 0.  0.
         11    1    3    3    0    0 -0.21691220330E+02 -0.85493161998E+00  0.45279213284E+02  0.50214013018E+02  0.51100000000E-03 0.  1.
         22    1    1    0    0    0  0.21497793772E+02 -0.12786011985E+02  0.25470146812E+01  0.25142086694E+02  0.00000000000E+00 0.  1.
</event>
<event>
 5    1  0.1043455E-009  0.9118800E+02  0.7561462E-02  0.1125453E+00
         25   -1    0    0    0    0  0.00000000000E+00  0.00000000000E+00  0.99999998245E-14  0.12509000000E+03  0.12509000000E+03 0.  0.
        -11    1    3    3    0    0 -0.81452400411E+01 -0.42940653095E+02  0.64468588764E+01  0.44179255462E+02  0.51100000000E-03 0.  1.
         23    2    1    0    0    0  0.22471637017E+02 -0.16888246478E+01  0.17293603648E+02  0.96684096986E+02  0.92417094111E+02 0.  0.
         11    1    3    3    0    0  0.30616877058E+02  0.41251828447E+02  0.10846744771E+02  0.52504841524E+02  0.51100000000E-03 0. -1.
         22    1    1    0    0    0 -0.22471637017E+02  0.16888246478E+01 -0.17293603648E+02  0.28405903014E+02  0.00000000000E+00 0. -1.
</event>
<event>
 5    1  0.1043455E-009  0.9118800E+02  0.7561462E-02  0.1125453E+00
         25   -1    0    0    0    0  0.00000000000E+00  0.00000000000E+00  0.99999998245E-14  0.12509000000E+03  0.12509000000E+03 0.  0.
        -11    1    3    3    0    0 -0.49077808357E+02  0.18681062942E+02  0.13856744297E+02  0.54310429464E+02  0.51100000000E-03 0.  1.
         23    2    1    0    0    0 -0.98879246457E+01  0.27303969950E+02  0.29025346518E+01  0.95906056876E+02  0.91357918153E+02 0.  0.
         11    1    3    3    0    0  0.39189883712E+02  0.86229070085E+01 -0.10954209645E+02  0.41595627412E+02  0.51100000000E-03 0. -1.
         22    1    1    0    0    0  0.98879246457E+01 -0.27303969950E+02 -0.29025346518E+01  0.29183943124E+02  0.00000000000E+00 0.  1.
</event>
<event>
 5    1  0.1043455E-009  0.9118800E+02  0.7561462E-02  0.1125453E+00
         25   -1    0    0    0    0  0.00000000000E+00  0.00000000000E+00  0.99999998245E-14  0.12509000000E+03  0.12509000000E+03 0.  0.
        -11    1    3    3    0    0  0.10774782983E+02  0.14682589397E+01 -0.39520927492E+02  0.40989699227E+02  0.51100000000E-03 0. -1.
         23    2    1    0    0    0 -0.19659608934E+02  0.20547454523E+02  0.28179508015E+01  0.96513104480E+02  0.92185358810E+02 0.  0.
         11    1    3    3    0    0 -0.30434391917E+02  0.19079195584E+02  0.42338878294E+02  0.55523405253E+02  0.51100000000E-03 0.  1.
         22    1    1    0    0    0  0.19659608934E+02 -0.20547454523E+02 -0.28179508015E+01  0.28576895520E+02  0.00000000000E+00 0.  1.
</event>
<event>
 5    1  0.1043455E-009  0.9118800E+02  0.7561462E-02  0.1125453E+00
         25   -1    0    0    0    0  0.00000000000E+00  0.00000000000E+00  0.99999998245E-14  0.12509000000E+03  0.12509000000E+03 0.  0.
        -11    1    3    3    0    0  0.61901795217E+01  0.46695813165E+02 -0.57627271171E+01  0.47455519318E+02  0.51100000000E-03 0. -1.
         23    2    1    0    0    0  0.18326416731E+02  0.74334879104E+01  0.20800619675E+02  0.96388430851E+02  0.92016028660E+02 0.  0.
         11    1    3    3    0    0  0.12136237209E+02 -0.39262325255E+02  0.26563346792E+02  0.48932911533E+02  0.51100000000E-03 0.  1.
         22    1    1    0    0    0 -0.18326416731E+02 -0.74334879104E+01 -0.20800619675E+02  0.28701569149E+02  0.00000000000E+00 0.  1.
</event>
<event>
 5    1  0.1043455E-009  0.9118800E+02  0.7561462E-02  0.1125453E+00
         25   -1    0    0    0    0  0.00000000000E+00  0.00000000000E+00  0.99999998245E-14  0.12509000000E+03  0.12509000000E+03 0.  0.
        -11    1    3    3    0    0 -0.44617766824E+02  0.13019450118E+02 -0.29913606603E+02  0.55272733405E+02  0.51100000000E-03 0.  1.
         23    2    1    0    0    0 -0.22478479663E+02 -0.15184283597E+02 -0.10919792122E+02  0.95848139999E+02  0.91278582181E+02 0.  0.
         11    1    3    3    0    0  0.22139287161E+02 -0.28203733715E+02  0.18993814481E+02  0.40575406594E+02  0.51100000000E-03 0. -1.
         22    1    1    0    0    0  0.22478479663E+02  0.15184283597E+02  0.10919792122E+02  0.29241860001E+02  0.00000000000E+00 0.  1.
</event>
<event>
 5    1  0.1043455E-009  0.9118800E+02  0.7561462E-02  0.1125453E+00
         25   -1    0    0    0    0  0.00000000000E+00  0.00000000000E+00  0.99999998245E-14  0.12509000000E+03  0.12509000000E+03 0.  0.
        -11    1    3    3    0    0 -0.49158001217E+01 -0.38961325587E+02  0.43482645128E+02  0.58590873094E+02  0.51100000000E-03 0.  1.
         23    2    1    0    0    0 -0.78405441686E+00 -0.26857537850E+02  0.68936019942E+01  0.97350788959E+02  0.93315123543E+02 0.  0.
         11    1    3    3    0    0  0.41317457049E+01  0.12103787736E+02 -0.36589043134E+02  0.38759915865E+02  0.51100000000E-03 0. -1.
         22    1    1    0    0    0  0.78405441686E+00  0.26857537850E+02 -0.68936019942E+01  0.27739211041E+02  0.00000000000E+00 0.  1.
</event>
<event>
 5    1  0.1043455E-009  0.9118800E+02  0.7561462E-02  0.1125453E+00
         25   -1    0    0    0    0  0.00000000000E+00  0.00000000000E+00  0.99999998245E-14  0.12509000000E+03  0.12509000000E+03 0.  0.
        -11    1    3    3    0    0  0.41400800013E+02 -0.76494633382E+01 -0.11956109578E+01  0.42118523442E+02  0.51100000000E-03 0. -1.
         23    2    1    0    0    0  0.17849657697E+01 -0.17753565518E+01  0.31297743380E+02  0.93691166672E+02  0.88273144149E+02 0.  0.
         11    1    3    3    0    0 -0.39615834244E+02  0.58741067864E+01  0.32493354338E+02  0.51572643230E+02  0.51100000000E-03 0.  1.
         22    1    1    0    0    0 -0.17849657697E+01  0.17753565518E+01 -0.31297743380E+02  0.31398833328E+02  0.00000000000E+00 0.  1.
</event>
<event>
 5    1  0.1043455E-009  0.9118800E+02  0.7561462E-02  0.1125453E+00
         25   -1    0    0    0    0  0.00000000000E+00  0.00000000000E+00  0.99999998245E-14  0.12509000000E+03  0.12509000000E+03 0.  0.
        -11    1    3    3    0    0  0.42061551098E+01 -0.10985250273E+02  0.57439560382E+02  0.58631651533E+02  0.51100000000E-03 0.  1.
         23    2    1    0    0    0 -0.11745930775E+02  0.25756544138E+01  0.26495149626E+02  0.95993714342E+02  0.91477862644E+02 0.  0.
         11    1    3    3    0    0 -0.15952085885E+02  0.13560904687E+02 -0.30944410756E+02  0.37362062809E+02  0.51100000000E-03 0. -1.
         22    1    1    0    0    0  0.11745930775E+02 -0.25756544138E+01 -0.26495149626E+02  0.29096285658E+02  0.00000000000E+00 0.  1.
</event>
<event>
 5    1  0.1043455E-009  0.9118800E+02  0.7561462E-02  0.1125453E+00
         25   -1    0    0    0    0  0.00000000000E+00  0.00000000000E+00  0.99999998245E-14  0.12509000000E+03  0.12509000000E+03 0.  0.
        -11    1    3    3    0    0  0.17952259406E+02  0.12359061854E+02  0.24875280359E+02  0.33072792457E+02  0.51100000000E-03 0.  1.
         23    2    1    0    0    0 -0.10023691704E+02 -0.28175151639E+02 -0.10151226582E+02  0.93508977750E+02  0.88014589435E+02 0.  0.
         11    1    3    3    0    0 -0.27975951111E+02 -0.40534213493E+02 -0.35026506941E+02  0.60436185293E+02  0.51100000000E-03 0. -1.
         22    1    1    0    0    0  0.10023691704E+02  0.28175151639E+02  0.10151226582E+02  0.31581022250E+02  0.00000000000E+00 0. -1.
</event>
<event>
 5    1  0.1043455E-009  0.9118800E+02  0.7561462E-02  0.1125453E+00
         25   -1    0    0    0    0  0.00000000000E+00  0.00000000000E+00  0.99999998245E-14  0.12509000000E+03  0.12509000000E+03 0.  0.
        -11    1    3    3    0    0 -0.89206293167E+01  0.49597262541E+02 -0.15317050716E+02  0.52669517957E+02  0.51100000000E-03 0.  1.
         23    2    1    0    0    0 -0.16933276524E+02  0.20292834132E+02  0.14250781179E+02  0.95063016549E+02  0.90196215998E+02 0.  0.
         11    1    3    3    0    0 -0.80126472068E+01 -0.29304428409E+02  0.29567831895E+02  0.42393498592E+02  0.51100000000E-03 0. -1.
         22    1    1    0    0    0  0.16933276524E+02 -0.20292834132E+02 -0.14250781179E+02  0.30026983451E+02  0.00000000000E+00 0.  1.
</event>
<event>
 5    1  0.1043455E-009  0.9118800E+02  0.7561462E-02  0.1125453E+00
         25   -1    0    0    0    0  0.00000000000E+00  0.00000000000E+00  0.99999998245E-14  0.12509000000E+03  0.12509000000E+03 0.  0.
        -11    1    3    3    0    0  0.15958132389E+02  0.32076372250E+02  0.14892487809E+02  0.38798735024E+02  0.51100000000E-03 0.  1.
         23    2    1    0    0    0 -0.22401252776E+02  0.73519889854E+01 -0.18312077386E+02  0.95237026176E+02  0.90437221920E+02 0.  0.
         11    1    3    3    0    0 -0.38359385165E+02 -0.24724383264E+02 -0.33204565195E+02  0.56438291152E+02  0.51100000000E-03 0. -1.
         22    1    1    0    0    0  0.22401252776E+02 -0.73519889854E+01  0.18312077386E+02  0.29852973824E+02  0.00000000000E+00 0. -1.
</event>
<event>
 5    1  0.1043455E-009  0.9118800E+02  0.7561462E-02  0.1125453E+00
         25   -1    0    0    0    0  0.00000000000E+00  0.00000000000E+00  0.99999998245E-14  0.12509000000E+03  0.12509000000E+03 0.  0.
        -11    1    3    3    0    0 -0.16136472671E+02 -0.30145178819E+02 -0.14957519980E+02  0.37320838154E+02  0.51100000000E-03 0.  1.
         23    2    1    0    0    0  0.23212810399E+01  0.20798823648E+02 -0.25061416765E+02  0.92439517292E+02  0.86481271592E+02 0.  0.
         11    1    3    3    0    0  0.18457753711E+02  0.50944002467E+02 -0.10103896785E+02  0.55118679138E+02  0.51100000000E-03 0. -1.
         22    1    1    0    0    0 -0.23212810399E+01 -0.20798823648E+02  0.25061416765E+02  0.32650482708E+02  0.00000000000E+00 0.  1.
</event>
<event>
 5    1  0.1043455E-009  0.9118800E+02  0.7561462E-02  0.1125453E+00
         25   -1    0    0    0    0  0.00000000000E+00  0.00000000000E+00  0.99999998245E-14  0.12509000000E+03  0.12509000000E+03 0.  0.
        -11    1    3    3    0    0 -0.22799506837E+02 -0.22955615826E+02 -0.11170961514E+02  0.34228178323E+02  0.51100000000E-03 0.  1.
         23    2    1    0    0    0 -0.16361316702E+02  0.11349528301E+02  0.30549525517E+02  0.88623878926E+02  0.80773844342E+02 0.  0.
         11    1    3    3    0    0  0.64381901347E+01  0.34305144127E+02  0.41720487030E+02  0.54395700603E+02  0.51100000000E-03 0. -1.
         22    1    1    0    0    0  0.16361316702E+02 -0.11349528301E+02 -0.30549525517E+02  0.36466121074E+02  0.00000000000E+00 0. -1.
</event>
<event>
 5    1  0.1043455E-009  0.9118800E+02  0.7561462E-02  0.1125453E+00
         25   -1    0    0    0    0  0.00000000000E+00  0.00000000000E+00  0.99999998245E-14  0.12509000000E+03  0.12509000000E+03 0.  0.
        -11    1    3    3    0    0 -0.26328447297E+01 -0.33865887267E+02 -0.69816666848E+01  0.34678146745E+02  0.51100000000E-03 0.  1.
         23    2    1    0    0    0 -0.13036337792E+02  0.21158379208E+02  0.16348496166E+02  0.95342791044E+02  0.90583394524E+02 0.  0.
         11    1    3    3    0    0 -0.10403493063E+02  0.55024266475E+02  0.23330162851E+02  0.60664644299E+02  0.51100000000E-03 0. -1.
         22    1    1    0    0    0  0.13036337792E+02 -0.21158379208E+02 -0.16348496166E+02  0.29747208956E+02  0.00000000000E+00 0. -1.
</event>
<event>
 5    1  0.1043455E-009  0.9118800E+02  0.7561462E-02  0.1125453E+00
         25   -1    0    0    0    0  0.00000000000E+00  0.00000000000E+00  0.99999998245E-14  0.12509000000E+03  0.12509000000E+03 0.  0.
        -11    1    3    3    0    0 -0.34106049695E+02 -0.25116680548E+02 -0.40054617326E+02  0.58296163141E+02  0.51100000000E-03 0.  1.
         23    2    1    0    0    0 -0.21309212134E+02 -0.19610799437E+02 -0.54201113037E+01  0.95627420634E+02  0.90975601093E+02 0.  0.
         11    1    3    3    0    0  0.12796837561E+02  0.55058811106E+01  0.34634506022E+02  0.37331257493E+02  0.51100000000E-03 0. -1.
         22    1    1    0    0    0  0.21309212134E+02  0.19610799437E+02  0.54201113037E+01  0.29462579366E+02  0.00000000000E+00 0.  1.
</event>
<event>
 5    1  0.1043455E-009  0.9118800E+02  0.7561462E-02  0.1125453E+00
         25   -1    0    0    0    0  0.00000000000E+00  0.00000000000E+00  0.99999998245E-14  0.12509000000E+03  0.12509000000E+03 0.  0.
        -11    1    3    3    0    0  0.10116789252E+01 -0.51632852520E+01 -0.41917056397E+02  0.42245977632E+02  0.51100000000E-03 0.  1.
         23    2    1    0    0    0 -0.26329927243E+02 -0.10683798849E+02  0.44225739504E+01  0.96332952397E+02  0.91940578260E+02 0.  0.
         11    1    3    3    0    0 -0.27341606168E+02 -0.55205135966E+01  0.46339630348E+02  0.54086974765E+02  0.51100000000E-03 0. -1.
         22    1    1    0    0    0  0.26329927243E+02  0.10683798849E+02 -0.44225739504E+01  0.28757047603E+02  0.00000000000E+00 0. -1.
</event>
<event>
 5    1  0.1043455E-009  0.9118800E+02  0.7561462E-02  0.1125453E+00
         25   -1    0    0    0    0  0.00000000000E+00  0.00000000000E+00  0.99999998245E-14  0.12509000000E+03  0.12509000000E+03 0.  0.
        -11    1    3    3    0    0 -0.25596487855E+02 -0.77997664159E+01 -0.22709006955E+02  0.35095805216E+02  0.51100000000E-03 0.  1.
         23    2    1    0    0    0  0.17629635755E+02  0.24121698988E+02  0.37254966049E+01  0.94981201554E+02  0.90082678162E+02 0.  0.
         11    1    3    3    0    0  0.43226123610E+02  0.31921465403E+02  0.26434503559E+02  0.59885396338E+02  0.51100000000E-03 0. -1.
         22    1    1    0    0    0 -0.17629635755E+02 -0.24121698988E+02 -0.37254966049E+01  0.30108798446E+02  0.00000000000E+00 0. -1.
</event>
<event>
 5    1  0.1043455E-009  0.9118800E+02  0.7561462E-02  0.1125453E+00
         25   -1    0    0    0    0  0.00000000000E+00  0.00000000000E+00  0.99999998245E-14  0.12509000000E+03  0.12509000000E+03 0.  0.
        -11    1    3    3    0    0 -0.14461717624E+02  0.39569436541E+02  0.16304324207E+02  0.45174246788E+02  0.51100000000E-03 0.  1.
         23    2    1    0    0    0  0.20518367238E+02  0.11806173412E+02  0.24987788290E+02  0.90669385706E+02  0.83881814573E+02 0.  0.
         11    1    3    3    0    0  0.34980084861E+02 -0.27763263128E+02  0.86834640824E+01  0.45495138918E+02  0.51100000000E-03 0. -1.
         22    1    1    0    0    0 -0.20518367238E+02 -0.11806173412E+02 -0.24987788290E+02  0.34420614294E+02  0.00000000000E+00 0. -1.
</event>
<event>
 5    1  0.1043455E-009  0.9118800E+02  0.7561462E-02  0.1125453E+00
         25   -1    0    0    0    0  0.00000000000E+00  0.00000000000E+00  0.99999998245E-14  0.12509000000E+03  0.12509000000E+03 0.  0.
        -11    1    3    3    0    0  0.40232519968E+02  0.36092532564E+01  0.11302076273E+02  0.41945432414E+02  0.51100000000E-03 0.  1.
         23    2    1    0    0    0  0.36871497203E+01 -0.26811733600E+02 -0.12682184113E+02  0.95201843055E+02  0.90388544603E+02 0.  0.
         11    1    3    3    0    0 -0.36545370248E+02 -0.30420986856E+02 -0.23984260386E+02  0.53256410641E+02  0.51100000000E-03 0. -1.
         22    1    1    0    0    0 -0.36871497203E+01  0.26811733600E+02  0.12682184113E+02  0.29888156945E+02  0.00000000000E+00 0. -1.
</event>
<event>
 5    1  0.1043455E-009  0.9118800E+02  0.7561462E-02  0.1125453E+00
         25   -1    0    0    0    0  0.00000000000E+00  0.00000000000E+00  0.99999998245E-14  0.12509000000E+03  0.12509000000E+03 0.  0.
        -11    1    3    3    0    0 -0.64178773362E+00  0.33711950888E+02  0.18463515317E+02  0.38442280399E+02  0.51100000000E-03 0.  1.
         23    2    1    0    0    0  0.29048664279E+02 -0.53824012606E+01 -0.83647569386E+01  0.94385532925E+02  0.89251692012E+02 0.  0.
         11    1    3    3    0    0  0.29690452013E+02 -0.39094352149E+02 -0.26828272255E+02  0.55943252525E+02  0.51100000000E-03 0. -1.
         22    1    1    0    0    0 -0.29048664279E+02  0.53824012606E+01  0.83647569386E+01  0.30704467075E+02  0.00000000000E+00 0. -1.
</event>
<event>
 5    1  0.1043455E-009  0.9118800E+02  0.7561462E-02  0.1125453E+00
         25   -1    0    0    0    0  0.00000000000E+00  0.00000000000E+00  0.99999998245E-14  0.12509000000E+03  0.12509000000E+03 0.  0.
        -11    1    3    3    0    0  0.28281946631E+02  0.20778455860E+02 -0.11068768427E+02  0.36798510403E+02  0.51100000000E-03 0.  1.
         23    2    1    0    0    0 -0.25020490874E+02 -0.73653233628E+01  0.34008994238E+01  0.98787166147E+02  0.95221138024E+02 0.  0.
         11    1    3    3    0    0 -0.53302437505E+02 -0.28143779223E+02  0.14469667851E+02  0.61988655743E+02  0.51100000000E-03 0. -1.
         22    1    1    0    0    0  0.25020490874E+02  0.73653233628E+01 -0.34008994238E+01  0.26302833853E+02  0.00000000000E+00 0. -1.
</event>
<event>
 5    1  0.1043455E-009  0.9118800E+02  0.7561462E-02  0.1125453E+00
         25   -1    0    0    0    0  0.00000000000E+00  0.00000000000E+00  0.99999998245E-14  0.12509000000E+03  0.12509000000E+03 0.  0.
        -11    1    3    3    0    0 -0.41811934531E+02 -0.25028662072E+02  0.28499581946E+01  0.48813871556E+02  0.51100000000E-03 0.  1.
         23    2    1    0    0    0  0.85612482633E+01 -0.21691944032E+02 -0.79727615866E+01  0.10044450680E+03  0.97374014046E+02 0.  0.
         11    1    3    3    0    0  0.50373182794E+02  0.33367180399E+01 -0.10822719781E+02  0.51630635245E+02  0.51100000000E-03 0. -1.
         22    1    1    0    0    0 -0.85612482633E+01  0.21691944032E+02  0.79727615866E+01  0.24645493199E+02  0.00000000000E+00 0.  1.
</event>
<event>
 5    1  0.1043455E-009  0.9118800E+02  0.7561462E-02  0.1125453E+00
         25   -1    0    0    0    0  0.00000000000E+00  0.00000000000E+00  0.99999998245E-14  0.12509000000E+03  0.12509000000E+03 0.  0.
        -11    1    3    3    0    0  0.52732393572E+02 -0.49849531234E+00  0.33283492370E+02  0.62359800304E+02  0.51100000000E-03 0.  1.
         23    2    1    0    0    0  0.26243300720E+02  0.15646925344E+01  0.19953060960E+02  0.92085701233E+02  0.85967974470E+02 0.  0.
         11    1    3    3    0    0 -0.26489092852E+02  0.20631878468E+01 -0.13330431410E+02  0.29725900929E+02  0.51100000000E-03 0. -1.
         22    1    1    0    0    0 -0.26243300720E+02 -0.15646925344E+01 -0.19953060960E+02  0.33004298767E+02  0.00000000000E+00 0.  1.
</event>
<event>
 5    1  0.1043455E-009  0.9118800E+02  0.7561462E-02  0.1125453E+00
         25   -1    0    0    0    0  0.00000000000E+00  0.00000000000E+00  0.99999998245E-14  0.12509000000E+03  0.12509000000E+03 0.  0.
        -11    1    3    3    0    0  0.35194226575E+02 -0.13963949392E+01  0.48330084329E+01  0.35551954571E+02  0.51100000000E-03 0.  1.
         23    2    1    0    0    0 -0.24801934945E+02 -0.13324885560E+02 -0.25978808437E+00  0.96934076253E+02  0.92754833282E+02 0.  0.
         11    1    3    3    0    0 -0.59996161520E+02 -0.11928490620E+02 -0.50927965173E+01  0.61382121682E+02  0.51100000000E-03 0. -1.
         22    1    1    0    0    0  0.24801934945E+02  0.13324885560E+02  0.25978808437E+00  0.28155923747E+02  0.00000000000E+00 0. -1.
</event>
<event>
 5    1  0.1043455E-009  0.9118800E+02  0.7561462E-02  0.1125453E+00
         25   -1    0    0    0    0  0.00000000000E+00  0.00000000000E+00  0.99999998245E-14  0.12509000000E+03  0.12509000000E+03 0.  0.
        -11    1    3    3    0    0 -0.27880724608E+02 -0.45893496347E+02 -0.10443186688E+02  0.54704734348E+02  0.51100000000E-03 0.  1.
         23    2    1    0    0    0 -0.25566270724E+02 -0.94229329584E+01 -0.18537688620E+02  0.92134397083E+02  0.86038801492E+02 0.  0.
         11    1    3    3    0    0  0.23144538845E+01  0.36470563388E+02 -0.80945019323E+01  0.37429662735E+02  0.51100000000E-03 0. -1.
         22    1    1    0    0    0  0.25566270724E+02  0.94229329584E+01  0.18537688620E+02  0.32955602917E+02  0.00000000000E+00 0.  1.
</event>
<event>
 5    1  0.1043455E-009  0.9118800E+02  0.7561462E-02  0.1125453E+00
         25   -1    0    0    0    0  0.00000000000E+00  0.00000000000E+00  0.99999998245E-14  0.12509000000E+03  0.12509000000E+03 0.  0.
        -11    1    3    3    0    0 -0.24187211641E+02 -0.30373311827E+02 -0.38616833001E+02  0.54761474319E+02  0.51100000000E-03 0.  1.
         23    2    1    0    0    0  0.90519236805E+01 -0.13076184450E+02 -0.26575914028E+02  0.94118995359E+02  0.88877343338E+02 0.  0.
         11    1    3    3    0    0  0.33239135321E+02  0.17297127377E+02  0.12040918973E+02  0.39357521040E+02  0.51100000000E-03 0. -1.
         22    1    1    0    0    0 -0.90519236805E+01  0.13076184450E+02  0.26575914028E+02  0.30971004641E+02  0.00000000000E+00 0.  1.
</event>
<event>
 5    1  0.1043455E-009  0.9118800E+02  0.7561462E-02  0.1125453E+00
         25   -1    0    0    0    0  0.00000000000E+00  0.00000000000E+00  0.99999998245E-14  0.12509000000E+03  0.12509000000E+03 0.  0.
        -11    1    3    3    0    0  0.33886938120E+02  0.50784744774E+02 -0.13135247056E+02  0.62449576398E+02  0.51100000000E-03 0.  1.
         23    2    1    0    0    0  0.15459896462E+02  0.25319225399E+02 -0.41996609321E+01  0.95128212247E+02  0.90286588372E+02 0.  0.
         11    1    3    3    0    0 -0.18427041658E+02 -0.25465519374E+02  0.89355861239E+01  0.32678635848E+02  0.51100000000E-03 0. -1.
         22    1    1    0    0    0 -0.15459896462E+02 -0.25319225399E+02  0.41996609321E+01  0.29961787753E+02  0.00000000000E+00 0.  1.
</event>
<event>
 5    1  0.1043455E-009  0.9118800E+02  0.7561462E-02  0.1125453E+00
         25   -1    0    0    0    0  0.00000000000E+00  0.00000000000E+00  0.99999998245E-14  0.12509000000E+03  0.12509000000E+03 0.  0.
        -11    1    3    3    0    0 -0.27679931173E+02 -0.85301993079E+01  0.26749592235E+02  0.39426939711E+02  0.51100000000E-03 0.  1.
         23    2    1    0    0    0  0.88113035241E+01  0.28129720352E+02  0.70164123702E+01  0.94789005307E+02  0.89815395382E+02 0.  0.
         11    1    3    3    0    0  0.36491234697E+02  0.36659919660E+02 -0.19733179865E+02  0.55362065596E+02  0.51100000000E-03 0. -1.
         22    1    1    0    0    0 -0.88113035241E+01 -0.28129720352E+02 -0.70164123702E+01  0.30300994693E+02  0.00000000000E+00 0. -1.
</event>
<event>
 5    1  0.1043455E-009  0.9118800E+02  0.7561462E-02  0.1125453E+00
         25   -1    0    0    0    0  0.00000000000E+00  0.00000000000E+00  0.99999998245E-14  0.12509000000E+03  0.12509000000E+03 0.  0.
        -11    1    3    3    0    0 -0.10634706029E+01  0.53095969691E+01  0.24686068945E+02  0.25273005162E+02  0.51100000000E-03 0.  1.
         23    2    1    0    0    0 -0.27443814638E+02  0.39176851885E+02 -0.42884093442E+01  0.77065223684E+02  0.60271631479E+02 0.  0.
         11    1    3    3    0    0 -0.26380344035E+02  0.33867254916E+02 -0.28974478289E+02  0.51792218522E+02  0.51100000000E-03 0. -1.
         22    1    1    0    0    0  0.27443814638E+02 -0.39176851885E+02  0.42884093442E+01  0.48024776316E+02  0.00000000000E+00 0. -1.
</event>
<event>
 5    1  0.1043455E-009  0.9118800E+02  0.7561462E-02  0.1125453E+00
         25   -1    0    0    0    0  0.00000000000E+00  0.00000000000E+00  0.99999998245E-14  0.12509000000E+03  0.12509000000E+03 0.  0.
        -11    1    3    3    0    0  0.30170387307E+02  0.48737987741E+02 -0.78517303901E-01  0.57320588662E+02  0.51100000000E-03 0.  1.
         23    2    1    0    0    0 -0.23224408183E+01  0.29287924015E+02  0.41227387022E+01  0.95422286928E+02  0.90693106925E+02 0.  0.
         11    1    3    3    0    0 -0.32492828125E+02 -0.19450063726E+02  0.42012560061E+01  0.38101698267E+02  0.51100000000E-03 0. -1.
         22    1    1    0    0    0  0.23224408183E+01 -0.29287924015E+02 -0.41227387022E+01  0.29667713072E+02  0.00000000000E+00 0.  1.
</event>
<event>
 5    1  0.1043455E-009  0.9118800E+02  0.7561462E-02  0.1125453E+00
         25   -1    0    0    0    0  0.00000000000E+00  0.00000000000E+00  0.99999998245E-14  0.12509000000E+03  0.12509000000E+03 0.  0.
        -11    1    3    3    0    0 -0.25957031920E+02 -0.21732371929E+02  0.21308196468E+02  0.40001284138E+02  0.51100000000E-03 0.  1.
         23    2    1    0    0    0  0.81969316852E+01  0.22447007270E+02  0.16501028284E+02  0.96049652914E+02  0.91554323033E+02 0.  0.
         11    1    3    3    0    0  0.34153963605E+02  0.44179379198E+02 -0.48071681840E+01  0.56048368776E+02  0.51100000000E-03 0. -1.
         22    1    1    0    0    0 -0.81969316852E+01 -0.22447007270E+02 -0.16501028284E+02  0.29040347086E+02  0.00000000000E+00 0. -1.
</event>
<event>
 5    1  0.1043455E-009  0.9118800E+02  0.7561462E-02  0.1125453E+00
         25   -1    0    0    0    0  0.00000000000E+00  0.00000000000E+00  0.99999998245E-14  0.12509000000E+03  0.12509000000E+03 0.  0.
        -11    1    3    3    0    0 -0.52058249875E+02 -0.10620599153E+02 -0.15529100997E+02  0.55353513750E+02  0.51100000000E-03 0.  1.
         23    2    1    0    0    0 -0.22486646575E+02  0.10791203514E+02  0.81274714993E+01  0.98857288732E+02  0.95313212070E+02 0.  0.
         11    1    3    3    0    0  0.29571603299E+02  0.21411802667E+02  0.23656572497E+02  0.43503774982E+02  0.51100000000E-03 0. -1.
         22    1    1    0    0    0  0.22486646575E+02 -0.10791203514E+02 -0.81274714993E+01  0.26232711268E+02  0.00000000000E+00 0.  1.
</event>
<event>
 5    1  0.1043455E-009  0.9118800E+02  0.7561462E-02  0.1125453E+00
         25   -1    0    0    0    0  0.00000000000E+00  0.00000000000E+00  0.99999998245E-14  0.12509000000E+03  0.12509000000E+03 0.  0.
        -11    1    3    3    0    0 -0.12996489340E+02 -0.34757619100E+02 -0.13664344720E+02  0.39543838174E+02  0.51100000000E-03 0. -1.
         23    2    1    0    0    0 -0.22041987519E+02  0.13027874034E+02  0.14420075727E+02  0.95704403195E+02  0.91081389380E+02 0.  0.
         11    1    3    3    0    0 -0.90454981789E+01  0.47785493134E+02  0.28084420447E+02  0.56160565021E+02  0.51100000000E-03 0.  1.
         22    1    1    0    0    0  0.22041987519E+02 -0.13027874034E+02 -0.14420075727E+02  0.29385596805E+02  0.00000000000E+00 0.  1.
</event>
<event>
 5    1  0.1043455E-009  0.9118800E+02  0.7561462E-02  0.1125453E+00
         25   -1    0    0    0    0  0.00000000000E+00  0.00000000000E+00  0.99999998245E-14  0.12509000000E+03  0.12509000000E+03 0.  0.
        -11    1    3    3    0    0 -0.18862620958E+02 -0.13350447919E+02  0.39433655695E+02  0.45706084177E+02  0.51100000000E-03 0. -1.
         23    2    1    0    0    0  0.12627780196E+02  0.19447749464E+02  0.16500568077E+02  0.96630475430E+02  0.92344486804E+02 0.  0.
         11    1    3    3    0    0  0.31490401154E+02  0.32798197384E+02 -0.22933087619E+02  0.50924391252E+02  0.51100000000E-03 0.  1.
         22    1    1    0    0    0 -0.12627780196E+02 -0.19447749464E+02 -0.16500568077E+02  0.28459524570E+02  0.00000000000E+00 0. -1.
</event>
<event>
 5    1  0.1043455E-009  0.9118800E+02  0.7561462E-02  0.1125453E+00
         25   -1    0    0    0    0  0.00000000000E+00  0.00000000000E+00  0.99999998245E-14  0.12509000000E+03  0.12509000000E+03 0.  0.
        -11    1    3    3    0    0 -0.30384777238E+01 -0.33886979293E+01  0.61101344452E+02  0.61270628483E+02  0.51100000000E-03 0.  1.
         23    2    1    0    0    0  0.35739423785E+01 -0.88107157276E+01  0.25773627149E+02  0.97618530579E+02  0.93673346691E+02 0.  0.
         11    1    3    3    0    0  0.66124201023E+01 -0.54220177983E+01 -0.35327717304E+02  0.36347902096E+02  0.51100000000E-03 0. -1.
         22    1    1    0    0    0 -0.35739423785E+01  0.88107157276E+01 -0.25773627149E+02  0.27471469421E+02  0.00000000000E+00 0.  1.
</event>
<event>
 5    1  0.1043455E-009  0.9118800E+02  0.7561462E-02  0.1125453E+00
         25   -1    0    0    0    0  0.00000000000E+00  0.00000000000E+00  0.99999998245E-14  0.12509000000E+03  0.12509000000E+03 0.  0.
        -11    1    3    3    0    0  0.74668801801E+00 -0.38645114371E+02 -0.40766227740E+01  0.38866711480E+02  0.51100000000E-03 0. -1.
         23    2    1    0    0    0  0.30518096951E+02  0.51088445092E+01  0.79588396683E+01  0.93140075702E+02  0.87488719497E+02 0.  0.
         11    1    3    3    0    0  0.29771408933E+02  0.43753958880E+02  0.12035462442E+02  0.54273364223E+02  0.51100000000E-03 0.  1.
         22    1    1    0    0    0 -0.30518096951E+02 -0.51088445092E+01 -0.79588396683E+01  0.31949924298E+02  0.00000000000E+00 0.  1.
</event>
<event>
 5    1  0.1043455E-009  0.9118800E+02  0.7561462E-02  0.1125453E+00
         25   -1    0    0    0    0  0.00000000000E+00  0.00000000000E+00  0.99999998245E-14  0.12509000000E+03  0.12509000000E+03 0.  0.
        -11    1    3    3    0    0 -0.29050420946E+02 -0.16050164431E+00 -0.30481479496E+02  0.42107877059E+02  0.51100000000E-03 0.  1.
         23    2    1    0    0    0 -0.62588152027E+01  0.26800603427E+02  0.99879003705E+01  0.95811966159E+02  0.91228995356E+02 0.  0.
         11    1    3    3    0    0  0.22791605744E+02  0.26961105071E+02  0.40469379866E+02  0.53704089100E+02  0.51100000000E-03 0. -1.
         22    1    1    0    0    0  0.62588152027E+01 -0.26800603427E+02 -0.99879003705E+01  0.29278033841E+02  0.00000000000E+00 0.  1.
</event>
<event>
 5    1  0.1043455E-009  0.9118800E+02  0.7561462E-02  0.1125453E+00
         25   -1    0    0    0    0  0.00000000000E+00  0.00000000000E+00  0.99999998245E-14  0.12509000000E+03  0.12509000000E+03 0.  0.
        -11    1    3    3    0    0  0.16678732750E+02  0.46920455372E+02 -0.10148618848E+02  0.50820308178E+02  0.51100000000E-03 0.  1.
         23    2    1    0    0    0 -0.19482835895E+02  0.15207846236E+02  0.15700527030E+01  0.10032460989E+03  0.97219868356E+02 0.  0.
         11    1    3    3    0    0 -0.36161568645E+02 -0.31712609137E+02  0.11718671551E+02  0.49504301716E+02  0.51100000000E-03 0. -1.
         22    1    1    0    0    0  0.19482835895E+02 -0.15207846236E+02 -0.15700527030E+01  0.24765390107E+02  0.00000000000E+00 0. -1.
</event>
<event>
 5    1  0.1043455E-009  0.9118800E+02  0.7561462E-02  0.1125453E+00
         25   -1    0    0    0    0  0.00000000000E+00  0.00000000000E+00  0.99999998245E-14  0.12509000000E+03  0.12509000000E+03 0.  0.
        -11    1    3    3    0    0 -0.12278388775E+02 -0.52493823420E+02 -0.19932003130E+02  0.57477344034E+02  0.51100000000E-03 0.  1.
         23    2    1    0    0    0 -0.15705600249E+02 -0.16390879777E+02 -0.21564593250E+02  0.93779322890E+02  0.88397980184E+02 0.  0.
         11    1    3    3    0    0 -0.34272114738E+01  0.36102943642E+02 -0.16325901194E+01  0.36301978856E+02  0.51100000000E-03 0. -1.
         22    1    1    0    0    0  0.15705600249E+02  0.16390879777E+02  0.21564593250E+02  0.31310677110E+02  0.00000000000E+00 0.  1.
</event>
<event>
 5    1  0.1043455E-009  0.9118800E+02  0.7561462E-02  0.1125453E+00
         25   -1    0    0    0    0  0.00000000000E+00  0.00000000000E+00  0.99999998245E-14  0.12509000000E+03  0.12509000000E+03 0.  0.
        -11    1    3    3    0    0  0.63979121311E+01  0.35548960000E+02 -0.14340538194E+01  0.36148559408E+02  0.51100000000E-03 0.  1.
         23    2    1    0    0    0 -0.41304447873E+01 -0.97552420878E+01 -0.31717619558E+02  0.91650013266E+02  0.85331660120E+02 0.  0.
         11    1    3    3    0    0 -0.10528356918E+02 -0.45304202087E+02 -0.30283565739E+02  0.55501453858E+02  0.51100000000E-03 0. -1.
         22    1    1    0    0    0  0.41304447873E+01  0.97552420878E+01  0.31717619558E+02  0.33439986734E+02  0.00000000000E+00 0. -1.
</event>
<event>
 5    1  0.1043455E-009  0.9118800E+02  0.7561462E-02  0.1125453E+00
         25   -1    0    0    0    0  0.00000000000E+00  0.00000000000E+00  0.99999998245E-14  0.12509000000E+03  0.12509000000E+03 0.  0.
        -11    1    3    3    0    0  0.34264734043E+02  0.13590849024E+02  0.59073188168E+01  0.37332018324E+02  0.51100000000E-03 0.  1.
         23    2    1    0    0    0 -0.19555223805E+02  0.32761018939E+01 -0.19092178740E+02  0.97564540681E+02  0.93601221613E+02 0.  0.
         11    1    3    3    0    0 -0.53819957849E+02 -0.10314747130E+02 -0.24999497557E+02  0.60232522357E+02  0.51100000000E-03 0. -1.
         22    1    1    0    0    0  0.19555223805E+02 -0.32761018939E+01  0.19092178740E+02  0.27525459319E+02  0.00000000000E+00 0. -1.
</event>
<event>
 5    1  0.1043455E-009  0.9118800E+02  0.7561462E-02  0.1125453E+00
         25   -1    0    0    0    0  0.00000000000E+00  0.00000000000E+00  0.99999998245E-14  0.12509000000E+03  0.12509000000E+03 0.  0.
        -11    1    3    3    0    0  0.44531892002E+02 -0.30051786195E+02 -0.24442125565E+02  0.59022171776E+02  0.51100000000E-03 0.  1.
         23    2    1    0    0    0  0.93761953943E+01 -0.23700474597E+02 -0.12594651319E+02  0.96660248365E+02  0.92384808469E+02 0.  0.
         11    1    3    3    0    0 -0.35155696608E+02  0.63513115980E+01  0.11847474246E+02  0.37638076588E+02  0.51100000000E-03 0. -1.
         22    1    1    0    0    0 -0.93761953943E+01  0.23700474597E+02  0.12594651319E+02  0.28429751635E+02  0.00000000000E+00 0.  1.
</event>
<event>
 5    1  0.1043455E-009  0.9118800E+02  0.7561462E-02  0.1125453E+00
         25   -1    0    0    0    0  0.00000000000E+00  0.00000000000E+00  0.99999998245E-14  0.12509000000E+03  0.12509000000E+03 0.  0.
        -11    1    3    3    0    0  0.23180099270E+02 -0.35627937718E+02 -0.19108062156E+01  0.42547833422E+02  0.51100000000E-03 0. -1.
         23    2    1    0    0    0  0.15138932976E+02  0.11433487348E+02  0.22079339034E+02  0.95979707374E+02  0.91458707025E+02 0.  0.
         11    1    3    3    0    0 -0.80411662936E+01  0.47061425067E+02  0.23990145250E+02  0.53431873952E+02  0.51100000000E-03 0.  1.
         22    1    1    0    0    0 -0.15138932976E+02 -0.11433487348E+02 -0.22079339034E+02  0.29110292626E+02  0.00000000000E+00 0. -1.
</event>
<event>
 5    1  0.1043455E-009  0.9118800E+02  0.7561462E-02  0.1125453E+00
         25   -1    0    0    0    0  0.00000000000E+00  0.00000000000E+00  0.99999998245E-14  0.12509000000E+03  0.12509000000E+03 0.  0.
        -11    1    3    3    0    0  0.10116266339E+02  0.27020677801E+02 -0.82640584381E+00  0.28864144199E+02  0.51100000000E-03 0. -1.
         23    2    1    0    0    0  0.71828339192E+01 -0.29318534977E+02  0.19864835062E+02  0.88954404414E+02  0.81284099283E+02 0.  0.
         11    1    3    3    0    0 -0.29334324200E+01 -0.56339212778E+02  0.20691240906E+02  0.60090260215E+02  0.51100000000E-03 0.  1.
         22    1    1    0    0    0 -0.71828339192E+01  0.29318534977E+02 -0.19864835062E+02  0.36135595586E+02  0.00000000000E+00 0.  1.
</event>
<event>
 5    1  0.1043455E-009  0.9118800E+02  0.7561462E-02  0.1125453E+00
         25   -1    0    0    0    0  0.00000000000E+00  0.00000000000E+00  0.99999998245E-14  0.12509000000E+03  0.12509000000E+03 0.  0.
        -11    1    3    3    0    0 -0.65629176506E+01  0.13465198718E+01 -0.42071961431E+02  0.42602053269E+02  0.51100000000E-03 0. -1.
         23    2    1    0    0    0  0.26209424381E+02  0.52309171581E+01  0.27055820212E+01  0.98227077695E+02  0.94482496780E+02 0.  0.
         11    1    3    3    0    0  0.32772342031E+02  0.38843972862E+01  0.44777543452E+02  0.55625024426E+02  0.51100000000E-03 0.  1.
         22    1    1    0    0    0 -0.26209424381E+02 -0.52309171581E+01 -0.27055820212E+01  0.26862922305E+02  0.00000000000E+00 0.  1.
</event>
<event>
 5    1  0.1043455E-009  0.9118800E+02  0.7561462E-02  0.1125453E+00
         25   -1    0    0    0    0  0.00000000000E+00  0.00000000000E+00  0.99999998245E-14  0.12509000000E+03  0.12509000000E+03 0.  0.
        -11    1    3    3    0    0 -0.86346376094E+01  0.25797093967E+02 -0.29873360768E+02  0.40403770959E+02  0.51100000000E-03 0. -1.
         23    2    1    0    0    0  0.19801555634E+02 -0.18153441233E+02 -0.11260023866E+02  0.95962055143E+02  0.91434560510E+02 0.  0.
         11    1    3    3    0    0  0.28436193243E+02 -0.43950535201E+02  0.18613336902E+02  0.55558284184E+02  0.51100000000E-03 0.  1.
         22    1    1    0    0    0 -0.19801555634E+02  0.18153441233E+02  0.11260023866E+02  0.29127944857E+02  0.00000000000E+00 0.  1.
</event>
<event>
 5    1  0.1043455E-009  0.9118800E+02  0.7561462E-02  0.1125453E+00
         25   -1    0    0    0    0  0.00000000000E+00  0.00000000000E+00  0.99999998245E-14  0.12509000000E+03  0.12509000000E+03 0.  0.
        -11    1    3    3    0    0 -0.20955629866E+02  0.15635923940E+01 -0.51214532553E+02  0.55358030936E+02  0.51100000000E-03 0.  1.
         23    2    1    0    0    0  0.10182062392E+02 -0.68620660054E+01 -0.26122892430E+02  0.96225352880E+02  0.91794066713E+02 0.  0.
         11    1    3    3    0    0  0.31137692258E+02 -0.84256583994E+01  0.25091640122E+02  0.40867321944E+02  0.51100000000E-03 0. -1.
         22    1    1    0    0    0 -0.10182062392E+02  0.68620660054E+01  0.26122892430E+02  0.28864647120E+02  0.00000000000E+00 0.  1.
</event>
<event>
 5    1  0.1043455E-009  0.9118800E+02  0.7561462E-02  0.1125453E+00
         25   -1    0    0    0    0  0.00000000000E+00  0.00000000000E+00  0.99999998245E-14  0.12509000000E+03  0.12509000000E+03 0.  0.
        -11    1    3    3    0    0 -0.13103180498E+02 -0.31637031637E+02 -0.41193030857E+02  0.53567349210E+02  0.51100000000E-03 0.  1.
         23    2    1    0    0    0 -0.77963645009E+01 -0.32557504492E+02 -0.37421690816E+01  0.91403530497E+02  0.84969566079E+02 0.  0.
         11    1    3    3    0    0  0.53068159973E+01 -0.92047285544E+00  0.37450861776E+02  0.37836181286E+02  0.51100000000E-03 0. -1.
         22    1    1    0    0    0  0.77963645009E+01  0.32557504492E+02  0.37421690816E+01  0.33686469503E+02  0.00000000000E+00 0.  1.
</event>
<event>
 5    1  0.1043455E-009  0.9118800E+02  0.7561462E-02  0.1125453E+00
         25   -1    0    0    0    0  0.00000000000E+00  0.00000000000E+00  0.99999998245E-14  0.12509000000E+03  0.12509000000E+03 0.  0.
        -11    1    3    3    0    0  0.35034683042E+02 -0.23356483449E+02  0.39911446985E+02  0.58016186842E+02  0.51100000000E-03 0.  1.
         23    2    1    0    0    0  0.16402079651E+02 -0.24500821388E+02  0.87614311336E+01  0.94331567968E+02  0.89176025781E+02 0.  0.
         11    1    3    3    0    0 -0.18632603391E+02 -0.11443379388E+01 -0.31150015852E+02  0.36315381125E+02  0.51100000000E-03 0. -1.
         22    1    1    0    0    0 -0.16402079651E+02  0.24500821388E+02 -0.87614311336E+01  0.30758432032E+02  0.00000000000E+00 0.  1.
</event>
<event>
 5    1  0.1043455E-009  0.9118800E+02  0.7561462E-02  0.1125453E+00
         25   -1    0    0    0    0  0.00000000000E+00  0.00000000000E+00  0.99999998245E-14  0.12509000000E+03  0.12509000000E+03 0.  0.
        -11    1    3    3    0    0  0.14354868594E+02  0.37478657609E+02  0.27673038462E+00  0.40134631037E+02  0.51100000000E-03 0.  1.
         23    2    1    0    0    0 -0.16453908276E+02 -0.18043961748E+01  0.24419454378E+02  0.95589208566E+02  0.90923044929E+02 0.  0.
         11    1    3    3    0    0 -0.30808776870E+02 -0.39283053784E+02  0.24142723993E+02  0.55454577529E+02  0.51100000000E-03 0. -1.
         22    1    1    0    0    0  0.16453908276E+02  0.18043961748E+01 -0.24419454378E+02  0.29500791434E+02  0.00000000000E+00 0. -1.
</event>
<event>
 5    1  0.1043455E-009  0.9118800E+02  0.7561462E-02  0.1125453E+00
         25   -1    0    0    0    0  0.00000000000E+00  0.00000000000E+00  0.99999998245E-14  0.12509000000E+03  0.12509000000E+03 0.  0.
        -11    1    3    3    0    0  0.16660205154E+02  0.92000934292E+01 -0.37545975848E+02  0.42093995505E+02  0.51100000000E-03 0.  1.
         23    2    1    0    0    0  0.15759368969E+02  0.13081601450E+02  0.18024338505E+02  0.97806987239E+02  0.93924671771E+02 0.  0.
         11    1    3    3    0    0 -0.90083618480E+00  0.38815080211E+01  0.55570314353E+02  0.55712991734E+02  0.51100000000E-03 0. -1.
         22    1    1    0    0    0 -0.15759368969E+02 -0.13081601450E+02 -0.18024338505E+02  0.27283012761E+02  0.00000000000E+00 0. -1.
</event>
<event>
 5    1  0.1043455E-009  0.9118800E+02  0.7561462E-02  0.1125453E+00
         25   -1    0    0    0    0  0.00000000000E+00  0.00000000000E+00  0.99999998245E-14  0.12509000000E+03  0.12509000000E+03 0.  0.
        -11    1    3    3    0    0  0.61484371853E+01  0.46491342764E+01  0.52766218469E+02  0.53326274398E+02  0.51100000000E-03 0.  1.
         23    2    1    0    0    0 -0.82973158665E+01  0.21387489480E+02  0.13275699975E+02  0.98585012419E+02  0.94955201579E+02 0.  0.
         11    1    3    3    0    0 -0.14445753052E+02  0.16738355203E+02 -0.39490518494E+02  0.45258738021E+02  0.51100000000E-03 0. -1.
         22    1    1    0    0    0  0.82973158665E+01 -0.21387489480E+02 -0.13275699975E+02  0.26504987581E+02  0.00000000000E+00 0.  1.
</event>
<event>
 5    1  0.1043455E-009  0.9118800E+02  0.7561462E-02  0.1125453E+00
         25   -1    0    0    0    0  0.00000000000E+00  0.00000000000E+00  0.99999998245E-14  0.12509000000E+03  0.12509000000E+03 0.  0.
        -11    1    3    3    0    0  0.37578665737E+02  0.31206007071E+02 -0.38114639626E+02  0.61957217093E+02  0.51100000000E-03 0.  1.
         23    2    1    0    0    0  0.32021260571E+02  0.26513463831E+02 -0.26096992061E+02  0.76004585797E+02  0.58028606520E+02 0.  0.
         11    1    3    3    0    0 -0.55574051668E+01 -0.46925432400E+01  0.12017647564E+02  0.14047368703E+02  0.51100000000E-03 0. -1.
         22    1    1    0    0    0 -0.32021260571E+02 -0.26513463831E+02  0.26096992061E+02  0.49085414203E+02  0.00000000000E+00 0.  1.
</event>
<event>
 5    1  0.1043455E-009  0.9118800E+02  0.7561462E-02  0.1125453E+00
         25   -1    0    0    0    0  0.00000000000E+00  0.00000000000E+00  0.99999998245E-14  0.12509000000E+03  0.12509000000E+03 0.  0.
        -11    1    3    3    0    0 -0.10696806538E+02 -0.93295076992E+01  0.47824761325E+02  0.49886563121E+02  0.51100000000E-03 0. -1.
         23    2    1    0    0    0  0.20808975924E+02 -0.32087158181E+01  0.34574649342E+02  0.84608946242E+02  0.74296420310E+02 0.  0.
         11    1    3    3    0    0  0.31505782462E+02  0.61207918811E+01 -0.13250111983E+02  0.34722383121E+02  0.51100000000E-03 0.  1.
         22    1    1    0    0    0 -0.20808975924E+02  0.32087158181E+01 -0.34574649342E+02  0.40481053758E+02  0.00000000000E+00 0.  1.
</event>
<event>
 5    1  0.1043455E-009  0.9118800E+02  0.7561462E-02  0.1125453E+00
         25   -1    0    0    0    0  0.00000000000E+00  0.00000000000E+00  0.99999998245E-14  0.12509000000E+03  0.12509000000E+03 0.  0.
        -11    1    3    3    0    0 -0.27792057129E+02  0.14789477407E+01  0.20647414096E+02  0.34654024803E+02  0.51100000000E-03 0. -1.
         23    2    1    0    0    0  0.28621111852E+02 -0.75646606173E+01  0.14525452683E+02  0.92114540798E+02  0.86009928014E+02 0.  0.
         11    1    3    3    0    0  0.56413168982E+02 -0.90436083580E+01 -0.61219614132E+01  0.57460515996E+02  0.51100000000E-03 0.  1.
         22    1    1    0    0    0 -0.28621111852E+02  0.75646606173E+01 -0.14525452683E+02  0.32975459202E+02  0.00000000000E+00 0.  1.
</event>
<event>
 5    1  0.1043455E-009  0.9118800E+02  0.7561462E-02  0.1125453E+00
         25   -1    0    0    0    0  0.00000000000E+00  0.00000000000E+00  0.99999998245E-14  0.12509000000E+03  0.12509000000E+03 0.  0.
        -11    1    3    3    0    0  0.26942476558E+02  0.17296119586E+02 -0.15742876391E+02  0.35677597357E+02  0.51100000000E-03 0. -1.
         23    2    1    0    0    0 -0.51590547644E+01 -0.27578986106E+02  0.82519124775E+01  0.95844310057E+02  0.91273333401E+02 0.  0.
         11    1    3    3    0    0 -0.32101531322E+02 -0.44875105692E+02  0.23994788869E+02  0.60166712701E+02  0.51100000000E-03 0.  1.
         22    1    1    0    0    0  0.51590547644E+01  0.27578986106E+02 -0.82519124775E+01  0.29245689943E+02  0.00000000000E+00 0.  1.
</event>
<event>
 5    1  0.1043455E-009  0.9118800E+02  0.7561462E-02  0.1125453E+00
         25   -1    0    0    0    0  0.00000000000E+00  0.00000000000E+00  0.99999998245E-14  0.12509000000E+03  0.12509000000E+03 0.  0.
        -11    1    3    3    0    0 -0.10039471467E+02 -0.22173387977E+02 -0.40064198262E+01  0.24667823613E+02  0.51100000000E-03 0. -1.
         23    2    1    0    0    0 -0.32892657888E+02  0.27730582378E+02 -0.12683039440E+02  0.80237222701E+02  0.66529995305E+02 0.  0.
         11    1    3    3    0    0 -0.22853186421E+02  0.49903970355E+02 -0.86766196142E+01  0.55569399088E+02  0.51100000000E-03 0.  1.
         22    1    1    0    0    0  0.32892657888E+02 -0.27730582378E+02  0.12683039440E+02  0.44852777299E+02  0.00000000000E+00 0.  1.
</event>
<event>
 5    1  0.1043455E-009  0.9118800E+02  0.7561462E-02  0.1125453E+00
         25   -1    0    0    0    0  0.00000000000E+00  0.00000000000E+00  0.99999998245E-14  0.12509000000E+03  0.12509000000E+03 0.  0.
        -11    1    3    3    0    0  0.20063865673E+01  0.19144802149E+02 -0.49733881733E+02  0.53329241780E+02  0.51100000000E-03 0.  1.
         23    2    1    0    0    0  0.90478686741E+01  0.26035412599E+02 -0.77431714744E+01  0.96460236794E+02  0.92113592597E+02 0.  0.
         11    1    3    3    0    0  0.70414821068E+01  0.68906104502E+01  0.41990710258E+02  0.43130995014E+02  0.51100000000E-03 0. -1.
         22    1    1    0    0    0 -0.90478686741E+01 -0.26035412599E+02  0.77431714744E+01  0.28629763206E+02  0.00000000000E+00 0.  1.
</event>
<event>
 5    1  0.1043455E-009  0.9118800E+02  0.7561462E-02  0.1125453E+00
         25   -1    0    0    0    0  0.00000000000E+00  0.00000000000E+00  0.99999998245E-14  0.12509000000E+03  0.12509000000E+03 0.  0.
        -11    1    3    3    0    0 -0.47962695472E+02  0.21083966609E+02 -0.52521022678E+01  0.52654898950E+02  0.51100000000E-03 0. -1.
         23    2    1    0    0    0 -0.84148702064E+01  0.18802886535E+02 -0.21357060633E+02  0.95417072582E+02  0.90685914665E+02 0.  0.
         11    1    3    3    0    0  0.39547825266E+02 -0.22810800731E+01 -0.16104958365E+02  0.42762173632E+02  0.51100000000E-03 0.  1.
         22    1    1    0    0    0  0.84148702064E+01 -0.18802886535E+02  0.21357060633E+02  0.29672927418E+02  0.00000000000E+00 0.  1.
</event>
<event>
 5    1  0.1043455E-009  0.9118800E+02  0.7561462E-02  0.1125453E+00
         25   -1    0    0    0    0  0.00000000000E+00  0.00000000000E+00  0.99999998245E-14  0.12509000000E+03  0.12509000000E+03 0.  0.
        -11    1    3    3    0    0 -0.17984921137E+02  0.25074605426E+02  0.10781887736E+02  0.32687036100E+02  0.51100000000E-03 0. -1.
         23    2    1    0    0    0  0.13652241581E+02 -0.22824062736E+02 -0.13793706777E+02  0.95130228863E+02  0.90289382304E+02 0.  0.
         11    1    3    3    0    0  0.31637162718E+02 -0.47898668162E+02 -0.24575594513E+02  0.62443192763E+02  0.51100000000E-03 0.  1.
         22    1    1    0    0    0 -0.13652241581E+02  0.22824062736E+02  0.13793706777E+02  0.29959771137E+02  0.00000000000E+00 0.  1.
</event>
<event>
 5    1  0.1043455E-009  0.9118800E+02  0.7561462E-02  0.1125453E+00
         25   -1    0    0    0    0  0.00000000000E+00  0.00000000000E+00  0.99999998245E-14  0.12509000000E+03  0.12509000000E+03 0.  0.
        -11    1    3    3    0    0  0.53680920276E+01 -0.50936549729E+02  0.19581924810E+02  0.54834298480E+02  0.51100000000E-03 0.  1.
         23    2    1    0    0    0 -0.85100301683E+01 -0.25085601826E+02 -0.10258588215E+02  0.96683193340E+02  0.92415870985E+02 0.  0.
         11    1    3    3    0    0 -0.13878122196E+02  0.25850947903E+02 -0.29840513025E+02  0.41848894860E+02  0.51100000000E-03 0. -1.
         22    1    1    0    0    0  0.85100301683E+01  0.25085601826E+02  0.10258588215E+02  0.28406806660E+02  0.00000000000E+00 0.  1.
</event>
<event>
 5    1  0.1043455E-009  0.9118800E+02  0.7561462E-02  0.1125453E+00
         25   -1    0    0    0    0  0.00000000000E+00  0.00000000000E+00  0.99999998245E-14  0.12509000000E+03  0.12509000000E+03 0.  0.
        -11    1    3    3    0    0  0.58551099672E+02 -0.29685785507E+01  0.17118509341E+02  0.61074438956E+02  0.51100000000E-03 0.  1.
         23    2    1    0    0    0  0.25547628236E+02 -0.10775015749E+02  0.88928831458E+01  0.95971867444E+02  0.91447983560E+02 0.  0.
         11    1    3    3    0    0 -0.33003471436E+02 -0.78064371987E+01 -0.82256261956E+01  0.34897428488E+02  0.51100000000E-03 0. -1.
         22    1    1    0    0    0 -0.25547628236E+02  0.10775015749E+02 -0.88928831458E+01  0.29118132556E+02  0.00000000000E+00 0.  1.
</event>
<event>
 5    1  0.1043455E-009  0.9118800E+02  0.7561462E-02  0.1125453E+00
         25   -1    0    0    0    0  0.00000000000E+00  0.00000000000E+00  0.99999998245E-14  0.12509000000E+03  0.12509000000E+03 0.  0.
        -11    1    3    3    0    0 -0.33198731220E+02 -0.16254625797E+02  0.27332054509E+02  0.45971837231E+02  0.51100000000E-03 0. -1.
         23    2    1    0    0    0  0.17427437801E+02  0.57053488493E+01  0.21599090574E+01  0.10662566137E+03  0.10501476021E+03 0.  0.
         11    1    3    3    0    0  0.50626169021E+02  0.21959974646E+02 -0.25172145452E+02  0.60653824142E+02  0.51100000000E-03 0.  1.
         22    1    1    0    0    0 -0.17427437801E+02 -0.57053488493E+01 -0.21599090574E+01  0.18464338627E+02  0.00000000000E+00 0.  1.
</event>
<event>
 5    1  0.1043455E-009  0.9118800E+02  0.7561462E-02  0.1125453E+00
         25   -1    0    0    0    0  0.00000000000E+00  0.00000000000E+00  0.99999998245E-14  0.12509000000E+03  0.12509000000E+03 0.  0.
        -11    1    3    3    0    0 -0.33006961640E+02 -0.41690204736E+02  0.89860628419E+01  0.53928489811E+02  0.51100000000E-03 0. -1.
         23    2    1    0    0    0 -0.19145847275E+02 -0.21313617507E+02 -0.18609491043E+02  0.90926468040E+02  0.84264320291E+02 0.  0.
         11    1    3    3    0    0  0.13861114365E+02  0.20376587229E+02 -0.27595553885E+02  0.36997978229E+02  0.51100000000E-03 0.  1.
         22    1    1    0    0    0  0.19145847275E+02  0.21313617507E+02  0.18609491043E+02  0.34163531960E+02  0.00000000000E+00 0. -1.
</event>
<event>
 5    1  0.1043455E-009  0.9118800E+02  0.7561462E-02  0.1125453E+00
         25   -1    0    0    0    0  0.00000000000E+00  0.00000000000E+00  0.99999998245E-14  0.12509000000E+03  0.12509000000E+03 0.  0.
        -11    1    3    3    0    0 -0.33486036519E+02 -0.62761710259E+01  0.16539918657E+02  0.37871808433E+02  0.51100000000E-03 0.  1.
         23    2    1    0    0    0  0.17801522655E+01 -0.12686972910E+02 -0.27557885148E+02  0.94699783523E+02  0.89691046052E+02 0.  0.
         11    1    3    3    0    0  0.35266188785E+02 -0.64108018840E+01 -0.44097803805E+02  0.56827975090E+02  0.51100000000E-03 0. -1.
         22    1    1    0    0    0 -0.17801522655E+01  0.12686972910E+02  0.27557885148E+02  0.30390216477E+02  0.00000000000E+00 0. -1.
</event>
<event>
 5    1  0.1043455E-009  0.9118800E+02  0.7561462E-02  0.1125453E+00
         25   -1    0    0    0    0  0.00000000000E+00  0.00000000000E+00  0.99999998245E-14  0.12509000000E+03  0.12509000000E+03 0.  0.
        -11    1    3    3    0    0  0.11055666911E+02 -0.47667437025E+01  0.54181273123E+02  0.55502792487E+02  0.51100000000E-03 0.  1.
         23    2    1    0    0    0 -0.13253850886E+02  0.86064697471E+01  0.17239543964E+02  0.10170329949E+03  0.98977893318E+02 0.  0.
         11    1    3    3    0    0 -0.24309517798E+02  0.13373213450E+02 -0.36941729159E+02  0.46200507000E+02  0.51100000000E-03 0. -1.
         22    1    1    0    0    0  0.13253850886E+02 -0.86064697471E+01 -0.17239543964E+02  0.23386700513E+02  0.00000000000E+00 0.  1.
</event>
<event>
 5    1  0.1043455E-009  0.9118800E+02  0.7561462E-02  0.1125453E+00
         25   -1    0    0    0    0  0.00000000000E+00  0.00000000000E+00  0.99999998245E-14  0.12509000000E+03  0.12509000000E+03 0.  0.
        -11    1    3    3    0    0  0.49676701804E+02 -0.23440718844E+01 -0.21257240367E+02  0.54084560120E+02  0.51100000000E-03 0. -1.
         23    2    1    0    0    0  0.67937792226E+01  0.45587505184E+01 -0.26052156754E+02  0.97783361358E+02  0.93893201269E+02 0.  0.
         11    1    3    3    0    0 -0.42882922581E+02  0.69028224027E+01 -0.47949163861E+01  0.43698801238E+02  0.51100000000E-03 0.  1.
         22    1    1    0    0    0 -0.67937792226E+01 -0.45587505184E+01  0.26052156754E+02  0.27306638642E+02  0.00000000000E+00 0. -1.
</event>
<event>
 5    1  0.1043455E-009  0.9118800E+02  0.7561462E-02  0.1125453E+00
         25   -1    0    0    0    0  0.00000000000E+00  0.00000000000E+00  0.99999998245E-14  0.12509000000E+03  0.12509000000E+03 0.  0.
        -11    1    3    3    0    0 -0.54863774159E+02  0.25056194310E+01  0.20118916231E+02  0.58490021664E+02  0.51100000000E-03 0.  1.
         23    2    1    0    0    0 -0.24987992337E+02  0.57629040174E+00 -0.72628774204E+01  0.99061529817E+02  0.95580884227E+02 0.  0.
         11    1    3    3    0    0  0.29875781822E+02 -0.19293290292E+01 -0.27381793651E+02  0.40571508153E+02  0.51100000000E-03 0. -1.
         22    1    1    0    0    0  0.24987992337E+02 -0.57629040174E+00  0.72628774204E+01  0.26028470183E+02  0.00000000000E+00 0.  1.
</event>
<event>
 5    1  0.1043455E-009  0.9118800E+02  0.7561462E-02  0.1125453E+00
         25   -1    0    0    0    0  0.00000000000E+00  0.00000000000E+00  0.99999998245E-14  0.12509000000E+03  0.12509000000E+03 0.  0.
        -11    1    3    3    0    0  0.25580995966E+02 -0.23357371741E+02  0.64286398080E+01  0.35231826227E+02  0.51100000000E-03 0. -1.
         23    2    1    0    0    0 -0.26351219634E+02  0.91553372826E+01 -0.22020501689E+01  0.97106862186E+02  0.92987561973E+02 0.  0.
         11    1    3    3    0    0 -0.51932215600E+02  0.32512709023E+02 -0.86306899769E+01  0.61875035959E+02  0.51100000000E-03 0.  1.
         22    1    1    0    0    0  0.26351219634E+02 -0.91553372826E+01  0.22020501689E+01  0.27983137814E+02  0.00000000000E+00 0.  1.
</event>
<event>
 5    1  0.1043455E-009  0.9118800E+02  0.7561462E-02  0.1125453E+00
         25   -1    0    0    0    0  0.00000000000E+00  0.00000000000E+00  0.99999998245E-14  0.12509000000E+03  0.12509000000E+03 0.  0.
        -11    1    3    3    0    0  0.37662960656E+02 -0.28543089861E+02 -0.13023397971E+02  0.49018521797E+02  0.51100000000E-03 0.  1.
         23    2    1    0    0    0 -0.62708767536E+01 -0.14449049300E+02 -0.23941369173E+02  0.96431875868E+02  0.92075070484E+02 0.  0.
         11    1    3    3    0    0 -0.43933837409E+02  0.14094040561E+02 -0.10917971202E+02  0.47413354071E+02  0.51100000000E-03 0. -1.
         22    1    1    0    0    0  0.62708767536E+01  0.14449049300E+02  0.23941369173E+02  0.28658124132E+02  0.00000000000E+00 0.  1.
</event>
<event>
 5    1  0.1043455E-009  0.9118800E+02  0.7561462E-02  0.1125453E+00
         25   -1    0    0    0    0  0.00000000000E+00  0.00000000000E+00  0.99999998245E-14  0.12509000000E+03  0.12509000000E+03 0.  0.
        -11    1    3    3    0    0  0.18881978900E+02 -0.51119933234E+02 -0.21803795013E+02  0.58695674273E+02  0.51100000000E-03 0.  1.
         23    2    1    0    0    0  0.17905757182E+02 -0.11401206300E+02 -0.15224391034E+02  0.98967486191E+02  0.95457726744E+02 0.  0.
         11    1    3    3    0    0 -0.97622171795E+00  0.39718726935E+02  0.65794039788E+01  0.40271811918E+02  0.51100000000E-03 0. -1.
         22    1    1    0    0    0 -0.17905757182E+02  0.11401206300E+02  0.15224391034E+02  0.26122513809E+02  0.00000000000E+00 0.  1.
</event>
<event>
 5    1  0.1043455E-009  0.9118800E+02  0.7561462E-02  0.1125453E+00
         25   -1    0    0    0    0  0.00000000000E+00  0.00000000000E+00  0.99999998245E-14  0.12509000000E+03  0.12509000000E+03 0.  0.
        -11    1    3    3    0    0  0.38221529213E+02 -0.14262263064E+02 -0.14790691482E+02  0.43394262269E+02  0.51100000000E-03 0.  1.
         23    2    1    0    0    0 -0.12905232626E+02  0.15380406304E+02 -0.99268567859E+01  0.10269258022E+03  0.10022036529E+03 0.  0.
         11    1    3    3    0    0 -0.51126761840E+02  0.29642669368E+02  0.48638346957E+01  0.59298317950E+02  0.51100000000E-03 0. -1.
         22    1    1    0    0    0  0.12905232626E+02 -0.15380406304E+02  0.99268567859E+01  0.22397419781E+02  0.00000000000E+00 0. -1.
</event>
<event>
 5    1  0.1043455E-009  0.9118800E+02  0.7561462E-02  0.1125453E+00
         25   -1    0    0    0    0  0.00000000000E+00  0.00000000000E+00  0.99999998245E-14  0.12509000000E+03  0.12509000000E+03 0.  0.
        -11    1    3    3    0    0 -0.37848601804E+02  0.19239043319E+01  0.10845766463E+02  0.39418887818E+02  0.51100000000E-03 0.  1.
         23    2    1    0    0    0  0.17536011798E+01 -0.83812842096E+01 -0.27980745110E+02  0.95828367458E+02  0.91251481471E+02 0.  0.
         11    1    3    3    0    0  0.39602202983E+02 -0.10305188542E+02 -0.38826511573E+02  0.56409479640E+02  0.51100000000E-03 0. -1.
         22    1    1    0    0    0 -0.17536011798E+01  0.83812842096E+01  0.27980745110E+02  0.29261632542E+02  0.00000000000E+00 0. -1.
</event>
<event>
 5    1  0.1043455E-009  0.9118800E+02  0.7561462E-02  0.1125453E+00
         25   -1    0    0    0    0  0.00000000000E+00  0.00000000000E+00  0.99999998245E-14  0.12509000000E+03  0.12509000000E+03 0.  0.
        -11    1    3    3    0    0 -0.47969241723E+02  0.19354391064E+02  0.27534868945E+02  0.58598716820E+02  0.51100000000E-03 0.  1.
         23    2    1    0    0    0 -0.22587782454E+02 -0.67336591106E+01  0.15262524414E+02  0.97009851626E+02  0.92856968397E+02 0.  0.
         11    1    3    3    0    0  0.25381459268E+02 -0.26088050175E+02 -0.12272344531E+02  0.38411134806E+02  0.51100000000E-03 0. -1.
         22    1    1    0    0    0  0.22587782454E+02  0.67336591106E+01 -0.15262524414E+02  0.28080148374E+02  0.00000000000E+00 0.  1.
</event>
<event>
 5    1  0.1043455E-009  0.9118800E+02  0.7561462E-02  0.1125453E+00
         25   -1    0    0    0    0  0.00000000000E+00  0.00000000000E+00  0.99999998245E-14  0.12509000000E+03  0.12509000000E+03 0.  0.
        -11    1    3    3    0    0 -0.13233461973E+02  0.36721494747E+02  0.47447581418E+02  0.61439935506E+02  0.51100000000E-03 0. -1.
         23    2    1    0    0    0 -0.14129358305E+02  0.15516991752E+02  0.20372856054E+02  0.95841597258E+02  0.91269615437E+02 0.  0.
         11    1    3    3    0    0 -0.89589633213E+00 -0.21204502995E+02 -0.27074725364E+02  0.34401661752E+02  0.51100000000E-03 0.  1.
         22    1    1    0    0    0  0.14129358305E+02 -0.15516991752E+02 -0.20372856054E+02  0.29248402742E+02  0.00000000000E+00 0. -1.
</event>
<event>
 5    1  0.1043455E-009  0.9118800E+02  0.7561462E-02  0.1125453E+00
         25   -1    0    0    0    0  0.00000000000E+00  0.00000000000E+00  0.99999998245E-14  0.12509000000E+03  0.12509000000E+03 0.  0.
        -11    1    3    3    0    0  0.93724783598E+01 -0.17441044480E+02 -0.25865073988E+02  0.32573538890E+02  0.51100000000E-03 0.  1.
         23    2    1    0    0    0 -0.10881066902E+02  0.11362457512E+02  0.25666117454E+02  0.94985969658E+02  0.90089298971E+02 0.  0.
         11    1    3    3    0    0 -0.20253545262E+02  0.28803501993E+02  0.51531191442E+02  0.62412430768E+02  0.51100000000E-03 0. -1.
         22    1    1    0    0    0  0.10881066902E+02 -0.11362457512E+02 -0.25666117454E+02  0.30104030342E+02  0.00000000000E+00 0. -1.
</event>
<event>
 5    1  0.1043455E-009  0.9118800E+02  0.7561462E-02  0.1125453E+00
         25   -1    0    0    0    0  0.00000000000E+00  0.00000000000E+00  0.99999998245E-14  0.12509000000E+03  0.12509000000E+03 0.  0.
        -11    1    3    3    0    0 -0.54095895021E+02  0.15576045444E+02  0.74776198895E+00  0.56298651831E+02  0.51100000000E-03 0.  1.
         23    2    1    0    0    0 -0.12752140671E+02  0.12473215032E+02  0.16635563605E+02  0.10069860477E+03  0.97699891713E+02 0.  0.
         11    1    3    3    0    0  0.41343754350E+02 -0.31028304120E+01  0.15887801616E+02  0.44399952937E+02  0.51100000000E-03 0. -1.
         22    1    1    0    0    0  0.12752140671E+02 -0.12473215032E+02 -0.16635563605E+02  0.24391395232E+02  0.00000000000E+00 0.  1.
</event>
<event>
 5    1  0.1043455E-009  0.9118800E+02  0.7561462E-02  0.1125453E+00
         25   -1    0    0    0    0  0.00000000000E+00  0.00000000000E+00  0.99999998245E-14  0.12509000000E+03  0.12509000000E+03 0.  0.
        -11    1    3    3    0    0 -0.29222886020E+02 -0.30136241740E+01  0.17796308368E+02  0.34347745046E+02  0.51100000000E-03 0. -1.
         23    2    1    0    0    0  0.18289646018E+02  0.41126330054E+01 -0.21607600735E+02  0.96483823897E+02  0.92145618249E+02 0.  0.
         11    1    3    3    0    0  0.47512532038E+02  0.71262571793E+01 -0.39403909103E+02  0.62136078851E+02  0.51100000000E-03 0.  1.
         22    1    1    0    0    0 -0.18289646018E+02 -0.41126330054E+01  0.21607600735E+02  0.28606176103E+02  0.00000000000E+00 0.  1.
</event>
<event>
 5    1  0.1043455E-009  0.9118800E+02  0.7561462E-02  0.1125453E+00
         25   -1    0    0    0    0  0.00000000000E+00  0.00000000000E+00  0.99999998245E-14  0.12509000000E+03  0.12509000000E+03 0.  0.
        -11    1    3    3    0    0  0.59917256063E+02  0.10061077796E+02 -0.11876813652E+02  0.61906070488E+02  0.51100000000E-03 0.  1.
         23    2    1    0    0    0  0.28254448126E+02  0.93244943327E+01 -0.10255139459E+02  0.93618935214E+02  0.88170727068E+02 0.  0.
         11    1    3    3    0    0 -0.31662807937E+02 -0.73658346354E+00  0.16216741936E+01  0.31712864725E+02  0.51100000000E-03 0. -1.
         22    1    1    0    0    0 -0.28254448126E+02 -0.93244943327E+01  0.10255139459E+02  0.31471064786E+02  0.00000000000E+00 0.  1.
</event>
<event>
 5    1  0.1043455E-009  0.9118800E+02  0.7561462E-02  0.1125453E+00
         25   -1    0    0    0    0  0.00000000000E+00  0.00000000000E+00  0.99999998245E-14  0.12509000000E+03  0.12509000000E+03 0.  0.
        -11    1    3    3    0    0 -0.21727606989E+02 -0.42880933138E+02  0.25113336246E+02  0.54235993491E+02  0.51100000000E-03 0. -1.
         23    2    1    0    0    0 -0.17306492838E+02 -0.73514106510E+00  0.22501291508E+02  0.96693464185E+02  0.92429772097E+02 0.  0.
         11    1    3    3    0    0  0.44211141513E+01  0.42145792073E+02 -0.26120447376E+01  0.42457470694E+02  0.51100000000E-03 0.  1.
         22    1    1    0    0    0  0.17306492838E+02  0.73514106510E+00 -0.22501291508E+02  0.28396535815E+02  0.00000000000E+00 0. -1.
</event>
<event>
 5    1  0.1043455E-009  0.9118800E+02  0.7561462E-02  0.1125453E+00
         25   -1    0    0    0    0  0.00000000000E+00  0.00000000000E+00  0.99999998245E-14  0.12509000000E+03  0.12509000000E+03 0.  0.
        -11    1    3    3    0    0  0.38274947317E+02 -0.12159408675E+02  0.52573718971E+01  0.40502626717E+02  0.51100000000E-03 0. -1.
         23    2    1    0    0    0  0.16665323876E+01  0.13341157341E+02 -0.26573913779E+02  0.95308517449E+02  0.90536052461E+02 0.  0.
         11    1    3    3    0    0 -0.36608414930E+02  0.25500566016E+02 -0.31831285676E+02  0.54805890732E+02  0.51100000000E-03 0.  1.
         22    1    1    0    0    0 -0.16665323876E+01 -0.13341157341E+02  0.26573913779E+02  0.29781482551E+02  0.00000000000E+00 0.  1.
</event>
<event>
 5    1  0.1043455E-009  0.9118800E+02  0.7561462E-02  0.1125453E+00
         25   -1    0    0    0    0  0.00000000000E+00  0.00000000000E+00  0.99999998245E-14  0.12509000000E+03  0.12509000000E+03 0.  0.
        -11    1    3    3    0    0  0.22038352065E+02 -0.45805222024E+02  0.26126360627E+02  0.57152375683E+02  0.51100000000E-03 0.  1.
         23    2    1    0    0    0  0.21069614302E+02 -0.22139238404E+02 -0.26380440568E+01  0.94413725774E+02  0.89291196734E+02 0.  0.
         11    1    3    3    0    0 -0.96873776299E+00  0.23665983620E+02 -0.28764404683E+02  0.37261350091E+02  0.51100000000E-03 0. -1.
         22    1    1    0    0    0 -0.21069614302E+02  0.22139238404E+02  0.26380440568E+01  0.30676274226E+02  0.00000000000E+00 0.  1.
</event>
<event>
 5    1  0.1043455E-009  0.9118800E+02  0.7561462E-02  0.1125453E+00
         25   -1    0    0    0    0  0.00000000000E+00  0.00000000000E+00  0.99999998245E-14  0.12509000000E+03  0.12509000000E+03 0.  0.
        -11    1    3    3    0    0 -0.30840039627E+02  0.72502473893E+01  0.30053101883E+02  0.43667643221E+02  0.51100000000E-03 0.  1.
         23    2    1    0    0    0 -0.11270673436E+02 -0.27152765238E+02 -0.34056230900E+01  0.95494408970E+02  0.90792527975E+02 0.  0.
         11    1    3    3    0    0  0.19569366191E+02 -0.34403012627E+02 -0.33458724973E+02  0.51826765749E+02  0.51100000000E-03 0. -1.
         22    1    1    0    0    0  0.11270673436E+02  0.27152765238E+02  0.34056230900E+01  0.29595591030E+02  0.00000000000E+00 0. -1.
</event>
<event>
 5    1  0.1043455E-009  0.9118800E+02  0.7561462E-02  0.1125453E+00
         25   -1    0    0    0    0  0.00000000000E+00  0.00000000000E+00  0.99999998245E-14  0.12509000000E+03  0.12509000000E+03 0.  0.
        -11    1    3    3    0    0  0.14593809423E+02  0.33362867265E+02 -0.73695709644E+01  0.37153341196E+02  0.51100000000E-03 0. -1.
         23    2    1    0    0    0  0.10024669366E+02 -0.21648646409E+02  0.15213368695E+02  0.96795045074E+02  0.92567144693E+02 0.  0.
         11    1    3    3    0    0 -0.45691400570E+01 -0.55011513674E+02  0.22582939659E+02  0.59641703878E+02  0.51100000000E-03 0.  1.
         22    1    1    0    0    0 -0.10024669366E+02  0.21648646409E+02 -0.15213368695E+02  0.28294954926E+02  0.00000000000E+00 0.  1.
</event>
<event>
 5    1  0.1043455E-009  0.9118800E+02  0.7561462E-02  0.1125453E+00
         25   -1    0    0    0    0  0.00000000000E+00  0.00000000000E+00  0.99999998245E-14  0.12509000000E+03  0.12509000000E+03 0.  0.
        -11    1    3    3    0    0  0.18180143892E+02  0.36275932280E+01  0.59582271138E+02  0.62399712330E+02  0.51100000000E-03 0. -1.
         23    2    1    0    0    0  0.42555755410E+01 -0.11249782263E+01  0.19560773386E+02  0.10504007844E+03  0.10310877132E+03 0.  0.
         11    1    3    3    0    0 -0.13924568351E+02 -0.47525714543E+01 -0.40021497753E+02  0.42640366108E+02  0.51100000000E-03 0.  1.
         22    1    1    0    0    0 -0.42555755410E+01  0.11249782263E+01 -0.19560773386E+02  0.20049921562E+02  0.00000000000E+00 0. -1.
</event>
<event>
 5    1  0.1043455E-009  0.9118800E+02  0.7561462E-02  0.1125453E+00
         25   -1    0    0    0    0  0.00000000000E+00  0.00000000000E+00  0.99999998245E-14  0.12509000000E+03  0.12509000000E+03 0.  0.
        -11    1    3    3    0    0  0.20110996862E+02 -0.30547676814E+02  0.10331572277E+02  0.38004659445E+02  0.51100000000E-03 0. -1.
         23    2    1    0    0    0 -0.28618365237E+02  0.62124866774E+00  0.34916970390E+01  0.96252719841E+02  0.91831352760E+02 0.  0.
         11    1    3    3    0    0 -0.48729362100E+02  0.31168925482E+02 -0.68398752384E+01  0.58248060396E+02  0.51100000000E-03 0.  1.
         22    1    1    0    0    0  0.28618365237E+02 -0.62124866774E+00 -0.34916970390E+01  0.28837280159E+02  0.00000000000E+00 0.  1.
</event>
<event>
 5    1  0.1043455E-009  0.9118800E+02  0.7561462E-02  0.1125453E+00
         25   -1    0    0    0    0  0.00000000000E+00  0.00000000000E+00  0.99999998245E-14  0.12509000000E+03  0.12509000000E+03 0.  0.
        -11    1    3    3    0    0 -0.14689117526E+02  0.45414095047E+02  0.26959283154E+02  0.54818000247E+02  0.51100000000E-03 0. -1.
         23    2    1    0    0    0 -0.24349731013E+02  0.72441267532E+01  0.12642247166E+02  0.96713721417E+02  0.92457183193E+02 0.  0.
         11    1    3    3    0    0 -0.96606134872E+01 -0.38169968294E+02 -0.14317035988E+02  0.41895721169E+02  0.51100000000E-03 0.  1.
         22    1    1    0    0    0  0.24349731013E+02 -0.72441267532E+01 -0.12642247166E+02  0.28376278583E+02  0.00000000000E+00 0.  1.
</event>
<event>
 5    1  0.1043455E-009  0.9118800E+02  0.7561462E-02  0.1125453E+00
         25   -1    0    0    0    0  0.00000000000E+00  0.00000000000E+00  0.99999998245E-14  0.12509000000E+03  0.12509000000E+03 0.  0.
        -11    1    3    3    0    0 -0.41568277069E+02 -0.15041762306E+02 -0.31495504743E+02  0.54278385118E+02  0.51100000000E-03 0. -1.
         23    2    1    0    0    0 -0.29414188229E+02 -0.51341425757E+01  0.57431105491E+01  0.94683796555E+02  0.89668746629E+02 0.  0.
         11    1    3    3    0    0  0.12154088840E+02  0.99076197300E+01  0.37238615292E+02  0.40405411437E+02  0.51100000000E-03 0.  1.
         22    1    1    0    0    0  0.29414188229E+02  0.51341425757E+01 -0.57431105491E+01  0.30406203445E+02  0.00000000000E+00 0. -1.
</event>
<event>
 5    1  0.1043455E-009  0.9118800E+02  0.7561462E-02  0.1125453E+00
         25   -1    0    0    0    0  0.00000000000E+00  0.00000000000E+00  0.99999998245E-14  0.12509000000E+03  0.12509000000E+03 0.  0.
        -11    1    3    3    0    0 -0.37107736508E+02 -0.27221876765E+02 -0.10308646682E+02  0.47162303591E+02  0.51100000000E-03 0. -1.
         23    2    1    0    0    0 -0.21427724637E+02 -0.30383494338E+00  0.23602535599E+02  0.93210235486E+02  0.87588975412E+02 0.  0.
         11    1    3    3    0    0  0.15680011871E+02  0.26918041822E+02  0.33911182281E+02  0.46047931894E+02  0.51100000000E-03 0.  1.
         22    1    1    0    0    0  0.21427724637E+02  0.30383494338E+00 -0.23602535599E+02  0.31879764514E+02  0.00000000000E+00 0.  1.
</event>
<event>
 5    1  0.1043455E-009  0.9118800E+02  0.7561462E-02  0.1125453E+00
         25   -1    0    0    0    0  0.00000000000E+00  0.00000000000E+00  0.99999998245E-14  0.12509000000E+03  0.12509000000E+03 0.  0.
        -11    1    3    3    0    0 -0.85107397884E+01 -0.23145599208E+02  0.40326614138E+02  0.47269305712E+02  0.51100000000E-03 0.  1.
         23    2    1    0    0    0 -0.30224556968E+02 -0.73153333654E+00  0.49317287773E+01  0.94456996007E+02  0.89351794391E+02 0.  0.
         11    1    3    3    0    0 -0.21713817180E+02  0.22414065871E+02 -0.35394885360E+02  0.47187690294E+02  0.51100000000E-03 0. -1.
         22    1    1    0    0    0  0.30224556968E+02  0.73153333654E+00 -0.49317287773E+01  0.30633003993E+02  0.00000000000E+00 0. -1.
</event>
<event>
 5    1  0.1043455E-009  0.9118800E+02  0.7561462E-02  0.1125453E+00
         25   -1    0    0    0    0  0.00000000000E+00  0.00000000000E+00  0.99999998245E-14  0.12509000000E+03  0.12509000000E+03 0.  0.
        -11    1    3    3    0    0  0.11619838196E+02 -0.34774928804E+02 -0.11215411337E+02  0.38341906118E+02  0.51100000000E-03 0. -1.
         23    2    1    0    0    0  0.19068602243E+02  0.14491374476E+02  0.17109329497E+02  0.95656334216E+02  0.91015348124E+02 0.  0.
         11    1    3    3    0    0  0.74487640466E+01  0.49266303279E+02  0.28324740834E+02  0.57314428098E+02  0.51100000000E-03 0.  1.
         22    1    1    0    0    0 -0.19068602243E+02 -0.14491374476E+02 -0.17109329497E+02  0.29433665784E+02  0.00000000000E+00 0.  1.
</event>
<event>
 5    1  0.1043455E-009  0.9118800E+02  0.7561462E-02  0.1125453E+00
         25   -1    0    0    0    0  0.00000000000E+00  0.00000000000E+00  0.99999998245E-14  0.12509000000E+03  0.12509000000E+03 0.  0.
        -11    1    3    3    0    0 -0.50529621419E+02 -0.97685255095E+01 -0.15539832091E+02  0.53760144281E+02  0.51100000000E-03 0.  1.
         23    2    1    0    0    0 -0.20659534331E+02  0.13953540677E+02 -0.21253758920E+02  0.92329659274E+02  0.86322222268E+02 0.  0.
         11    1    3    3    0    0  0.29870087088E+02  0.23722066186E+02 -0.57139268295E+01  0.38569514994E+02  0.51100000000E-03 0. -1.
         22    1    1    0    0    0  0.20659534331E+02 -0.13953540677E+02  0.21253758920E+02  0.32760340726E+02  0.00000000000E+00 0.  1.
</event>
<event>
 5    1  0.1043455E-009  0.9118800E+02  0.7561462E-02  0.1125453E+00
         25   -1    0    0    0    0  0.00000000000E+00  0.00000000000E+00  0.99999998245E-14  0.12509000000E+03  0.12509000000E+03 0.  0.
        -11    1    3    3    0    0  0.40334776098E+02 -0.16233791190E+02 -0.19158496996E+02  0.47512926101E+02  0.51100000000E-03 0. -1.
         23    2    1    0    0    0  0.24730804672E+02 -0.10195097676E+02  0.21041722667E+02  0.91056093243E+02  0.84456529100E+02 0.  0.
         11    1    3    3    0    0 -0.15603971426E+02  0.60386935131E+01  0.40200219662E+02  0.43543167142E+02  0.51100000000E-03 0.  1.
         22    1    1    0    0    0 -0.24730804672E+02  0.10195097676E+02 -0.21041722667E+02  0.34033906757E+02  0.00000000000E+00 0.  1.
</event>
<event>
 5    1  0.1043455E-009  0.9118800E+02  0.7561462E-02  0.1125453E+00
         25   -1    0    0    0    0  0.00000000000E+00  0.00000000000E+00  0.99999998245E-14  0.12509000000E+03  0.12509000000E+03 0.  0.
        -11    1    3    3    0    0  0.80550703510E+01  0.47808812793E+02 -0.37345525969E+02  0.61198488945E+02  0.51100000000E-03 0. -1.
         23    2    1    0    0    0 -0.42171302501E+00  0.26117743578E+02 -0.99921707622E+01  0.97122914918E+02  0.93009154141E+02 0.  0.
         11    1    3    3    0    0 -0.84767833760E+01 -0.21691069216E+02  0.27353355206E+02  0.35924425972E+02  0.51100000000E-03 0.  1.
         22    1    1    0    0    0  0.42171302501E+00 -0.26117743578E+02  0.99921707622E+01  0.27967085082E+02  0.00000000000E+00 0. -1.
</event>
<event>
 5    1  0.1043455E-009  0.9118800E+02  0.7561462E-02  0.1125453E+00
         25   -1    0    0    0    0  0.00000000000E+00  0.00000000000E+00  0.99999998245E-14  0.12509000000E+03  0.12509000000E+03 0.  0.
        -11    1    3    3    0    0 -0.12107065932E+02  0.44387772030E+02  0.12294925574E+02  0.47623739315E+02  0.51100000000E-03 0.  1.
         23    2    1    0    0    0  0.21025478779E+02  0.22189152711E+02 -0.95092509854E+01  0.93076641691E+02  0.87397975481E+02 0.  0.
         11    1    3    3    0    0  0.33132544711E+02 -0.22198619319E+02 -0.21804176559E+02  0.45452902376E+02  0.51100000000E-03 0. -1.
         22    1    1    0    0    0 -0.21025478779E+02 -0.22189152711E+02  0.95092509854E+01  0.32013358309E+02  0.00000000000E+00 0.  1.
</event>
<event>
 5    1  0.1043455E-009  0.9118800E+02  0.7561462E-02  0.1125453E+00
         25   -1    0    0    0    0  0.00000000000E+00  0.00000000000E+00  0.99999998245E-14  0.12509000000E+03  0.12509000000E+03 0.  0.
        -11    1    3    3    0    0  0.10109638994E+02 -0.13021647811E+00  0.59442916381E+02  0.60296617360E+02  0.51100000000E-03 0. -1.
         23    2    1    0    0    0 -0.35189875379E+01 -0.84133952610E+01  0.29369279418E+02  0.94337389271E+02  0.89184191131E+02 0.  0.
         11    1    3    3    0    0 -0.13628626532E+02 -0.82831787829E+01 -0.30073636962E+02  0.34040771911E+02  0.51100000000E-03 0.  1.
         22    1    1    0    0    0  0.35189875379E+01  0.84133952610E+01 -0.29369279418E+02  0.30752610729E+02  0.00000000000E+00 0. -1.
</event>
<event>
 5    1  0.1043455E-009  0.9118800E+02  0.7561462E-02  0.1125453E+00
         25   -1    0    0    0    0  0.00000000000E+00  0.00000000000E+00  0.99999998245E-14  0.12509000000E+03  0.12509000000E+03 0.  0.
        -11    1    3    3    0    0 -0.85231051525E+01 -0.15058533418E+02  0.27951593259E+02  0.32873915436E+02  0.51100000000E-03 0.  1.
         23    2    1    0    0    0  0.32360087069E+01  0.18128974160E+02 -0.23509074758E+02  0.95226844566E+02  0.90423137933E+02 0.  0.
         11    1    3    3    0    0  0.11759113859E+02  0.33187507578E+02 -0.51460668017E+02  0.62352929130E+02  0.51100000000E-03 0. -1.
         22    1    1    0    0    0 -0.32360087069E+01 -0.18128974160E+02  0.23509074758E+02  0.29863155434E+02  0.00000000000E+00 0. -1.
</event>
<event>
 5    1  0.1043455E-009  0.9118800E+02  0.7561462E-02  0.1125453E+00
         25   -1    0    0    0    0  0.00000000000E+00  0.00000000000E+00  0.99999998245E-14  0.12509000000E+03  0.12509000000E+03 0.  0.
        -11    1    3    3    0    0  0.11156052606E+02  0.22252411229E+02  0.29274582244E+02  0.38426923909E+02  0.51100000000E-03 0. -1.
         23    2    1    0    0    0 -0.27204980720E+02  0.28630353235E+01 -0.93164492384E+01  0.96191830963E+02  0.91748374211E+02 0.  0.
         11    1    3    3    0    0 -0.38361033326E+02 -0.19389375906E+02 -0.38591031483E+02  0.57764907055E+02  0.51100000000E-03 0.  1.
         22    1    1    0    0    0  0.27204980720E+02 -0.28630353235E+01  0.93164492384E+01  0.28898169037E+02  0.00000000000E+00 0.  1.
</event>
<event>
 5    1  0.1043455E-009  0.9118800E+02  0.7561462E-02  0.1125453E+00
         25   -1    0    0    0    0  0.00000000000E+00  0.00000000000E+00  0.99999998245E-14  0.12509000000E+03  0.12509000000E+03 0.  0.
        -11    1    3    3    0    0  0.41096944290E+02 -0.58932101652E+01  0.33280714482E+02  0.53209911790E+02  0.51100000000E-03 0. -1.
         23    2    1    0    0    0  0.10563516098E+02 -0.25313519452E+02  0.12403103093E+02  0.94986858873E+02  0.90090533647E+02 0.  0.
         11    1    3    3    0    0 -0.30533428192E+02 -0.19420309287E+02 -0.20877611389E+02  0.41776947082E+02  0.51100000000E-03 0.  1.
         22    1    1    0    0    0 -0.10563516098E+02  0.25313519452E+02 -0.12403103093E+02  0.30103141127E+02  0.00000000000E+00 0. -1.
</event>
<event>
 5    1  0.1043455E-009  0.9118800E+02  0.7561462E-02  0.1125453E+00
         25   -1    0    0    0    0  0.00000000000E+00  0.00000000000E+00  0.99999998245E-14  0.12509000000E+03  0.12509000000E+03 0.  0.
        -11    1    3    3    0    0 -0.61473103787E+01  0.46771399540E+02  0.29973336280E+02  0.55890554908E+02  0.51100000000E-03 0.  1.
         23    2    1    0    0    0  0.64622083935E+01  0.28134754978E+02 -0.32749665570E+01  0.96037461713E+02  0.91537664769E+02 0.  0.
         11    1    3    3    0    0  0.12609518772E+02 -0.18636644563E+02 -0.33248302837E+02  0.40146906805E+02  0.51100000000E-03 0. -1.
         22    1    1    0    0    0 -0.64622083935E+01 -0.28134754978E+02  0.32749665570E+01  0.29052538287E+02  0.00000000000E+00 0. -1.
</event>
<event>
 5    1  0.1043455E-009  0.9118800E+02  0.7561462E-02  0.1125453E+00
         25   -1    0    0    0    0  0.00000000000E+00  0.00000000000E+00  0.99999998245E-14  0.12509000000E+03  0.12509000000E+03 0.  0.
        -11    1    3    3    0    0  0.35695442640E+02 -0.24730050826E+02 -0.61667517324E+01  0.43860789623E+02  0.51100000000E-03 0.  1.
         23    2    1    0    0    0 -0.16345378311E+02 -0.22147393521E+02  0.49087684703E+01  0.97129770390E+02  0.93018373756E+02 0.  0.
         11    1    3    3    0    0 -0.52040820951E+02  0.25826573045E+01  0.11075520203E+02  0.53268980768E+02  0.51100000000E-03 0. -1.
         22    1    1    0    0    0  0.16345378311E+02  0.22147393521E+02 -0.49087684703E+01  0.27960229610E+02  0.00000000000E+00 0.  1.
</event>
<event>
 5    1  0.1043455E-009  0.9118800E+02  0.7561462E-02  0.1125453E+00
         25   -1    0    0    0    0  0.00000000000E+00  0.00000000000E+00  0.99999998245E-14  0.12509000000E+03  0.12509000000E+03 0.  0.
        -11    1    3    3    0    0  0.68241788850E+01 -0.34239787943E+02  0.61888035479E+01  0.35457492656E+02  0.51100000000E-03 0.  1.
         23    2    1    0    0    0 -0.21495601128E+02  0.19268182086E+02  0.26580167787E+01  0.96100540503E+02  0.91623823992E+02 0.  0.
         11    1    3    3    0    0 -0.28319780013E+02  0.53507970029E+02 -0.35307867692E+01  0.60643047846E+02  0.51100000000E-03 0. -1.
         22    1    1    0    0    0  0.21495601128E+02 -0.19268182086E+02 -0.26580167787E+01  0.28989459497E+02  0.00000000000E+00 0. -1.
</event>
<event>
 5    1  0.1043455E-009  0.9118800E+02  0.7561462E-02  0.1125453E+00
         25   -1    0    0    0    0  0.00000000000E+00  0.00000000000E+00  0.99999998245E-14  0.12509000000E+03  0.12509000000E+03 0.  0.
        -11    1    3    3    0    0  0.14702772678E+02 -0.44798554491E+02  0.33149916873E+01  0.47265962162E+02  0.51100000000E-03 0.  1.
         23    2    1    0    0    0  0.28035183921E+02  0.83121512816E+00  0.10087495965E+02  0.95283624324E+02  0.90501652104E+02 0.  0.
         11    1    3    3    0    0  0.13332411243E+02  0.45629769620E+02  0.67725042773E+01  0.48017662162E+02  0.51100000000E-03 0. -1.
         22    1    1    0    0    0 -0.28035183921E+02 -0.83121512816E+00 -0.10087495965E+02  0.29806375676E+02  0.00000000000E+00 0.  1.
</event>
<event>
 5    1  0.1043455E-009  0.9118800E+02  0.7561462E-02  0.1125453E+00
         25   -1    0    0    0    0  0.00000000000E+00  0.00000000000E+00  0.99999998245E-14  0.12509000000E+03  0.12509000000E+03 0.  0.
        -11    1    3    3    0    0 -0.25967344334E+02  0.33564118114E+02 -0.44898116863E+01  0.42673310228E+02  0.51100000000E-03 0. -1.
         23    2    1    0    0    0 -0.34138792956E+01  0.17719490296E+02  0.31969727424E+02  0.88378988304E+02  0.80393701207E+02 0.  0.
         11    1    3    3    0    0  0.22553465039E+02 -0.15844627818E+02  0.36459539110E+02  0.45705678076E+02  0.51100000000E-03 0.  1.
         22    1    1    0    0    0  0.34138792956E+01 -0.17719490296E+02 -0.31969727424E+02  0.36711011696E+02  0.00000000000E+00 0.  1.
</event>
<event>
 5    1  0.1043455E-009  0.9118800E+02  0.7561462E-02  0.1125453E+00
         25   -1    0    0    0    0  0.00000000000E+00  0.00000000000E+00  0.99999998245E-14  0.12509000000E+03  0.12509000000E+03 0.  0.
        -11    1    3    3    0    0 -0.23120520693E+02  0.20758069384E+02  0.25107929064E+02  0.39948266844E+02  0.51100000000E-03 0.  1.
         23    2    1    0    0    0  0.15508585892E+01  0.14782451428E+02 -0.24934817292E+02  0.96061201438E+02  0.91570100337E+02 0.  0.
         11    1    3    3    0    0  0.24671379282E+02 -0.59756179561E+01 -0.50042746356E+02  0.56112934594E+02  0.51100000000E-03 0. -1.
         22    1    1    0    0    0 -0.15508585892E+01 -0.14782451428E+02  0.24934817292E+02  0.29028798562E+02  0.00000000000E+00 0. -1.
</event>
<event>
 5    1  0.1043455E-009  0.9118800E+02  0.7561462E-02  0.1125453E+00
         25   -1    0    0    0    0  0.00000000000E+00  0.00000000000E+00  0.99999998245E-14  0.12509000000E+03  0.12509000000E+03 0.  0.
        -11    1    3    3    0    0  0.18555635596E+02 -0.50241745402E+02  0.97516799818E+01  0.54439322701E+02  0.51100000000E-03 0. -1.
         23    2    1    0    0    0  0.27398335550E+00 -0.16452419944E+02  0.24488466368E+02  0.95586742994E+02  0.90919652784E+02 0.  0.
         11    1    3    3    0    0 -0.18281652240E+02  0.33789325458E+02  0.14736786386E+02  0.41147420293E+02  0.51100000000E-03 0.  1.
         22    1    1    0    0    0 -0.27398335550E+00  0.16452419944E+02 -0.24488466368E+02  0.29503257006E+02  0.00000000000E+00 0. -1.
</event>
<event>
 5    1  0.1043455E-009  0.9118800E+02  0.7561462E-02  0.1125453E+00
         25   -1    0    0    0    0  0.00000000000E+00  0.00000000000E+00  0.99999998245E-14  0.12509000000E+03  0.12509000000E+03 0.  0.
        -11    1    3    3    0    0 -0.18003932892E+02  0.13649648791E+02 -0.27938865332E+02  0.35930971431E+02  0.51100000000E-03 0.  1.
         23    2    1    0    0    0  0.28466353239E+02 -0.73357278416E+01  0.29493841488E+01  0.95546049070E+02  0.90863647606E+02 0.  0.
         11    1    3    3    0    0  0.46470286132E+02 -0.20985376633E+02  0.30888249481E+02  0.59615077638E+02  0.51100000000E-03 0. -1.
         22    1    1    0    0    0 -0.28466353239E+02  0.73357278416E+01 -0.29493841488E+01  0.29543950930E+02  0.00000000000E+00 0. -1.
</event>
<event>
 5    1  0.1043455E-009  0.9118800E+02  0.7561462E-02  0.1125453E+00
         25   -1    0    0    0    0  0.00000000000E+00  0.00000000000E+00  0.99999998245E-14  0.12509000000E+03  0.12509000000E+03 0.  0.
        -11    1    3    3    0    0  0.33465877823E+02 -0.31920664418E+01 -0.72809786998E+01  0.34397193457E+02  0.51100000000E-03 0. -1.
         23    2    1    0    0    0 -0.26987331059E+02 -0.73089803075E+00  0.82468573061E+01  0.96861275179E+02  0.92656601083E+02 0.  0.
         11    1    3    3    0    0 -0.60453208882E+02  0.24611684111E+01  0.15527836006E+02  0.62464081722E+02  0.51100000000E-03 0.  1.
         22    1    1    0    0    0  0.26987331059E+02  0.73089803075E+00 -0.82468573061E+01  0.28228724821E+02  0.00000000000E+00 0.  1.
</event>
<event>
 5    1  0.1043455E-009  0.9118800E+02  0.7561462E-02  0.1125453E+00
         25   -1    0    0    0    0  0.00000000000E+00  0.00000000000E+00  0.99999998245E-14  0.12509000000E+03  0.12509000000E+03 0.  0.
        -11    1    3    3    0    0  0.56102121687E+02 -0.15079210963E+02 -0.14305707438E+02  0.59828788443E+02  0.51100000000E-03 0.  1.
         23    2    1    0    0    0  0.26574791374E+02 -0.14963659078E+02  0.36297997057E+01  0.94376711744E+02  0.89239327901E+02 0.  0.
         11    1    3    3    0    0 -0.29527330313E+02  0.11555188505E+00  0.17935507144E+02  0.34547923301E+02  0.51100000000E-03 0. -1.
         22    1    1    0    0    0 -0.26574791374E+02  0.14963659078E+02 -0.36297997057E+01  0.30713288256E+02  0.00000000000E+00 0.  1.
</event>
<event>
 5    1  0.1043455E-009  0.9118800E+02  0.7561462E-02  0.1125453E+00
         25   -1    0    0    0    0  0.00000000000E+00  0.00000000000E+00  0.99999998245E-14  0.12509000000E+03  0.12509000000E+03 0.  0.
        -11    1    3    3    0    0  0.18521029877E+02 -0.28222271325E+02  0.25056530941E+02  0.42039920189E+02  0.51100000000E-03 0.  1.
         23    2    1    0    0    0  0.28929202042E+02  0.69414386503E+01 -0.10907073943E+02  0.93403306211E+02  0.87864276289E+02 0.  0.
         11    1    3    3    0    0  0.10408172165E+02  0.35163709975E+02 -0.35963604884E+02  0.51363386021E+02  0.51100000000E-03 0. -1.
         22    1    1    0    0    0 -0.28929202042E+02 -0.69414386503E+01  0.10907073943E+02  0.31686693789E+02  0.00000000000E+00 0. -1.
</event>
<event>
 5    1  0.1043455E-009  0.9118800E+02  0.7561462E-02  0.1125453E+00
         25   -1    0    0    0    0  0.00000000000E+00  0.00000000000E+00  0.99999998245E-14  0.12509000000E+03  0.12509000000E+03 0.  0.
        -11    1    3    3    0    0 -0.66039102067E+01 -0.31558056537E+02 -0.80535826566E+01  0.33232254758E+02  0.51100000000E-03 0.  1.
         23    2    1    0    0    0 -0.49652313800E+01  0.29678293158E+02 -0.14537740640E+00  0.94998876026E+02  0.90107217825E+02 0.  0.
         11    1    3    3    0    0  0.16386788266E+01  0.61236349695E+02  0.79082052502E+01  0.61766621268E+02  0.51100000000E-03 0. -1.
         22    1    1    0    0    0  0.49652313800E+01 -0.29678293158E+02  0.14537740640E+00  0.30091123974E+02  0.00000000000E+00 0. -1.
</event>
<event>
 5    1  0.1043455E-009  0.9118800E+02  0.7561462E-02  0.1125453E+00
         25   -1    0    0    0    0  0.00000000000E+00  0.00000000000E+00  0.99999998245E-14  0.12509000000E+03  0.12509000000E+03 0.  0.
        -11    1    3    3    0    0  0.56642261685E+00  0.34384473581E+02 -0.85393262066E+01  0.35433500396E+02  0.51100000000E-03 0. -1.
         23    2    1    0    0    0 -0.13727088132E+02 -0.24645268974E+02  0.71786854650E+00  0.96870546309E+02  0.92669116623E+02 0.  0.
         11    1    3    3    0    0 -0.14293510749E+02 -0.59029742554E+02  0.92571947531E+01  0.61437045913E+02  0.51100000000E-03 0.  1.
         22    1    1    0    0    0  0.13727088132E+02  0.24645268974E+02 -0.71786854650E+00  0.28219453691E+02  0.00000000000E+00 0.  1.
</event>
<event>
 5    1  0.1043455E-009  0.9118800E+02  0.7561462E-02  0.1125453E+00
         25   -1    0    0    0    0  0.00000000000E+00  0.00000000000E+00  0.99999998245E-14  0.12509000000E+03  0.12509000000E+03 0.  0.
        -11    1    3    3    0    0  0.20144366910E+02 -0.32002253379E+02  0.34591480490E+02  0.51249490362E+02  0.51100000000E-03 0.  1.
         23    2    1    0    0    0 -0.88769164254E+00  0.67027043127E+01  0.28595663076E+02  0.95705885443E+02  0.91083425057E+02 0.  0.
         11    1    3    3    0    0 -0.21032058553E+02  0.38704957692E+02 -0.59958174139E+01  0.44456395082E+02  0.51100000000E-03 0. -1.
         22    1    1    0    0    0  0.88769164254E+00 -0.67027043127E+01 -0.28595663076E+02  0.29384114557E+02  0.00000000000E+00 0. -1.
</event>
<event>
 5    1  0.1043455E-009  0.9118800E+02  0.7561462E-02  0.1125453E+00
         25   -1    0    0    0    0  0.00000000000E+00  0.00000000000E+00  0.99999998245E-14  0.12509000000E+03  0.12509000000E+03 0.  0.
        -11    1    3    3    0    0 -0.17024204964E+02  0.33723870720E+02 -0.34180631040E+02  0.50945446799E+02  0.51100000000E-03 0.  1.
         23    2    1    0    0    0 -0.88573351039E+01 -0.92193623152E+01 -0.26962092242E+02  0.95250371237E+02  0.90455678518E+02 0.  0.
         11    1    3    3    0    0  0.81668698597E+01 -0.42943233035E+02  0.72185387981E+01  0.44304924438E+02  0.51100000000E-03 0. -1.
         22    1    1    0    0    0  0.88573351039E+01  0.92193623152E+01  0.26962092242E+02  0.29839628763E+02  0.00000000000E+00 0.  1.
</event>
<event>
 5    1  0.1043455E-009  0.9118800E+02  0.7561462E-02  0.1125453E+00
         25   -1    0    0    0    0  0.00000000000E+00  0.00000000000E+00  0.99999998245E-14  0.12509000000E+03  0.12509000000E+03 0.  0.
        -11    1    3    3    0    0  0.94610743338E+01 -0.50199605868E+02  0.33042359824E+01  0.51190139016E+02  0.51100000000E-03 0.  1.
         23    2    1    0    0    0  0.28363718439E+02 -0.11483788335E+02 -0.88229233015E+00  0.94476990380E+02  0.89379781569E+02 0.  0.
         11    1    3    3    0    0  0.18902644106E+02  0.38715817533E+02 -0.41865283125E+01  0.43286851364E+02  0.51100000000E-03 0. -1.
         22    1    1    0    0    0 -0.28363718439E+02  0.11483788335E+02  0.88229233015E+00  0.30613009620E+02  0.00000000000E+00 0.  1.
</event>
<event>
 5    1  0.1043455E-009  0.9118800E+02  0.7561462E-02  0.1125453E+00
         25   -1    0    0    0    0  0.00000000000E+00  0.00000000000E+00  0.99999998245E-14  0.12509000000E+03  0.12509000000E+03 0.  0.
        -11    1    3    3    0    0 -0.20619284814E+02 -0.29182994106E+02  0.23960025956E+02  0.43021911805E+02  0.51100000000E-03 0. -1.
         23    2    1    0    0    0 -0.19334645816E+02  0.17682733267E+02 -0.53977266691E+01  0.98338494662E+02  0.94629892183E+02 0.  0.
         11    1    3    3    0    0  0.12846389982E+01  0.46865727374E+02 -0.29357752625E+02  0.55316582858E+02  0.51100000000E-03 0.  1.
         22    1    1    0    0    0  0.19334645816E+02 -0.17682733267E+02  0.53977266691E+01  0.26751505338E+02  0.00000000000E+00 0.  1.
</event>
<event>
 5    1  0.1043455E-009  0.9118800E+02  0.7561462E-02  0.1125453E+00
         25   -1    0    0    0    0  0.00000000000E+00  0.00000000000E+00  0.99999998245E-14  0.12509000000E+03  0.12509000000E+03 0.  0.
        -11    1    3    3    0    0 -0.16299717196E+02  0.25662730039E+02  0.15484135405E+02  0.34117663215E+02  0.51100000000E-03 0.  1.
         23    2    1    0    0    0 -0.25308592705E+01 -0.26126488089E+02 -0.14062421698E+02  0.95311646578E+02  0.90540375749E+02 0.  0.
         11    1    3    3    0    0  0.13768857926E+02 -0.51789218128E+02 -0.29546557103E+02  0.61193983363E+02  0.51100000000E-03 0. -1.
         22    1    1    0    0    0  0.25308592705E+01  0.26126488089E+02  0.14062421698E+02  0.29778353422E+02  0.00000000000E+00 0. -1.
</event>
<event>
 5    1  0.1043455E-009  0.9118800E+02  0.7561462E-02  0.1125453E+00
         25   -1    0    0    0    0  0.00000000000E+00  0.00000000000E+00  0.99999998245E-14  0.12509000000E+03  0.12509000000E+03 0.  0.
        -11    1    3    3    0    0 -0.43742453062E+01  0.38753615059E+02 -0.57909682100E+01  0.39427300379E+02  0.51100000000E-03 0. -1.
         23    2    1    0    0    0  0.31912048416E+02  0.71813853879E+01 -0.16121192196E+02  0.88622974237E+02  0.80772443287E+02 0.  0.
         11    1    3    3    0    0  0.36286293722E+02 -0.31572229671E+02 -0.10330223986E+02  0.49195673858E+02  0.51100000000E-03 0.  1.
         22    1    1    0    0    0 -0.31912048416E+02 -0.71813853879E+01  0.16121192196E+02  0.36467025763E+02  0.00000000000E+00 0.  1.
</event>
<event>
 5    1  0.1043455E-009  0.9118800E+02  0.7561462E-02  0.1125453E+00
         25   -1    0    0    0    0  0.00000000000E+00  0.00000000000E+00  0.99999998245E-14  0.12509000000E+03  0.12509000000E+03 0.  0.
        -11    1    3    3    0    0 -0.37176623936E+02  0.49366322698E+01 -0.59533511451E+00  0.37507680942E+02  0.51100000000E-03 0.  1.
         23    2    1    0    0    0  0.15550057469E+02  0.21120506167E+02 -0.15479432722E+02  0.94635231811E+02  0.89600972062E+02 0.  0.
         11    1    3    3    0    0  0.52726681406E+02  0.16183873898E+02 -0.14884097608E+02  0.57127550869E+02  0.51100000000E-03 0. -1.
         22    1    1    0    0    0 -0.15550057469E+02 -0.21120506167E+02  0.15479432722E+02  0.30454768189E+02  0.00000000000E+00 0. -1.
</event>
<event>
 5    1  0.1043455E-009  0.9118800E+02  0.7561462E-02  0.1125453E+00
         25   -1    0    0    0    0  0.00000000000E+00  0.00000000000E+00  0.99999998245E-14  0.12509000000E+03  0.12509000000E+03 0.  0.
        -11    1    3    3    0    0 -0.22555185992E+02  0.50109594923E+02  0.16662968689E+02  0.57422664900E+02  0.51100000000E-03 0.  1.
         23    2    1    0    0    0 -0.14301889411E+02  0.13633079940E+02  0.22357985362E+02  0.95252365730E+02  0.90458436635E+02 0.  0.
         11    1    3    3    0    0  0.82532965805E+01 -0.36476514983E+02  0.56950166724E+01  0.37829700830E+02  0.51100000000E-03 0. -1.
         22    1    1    0    0    0  0.14301889411E+02 -0.13633079940E+02 -0.22357985362E+02  0.29837634270E+02  0.00000000000E+00 0.  1.
</event>
<event>
 5    1  0.1043455E-009  0.9118800E+02  0.7561462E-02  0.1125453E+00
         25   -1    0    0    0    0  0.00000000000E+00  0.00000000000E+00  0.99999998245E-14  0.12509000000E+03  0.12509000000E+03 0.  0.
        -11    1    3    3    0    0 -0.33948070289E+02 -0.32389121769E+02  0.21305447903E+01  0.46968775869E+02  0.51100000000E-03 0.  1.
         23    2    1    0    0    0  0.13827670586E+02 -0.26319254211E+02 -0.19124809219E+01  0.95297967519E+02  0.90521474877E+02 0.  0.
         11    1    3    3    0    0  0.47775740875E+02  0.60698675576E+01 -0.40430257122E+01  0.48329191649E+02  0.51100000000E-03 0. -1.
         22    1    1    0    0    0 -0.13827670586E+02  0.26319254211E+02  0.19124809219E+01  0.29792032481E+02  0.00000000000E+00 0.  1.
</event>
<event>
 5    1  0.1043455E-009  0.9118800E+02  0.7561462E-02  0.1125453E+00
         25   -1    0    0    0    0  0.00000000000E+00  0.00000000000E+00  0.99999998245E-14  0.12509000000E+03  0.12509000000E+03 0.  0.
        -11    1    3    3    0    0  0.20794059417E+02 -0.29621127926E+02 -0.14228519407E+02  0.38887721602E+02  0.51100000000E-03 0. -1.
         23    2    1    0    0    0  0.55067130883E+01  0.17960266555E+02  0.18577426058E+02  0.98670010925E+02  0.95067109103E+02 0.  0.
         11    1    3    3    0    0 -0.15287346328E+02  0.47581394482E+02  0.32805945465E+02  0.59782289323E+02  0.51100000000E-03 0.  1.
         22    1    1    0    0    0 -0.55067130883E+01 -0.17960266555E+02 -0.18577426058E+02  0.26419989075E+02  0.00000000000E+00 0.  1.
</event>
<event>
 5    1  0.1043455E-009  0.9118800E+02  0.7561462E-02  0.1125453E+00
         25   -1    0    0    0    0  0.00000000000E+00  0.00000000000E+00  0.99999998245E-14  0.12509000000E+03  0.12509000000E+03 0.  0.
        -11    1    3    3    0    0  0.16036219724E+02 -0.12070894875E+02 -0.45387518722E+02  0.49627549830E+02  0.51100000000E-03 0.  1.
         23    2    1    0    0    0  0.66506920306E+01 -0.29576396915E+02 -0.53704001739E+01  0.94303052165E+02  0.89136016798E+02 0.  0.
         11    1    3    3    0    0 -0.93855276935E+01 -0.17505502040E+02  0.40017118548E+02  0.44675502335E+02  0.51100000000E-03 0. -1.
         22    1    1    0    0    0 -0.66506920306E+01  0.29576396915E+02  0.53704001739E+01  0.30786947835E+02  0.00000000000E+00 0. -1.
</event>
<event>
 5    1  0.1043455E-009  0.9118800E+02  0.7561462E-02  0.1125453E+00
         25   -1    0    0    0    0  0.00000000000E+00  0.00000000000E+00  0.99999998245E-14  0.12509000000E+03  0.12509000000E+03 0.  0.
        -11    1    3    3    0    0 -0.58025769097E+02 -0.13856751991E+02 -0.92524378033E+01  0.60370581086E+02  0.51100000000E-03 0.  1.
         23    2    1    0    0    0 -0.22894667679E+02 -0.11519256958E+02 -0.13980813818E+02  0.95895441534E+02  0.91343382153E+02 0.  0.
         11    1    3    3    0    0  0.35131101418E+02  0.23374950332E+01 -0.47283760143E+01  0.35524860449E+02  0.51100000000E-03 0. -1.
         22    1    1    0    0    0  0.22894667679E+02  0.11519256958E+02  0.13980813818E+02  0.29194558466E+02  0.00000000000E+00 0.  1.
</event>
<event>
 5    1  0.1043455E-009  0.9118800E+02  0.7561462E-02  0.1125453E+00
         25   -1    0    0    0    0  0.00000000000E+00  0.00000000000E+00  0.99999998245E-14  0.12509000000E+03  0.12509000000E+03 0.  0.
        -11    1    3    3    0    0 -0.26319579468E+01 -0.41404308442E+02 -0.22747171032E+02  0.47314667392E+02  0.51100000000E-03 0. -1.
         23    2    1    0    0    0  0.24303336709E+02 -0.16121769363E+02  0.74054441846E+01  0.95000064372E+02  0.90108867513E+02 0.  0.
         11    1    3    3    0    0  0.26935294655E+02  0.25282539079E+02  0.30152615216E+02  0.47685396980E+02  0.51100000000E-03 0.  1.
         22    1    1    0    0    0 -0.24303336709E+02  0.16121769363E+02 -0.74054441846E+01  0.30089935628E+02  0.00000000000E+00 0.  1.
</event>
<event>
 5    1  0.1043455E-009  0.9118800E+02  0.7561462E-02  0.1125453E+00
         25   -1    0    0    0    0  0.00000000000E+00  0.00000000000E+00  0.99999998245E-14  0.12509000000E+03  0.12509000000E+03 0.  0.
        -11    1    3    3    0    0  0.19632831727E+02 -0.45958227511E+02  0.10882907978E+02  0.51147281882E+02  0.51100000000E-03 0.  1.
         23    2    1    0    0    0 -0.17698732652E+02 -0.18553554915E+02  0.10288313315E+02  0.97461592005E+02  0.93463538280E+02 0.  0.
         11    1    3    3    0    0 -0.37331564379E+02  0.27404672596E+02 -0.59459466348E+00  0.46314310123E+02  0.51100000000E-03 0. -1.
         22    1    1    0    0    0  0.17698732652E+02  0.18553554915E+02 -0.10288313315E+02  0.27628407995E+02  0.00000000000E+00 0.  1.
</event>
<event>
 5    1  0.1043455E-009  0.9118800E+02  0.7561462E-02  0.1125453E+00
         25   -1    0    0    0    0  0.00000000000E+00  0.00000000000E+00  0.99999998245E-14  0.12509000000E+03  0.12509000000E+03 0.  0.
        -11    1    3    3    0    0  0.43040256754E+02 -0.12186176589E+01  0.16201897944E+02  0.46004893518E+02  0.51100000000E-03 0.  1.
         23    2    1    0    0    0  0.14783668232E+01 -0.26777693679E+02  0.13977693669E+02  0.94847540319E+02  0.89896882800E+02 0.  0.
         11    1    3    3    0    0 -0.41561889930E+02 -0.25559076020E+02 -0.22242042747E+01  0.48842646801E+02  0.51100000000E-03 0. -1.
         22    1    1    0    0    0 -0.14783668232E+01  0.26777693679E+02 -0.13977693669E+02  0.30242459681E+02  0.00000000000E+00 0. -1.
</event>
<event>
 5    1  0.1043455E-009  0.9118800E+02  0.7561462E-02  0.1125453E+00
         25   -1    0    0    0    0  0.00000000000E+00  0.00000000000E+00  0.99999998245E-14  0.12509000000E+03  0.12509000000E+03 0.  0.
        -11    1    3    3    0    0  0.12091081808E+02  0.10695842214E+02 -0.37205941266E+02  0.40557087737E+02  0.51100000000E-03 0.  1.
         23    2    1    0    0    0  0.61135390285E+01  0.20985401254E+02  0.17840891926E+02  0.96875467398E+02  0.92675759148E+02 0.  0.
         11    1    3    3    0    0 -0.59775427796E+01  0.10289559040E+02  0.55046833192E+02  0.56318379661E+02  0.51100000000E-03 0. -1.
         22    1    1    0    0    0 -0.61135390285E+01 -0.20985401254E+02 -0.17840891926E+02  0.28214532602E+02  0.00000000000E+00 0. -1.
</event>
<event>
 5    1  0.1043455E-009  0.9118800E+02  0.7561462E-02  0.1125453E+00
         25   -1    0    0    0    0  0.00000000000E+00  0.00000000000E+00  0.99999998245E-14  0.12509000000E+03  0.12509000000E+03 0.  0.
        -11    1    3    3    0    0  0.13740289692E+02 -0.35451733844E+02  0.31744657447E+02  0.49531245392E+02  0.51100000000E-03 0. -1.
         23    2    1    0    0    0 -0.21013304031E+02 -0.19338882241E+02  0.53917415947E+01  0.96027615548E+02  0.91524208588E+02 0.  0.
         11    1    3    3    0    0 -0.34753593724E+02  0.16112851603E+02 -0.26352915852E+02  0.46496370156E+02  0.51100000000E-03 0.  1.
         22    1    1    0    0    0  0.21013304031E+02  0.19338882241E+02 -0.53917415947E+01  0.29062384452E+02  0.00000000000E+00 0. -1.
</event>
<event>
 5    1  0.1043455E-009  0.9118800E+02  0.7561462E-02  0.1125453E+00
         25   -1    0    0    0    0  0.00000000000E+00  0.00000000000E+00  0.99999998245E-14  0.12509000000E+03  0.12509000000E+03 0.  0.
        -11    1    3    3    0    0  0.89388034515E+01 -0.32341248721E+02  0.10874218470E+01  0.33571432238E+02  0.51100000000E-03 0. -1.
         23    2    1    0    0    0 -0.18282728807E+01  0.23159793126E+02 -0.20517833187E+02  0.94094837828E+02  0.88843336428E+02 0.  0.
         11    1    3    3    0    0 -0.10767076332E+02  0.55501041847E+02 -0.21605255034E+02  0.60523405590E+02  0.51100000000E-03 0.  1.
         22    1    1    0    0    0  0.18282728807E+01 -0.23159793126E+02  0.20517833187E+02  0.30995162172E+02  0.00000000000E+00 0.  1.
</event>
<event>
 5    1  0.1043455E-009  0.9118800E+02  0.7561462E-02  0.1125453E+00
         25   -1    0    0    0    0  0.00000000000E+00  0.00000000000E+00  0.99999998245E-14  0.12509000000E+03  0.12509000000E+03 0.  0.
        -11    1    3    3    0    0 -0.53908132636E+02 -0.22525542894E+02  0.23556824094E+01  0.58472524205E+02  0.51100000000E-03 0.  1.
         23    2    1    0    0    0 -0.18260544133E+02 -0.19888216406E+02  0.12071608383E+02  0.95514463609E+02  0.90820154183E+02 0.  0.
         11    1    3    3    0    0  0.35647588503E+02  0.26373264886E+01  0.97159259739E+01  0.37041939405E+02  0.51100000000E-03 0. -1.
         22    1    1    0    0    0  0.18260544133E+02  0.19888216406E+02 -0.12071608383E+02  0.29575536391E+02  0.00000000000E+00 0.  1.
</event>
<event>
 5    1  0.1043455E-009  0.9118800E+02  0.7561462E-02  0.1125453E+00
         25   -1    0    0    0    0  0.00000000000E+00  0.00000000000E+00  0.99999998245E-14  0.12509000000E+03  0.12509000000E+03 0.  0.
        -11    1    3    3    0    0 -0.33357470639E+02 -0.36473747585E+02  0.31186853953E+02  0.58443776145E+02  0.51100000000E-03 0.  1.
         23    2    1    0    0    0 -0.25344088471E+02 -0.50515506767E+01  0.18693391379E+02  0.93195112229E+02  0.87567374504E+02 0.  0.
         11    1    3    3    0    0  0.80133821680E+01  0.31422196908E+02 -0.12493462574E+02  0.34751336084E+02  0.51100000000E-03 0. -1.
         22    1    1    0    0    0  0.25344088471E+02  0.50515506767E+01 -0.18693391379E+02  0.31894887771E+02  0.00000000000E+00 0.  1.
</event>
<event>
 5    1  0.1043455E-009  0.9118800E+02  0.7561462E-02  0.1125453E+00
         25   -1    0    0    0    0  0.00000000000E+00  0.00000000000E+00  0.99999998245E-14  0.12509000000E+03  0.12509000000E+03 0.  0.
        -11    1    3    3    0    0  0.29926022189E+02 -0.14023449660E+01 -0.25216538450E+02  0.39158743431E+02  0.51100000000E-03 0. -1.
         23    2    1    0    0    0 -0.23159915417E+02 -0.14378773657E+02 -0.11502804675E+02  0.95502074601E+02  0.90803088735E+02 0.  0.
         11    1    3    3    0    0 -0.53085937605E+02 -0.12976428691E+02  0.13713733775E+02  0.56343331170E+02  0.51100000000E-03 0.  1.
         22    1    1    0    0    0  0.23159915417E+02  0.14378773657E+02  0.11502804675E+02  0.29587925399E+02  0.00000000000E+00 0.  1.
</event>
<event>
 5    1  0.1043455E-009  0.9118800E+02  0.7561462E-02  0.1125453E+00
         25   -1    0    0    0    0  0.00000000000E+00  0.00000000000E+00  0.99999998245E-14  0.12509000000E+03  0.12509000000E+03 0.  0.
        -11    1    3    3    0    0  0.36246711503E+01 -0.10711233928E+02 -0.39838227506E+02  0.41411992759E+02  0.51100000000E-03 0. -1.
         23    2    1    0    0    0  0.11422191998E+02 -0.11854799440E+02  0.18526420943E+02  0.10030631559E+03  0.97196326758E+02 0.  0.
         11    1    3    3    0    0  0.77975208479E+01 -0.11435655118E+01  0.58364648448E+02  0.58894322835E+02  0.51100000000E-03 0.  1.
         22    1    1    0    0    0 -0.11422191998E+02  0.11854799440E+02 -0.18526420943E+02  0.24783684406E+02  0.00000000000E+00 0.  1.
</event>
<event>
 5    1  0.1043455E-009  0.9118800E+02  0.7561462E-02  0.1125453E+00
         25   -1    0    0    0    0  0.00000000000E+00  0.00000000000E+00  0.99999998245E-14  0.12509000000E+03  0.12509000000E+03 0.  0.
        -11    1    3    3    0    0  0.11118609668E+02  0.38591610066E+02  0.26802652766E+01  0.40250710188E+02  0.51100000000E-03 0.  1.
         23    2    1    0    0    0  0.38923356216E+01 -0.10219898120E+02  0.27507632364E+02  0.95488202209E+02  0.90783976166E+02 0.  0.
         11    1    3    3    0    0 -0.72262740464E+01 -0.48811508186E+02  0.24827367088E+02  0.55237492021E+02  0.51100000000E-03 0. -1.
         22    1    1    0    0    0 -0.38923356216E+01  0.10219898120E+02 -0.27507632364E+02  0.29601797791E+02  0.00000000000E+00 0. -1.
</event>
<event>
 5    1  0.1043455E-009  0.9118800E+02  0.7561462E-02  0.1125453E+00
         25   -1    0    0    0    0  0.00000000000E+00  0.00000000000E+00  0.99999998245E-14  0.12509000000E+03  0.12509000000E+03 0.  0.
        -11    1    3    3    0    0  0.13091821888E+02  0.17922932140E+02 -0.29941187384E+02  0.37270658688E+02  0.51100000000E-03 0.  1.
         23    2    1    0    0    0 -0.50058875946E+01 -0.29619449338E+02 -0.28222399788E+01  0.94918229614E+02  0.89995192010E+02 0.  0.
         11    1    3    3    0    0 -0.18097709482E+02 -0.47542381478E+02  0.27118947405E+02  0.57647570926E+02  0.51100000000E-03 0. -1.
         22    1    1    0    0    0  0.50058875946E+01  0.29619449338E+02  0.28222399788E+01  0.30171770386E+02  0.00000000000E+00 0. -1.
</event>
<event>
 5    1  0.1043455E-009  0.9118800E+02  0.7561462E-02  0.1125453E+00
         25   -1    0    0    0    0  0.00000000000E+00  0.00000000000E+00  0.99999998245E-14  0.12509000000E+03  0.12509000000E+03 0.  0.
        -11    1    3    3    0    0  0.78076332188E+01  0.24423206212E+02 -0.32489729391E+02  0.41388822818E+02  0.51100000000E-03 0. -1.
         23    2    1    0    0    0 -0.17297581347E+01  0.22157486890E+02  0.20244815333E+02  0.95026752731E+02  0.90145908938E+02 0.  0.
         11    1    3    3    0    0 -0.95373913536E+01 -0.22657193222E+01  0.52734544723E+02  0.53637929913E+02  0.51100000000E-03 0.  1.
         22    1    1    0    0    0  0.17297581347E+01 -0.22157486890E+02 -0.20244815333E+02  0.30063247269E+02  0.00000000000E+00 0.  1.
</event>
<event>
 5    1  0.1043455E-009  0.9118800E+02  0.7561462E-02  0.1125453E+00
         25   -1    0    0    0    0  0.00000000000E+00  0.00000000000E+00  0.99999998245E-14  0.12509000000E+03  0.12509000000E+03 0.  0.
        -11    1    3    3    0    0 -0.36730115760E+02 -0.26636837544E+02 -0.40145648678E+02  0.60582964818E+02  0.51100000000E-03 0.  1.
         23    2    1    0    0    0 -0.23661137787E+02 -0.57520423081E+01 -0.12145533511E+02  0.97878799799E+02  0.94020263953E+02 0.  0.
         11    1    3    3    0    0  0.13068977973E+02  0.20884795236E+02  0.28000115167E+02  0.37295834981E+02  0.51100000000E-03 0. -1.
         22    1    1    0    0    0  0.23661137787E+02  0.57520423081E+01  0.12145533511E+02  0.27211200201E+02  0.00000000000E+00 0.  1.
</event>
<event>
 5    1  0.1043455E-009  0.9118800E+02  0.7561462E-02  0.1125453E+00
         25   -1    0    0    0    0  0.00000000000E+00  0.00000000000E+00  0.99999998245E-14  0.12509000000E+03  0.12509000000E+03 0.  0.
        -11    1    3    3    0    0  0.37689825790E+02 -0.28917527278E+02 -0.25791870195E+02  0.54055221028E+02  0.51100000000E-03 0. -1.
         23    2    1    0    0    0  0.24863935853E+02  0.87548747503E+01 -0.92176338743E+01  0.97164600948E+02  0.93065201688E+02 0.  0.
         11    1    3    3    0    0 -0.12825889937E+02  0.37672402028E+02  0.16574236321E+02  0.43109379920E+02  0.51100000000E-03 0.  1.
         22    1    1    0    0    0 -0.24863935853E+02 -0.87548747503E+01  0.92176338743E+01  0.27925399052E+02  0.00000000000E+00 0. -1.
</event>
<event>
 5    1  0.1043455E-009  0.9118800E+02  0.7561462E-02  0.1125453E+00
         25   -1    0    0    0    0  0.00000000000E+00  0.00000000000E+00  0.99999998245E-14  0.12509000000E+03  0.12509000000E+03 0.  0.
        -11    1    3    3    0    0 -0.50991669702E+02 -0.12368220666E+01 -0.28204938625E+02  0.58285492800E+02  0.51100000000E-03 0. -1.
         23    2    1    0    0    0 -0.25382917982E+02 -0.16183118349E+02 -0.87808883317E+01  0.93732547223E+02  0.88331764187E+02 0.  0.
         11    1    3    3    0    0  0.25608751721E+02 -0.14946296282E+02  0.19424050293E+02  0.35447054423E+02  0.51100000000E-03 0.  1.
         22    1    1    0    0    0  0.25382917982E+02  0.16183118349E+02  0.87808883317E+01  0.31357452777E+02  0.00000000000E+00 0. -1.
</event>
<event>
 5    1  0.1043455E-009  0.9118800E+02  0.7561462E-02  0.1125453E+00
         25   -1    0    0    0    0  0.00000000000E+00  0.00000000000E+00  0.99999998245E-14  0.12509000000E+03  0.12509000000E+03 0.  0.
        -11    1    3    3    0    0  0.54110370517E+02  0.48447455032E+01 -0.17343724655E+02  0.57028138157E+02  0.51100000000E-03 0.  1.
         23    2    1    0    0    0  0.17401219042E+02  0.17735638277E+02 -0.15133030717E+02  0.95997665822E+02  0.91483265876E+02 0.  0.
         11    1    3    3    0    0 -0.36709151475E+02  0.12890892774E+02  0.22106939378E+01  0.38969527666E+02  0.51100000000E-03 0. -1.
         22    1    1    0    0    0 -0.17401219042E+02 -0.17735638277E+02  0.15133030717E+02  0.29092334178E+02  0.00000000000E+00 0.  1.
</event>
<event>
 5    1  0.1043455E-009  0.9118800E+02  0.7561462E-02  0.1125453E+00
         25   -1    0    0    0    0  0.00000000000E+00  0.00000000000E+00  0.99999998245E-14  0.12509000000E+03  0.12509000000E+03 0.  0.
        -11    1    3    3    0    0 -0.96646654709E+01 -0.59761876135E+02  0.14786181716E+02  0.62317884815E+02  0.51100000000E-03 0.  1.
         23    2    1    0    0    0 -0.20019102867E+01 -0.27017977374E+02  0.35908566592E+01  0.97761022747E+02  0.93863435750E+02 0.  0.
         11    1    3    3    0    0  0.76627551842E+01  0.32743898761E+02 -0.11195325057E+02  0.35443137932E+02  0.51100000000E-03 0. -1.
         22    1    1    0    0    0  0.20019102867E+01  0.27017977374E+02 -0.35908566592E+01  0.27328977253E+02  0.00000000000E+00 0.  1.
</event>
<event>
 5    1  0.1043455E-009  0.9118800E+02  0.7561462E-02  0.1125453E+00
         25   -1    0    0    0    0  0.00000000000E+00  0.00000000000E+00  0.99999998245E-14  0.12509000000E+03  0.12509000000E+03 0.  0.
        -11    1    3    3    0    0 -0.51137922672E+02 -0.23475800255E+02  0.16458236307E+02  0.58626562883E+02  0.51100000000E-03 0. -1.
         23    2    1    0    0    0 -0.15673222579E+02 -0.13430762838E+02  0.20855080152E+02  0.95747715416E+02  0.91140854412E+02 0.  0.
         11    1    3    3    0    0  0.35464700093E+02  0.10045037417E+02  0.43968438449E+01  0.37121152534E+02  0.51100000000E-03 0.  1.
         22    1    1    0    0    0  0.15673222579E+02  0.13430762838E+02 -0.20855080152E+02  0.29342284584E+02  0.00000000000E+00 0. -1.
</event>
<event>
 5    1  0.1043455E-009  0.9118800E+02  0.7561462E-02  0.1125453E+00
         25   -1    0    0    0    0  0.00000000000E+00  0.00000000000E+00  0.99999998245E-14  0.12509000000E+03  0.12509000000E+03 0.  0.
        -11    1    3    3    0    0 -0.39567068823E+02 -0.23960447677E+02  0.13870360840E+02  0.48291230034E+02  0.51100000000E-03 0.  1.
         23    2    1    0    0    0 -0.29978628041E+02  0.12613244362E+02 -0.74861030523E+01  0.91715551518E+02  0.85427680401E+02 0.  0.
         11    1    3    3    0    0  0.95884407819E+01  0.36573692040E+02 -0.21356463892E+02  0.43424321483E+02  0.51100000000E-03 0. -1.
         22    1    1    0    0    0  0.29978628041E+02 -0.12613244362E+02  0.74861030523E+01  0.33374448482E+02  0.00000000000E+00 0.  1.
</event>
<event>
 5    1  0.1043455E-009  0.9118800E+02  0.7561462E-02  0.1125453E+00
         25   -1    0    0    0    0  0.00000000000E+00  0.00000000000E+00  0.99999998245E-14  0.12509000000E+03  0.12509000000E+03 0.  0.
        -11    1    3    3    0    0  0.24820477520E+02  0.32265815986E+02 -0.17163433013E+02  0.44178302578E+02  0.51100000000E-03 0. -1.
         23    2    1    0    0    0 -0.10667924693E+02 -0.42030362471E+01 -0.26774030081E+02  0.95964086835E+02  0.91437339989E+02 0.  0.
         11    1    3    3    0    0 -0.35488402213E+02 -0.36468852234E+02 -0.96105970676E+01  0.51785784257E+02  0.51100000000E-03 0.  1.
         22    1    1    0    0    0  0.10667924693E+02  0.42030362471E+01  0.26774030081E+02  0.29125913165E+02  0.00000000000E+00 0.  1.
</event>
<event>
 5    1  0.1043455E-009  0.9118800E+02  0.7561462E-02  0.1125453E+00
         25   -1    0    0    0    0  0.00000000000E+00  0.00000000000E+00  0.99999998245E-14  0.12509000000E+03  0.12509000000E+03 0.  0.
        -11    1    3    3    0    0 -0.32136456835E+02  0.23497926922E+02  0.19663974755E+02  0.44402436093E+02  0.51100000000E-03 0. -1.
         23    2    1    0    0    0  0.13021534268E+02  0.11099180054E+01  0.26766514731E+02  0.95303449620E+02  0.90529050177E+02 0.  0.
         11    1    3    3    0    0  0.45157991103E+02 -0.22388008917E+02  0.71025399761E+01  0.50901013527E+02  0.51100000000E-03 0.  1.
         22    1    1    0    0    0 -0.13021534268E+02 -0.11099180054E+01 -0.26766514731E+02  0.29786550380E+02  0.00000000000E+00 0.  1.
</event>
<event>
 5    1  0.1043455E-009  0.9118800E+02  0.7561462E-02  0.1125453E+00
         25   -1    0    0    0    0  0.00000000000E+00  0.00000000000E+00  0.99999998245E-14  0.12509000000E+03  0.12509000000E+03 0.  0.
        -11    1    3    3    0    0  0.15809204393E+01 -0.83734255890E+01 -0.43479396810E+02  0.44306562863E+02  0.51100000000E-03 0. -1.
         23    2    1    0    0    0  0.12551630239E+02  0.26007663568E+02 -0.75280957565E+01  0.95246839785E+02  0.90450794786E+02 0.  0.
         11    1    3    3    0    0  0.10970709800E+02  0.34381089157E+02  0.35951301054E+02  0.50940276921E+02  0.51100000000E-03 0.  1.
         22    1    1    0    0    0 -0.12551630239E+02 -0.26007663568E+02  0.75280957565E+01  0.29843160215E+02  0.00000000000E+00 0.  1.
</event>
<event>
 5    1  0.1043455E-009  0.9118800E+02  0.7561462E-02  0.1125453E+00
         25   -1    0    0    0    0  0.00000000000E+00  0.00000000000E+00  0.99999998245E-14  0.12509000000E+03  0.12509000000E+03 0.  0.
        -11    1    3    3    0    0  0.33431964655E+01 -0.24399731439E+02  0.31640148439E+02  0.40095172408E+02  0.51100000000E-03 0. -1.
         23    2    1    0    0    0 -0.17574559815E+02 -0.15831287271E+02 -0.18477553183E+02  0.95074757523E+02  0.90212497676E+02 0.  0.
         11    1    3    3    0    0 -0.20917756281E+02  0.85684441684E+01 -0.50117701622E+02  0.54979585115E+02  0.51100000000E-03 0.  1.
         22    1    1    0    0    0  0.17574559815E+02  0.15831287271E+02  0.18477553183E+02  0.30015242477E+02  0.00000000000E+00 0.  1.
</event>
<event>
 5    1  0.1043455E-009  0.9118800E+02  0.7561462E-02  0.1125453E+00
         25   -1    0    0    0    0  0.00000000000E+00  0.00000000000E+00  0.99999998245E-14  0.12509000000E+03  0.12509000000E+03 0.  0.
        -11    1    3    3    0    0  0.37547691766E+02 -0.26213605267E+02  0.48977162284E-01  0.45792845042E+02  0.51100000000E-03 0.  1.
         23    2    1    0    0    0 -0.54669998817E+01 -0.13789474567E+02 -0.24196058397E+02  0.96708898216E+02  0.92450657410E+02 0.  0.
         11    1    3    3    0    0 -0.43014691648E+02  0.12424130700E+02 -0.24245035560E+02  0.50916053173E+02  0.51100000000E-03 0. -1.
         22    1    1    0    0    0  0.54669998817E+01  0.13789474567E+02  0.24196058397E+02  0.28381101784E+02  0.00000000000E+00 0. -1.
</event>
<event>
 5    1  0.1043455E-009  0.9118800E+02  0.7561462E-02  0.1125453E+00
         25   -1    0    0    0    0  0.00000000000E+00  0.00000000000E+00  0.99999998245E-14  0.12509000000E+03  0.12509000000E+03 0.  0.
        -11    1    3    3    0    0  0.13183316243E+02  0.12514135696E+02 -0.44192867576E+02  0.47785070516E+02  0.51100000000E-03 0.  1.
         23    2    1    0    0    0 -0.15861619684E+02  0.23150734811E+02 -0.69854227719E+01  0.96170393630E+02  0.91719141832E+02 0.  0.
         11    1    3    3    0    0 -0.29044935927E+02  0.10636599115E+02  0.37207444804E+02  0.48385323114E+02  0.51100000000E-03 0. -1.
         22    1    1    0    0    0  0.15861619684E+02 -0.23150734811E+02  0.69854227719E+01  0.28919606370E+02  0.00000000000E+00 0.  1.
</event>
<event>
 5    1  0.1043455E-009  0.9118800E+02  0.7561462E-02  0.1125453E+00
         25   -1    0    0    0    0  0.00000000000E+00  0.00000000000E+00  0.99999998245E-14  0.12509000000E+03  0.12509000000E+03 0.  0.
        -11    1    3    3    0    0 -0.43966317404E+02 -0.87725661682E+01  0.41165583743E+02  0.60865427530E+02  0.51100000000E-03 0. -1.
         23    2    1    0    0    0 -0.13174937466E+02 -0.46825193687E+01  0.26306582932E+02  0.95298369121E+02  0.90522029842E+02 0.  0.
         11    1    3    3    0    0  0.30791379937E+02  0.40900467995E+01 -0.14859000811E+02  0.34432941591E+02  0.51100000000E-03 0.  1.
         22    1    1    0    0    0  0.13174937466E+02  0.46825193687E+01 -0.26306582932E+02  0.29791630879E+02  0.00000000000E+00 0. -1.
</event>
<event>
 5    1  0.1043455E-009  0.9118800E+02  0.7561462E-02  0.1125453E+00
         25   -1    0    0    0    0  0.00000000000E+00  0.00000000000E+00  0.99999998245E-14  0.12509000000E+03  0.12509000000E+03 0.  0.
        -11    1    3    3    0    0 -0.24421963135E+02  0.19669472993E+02 -0.13854461361E+02  0.34282160828E+02  0.51100000000E-03 0. -1.
         23    2    1    0    0    0  0.29540684680E+02 -0.47177694484E+01  0.32352967571E+00  0.95173214220E+02  0.90348916062E+02 0.  0.
         11    1    3    3    0    0  0.53962647815E+02 -0.24387242442E+02  0.14177991037E+02  0.60891053392E+02  0.51100000000E-03 0.  1.
         22    1    1    0    0    0 -0.29540684680E+02  0.47177694484E+01 -0.32352967571E+00  0.29916785780E+02  0.00000000000E+00 0.  1.
</event>
<event>
 5    1  0.1043455E-009  0.9118800E+02  0.7561462E-02  0.1125453E+00
         25   -1    0    0    0    0  0.00000000000E+00  0.00000000000E+00  0.99999998245E-14  0.12509000000E+03  0.12509000000E+03 0.  0.
        -11    1    3    3    0    0  0.33136344523E+02 -0.13575729855E+02 -0.35353647946E+02  0.50320951828E+02  0.51100000000E-03 0.  1.
         23    2    1    0    0    0 -0.50493941813E+01 -0.25234171467E+02 -0.16879730643E+02  0.94313627605E+02  0.89150856721E+02 0.  0.
         11    1    3    3    0    0 -0.38185738705E+02 -0.11658441612E+02  0.18473917303E+02  0.43992675777E+02  0.51100000000E-03 0. -1.
         22    1    1    0    0    0  0.50493941813E+01  0.25234171467E+02  0.16879730643E+02  0.30776372395E+02  0.00000000000E+00 0.  1.
</event>
<event>
 5    1  0.1043455E-009  0.9118800E+02  0.7561462E-02  0.1125453E+00
         25   -1    0    0    0    0  0.00000000000E+00  0.00000000000E+00  0.99999998245E-14  0.12509000000E+03  0.12509000000E+03 0.  0.
        -11    1    3    3    0    0  0.55506267271E+02  0.19682146965E+02  0.17756522272E+02  0.61511191656E+02  0.51100000000E-03 0.  1.
         23    2    1    0    0    0  0.23560310935E+02  0.16693401782E+02  0.10121664519E+02  0.94492516329E+02  0.89401508013E+02 0.  0.
         11    1    3    3    0    0 -0.31945956336E+02 -0.29887451829E+01 -0.76348577524E+01  0.32981324673E+02  0.51100000000E-03 0. -1.
         22    1    1    0    0    0 -0.23560310935E+02 -0.16693401782E+02 -0.10121664519E+02  0.30597483671E+02  0.00000000000E+00 0.  1.
</event>
<event>
 5    1  0.1043455E-009  0.9118800E+02  0.7561462E-02  0.1125453E+00
         25   -1    0    0    0    0  0.00000000000E+00  0.00000000000E+00  0.99999998245E-14  0.12509000000E+03  0.12509000000E+03 0.  0.
        -11    1    3    3    0    0  0.29599489277E+02  0.49867217987E+00 -0.49333750087E+02  0.57534314433E+02  0.51100000000E-03 0. -1.
         23    2    1    0    0    0  0.23616466017E+02  0.13646106616E+02 -0.16993519663E+02  0.92953830293E+02  0.87222022234E+02 0.  0.
         11    1    3    3    0    0 -0.59830232600E+01  0.13147434436E+02  0.32340230424E+02  0.35419515860E+02  0.51100000000E-03 0.  1.
         22    1    1    0    0    0 -0.23616466017E+02 -0.13646106616E+02  0.16993519663E+02  0.32136169707E+02  0.00000000000E+00 0. -1.
</event>
<event>
 5    1  0.1043455E-009  0.9118800E+02  0.7561462E-02  0.1125453E+00
         25   -1    0    0    0    0  0.00000000000E+00  0.00000000000E+00  0.99999998245E-14  0.12509000000E+03  0.12509000000E+03 0.  0.
        -11    1    3    3    0    0 -0.34625443964E+02 -0.10522048911E+02  0.26317632402E+02  0.44746537950E+02  0.51100000000E-03 0.  1.
         23    2    1    0    0    0  0.96889839578E+01  0.19400141232E+02  0.12836618394E+02  0.99890383698E+02  0.96659547349E+02 0.  0.
         11    1    3    3    0    0  0.44314427922E+02  0.29922190143E+02 -0.13481014008E+02  0.55143845748E+02  0.51100000000E-03 0. -1.
         22    1    1    0    0    0 -0.96889839578E+01 -0.19400141232E+02 -0.12836618394E+02  0.25199616302E+02  0.00000000000E+00 0. -1.
</event>
<event>
 5    1  0.1043455E-009  0.9118800E+02  0.7561462E-02  0.1125453E+00
         25   -1    0    0    0    0  0.00000000000E+00  0.00000000000E+00  0.99999998245E-14  0.12509000000E+03  0.12509000000E+03 0.  0.
        -11    1    3    3    0    0  0.17277843627E+02 -0.27463367740E+02  0.10894738879E+02  0.34226536248E+02  0.51100000000E-03 0.  1.
         23    2    1    0    0    0 -0.13761604272E+02  0.23228195457E+02 -0.85562731439E+01  0.96767912745E+02  0.92530472335E+02 0.  0.
         11    1    3    3    0    0 -0.31039447899E+02  0.50691563197E+02 -0.19451012022E+02  0.62541376498E+02  0.51100000000E-03 0. -1.
         22    1    1    0    0    0  0.13761604272E+02 -0.23228195457E+02  0.85562731439E+01  0.28322087255E+02  0.00000000000E+00 0. -1.
</event>
<event>
 5    1  0.1043455E-009  0.9118800E+02  0.7561462E-02  0.1125453E+00
         25   -1    0    0    0    0  0.00000000000E+00  0.00000000000E+00  0.99999998245E-14  0.12509000000E+03  0.12509000000E+03 0.  0.
        -11    1    3    3    0    0 -0.42581551121E+02 -0.23766063823E+02  0.49595691688E+01  0.49016442263E+02  0.51100000000E-03 0. -1.
         23    2    1    0    0    0  0.22566163942E+01 -0.24324217833E+02  0.16857204216E+02  0.95409615489E+02  0.90675627944E+02 0.  0.
         11    1    3    3    0    0  0.44838167515E+02 -0.55815400954E+00  0.11897635047E+02  0.46393173226E+02  0.51100000000E-03 0.  1.
         22    1    1    0    0    0 -0.22566163942E+01  0.24324217833E+02 -0.16857204216E+02  0.29680384511E+02  0.00000000000E+00 0. -1.
</event>
<event>
 5    1  0.1043455E-009  0.9118800E+02  0.7561462E-02  0.1125453E+00
         25   -1    0    0    0    0  0.00000000000E+00  0.00000000000E+00  0.99999998245E-14  0.12509000000E+03  0.12509000000E+03 0.  0.
        -11    1    3    3    0    0  0.22114449394E+02  0.16821730250E+02 -0.45636964416E+02  0.53429879300E+02  0.51100000000E-03 0.  1.
         23    2    1    0    0    0  0.27837236084E+02 -0.24514178651E+01 -0.81283860968E+01  0.95986876063E+02  0.91468511268E+02 0.  0.
         11    1    3    3    0    0  0.57227866895E+01 -0.19273148115E+02  0.37508578319E+02  0.42556996764E+02  0.51100000000E-03 0. -1.
         22    1    1    0    0    0 -0.27837236084E+02  0.24514178651E+01  0.81283860968E+01  0.29103123937E+02  0.00000000000E+00 0.  1.
</event>
<event>
 5    1  0.1043455E-009  0.9118800E+02  0.7561462E-02  0.1125453E+00
         25   -1    0    0    0    0  0.00000000000E+00  0.00000000000E+00  0.99999998245E-14  0.12509000000E+03  0.12509000000E+03 0.  0.
        -11    1    3    3    0    0 -0.90157201840E+01 -0.37564801465E+02 -0.19762672291E+01  0.38682077917E+02  0.51100000000E-03 0. -1.
         23    2    1    0    0    0  0.11890867684E+02  0.77625332255E+01  0.25677991233E+02  0.95747047011E+02  0.91139937027E+02 0.  0.
         11    1    3    3    0    0  0.20906587868E+02  0.45327334690E+02  0.27654258462E+02  0.57064969094E+02  0.51100000000E-03 0.  1.
         22    1    1    0    0    0 -0.11890867684E+02 -0.77625332255E+01 -0.25677991233E+02  0.29342952989E+02  0.00000000000E+00 0.  1.
</event>
<event>
 5    1  0.1043455E-009  0.9118800E+02  0.7561462E-02  0.1125453E+00
         25   -1    0    0    0    0  0.00000000000E+00  0.00000000000E+00  0.99999998245E-14  0.12509000000E+03  0.12509000000E+03 0.  0.
        -11    1    3    3    0    0  0.45371473934E+02  0.20684277859E+01  0.88037884347E+01  0.46263978769E+02  0.51100000000E-03 0.  1.
         23    2    1    0    0    0  0.11814934451E+02 -0.19869461701E+02 -0.19094509659E+02  0.95106863348E+02  0.90257005116E+02 0.  0.
         11    1    3    3    0    0 -0.33556539483E+02 -0.21937889487E+02 -0.27898298094E+02  0.48842884579E+02  0.51100000000E-03 0. -1.
         22    1    1    0    0    0 -0.11814934451E+02  0.19869461701E+02  0.19094509659E+02  0.29983136652E+02  0.00000000000E+00 0. -1.
</event>
<event>
 5    1  0.1043455E-009  0.9118800E+02  0.7561462E-02  0.1125453E+00
         25   -1    0    0    0    0  0.00000000000E+00  0.00000000000E+00  0.99999998245E-14  0.12509000000E+03  0.12509000000E+03 0.  0.
        -11    1    3    3    0    0 -0.22215230644E+02 -0.45179524442E+02 -0.14745438667E+02  0.52460784050E+02  0.51100000000E-03 0.  1.
         23    2    1    0    0    0 -0.18024166325E+02 -0.34781798658E+01 -0.23493406396E+02  0.95275432235E+02  0.90490328415E+02 0.  0.
         11    1    3    3    0    0  0.41910643197E+01  0.41701344576E+02 -0.87479677299E+01  0.42814648186E+02  0.51100000000E-03 0. -1.
         22    1    1    0    0    0  0.18024166325E+02  0.34781798658E+01  0.23493406396E+02  0.29814567765E+02  0.00000000000E+00 0. -1.
</event>
<event>
 5    1  0.1043455E-009  0.9118800E+02  0.7561462E-02  0.1125453E+00
         25   -1    0    0    0    0  0.00000000000E+00  0.00000000000E+00  0.99999998245E-14  0.12509000000E+03  0.12509000000E+03 0.  0.
        -11    1    3    3    0    0 -0.22985310719E+02 -0.17114793663E+02 -0.23088646075E+02  0.36801171840E+02  0.51100000000E-03 0.  1.
         23    2    1    0    0    0  0.41559386401E+01 -0.85206370006E+01  0.28132855889E+02  0.95402786231E+02  0.90666206269E+02 0.  0.
         11    1    3    3    0    0  0.27141249359E+02  0.85941566625E+01  0.51221501964E+02  0.58601614391E+02  0.51100000000E-03 0. -1.
         22    1    1    0    0    0 -0.41559386401E+01  0.85206370006E+01 -0.28132855889E+02  0.29687213769E+02  0.00000000000E+00 0. -1.
</event>
<event>
 5    1  0.1043455E-009  0.9118800E+02  0.7561462E-02  0.1125453E+00
         25   -1    0    0    0    0  0.00000000000E+00  0.00000000000E+00  0.99999998245E-14  0.12509000000E+03  0.12509000000E+03 0.  0.
        -11    1    3    3    0    0 -0.26741470580E+02 -0.21227090304E+02  0.14811885804E+02  0.37216764675E+02  0.51100000000E-03 0. -1.
         23    2    1    0    0    0  0.31103383710E+01  0.28385973868E+02  0.24017068869E+01  0.96433309451E+02  0.92077018080E+02 0.  0.
         11    1    3    3    0    0  0.29851808951E+02  0.49613064172E+02 -0.12410178917E+02  0.59216544776E+02  0.51100000000E-03 0.  1.
         22    1    1    0    0    0 -0.31103383710E+01 -0.28385973868E+02 -0.24017068869E+01  0.28656690549E+02  0.00000000000E+00 0.  1.
</event>
<event>
 5    1  0.1043455E-009  0.9118800E+02  0.7561462E-02  0.1125453E+00
         25   -1    0    0    0    0  0.00000000000E+00  0.00000000000E+00  0.99999998245E-14  0.12509000000E+03  0.12509000000E+03 0.  0.
        -11    1    3    3    0    0  0.31323155427E+02 -0.25632645931E+02 -0.12609917997E+02  0.42393190909E+02  0.51100000000E-03 0. -1.
         23    2    1    0    0    0 -0.89782483328E+01  0.14647651705E+02 -0.18698168817E+02  0.99697399489E+02  0.96409477253E+02 0.  0.
         11    1    3    3    0    0 -0.40301403760E+02  0.40280297636E+02 -0.60882508205E+01  0.57304208580E+02  0.51100000000E-03 0.  1.
         22    1    1    0    0    0  0.89782483328E+01 -0.14647651705E+02  0.18698168817E+02  0.25392600511E+02  0.00000000000E+00 0.  1.
</event>
<event>
 5    1  0.1043455E-009  0.9118800E+02  0.7561462E-02  0.1125453E+00
         25   -1    0    0    0    0  0.00000000000E+00  0.00000000000E+00  0.99999998245E-14  0.12509000000E+03  0.12509000000E+03 0.  0.
        -11    1    3    3    0    0 -0.30663271669E+02 -0.18985024219E+01  0.24407170203E+02  0.39237106143E+02  0.51100000000E-03 0. -1.
         23    2    1    0    0    0 -0.71362127599E+01  0.16890465113E+02 -0.23170807707E+02  0.95541739915E+02  0.90857715093E+02 0.  0.
         11    1    3    3    0    0  0.23527058910E+02  0.18788967535E+02 -0.47577977909E+02  0.56304633772E+02  0.51100000000E-03 0.  1.
         22    1    1    0    0    0  0.71362127599E+01 -0.16890465113E+02  0.23170807707E+02  0.29548260085E+02  0.00000000000E+00 0.  1.
</event>
<event>
 5    1  0.1043455E-009  0.9118800E+02  0.7561462E-02  0.1125453E+00
         25   -1    0    0    0    0  0.00000000000E+00  0.00000000000E+00  0.99999998245E-14  0.12509000000E+03  0.12509000000E+03 0.  0.
        -11    1    3    3    0    0 -0.55092277859E+02 -0.14186310068E+02  0.10625970348E+02  0.57873324763E+02  0.51100000000E-03 0. -1.
         23    2    1    0    0    0 -0.16964441083E+02 -0.11026286620E+02  0.19327806137E+02  0.97109018102E+02  0.92990462139E+02 0.  0.
         11    1    3    3    0    0  0.38127836776E+02  0.31600234479E+01  0.87018357888E+01  0.39235693339E+02  0.51100000000E-03 0.  1.
         22    1    1    0    0    0  0.16964441083E+02  0.11026286620E+02 -0.19327806137E+02  0.27980981898E+02  0.00000000000E+00 0. -1.
</event>
<event>
 5    1  0.1043455E-009  0.9118800E+02  0.7561462E-02  0.1125453E+00
         25   -1    0    0    0    0  0.00000000000E+00  0.00000000000E+00  0.99999998245E-14  0.12509000000E+03  0.12509000000E+03 0.  0.
        -11    1    3    3    0    0 -0.10559931004E+02  0.23302380217E+02  0.25631228837E+02  0.36214264573E+02  0.51100000000E-03 0.  1.
         23    2    1    0    0    0 -0.15834684041E+02 -0.19826030764E+02 -0.14926537994E+02  0.95651755300E+02  0.91009054719E+02 0.  0.
         11    1    3    3    0    0 -0.52747530369E+01 -0.43128410981E+02 -0.40557766831E+02  0.59437490727E+02  0.51100000000E-03 0. -1.
         22    1    1    0    0    0  0.15834684041E+02  0.19826030764E+02  0.14926537994E+02  0.29438244700E+02  0.00000000000E+00 0. -1.
</event>
<event>
 5    1  0.1043455E-009  0.9118800E+02  0.7561462E-02  0.1125453E+00
         25   -1    0    0    0    0  0.00000000000E+00  0.00000000000E+00  0.99999998245E-14  0.12509000000E+03  0.12509000000E+03 0.  0.
        -11    1    3    3    0    0 -0.21933585938E+02 -0.24228769273E+02 -0.12431305023E+02  0.34966452457E+02  0.51100000000E-03 0. -1.
         23    2    1    0    0    0  0.27008997599E+02  0.10774715278E+02 -0.33696152435E+01  0.95816552176E+02  0.91235283325E+02 0.  0.
         11    1    3    3    0    0  0.48942583537E+02  0.35003484551E+02  0.90616897791E+01  0.60850099719E+02  0.51100000000E-03 0.  1.
         22    1    1    0    0    0 -0.27008997599E+02 -0.10774715278E+02  0.33696152435E+01  0.29273447824E+02  0.00000000000E+00 0.  1.
</event>
<event>
 5    1  0.1043455E-009  0.9118800E+02  0.7561462E-02  0.1125453E+00
         25   -1    0    0    0    0  0.00000000000E+00  0.00000000000E+00  0.99999998245E-14  0.12509000000E+03  0.12509000000E+03 0.  0.
        -11    1    3    3    0    0 -0.90304518242E+01  0.56042262770E+02 -0.17952317998E+02  0.59536291439E+02  0.51100000000E-03 0. -1.
         23    2    1    0    0    0 -0.59510109855E+01  0.26671983646E+02  0.54597716911E+01  0.97222126915E+02  0.93142490902E+02 0.  0.
         11    1    3    3    0    0  0.30794408387E+01 -0.29370279123E+02  0.23412089689E+02  0.37685835476E+02  0.51100000000E-03 0.  1.
         22    1    1    0    0    0  0.59510109855E+01 -0.26671983646E+02 -0.54597716911E+01  0.27867873085E+02  0.00000000000E+00 0. -1.
</event>
<event>
 5    1  0.1043455E-009  0.9118800E+02  0.7561462E-02  0.1125453E+00
         25   -1    0    0    0    0  0.00000000000E+00  0.00000000000E+00  0.99999998245E-14  0.12509000000E+03  0.12509000000E+03 0.  0.
        -11    1    3    3    0    0 -0.13148461708E+02 -0.59389821390E+02  0.14466951557E+02  0.62524600100E+02  0.51100000000E-03 0.  1.
         23    2    1    0    0    0 -0.58299389173E+01 -0.30628175937E+02  0.67510036733E+01  0.93189382458E+02  0.87559189142E+02 0.  0.
         11    1    3    3    0    0  0.73185227907E+01  0.28761645453E+02 -0.77159478839E+01  0.30664782358E+02  0.51100000000E-03 0. -1.
         22    1    1    0    0    0  0.58299389173E+01  0.30628175937E+02 -0.67510036733E+01  0.31900617542E+02  0.00000000000E+00 0.  1.
</event>
<event>
 5    1  0.1043455E-009  0.9118800E+02  0.7561462E-02  0.1125453E+00
         25   -1    0    0    0    0  0.00000000000E+00  0.00000000000E+00  0.99999998245E-14  0.12509000000E+03  0.12509000000E+03 0.  0.
        -11    1    3    3    0    0  0.21795225677E+02  0.18303847673E+02  0.44763434922E+02  0.53045525808E+02  0.51100000000E-03 0. -1.
         23    2    1    0    0    0 -0.12135450331E+01 -0.10378745733E+02  0.31114310547E+02  0.92267882833E+02  0.86232655224E+02 0.  0.
         11    1    3    3    0    0 -0.23008770710E+02 -0.28682593406E+02 -0.13649124375E+02  0.39222357024E+02  0.51100000000E-03 0.  1.
         22    1    1    0    0    0  0.12135450331E+01  0.10378745733E+02 -0.31114310547E+02  0.32822117167E+02  0.00000000000E+00 0. -1.
</event>
<event>
 5    1  0.1043455E-009  0.9118800E+02  0.7561462E-02  0.1125453E+00
         25   -1    0    0    0    0  0.00000000000E+00  0.00000000000E+00  0.99999998245E-14  0.12509000000E+03  0.12509000000E+03 0.  0.
        -11    1    3    3    0    0 -0.12494852535E+02  0.49241066008E+02 -0.23454621552E+02  0.55954653014E+02  0.51100000000E-03 0. -1.
         23    2    1    0    0    0  0.13348150915E+02  0.20605074251E+02 -0.17396298342E+02  0.95000576381E+02  0.90109578287E+02 0.  0.
         11    1    3    3    0    0  0.25843003449E+02 -0.28635991758E+02  0.60583232099E+01  0.39045923367E+02  0.51100000000E-03 0.  1.
         22    1    1    0    0    0 -0.13348150915E+02 -0.20605074251E+02  0.17396298342E+02  0.30089423619E+02  0.00000000000E+00 0.  1.
</event>
<event>
 5    1  0.1043455E-009  0.9118800E+02  0.7561462E-02  0.1125453E+00
         25   -1    0    0    0    0  0.00000000000E+00  0.00000000000E+00  0.99999998245E-14  0.12509000000E+03  0.12509000000E+03 0.  0.
        -11    1    3    3    0    0  0.34826978780E+02 -0.35895124494E+02 -0.31746600092E+02  0.59238712267E+02  0.51100000000E-03 0.  1.
         23    2    1    0    0    0  0.22391830730E+02 -0.39703148177E+01 -0.17721178248E+02  0.96259501536E+02  0.91840590123E+02 0.  0.
         11    1    3    3    0    0 -0.12435148050E+02  0.31924809677E+02  0.14025421843E+02  0.37020789268E+02  0.51100000000E-03 0. -1.
         22    1    1    0    0    0 -0.22391830730E+02  0.39703148177E+01  0.17721178248E+02  0.28830498464E+02  0.00000000000E+00 0.  1.
</event>
<event>
 5    1  0.1043455E-009  0.9118800E+02  0.7561462E-02  0.1125453E+00
         25   -1    0    0    0    0  0.00000000000E+00  0.00000000000E+00  0.99999998245E-14  0.12509000000E+03  0.12509000000E+03 0.  0.
        -11    1    3    3    0    0 -0.33482924249E+02  0.51205638641E+02  0.32836109081E+01  0.61269125551E+02  0.51100000000E-03 0. -1.
         23    2    1    0    0    0 -0.22764214881E+02  0.18596602053E+02  0.22328922967E+01  0.95610703958E+02  0.90952613026E+02 0.  0.
         11    1    3    3    0    0  0.10718709368E+02 -0.32609036588E+02 -0.10507186114E+01  0.34341578408E+02  0.51100000000E-03 0.  1.
         22    1    1    0    0    0  0.22764214881E+02 -0.18596602053E+02 -0.22328922967E+01  0.29479296042E+02  0.00000000000E+00 0. -1.
</event>
<event>
 5    1  0.1043455E-009  0.9118800E+02  0.7561462E-02  0.1125453E+00
         25   -1    0    0    0    0  0.00000000000E+00  0.00000000000E+00  0.99999998245E-14  0.12509000000E+03  0.12509000000E+03 0.  0.
        -11    1    3    3    0    0  0.56213061244E+02  0.36578489646E+01  0.12772672146E+02  0.57761832273E+02  0.51100000000E-03 0.  1.
         23    2    1    0    0    0  0.24679952922E+02  0.15496846875E+02 -0.44801387991E+01  0.95605699381E+02  0.90945729813E+02 0.  0.
         11    1    3    3    0    0 -0.31533108322E+02  0.11838997910E+02 -0.17252810945E+02  0.37843867108E+02  0.51100000000E-03 0. -1.
         22    1    1    0    0    0 -0.24679952922E+02 -0.15496846875E+02  0.44801387991E+01  0.29484300619E+02  0.00000000000E+00 0.  1.
</event>
<event>
 5    1  0.1043455E-009  0.9118800E+02  0.7561462E-02  0.1125453E+00
         25   -1    0    0    0    0  0.00000000000E+00  0.00000000000E+00  0.99999998245E-14  0.12509000000E+03  0.12509000000E+03 0.  0.
        -11    1    3    3    0    0  0.45895803304E+02 -0.77261449850E+01 -0.38582576552E+02  0.60454390170E+02  0.51100000000E-03 0.  1.
         23    2    1    0    0    0  0.20656287518E+02  0.77632643767E+01 -0.13856940250E+02  0.99033037766E+02  0.95543588420E+02 0.  0.
         11    1    3    3    0    0 -0.25239515786E+02  0.15489409362E+02  0.24725636302E+02  0.38578647595E+02  0.51100000000E-03 0. -1.
         22    1    1    0    0    0 -0.20656287518E+02 -0.77632643767E+01  0.13856940250E+02  0.26056962234E+02  0.00000000000E+00 0.  1.
</event>
<event>
 5    1  0.1043455E-009  0.9118800E+02  0.7561462E-02  0.1125453E+00
         25   -1    0    0    0    0  0.00000000000E+00  0.00000000000E+00  0.99999998245E-14  0.12509000000E+03  0.12509000000E+03 0.  0.
        -11    1    3    3    0    0 -0.31727771757E+02  0.73602423921E+01 -0.25953426628E+02  0.41646188574E+02  0.51100000000E-03 0. -1.
         23    2    1    0    0    0 -0.16742593860E+02  0.28041159129E+00  0.24872540001E+02  0.95106065536E+02  0.90255899397E+02 0.  0.
         11    1    3    3    0    0  0.14985177897E+02 -0.70798308008E+01  0.50825966629E+02  0.53459876963E+02  0.51100000000E-03 0.  1.
         22    1    1    0    0    0  0.16742593860E+02 -0.28041159129E+00 -0.24872540001E+02  0.29983934464E+02  0.00000000000E+00 0.  1.
</event>
<event>
 5    1  0.1043455E-009  0.9118800E+02  0.7561462E-02  0.1125453E+00
         25   -1    0    0    0    0  0.00000000000E+00  0.00000000000E+00  0.99999998245E-14  0.12509000000E+03  0.12509000000E+03 0.  0.
        -11    1    3    3    0    0  0.13138039991E+02  0.27214169004E+02  0.51096429327E+02  0.59363828882E+02  0.51100000000E-03 0.  1.
         23    2    1    0    0    0  0.19334185200E+02  0.11011810789E+02  0.19072411862E+02  0.95784239672E+02  0.91190969844E+02 0.  0.
         11    1    3    3    0    0  0.61961452094E+01 -0.16202358216E+02 -0.32024017465E+02  0.36420410789E+02  0.51100000000E-03 0. -1.
         22    1    1    0    0    0 -0.19334185200E+02 -0.11011810789E+02 -0.19072411862E+02  0.29305760328E+02  0.00000000000E+00 0.  1.
</event>
<event>
 5    1  0.1043455E-009  0.9118800E+02  0.7561462E-02  0.1125453E+00
         25   -1    0    0    0    0  0.00000000000E+00  0.00000000000E+00  0.99999998245E-14  0.12509000000E+03  0.12509000000E+03 0.  0.
        -11    1    3    3    0    0 -0.32230328098E+02 -0.42264155877E+02  0.30342357627E+02  0.61202218815E+02  0.51100000000E-03 0.  1.
         23    2    1    0    0    0 -0.71350270754E+01 -0.23208974101E+02  0.17154184798E+02  0.95360702224E+02  0.90608125366E+02 0.  0.
         11    1    3    3    0    0  0.25095301023E+02  0.19055181776E+02 -0.13188172829E+02  0.34158483409E+02  0.51100000000E-03 0. -1.
         22    1    1    0    0    0  0.71350270754E+01  0.23208974101E+02 -0.17154184798E+02  0.29729297776E+02  0.00000000000E+00 0.  1.
</event>
<event>
 5    1  0.1043455E-009  0.9118800E+02  0.7561462E-02  0.1125453E+00
         25   -1    0    0    0    0  0.00000000000E+00  0.00000000000E+00  0.99999998245E-14  0.12509000000E+03  0.12509000000E+03 0.  0.
        -11    1    3    3    0    0  0.11273244552E+02  0.13585186243E+02 -0.32766891378E+02  0.37219786388E+02  0.51100000000E-03 0.  1.
         23    2    1    0    0    0 -0.16197796268E+02  0.15566951185E+02  0.18875330147E+02  0.95747596191E+02  0.91140690776E+02 0.  0.
         11    1    3    3    0    0 -0.27471040819E+02  0.19817649417E+01  0.51642221525E+02  0.58527809803E+02  0.51100000000E-03 0. -1.
         22    1    1    0    0    0  0.16197796268E+02 -0.15566951185E+02 -0.18875330147E+02  0.29342403809E+02  0.00000000000E+00 0. -1.
</event>
<event>
 5    1  0.1043455E-009  0.9118800E+02  0.7561462E-02  0.1125453E+00
         25   -1    0    0    0    0  0.00000000000E+00  0.00000000000E+00  0.99999998245E-14  0.12509000000E+03  0.12509000000E+03 0.  0.
        -11    1    3    3    0    0 -0.16592825100E+02  0.36018520882E+02  0.99256700337E+01  0.40880002656E+02  0.51100000000E-03 0. -1.
         23    2    1    0    0    0 -0.24897983811E+01 -0.18680911785E+02  0.19270297757E+02  0.98135966225E+02  0.94361792746E+02 0.  0.
         11    1    3    3    0    0  0.14103026719E+02 -0.54699432666E+02  0.93446277232E+01  0.57255963569E+02  0.51100000000E-03 0.  1.
         22    1    1    0    0    0  0.24897983811E+01  0.18680911785E+02 -0.19270297757E+02  0.26954033775E+02  0.00000000000E+00 0.  1.
</event>
<event>
 5    1  0.1043455E-009  0.9118800E+02  0.7561462E-02  0.1125453E+00
         25   -1    0    0    0    0  0.00000000000E+00  0.00000000000E+00  0.99999998245E-14  0.12509000000E+03  0.12509000000E+03 0.  0.
        -11    1    3    3    0    0  0.29857166698E+02 -0.19445604706E+02 -0.48460611843E+00  0.35634488756E+02  0.51100000000E-03 0.  1.
         23    2    1    0    0    0 -0.88123060839E+01  0.27030221275E+02  0.45279529255E+01  0.96301252921E+02  0.91897439332E+02 0.  0.
         11    1    3    3    0    0 -0.38669472781E+02  0.46475825981E+02  0.50125590439E+01  0.60666764165E+02  0.51100000000E-03 0. -1.
         22    1    1    0    0    0  0.88123060839E+01 -0.27030221275E+02 -0.45279529255E+01  0.28788747079E+02  0.00000000000E+00 0. -1.
</event>
<event>
 5    1  0.1043455E-009  0.9118800E+02  0.7561462E-02  0.1125453E+00
         25   -1    0    0    0    0  0.00000000000E+00  0.00000000000E+00  0.99999998245E-14  0.12509000000E+03  0.12509000000E+03 0.  0.
        -11    1    3    3    0    0  0.16804330575E+02 -0.12239272290E+02 -0.50840031003E+02  0.54926260249E+02  0.51100000000E-03 0.  1.
         23    2    1    0    0    0  0.23710929606E+02 -0.10286073937E+02 -0.84823261043E+01  0.97887769283E+02  0.94032196716E+02 0.  0.
         11    1    3    3    0    0  0.69065990310E+01  0.19531983527E+01  0.42357704899E+02  0.42961509034E+02  0.51100000000E-03 0. -1.
         22    1    1    0    0    0 -0.23710929606E+02  0.10286073937E+02  0.84823261043E+01  0.27202230717E+02  0.00000000000E+00 0.  1.
</event>
<event>
 5    1  0.1043455E-009  0.9118800E+02  0.7561462E-02  0.1125453E+00
         25   -1    0    0    0    0  0.00000000000E+00  0.00000000000E+00  0.99999998245E-14  0.12509000000E+03  0.12509000000E+03 0.  0.
        -11    1    3    3    0    0  0.32152354237E+02  0.33102491514E+02  0.31285942858E+01  0.46252966715E+02  0.51100000000E-03 0. -1.
         23    2    1    0    0    0  0.25763552494E+02 -0.11026478314E+02 -0.13680425822E+02  0.93905101222E+02  0.88575787457E+02 0.  0.
         11    1    3    3    0    0 -0.63888017430E+01 -0.44128969828E+02 -0.16809020108E+02  0.47652134507E+02  0.51100000000E-03 0.  1.
         22    1    1    0    0    0 -0.25763552494E+02  0.11026478314E+02  0.13680425822E+02  0.31184898778E+02  0.00000000000E+00 0. -1.
</event>
<event>
 5    1  0.1043455E-009  0.9118800E+02  0.7561462E-02  0.1125453E+00
         25   -1    0    0    0    0  0.00000000000E+00  0.00000000000E+00  0.99999998245E-14  0.12509000000E+03  0.12509000000E+03 0.  0.
        -11    1    3    3    0    0 -0.12778833435E+02  0.49677772961E+02 -0.13395139294E+02  0.53015181479E+02  0.51100000000E-03 0. -1.
         23    2    1    0    0    0 -0.11102616689E+02  0.93051775156E+01 -0.25986132180E+02  0.95338806888E+02  0.90577892486E+02 0.  0.
         11    1    3    3    0    0  0.16762167459E+01 -0.40372595445E+02 -0.12590992886E+02  0.42323625408E+02  0.51100000000E-03 0.  1.
         22    1    1    0    0    0  0.11102616689E+02 -0.93051775156E+01  0.25986132180E+02  0.29751193112E+02  0.00000000000E+00 0. -1.
</event>
<event>
 5    1  0.1043455E-009  0.9118800E+02  0.7561462E-02  0.1125453E+00
         25   -1    0    0    0    0  0.00000000000E+00  0.00000000000E+00  0.99999998245E-14  0.12509000000E+03  0.12509000000E+03 0.  0.
        -11    1    3    3    0    0  0.34605345064E+02 -0.23059414944E+01 -0.17902039368E+02  0.39029864040E+02  0.51100000000E-03 0.  1.
         23    2    1    0    0    0  0.52214614787E+01 -0.65283383173E+01  0.29205996215E+02  0.94711173886E+02  0.89706930517E+02 0.  0.
         11    1    3    3    0    0 -0.29383883585E+02 -0.42223968229E+01  0.47108035583E+02  0.55681309846E+02  0.51100000000E-03 0. -1.
         22    1    1    0    0    0 -0.52214614787E+01  0.65283383173E+01 -0.29205996215E+02  0.30378826114E+02  0.00000000000E+00 0. -1.
</event>
<event>
 5    1  0.1043455E-009  0.9118800E+02  0.7561462E-02  0.1125453E+00
         25   -1    0    0    0    0  0.00000000000E+00  0.00000000000E+00  0.99999998245E-14  0.12509000000E+03  0.12509000000E+03 0.  0.
        -11    1    3    3    0    0 -0.28864711720E+02 -0.20687662296E+02 -0.37924905516E+02  0.51956225928E+02  0.51100000000E-03 0.  1.
         23    2    1    0    0    0  0.88804641848E+01 -0.22829752980E+02 -0.11879864739E+02  0.97865168477E+02  0.94002126303E+02 0.  0.
         11    1    3    3    0    0  0.37745175905E+02 -0.21420906839E+01  0.26045040777E+02  0.45908942549E+02  0.51100000000E-03 0. -1.
         22    1    1    0    0    0 -0.88804641848E+01  0.22829752980E+02  0.11879864739E+02  0.27224831523E+02  0.00000000000E+00 0.  1.
</event>
<event>
 5    1  0.1043455E-009  0.9118800E+02  0.7561462E-02  0.1125453E+00
         25   -1    0    0    0    0  0.00000000000E+00  0.00000000000E+00  0.99999998245E-14  0.12509000000E+03  0.12509000000E+03 0.  0.
        -11    1    3    3    0    0 -0.36094392204E+02  0.46888653760E+01  0.12922131595E+02  0.38623465565E+02  0.51100000000E-03 0. -1.
         23    2    1    0    0    0  0.19177809062E+02  0.88222917486E+01  0.21786079539E+02  0.94754303967E+02  0.89767052233E+02 0.  0.
         11    1    3    3    0    0  0.55272201265E+02  0.41334263726E+01  0.88639479439E+01  0.56130838402E+02  0.51100000000E-03 0.  1.
         22    1    1    0    0    0 -0.19177809062E+02 -0.88222917486E+01 -0.21786079539E+02  0.30335696033E+02  0.00000000000E+00 0. -1.
</event>
<event>
 5    1  0.1043455E-009  0.9118800E+02  0.7561462E-02  0.1125453E+00
         25   -1    0    0    0    0  0.00000000000E+00  0.00000000000E+00  0.99999998245E-14  0.12509000000E+03  0.12509000000E+03 0.  0.
        -11    1    3    3    0    0 -0.11395712123E+01 -0.93961106927E+01 -0.47548502923E+02  0.48481394877E+02  0.51100000000E-03 0. -1.
         23    2    1    0    0    0  0.14270430733E+02 -0.21361378239E+02 -0.52111912043E+00  0.99395151514E+02  0.96016513714E+02 0.  0.
         11    1    3    3    0    0  0.15410001945E+02 -0.11965267546E+02  0.47027383803E+02  0.50913756638E+02  0.51100000000E-03 0.  1.
         22    1    1    0    0    0 -0.14270430733E+02  0.21361378239E+02  0.52111912043E+00  0.25694848486E+02  0.00000000000E+00 0. -1.
</event>
<event>
 5    1  0.1043455E-009  0.9118800E+02  0.7561462E-02  0.1125453E+00
         25   -1    0    0    0    0  0.00000000000E+00  0.00000000000E+00  0.99999998245E-14  0.12509000000E+03  0.12509000000E+03 0.  0.
        -11    1    3    3    0    0 -0.85713043593E+01  0.35295273046E+02 -0.45142652042E+02  0.57940336481E+02  0.51100000000E-03 0.  1.
         23    2    1    0    0    0 -0.10894742593E+02  0.55855425433E+01 -0.32589195530E+02  0.90276936834E+02  0.83294513368E+02 0.  0.
         11    1    3    3    0    0 -0.23234382337E+01 -0.29709730503E+02  0.12553456512E+02  0.32336600354E+02  0.51100000000E-03 0. -1.
         22    1    1    0    0    0  0.10894742593E+02 -0.55855425433E+01  0.32589195530E+02  0.34813063166E+02  0.00000000000E+00 0.  1.
</event>
<event>
 5    1  0.1043455E-009  0.9118800E+02  0.7561462E-02  0.1125453E+00
         25   -1    0    0    0    0  0.00000000000E+00  0.00000000000E+00  0.99999998245E-14  0.12509000000E+03  0.12509000000E+03 0.  0.
        -11    1    3    3    0    0  0.20810553325E+02  0.45782078978E+02  0.34087629235E+02  0.60753965733E+02  0.51100000000E-03 0. -1.
         23    2    1    0    0    0  0.14550805191E+02  0.23647389303E+02  0.66858923181E+01  0.96530831443E+02  0.92209410097E+02 0.  0.
         11    1    3    3    0    0 -0.62597481333E+01 -0.22134689674E+02 -0.27401736917E+02  0.35776865710E+02  0.51100000000E-03 0.  1.
         22    1    1    0    0    0 -0.14550805191E+02 -0.23647389303E+02 -0.66858923181E+01  0.28559168557E+02  0.00000000000E+00 0. -1.
</event>
<event>
 5    1  0.1043455E-009  0.9118800E+02  0.7561462E-02  0.1125453E+00
         25   -1    0    0    0    0  0.00000000000E+00  0.00000000000E+00  0.99999998245E-14  0.12509000000E+03  0.12509000000E+03 0.  0.
        -11    1    3    3    0    0  0.25080826426E+02  0.10101394594E+02  0.21216247904E+02  0.34368811477E+02  0.51100000000E-03 0.  1.
         23    2    1    0    0    0 -0.63351008574E+01 -0.25132113810E+02 -0.16131206545E+02  0.94561775813E+02  0.89498362962E+02 0.  0.
         11    1    3    3    0    0 -0.31415927283E+02 -0.35233508403E+02 -0.37347454450E+02  0.60192964336E+02  0.51100000000E-03 0. -1.
         22    1    1    0    0    0  0.63351008574E+01  0.25132113810E+02  0.16131206545E+02  0.30528224187E+02  0.00000000000E+00 0. -1.
</event>
<event>
 5    1  0.1043455E-009  0.9118800E+02  0.7561462E-02  0.1125453E+00
         25   -1    0    0    0    0  0.00000000000E+00  0.00000000000E+00  0.99999998245E-14  0.12509000000E+03  0.12509000000E+03 0.  0.
        -11    1    3    3    0    0  0.60395428638E+01 -0.52166700740E+01  0.55789233435E+02  0.56357149432E+02  0.51100000000E-03 0. -1.
         23    2    1    0    0    0  0.10125935724E+02 -0.17998979482E+02  0.14279486748E+02  0.99982200844E+02  0.96778297707E+02 0.  0.
         11    1    3    3    0    0  0.40863928606E+01 -0.12782309408E+02 -0.41509746687E+02  0.43625051411E+02  0.51100000000E-03 0.  1.
         22    1    1    0    0    0 -0.10125935724E+02  0.17998979482E+02 -0.14279486748E+02  0.25107799156E+02  0.00000000000E+00 0. -1.
</event>
<event>
 5    1  0.1043455E-009  0.9118800E+02  0.7561462E-02  0.1125453E+00
         25   -1    0    0    0    0  0.00000000000E+00  0.00000000000E+00  0.99999998245E-14  0.12509000000E+03  0.12509000000E+03 0.  0.
        -11    1    3    3    0    0  0.17333626102E+02  0.36917071974E+02 -0.54148117254E+01  0.41141766895E+02  0.51100000000E-03 0.  1.
         23    2    1    0    0    0  0.56323834513E+01 -0.11453546982E+02 -0.26875507272E+02  0.95337682898E+02  0.90576340219E+02 0.  0.
         11    1    3    3    0    0 -0.11701242651E+02 -0.48370618956E+02 -0.21460695546E+02  0.54195916003E+02  0.51100000000E-03 0. -1.
         22    1    1    0    0    0 -0.56323834513E+01  0.11453546982E+02  0.26875507272E+02  0.29752317102E+02  0.00000000000E+00 0. -1.
</event>
<event>
 5    1  0.1043455E-009  0.9118800E+02  0.7561462E-02  0.1125453E+00
         25   -1    0    0    0    0  0.00000000000E+00  0.00000000000E+00  0.99999998245E-14  0.12509000000E+03  0.12509000000E+03 0.  0.
        -11    1    3    3    0    0  0.44570963077E+02 -0.96905118479E+01  0.83737790053E+01  0.46374529050E+02  0.51100000000E-03 0.  1.
         23    2    1    0    0    0  0.13332008592E+02  0.20068318810E+02  0.22851529858E+02  0.91883490249E+02  0.85673236723E+02 0.  0.
         11    1    3    3    0    0 -0.31238954485E+02  0.29758830658E+02  0.14477750853E+02  0.45508961199E+02  0.51100000000E-03 0. -1.
         22    1    1    0    0    0 -0.13332008592E+02 -0.20068318810E+02 -0.22851529858E+02  0.33206509751E+02  0.00000000000E+00 0.  1.
</event>
<event>
 5    1  0.1043455E-009  0.9118800E+02  0.7561462E-02  0.1125453E+00
         25   -1    0    0    0    0  0.00000000000E+00  0.00000000000E+00  0.99999998245E-14  0.12509000000E+03  0.12509000000E+03 0.  0.
        -11    1    3    3    0    0 -0.25711097926E+02  0.25641222158E+02 -0.16955576594E+02  0.40075234350E+02  0.51100000000E-03 0.  1.
         23    2    1    0    0    0  0.89252569728E+01 -0.15865259794E+02 -0.24402753634E+02  0.94645606998E+02  0.89615455468E+02 0.  0.
         11    1    3    3    0    0  0.34636354898E+02 -0.41506481953E+02 -0.74471770396E+01  0.54570372647E+02  0.51100000000E-03 0. -1.
         22    1    1    0    0    0 -0.89252569728E+01  0.15865259794E+02  0.24402753634E+02  0.30444393002E+02  0.00000000000E+00 0. -1.
</event>
<event>
 5    1  0.1043455E-009  0.9118800E+02  0.7561462E-02  0.1125453E+00
         25   -1    0    0    0    0  0.00000000000E+00  0.00000000000E+00  0.99999998245E-14  0.12509000000E+03  0.12509000000E+03 0.  0.
        -11    1    3    3    0    0 -0.60007306497E+01  0.31175634919E+01  0.37295284027E+02  0.37903379551E+02  0.51100000000E-03 0.  1.
         23    2    1    0    0    0  0.10704054471E+02 -0.20168697202E+02 -0.15163916397E+02  0.97680193554E+02  0.93755654354E+02 0.  0.
         11    1    3    3    0    0  0.16704785121E+02 -0.23286260694E+02 -0.52459200423E+02  0.59776814003E+02  0.51100000000E-03 0. -1.
         22    1    1    0    0    0 -0.10704054471E+02  0.20168697202E+02  0.15163916397E+02  0.27409806446E+02  0.00000000000E+00 0. -1.
</event>
<event>
 5    1  0.1043455E-009  0.9118800E+02  0.7561462E-02  0.1125453E+00
         25   -1    0    0    0    0  0.00000000000E+00  0.00000000000E+00  0.99999998245E-14  0.12509000000E+03  0.12509000000E+03 0.  0.
        -11    1    3    3    0    0 -0.18334748242E+02  0.36542319781E+02 -0.36114848758E+02  0.54550769281E+02  0.51100000000E-03 0.  1.
         23    2    1    0    0    0 -0.14859388508E+02 -0.34712570670E+01 -0.24263466866E+02  0.96427012074E+02  0.92068462465E+02 0.  0.
         11    1    3    3    0    0  0.34753597347E+01 -0.40013576848E+02  0.11851381892E+02  0.41876242793E+02  0.51100000000E-03 0. -1.
         22    1    1    0    0    0  0.14859388508E+02  0.34712570670E+01  0.24263466866E+02  0.28662987926E+02  0.00000000000E+00 0.  1.
</event>
<event>
 5    1  0.1043455E-009  0.9118800E+02  0.7561462E-02  0.1125453E+00
         25   -1    0    0    0    0  0.00000000000E+00  0.00000000000E+00  0.99999998245E-14  0.12509000000E+03  0.12509000000E+03 0.  0.
        -11    1    3    3    0    0 -0.99130751395E+01  0.38190808428E+01  0.41978734272E+02  0.43302061944E+02  0.51100000000E-03 0. -1.
         23    2    1    0    0    0 -0.26640216007E+02  0.88881719090E+01 -0.77032435267E+01  0.95968862151E+02  0.91443872583E+02 0.  0.
         11    1    3    3    0    0 -0.16727140867E+02  0.50690910662E+01 -0.49681977799E+02  0.52666800208E+02  0.51100000000E-03 0.  1.
         22    1    1    0    0    0  0.26640216007E+02 -0.88881719090E+01  0.77032435267E+01  0.29121137849E+02  0.00000000000E+00 0.  1.
</event>
<event>
 5    1  0.1043455E-009  0.9118800E+02  0.7561462E-02  0.1125453E+00
         25   -1    0    0    0    0  0.00000000000E+00  0.00000000000E+00  0.99999998245E-14  0.12509000000E+03  0.12509000000E+03 0.  0.
        -11    1    3    3    0    0  0.43984856730E+02  0.60176462408E+01  0.44627117991E+01  0.44618331263E+02  0.51100000000E-03 0. -1.
         23    2    1    0    0    0 -0.12661952132E+01  0.28721627900E+02  0.76317560644E+01  0.95344767438E+02  0.90586123759E+02 0.  0.
         11    1    3    3    0    0 -0.45251051943E+02  0.22703981659E+02  0.31690442654E+01  0.50726436175E+02  0.51100000000E-03 0.  1.
         22    1    1    0    0    0  0.12661952132E+01 -0.28721627900E+02 -0.76317560644E+01  0.29745232562E+02  0.00000000000E+00 0.  1.
</event>
<event>
 5    1  0.1043455E-009  0.9118800E+02  0.7561462E-02  0.1125453E+00
         25   -1    0    0    0    0  0.00000000000E+00  0.00000000000E+00  0.99999998245E-14  0.12509000000E+03  0.12509000000E+03 0.  0.
        -11    1    3    3    0    0 -0.33288743289E+02  0.21016036490E+02 -0.36557373299E+02  0.53723884468E+02  0.51100000000E-03 0. -1.
         23    2    1    0    0    0  0.34685952479E+01  0.24137169076E+02 -0.15374181652E+02  0.96262937273E+02  0.91845269595E+02 0.  0.
         11    1    3    3    0    0  0.36757338537E+02  0.31211325861E+01  0.21183191647E+02  0.42539052805E+02  0.51100000000E-03 0.  1.
         22    1    1    0    0    0 -0.34685952479E+01 -0.24137169076E+02  0.15374181652E+02  0.28827062727E+02  0.00000000000E+00 0. -1.
</event>
<event>
 5    1  0.1043455E-009  0.9118800E+02  0.7561462E-02  0.1125453E+00
         25   -1    0    0    0    0  0.00000000000E+00  0.00000000000E+00  0.99999998245E-14  0.12509000000E+03  0.12509000000E+03 0.  0.
        -11    1    3    3    0    0  0.38257975407E+02 -0.41631302849E+02  0.50428084573E+01  0.56765024236E+02  0.51100000000E-03 0. -1.
         23    2    1    0    0    0  0.20699301740E+02 -0.11545154524E+02  0.19418351932E+02  0.94449763753E+02  0.89341668866E+02 0.  0.
         11    1    3    3    0    0 -0.17558673666E+02  0.30086148325E+02  0.14375543475E+02  0.37684739517E+02  0.51100000000E-03 0.  1.
         22    1    1    0    0    0 -0.20699301740E+02  0.11545154524E+02 -0.19418351932E+02  0.30640236247E+02  0.00000000000E+00 0. -1.
</event>
<event>
 5    1  0.1043455E-009  0.9118800E+02  0.7561462E-02  0.1125453E+00
         25   -1    0    0    0    0  0.00000000000E+00  0.00000000000E+00  0.99999998245E-14  0.12509000000E+03  0.12509000000E+03 0.  0.
        -11    1    3    3    0    0  0.18077498241E+02 -0.45348845307E+02 -0.17929568319E+02  0.52007529586E+02  0.51100000000E-03 0.  1.
         23    2    1    0    0    0  0.15250490620E+02 -0.21873736831E+02  0.16469054687E+02  0.93748851499E+02  0.88354850279E+02 0.  0.
         11    1    3    3    0    0 -0.28270076209E+01  0.23475108476E+02  0.34398623006E+02  0.41741321912E+02  0.51100000000E-03 0. -1.
         22    1    1    0    0    0 -0.15250490620E+02  0.21873736831E+02 -0.16469054687E+02  0.31341148501E+02  0.00000000000E+00 0.  1.
</event>
<event>
 5    1  0.1043455E-009  0.9118800E+02  0.7561462E-02  0.1125453E+00
         25   -1    0    0    0    0  0.00000000000E+00  0.00000000000E+00  0.99999998245E-14  0.12509000000E+03  0.12509000000E+03 0.  0.
        -11    1    3    3    0    0  0.29854306745E+02 -0.38108819576E+01  0.27457462400E+01  0.30221541575E+02  0.51100000000E-03 0.  1.
         23    2    1    0    0    0 -0.32364832642E+02 -0.35781397715E+01 -0.47636333116E+00  0.92524490666E+02  0.86604093291E+02 0.  0.
         11    1    3    3    0    0 -0.62219139387E+02  0.23274218608E+00 -0.32221095712E+01  0.62302949090E+02  0.51100000000E-03 0. -1.
         22    1    1    0    0    0  0.32364832642E+02  0.35781397715E+01  0.47636333116E+00  0.32565509334E+02  0.00000000000E+00 0. -1.
</event>
<event>
 5    1  0.1043455E-009  0.9118800E+02  0.7561462E-02  0.1125453E+00
         25   -1    0    0    0    0  0.00000000000E+00  0.00000000000E+00  0.99999998245E-14  0.12509000000E+03  0.12509000000E+03 0.  0.
        -11    1    3    3    0    0  0.28559538685E+02 -0.22730301076E+02  0.20667885023E+01  0.36559341513E+02  0.51100000000E-03 0. -1.
         23    2    1    0    0    0 -0.25048787411E+02 -0.56384954249E+00  0.14854454842E+02  0.95962444219E+02  0.91435092797E+02 0.  0.
         11    1    3    3    0    0 -0.53608326096E+02  0.22166451534E+02  0.12787666340E+02  0.59403102706E+02  0.51100000000E-03 0.  1.
         22    1    1    0    0    0  0.25048787411E+02  0.56384954249E+00 -0.14854454842E+02  0.29127555781E+02  0.00000000000E+00 0.  1.
</event>
<event>
 5    1  0.1043455E-009  0.9118800E+02  0.7561462E-02  0.1125453E+00
         25   -1    0    0    0    0  0.00000000000E+00  0.00000000000E+00  0.99999998245E-14  0.12509000000E+03  0.12509000000E+03 0.  0.
        -11    1    3    3    0    0  0.21805231647E+02 -0.84665579151E+01 -0.31600759380E+02  0.39316138210E+02  0.51100000000E-03 0.  1.
         23    2    1    0    0    0 -0.13631024904E+02  0.25957694323E+02 -0.52624674658E+01  0.95302413687E+02  0.90527618748E+02 0.  0.
         11    1    3    3    0    0 -0.35436256551E+02  0.34424252238E+02  0.26338291915E+02  0.55986275477E+02  0.51100000000E-03 0. -1.
         22    1    1    0    0    0  0.13631024904E+02 -0.25957694323E+02  0.52624674658E+01  0.29787586313E+02  0.00000000000E+00 0. -1.
</event>
<event>
 5    1  0.1043455E-009  0.9118800E+02  0.7561462E-02  0.1125453E+00
         25   -1    0    0    0    0  0.00000000000E+00  0.00000000000E+00  0.99999998245E-14  0.12509000000E+03  0.12509000000E+03 0.  0.
        -11    1    3    3    0    0 -0.25741659448E+02 -0.12614503587E+02 -0.53457228827E+02  0.60658338636E+02  0.51100000000E-03 0.  1.
         23    2    1    0    0    0 -0.25769366103E+01 -0.65100430017E+01 -0.30352526481E+02  0.93940407291E+02  0.88625633967E+02 0.  0.
         11    1    3    3    0    0  0.23164722838E+02  0.61044605849E+01  0.23104702347E+02  0.33282068655E+02  0.51100000000E-03 0. -1.
         22    1    1    0    0    0  0.25769366103E+01  0.65100430017E+01  0.30352526481E+02  0.31149592709E+02  0.00000000000E+00 0.  1.
</event>
<event>
 5    1  0.1043455E-009  0.9118800E+02  0.7561462E-02  0.1125453E+00
         25   -1    0    0    0    0  0.00000000000E+00  0.00000000000E+00  0.99999998245E-14  0.12509000000E+03  0.12509000000E+03 0.  0.
        -11    1    3    3    0    0  0.36585175723E+02  0.39215373175E+02  0.30164523759E+02  0.61532260399E+02  0.51100000000E-03 0. -1.
         23    2    1    0    0    0  0.10559579822E+02  0.22394504606E+02  0.16050938825E+02  0.95583200789E+02  0.90914779180E+02 0.  0.
         11    1    3    3    0    0 -0.26025595901E+02 -0.16820868570E+02 -0.14113584934E+02  0.34050940390E+02  0.51100000000E-03 0.  1.
         22    1    1    0    0    0 -0.10559579822E+02 -0.22394504606E+02 -0.16050938825E+02  0.29506799211E+02  0.00000000000E+00 0. -1.
</event>
<event>
 5    1  0.1043455E-009  0.9118800E+02  0.7561462E-02  0.1125453E+00
         25   -1    0    0    0    0  0.00000000000E+00  0.00000000000E+00  0.99999998245E-14  0.12509000000E+03  0.12509000000E+03 0.  0.
        -11    1    3    3    0    0  0.12867393830E+02 -0.22416718111E+02 -0.39053308971E+02  0.46832040493E+02  0.51100000000E-03 0.  1.
         23    2    1    0    0    0 -0.10844603560E+01 -0.27900225595E+02  0.78610170623E+01  0.96083203697E+02  0.91600151752E+02 0.  0.
         11    1    3    3    0    0 -0.13951854186E+02 -0.54835074841E+01  0.46914326034E+02  0.49251163205E+02  0.51100000000E-03 0. -1.
         22    1    1    0    0    0  0.10844603560E+01  0.27900225595E+02 -0.78610170623E+01  0.29006796303E+02  0.00000000000E+00 0. -1.
</event>
<event>
 5    1  0.1043455E-009  0.9118800E+02  0.7561462E-02  0.1125453E+00
         25   -1    0    0    0    0  0.00000000000E+00  0.00000000000E+00  0.99999998245E-14  0.12509000000E+03  0.12509000000E+03 0.  0.
        -11    1    3    3    0    0 -0.20009869649E+00 -0.10932158443E+02 -0.45093331553E+02  0.46400007312E+02  0.51100000000E-03 0.  1.
         23    2    1    0    0    0 -0.10563387928E+02 -0.26492808629E+02  0.14235821355E+01  0.96533378007E+02  0.92212864665E+02 0.  0.
         11    1    3    3    0    0 -0.10363289232E+02 -0.15560650186E+02  0.46516913688E+02  0.50133370695E+02  0.51100000000E-03 0. -1.
         22    1    1    0    0    0  0.10563387928E+02  0.26492808629E+02 -0.14235821355E+01  0.28556621993E+02  0.00000000000E+00 0. -1.
</event>
<event>
 5    1  0.1043455E-009  0.9118800E+02  0.7561462E-02  0.1125453E+00
         25   -1    0    0    0    0  0.00000000000E+00  0.00000000000E+00  0.99999998245E-14  0.12509000000E+03  0.12509000000E+03 0.  0.
        -11    1    3    3    0    0 -0.36151766537E+01 -0.14918589395E+02 -0.40769418117E+02  0.43563508417E+02  0.51100000000E-03 0.  1.
         23    2    1    0    0    0 -0.18789496966E+02  0.21310300616E+02 -0.59293571603E+01  0.96067054165E+02  0.91578095149E+02 0.  0.
         11    1    3    3    0    0 -0.15174320313E+02  0.36228890012E+02  0.34840060956E+02  0.52503545748E+02  0.51100000000E-03 0. -1.
         22    1    1    0    0    0  0.18789496966E+02 -0.21310300616E+02  0.59293571603E+01  0.29022945835E+02  0.00000000000E+00 0. -1.
</event>
<event>
 5    1  0.1043455E-009  0.9118800E+02  0.7561462E-02  0.1125453E+00
         25   -1    0    0    0    0  0.00000000000E+00  0.00000000000E+00  0.99999998245E-14  0.12509000000E+03  0.12509000000E+03 0.  0.
        -11    1    3    3    0    0  0.19384949372E+02  0.97024729844E+01  0.24956837649E+02  0.33056890203E+02  0.51100000000E-03 0.  1.
         23    2    1    0    0    0 -0.25913867513E+02 -0.13105857740E+02 -0.96877704162E+01  0.94477176997E+02  0.89380042745E+02 0.  0.
         11    1    3    3    0    0 -0.45298816885E+02 -0.22808330724E+02 -0.34644608065E+02  0.61420286794E+02  0.51100000000E-03 0. -1.
         22    1    1    0    0    0  0.25913867513E+02  0.13105857740E+02  0.96877704162E+01  0.30612823003E+02  0.00000000000E+00 0. -1.
</event>
<event>
 5    1  0.1043455E-009  0.9118800E+02  0.7561462E-02  0.1125453E+00
         25   -1    0    0    0    0  0.00000000000E+00  0.00000000000E+00  0.99999998245E-14  0.12509000000E+03  0.12509000000E+03 0.  0.
        -11    1    3    3    0    0  0.14437432215E+02 -0.18740055644E+02 -0.25930436406E+02  0.35100094970E+02  0.51100000000E-03 0.  1.
         23    2    1    0    0    0  0.49845092382E+01  0.70247679479E+01  0.28099166981E+02  0.95700275910E+02  0.91075720843E+02 0.  0.
         11    1    3    3    0    0 -0.94529229767E+01  0.25764823592E+02  0.54029603387E+02  0.60600180939E+02  0.51100000000E-03 0. -1.
         22    1    1    0    0    0 -0.49845092382E+01 -0.70247679479E+01 -0.28099166981E+02  0.29389724090E+02  0.00000000000E+00 0. -1.
</event>
<event>
 5    1  0.1043455E-009  0.9118800E+02  0.7561462E-02  0.1125453E+00
         25   -1    0    0    0    0  0.00000000000E+00  0.00000000000E+00  0.99999998245E-14  0.12509000000E+03  0.12509000000E+03 0.  0.
        -11    1    3    3    0    0 -0.12279826511E+02 -0.33551958733E+02 -0.43653955859E+02  0.56410955819E+02  0.51100000000E-03 0. -1.
         23    2    1    0    0    0  0.12112125716E+02 -0.17664969705E+02 -0.85154404640E+01  0.10204075988E+03  0.99403466768E+02 0.  0.
         11    1    3    3    0    0  0.24391952227E+02  0.15886989028E+02  0.35138515395E+02  0.45629804057E+02  0.51100000000E-03 0.  1.
         22    1    1    0    0    0 -0.12112125716E+02  0.17664969705E+02  0.85154404640E+01  0.23049240125E+02  0.00000000000E+00 0. -1.
</event>
<event>
 5    1  0.1043455E-009  0.9118800E+02  0.7561462E-02  0.1125453E+00
         25   -1    0    0    0    0  0.00000000000E+00  0.00000000000E+00  0.99999998245E-14  0.12509000000E+03  0.12509000000E+03 0.  0.
        -11    1    3    3    0    0  0.14373092190E+02 -0.12964323854E+02 -0.58114137711E+02  0.61252856866E+02  0.51100000000E-03 0.  1.
         23    2    1    0    0    0 -0.40703912288E+00 -0.11527116848E+02 -0.27025355597E+02  0.95706161775E+02  0.91083804559E+02 0.  0.
         11    1    3    3    0    0 -0.14780131313E+02  0.14372070065E+01  0.31088782114E+02  0.34453304909E+02  0.51100000000E-03 0. -1.
         22    1    1    0    0    0  0.40703912288E+00  0.11527116848E+02  0.27025355597E+02  0.29383838225E+02  0.00000000000E+00 0.  1.
</event>
<event>
 5    1  0.1043455E-009  0.9118800E+02  0.7561462E-02  0.1125453E+00
         25   -1    0    0    0    0  0.00000000000E+00  0.00000000000E+00  0.99999998245E-14  0.12509000000E+03  0.12509000000E+03 0.  0.
        -11    1    3    3    0    0 -0.20622771023E+01 -0.42003833343E+02 -0.31774922304E+01  0.42174298566E+02  0.51100000000E-03 0.  1.
         23    2    1    0    0    0 -0.24438243437E+02  0.55340534477E+01 -0.14804591415E+02  0.95986230195E+02  0.91467627991E+02 0.  0.
         11    1    3    3    0    0 -0.22375966335E+02  0.47537886791E+02 -0.11627099185E+02  0.53811931630E+02  0.51100000000E-03 0. -1.
         22    1    1    0    0    0  0.24438243437E+02 -0.55340534477E+01  0.14804591415E+02  0.29103769805E+02  0.00000000000E+00 0. -1.
</event>
<event>
 5    1  0.1043455E-009  0.9118800E+02  0.7561462E-02  0.1125453E+00
         25   -1    0    0    0    0  0.00000000000E+00  0.00000000000E+00  0.99999998245E-14  0.12509000000E+03  0.12509000000E+03 0.  0.
        -11    1    3    3    0    0  0.28460580297E+02 -0.44356033848E+01 -0.31969455567E+02  0.43031677840E+02  0.51100000000E-03 0.  1.
         23    2    1    0    0    0  0.87648863466E+01  0.27531732028E+02  0.50486284997E+01  0.95758989944E+02  0.91156327286E+02 0.  0.
         11    1    3    3    0    0 -0.19695693950E+02  0.31967335413E+02  0.37018084066E+02  0.52727312105E+02  0.51100000000E-03 0. -1.
         22    1    1    0    0    0 -0.87648863466E+01 -0.27531732028E+02 -0.50486284997E+01  0.29331010056E+02  0.00000000000E+00 0. -1.
</event>
<event>
 5    1  0.1043455E-009  0.9118800E+02  0.7561462E-02  0.1125453E+00
         25   -1    0    0    0    0  0.00000000000E+00  0.00000000000E+00  0.99999998245E-14  0.12509000000E+03  0.12509000000E+03 0.  0.
        -11    1    3    3    0    0 -0.42669670476E+02 -0.14176363585E+02  0.39965677605E+02  0.60157505348E+02  0.51100000000E-03 0.  1.
         23    2    1    0    0    0 -0.19251285433E+02  0.53260497414E+01  0.21273156036E+02  0.95909082188E+02  0.91362060406E+02 0.  0.
         11    1    3    3    0    0  0.23418385044E+02  0.19502413326E+02 -0.18692521570E+02  0.35751576839E+02  0.51100000000E-03 0. -1.
         22    1    1    0    0    0  0.19251285433E+02 -0.53260497414E+01 -0.21273156036E+02  0.29180917812E+02  0.00000000000E+00 0.  1.
</event>
<event>
 5    1  0.1043455E-009  0.9118800E+02  0.7561462E-02  0.1125453E+00
         25   -1    0    0    0    0  0.00000000000E+00  0.00000000000E+00  0.99999998245E-14  0.12509000000E+03  0.12509000000E+03 0.  0.
        -11    1    3    3    0    0 -0.60363952352E+01  0.31748772709E+02 -0.51383354273E+01  0.32723464474E+02  0.51100000000E-03 0.  1.
         23    2    1    0    0    0  0.46762848337E+00 -0.29163498248E+02  0.68146229246E+01  0.95137247338E+02  0.90299105416E+02 0.  0.
         11    1    3    3    0    0  0.65040237185E+01 -0.60912270957E+02  0.11952958352E+02  0.62413782863E+02  0.51100000000E-03 0. -1.
         22    1    1    0    0    0 -0.46762848337E+00  0.29163498248E+02 -0.68146229246E+01  0.29952752662E+02  0.00000000000E+00 0. -1.
</event>
<event>
 4    1  0.1043455E-009  0.9118800E+02  0.7561462E-02  0.1125453E+00
         25   -1    0    0    0    0  0.00000000000E+00  0.00000000000E+00  0.99999998245E-14  0.12509000000E+03  0.12509000000E+03 0.  0.
        -11    1    1    0    0    0 -0.34255418764E+02  0.39999369752E+02  0.11222729923E+01  0.52674878189E+02  0.51100000000E-03 0. -1.
         11    1    1    0    0    0  0.12125747049E+02  0.44149938055E+01 -0.16051757013E+02  0.20595747504E+02  0.51100000000E-03 0.  1.
         22    1    1    0    0    0  0.22129671715E+02 -0.44414363557E+02  0.14929484020E+02  0.51819374307E+02  0.00000000000E+00 0. -1.
</event>
<event>
 5    1  0.1043455E-009  0.9118800E+02  0.7561462E-02  0.1125453E+00
         25   -1    0    0    0    0  0.00000000000E+00  0.00000000000E+00  0.99999998245E-14  0.12509000000E+03  0.12509000000E+03 0.  0.
        -11    1    3    3    0    0  0.38980974367E+02  0.35316950695E+02 -0.27855627678E+02  0.59520915338E+02  0.51100000000E-03 0.  1.
         23    2    1    0    0    0  0.86584252267E+01  0.14653499922E+02 -0.22914437439E+02  0.96545914264E+02  0.92229868972E+02 0.  0.
         11    1    3    3    0    0 -0.30322549140E+02 -0.20663450773E+02  0.49411902397E+01  0.37024998926E+02  0.51100000000E-03 0. -1.
         22    1    1    0    0    0 -0.86584252267E+01 -0.14653499922E+02  0.22914437439E+02  0.28544085736E+02  0.00000000000E+00 0.  1.
</event>
<event>
 5    1  0.1043455E-009  0.9118800E+02  0.7561462E-02  0.1125453E+00
         25   -1    0    0    0    0  0.00000000000E+00  0.00000000000E+00  0.99999998245E-14  0.12509000000E+03  0.12509000000E+03 0.  0.
        -11    1    3    3    0    0  0.38021272462E+01 -0.34804149182E+02 -0.21652744930E+02  0.41165839420E+02  0.51100000000E-03 0. -1.
         23    2    1    0    0    0  0.21298768932E+02  0.16058662874E+02 -0.12116625380E+02  0.95792716476E+02  0.91202597046E+02 0.  0.
         11    1    3    3    0    0  0.17496641685E+02  0.50862812056E+02  0.95361195502E+01  0.54626877056E+02  0.51100000000E-03 0.  1.
         22    1    1    0    0    0 -0.21298768932E+02 -0.16058662874E+02  0.12116625380E+02  0.29297283524E+02  0.00000000000E+00 0. -1.
</event>
<event>
 5    1  0.1043455E-009  0.9118800E+02  0.7561462E-02  0.1125453E+00
         25   -1    0    0    0    0  0.00000000000E+00  0.00000000000E+00  0.99999998245E-14  0.12509000000E+03  0.12509000000E+03 0.  0.
        -11    1    3    3    0    0 -0.52124555046E+01 -0.78632152137E+01  0.52892401097E+02  0.53727143419E+02  0.51100000000E-03 0.  1.
         23    2    1    0    0    0  0.20004684115E+02  0.33929234018E+01  0.22632528251E+02  0.94693772424E+02  0.89682662121E+02 0.  0.
         11    1    3    3    0    0  0.25217139620E+02  0.11256138616E+02 -0.30259872846E+02  0.40966629005E+02  0.51100000000E-03 0. -1.
         22    1    1    0    0    0 -0.20004684115E+02 -0.33929234018E+01 -0.22632528251E+02  0.30396227576E+02  0.00000000000E+00 0. -1.
</event>
<event>
 5    1  0.1043455E-009  0.9118800E+02  0.7561462E-02  0.1125453E+00
         25   -1    0    0    0    0  0.00000000000E+00  0.00000000000E+00  0.99999998245E-14  0.12509000000E+03  0.12509000000E+03 0.  0.
        -11    1    3    3    0    0  0.87132642308E+01  0.30001259328E+02  0.51833963292E+02  0.60520709561E+02  0.51100000000E-03 0. -1.
         23    2    1    0    0    0 -0.69106813670E+01  0.12921675401E+02  0.26284959576E+02  0.94996374229E+02  0.90103744676E+02 0.  0.
         11    1    3    3    0    0 -0.15623945598E+02 -0.17079583927E+02 -0.25549003717E+02  0.34475664668E+02  0.51100000000E-03 0.  1.
         22    1    1    0    0    0  0.69106813670E+01 -0.12921675401E+02 -0.26284959576E+02  0.30093625771E+02  0.00000000000E+00 0. -1.
</event>
<event>
 5    1  0.1043455E-009  0.9118800E+02  0.7561462E-02  0.1125453E+00
         25   -1    0    0    0    0  0.00000000000E+00  0.00000000000E+00  0.99999998245E-14  0.12509000000E+03  0.12509000000E+03 0.  0.
        -11    1    3    3    0    0  0.14176909247E+02  0.28917173671E+02 -0.64980582732E+01  0.32854412953E+02  0.51100000000E-03 0.  1.
         23    2    1    0    0    0 -0.33938253467E+02  0.10269066929E+02 -0.17395279213E+02  0.85595006357E+02  0.75938465815E+02 0.  0.
         11    1    3    3    0    0 -0.48115162714E+02 -0.18648106742E+02 -0.10897220940E+02  0.52740593403E+02  0.51100000000E-03 0. -1.
         22    1    1    0    0    0  0.33938253467E+02 -0.10269066929E+02  0.17395279213E+02  0.39494993643E+02  0.00000000000E+00 0. -1.
</event>
<event>
 5    1  0.1043455E-009  0.9118800E+02  0.7561462E-02  0.1125453E+00
         25   -1    0    0    0    0  0.00000000000E+00  0.00000000000E+00  0.99999998245E-14  0.12509000000E+03  0.12509000000E+03 0.  0.
        -11    1    3    3    0    0  0.40165739298E+02  0.17906989270E+02  0.24164205746E+02  0.50178239484E+02  0.51100000000E-03 0.  1.
         23    2    1    0    0    0  0.23506731782E+02  0.67200464665E+01 -0.16548423393E+02  0.95567537698E+02  0.90893225717E+02 0.  0.
         11    1    3    3    0    0 -0.16659007516E+02 -0.11186942804E+02 -0.40712629139E+02  0.45389298214E+02  0.51100000000E-03 0. -1.
         22    1    1    0    0    0 -0.23506731782E+02 -0.67200464665E+01  0.16548423393E+02  0.29522462302E+02  0.00000000000E+00 0. -1.
</event>
<event>
 5    1  0.1043455E-009  0.9118800E+02  0.7561462E-02  0.1125453E+00
         25   -1    0    0    0    0  0.00000000000E+00  0.00000000000E+00  0.99999998245E-14  0.12509000000E+03  0.12509000000E+03 0.  0.
        -11    1    3    3    0    0 -0.34079703938E+02 -0.60193577533E+01  0.44382230391E+01  0.34890639322E+02  0.51100000000E-03 0. -1.
         23    2    1    0    0    0  0.19475422019E+02  0.64547455483E+01 -0.21221936912E+02  0.95571761414E+02  0.90899038337E+02 0.  0.
         11    1    3    3    0    0  0.53555125957E+02  0.12474103302E+02 -0.25660159951E+02  0.60681122093E+02  0.51100000000E-03 0.  1.
         22    1    1    0    0    0 -0.19475422019E+02 -0.64547455483E+01  0.21221936912E+02  0.29518238586E+02  0.00000000000E+00 0.  1.
</event>
<event>
 5    1  0.1043455E-009  0.9118800E+02  0.7561462E-02  0.1125453E+00
         25   -1    0    0    0    0  0.00000000000E+00  0.00000000000E+00  0.99999998245E-14  0.12509000000E+03  0.12509000000E+03 0.  0.
        -11    1    3    3    0    0 -0.34159275746E+02 -0.31438542390E+02 -0.11513855318E+02  0.47831024781E+02  0.51100000000E-03 0. -1.
         23    2    1    0    0    0 -0.19543631950E+02 -0.22170912913E+01  0.22642142009E+02  0.95097740359E+02  0.90244360395E+02 0.  0.
         11    1    3    3    0    0  0.14615643795E+02  0.29221451099E+02  0.34155997327E+02  0.47266715578E+02  0.51100000000E-03 0.  1.
         22    1    1    0    0    0  0.19543631950E+02  0.22170912913E+01 -0.22642142009E+02  0.29992259641E+02  0.00000000000E+00 0. -1.
</event>
<event>
 5    1  0.1043455E-009  0.9118800E+02  0.7561462E-02  0.1125453E+00
         25   -1    0    0    0    0  0.00000000000E+00  0.00000000000E+00  0.99999998245E-14  0.12509000000E+03  0.12509000000E+03 0.  0.
        -11    1    3    3    0    0  0.28748081231E+02 -0.13082835949E+02  0.14599536485E+02  0.34795965812E+02  0.51100000000E-03 0. -1.
         23    2    1    0    0    0 -0.26375664666E+02 -0.84523436467E+01 -0.10405714876E+02  0.95502896360E+02  0.90804220780E+02 0.  0.
         11    1    3    3    0    0 -0.55123745897E+02  0.46304923025E+01 -0.25005251361E+02  0.60706930548E+02  0.51100000000E-03 0.  1.
         22    1    1    0    0    0  0.26375664666E+02  0.84523436467E+01  0.10405714876E+02  0.29587103640E+02  0.00000000000E+00 0.  1.
</event>
<event>
 5    1  0.1043455E-009  0.9118800E+02  0.7561462E-02  0.1125453E+00
         25   -1    0    0    0    0  0.00000000000E+00  0.00000000000E+00  0.99999998245E-14  0.12509000000E+03  0.12509000000E+03 0.  0.
        -11    1    3    3    0    0  0.30078368786E+02 -0.10381773940E+02 -0.10205493620E+02  0.33416187683E+02  0.51100000000E-03 0.  1.
         23    2    1    0    0    0 -0.28542768983E+02 -0.21183514589E+00  0.76583845687E+01  0.95536905585E+02  0.90851059098E+02 0.  0.
         11    1    3    3    0    0 -0.58621137769E+02  0.10169938794E+02  0.17863878189E+02  0.62120717902E+02  0.51100000000E-03 0. -1.
         22    1    1    0    0    0  0.28542768983E+02  0.21183514589E+00 -0.76583845687E+01  0.29553094415E+02  0.00000000000E+00 0. -1.
</event>
<event>
 5    1  0.1043455E-009  0.9118800E+02  0.7561462E-02  0.1125453E+00
         25   -1    0    0    0    0  0.00000000000E+00  0.00000000000E+00  0.99999998245E-14  0.12509000000E+03  0.12509000000E+03 0.  0.
        -11    1    3    3    0    0 -0.49974559233E+02 -0.27886829143E+02  0.74610937880E+01  0.57713081108E+02  0.51100000000E-03 0. -1.
         23    2    1    0    0    0 -0.22471605078E+02 -0.36642095490E+01  0.18242357011E+02  0.95914958343E+02  0.91370105495E+02 0.  0.
         11    1    3    3    0    0  0.27502954156E+02  0.24222619594E+02  0.10781263223E+02  0.38201877234E+02  0.51100000000E-03 0.  1.
         22    1    1    0    0    0  0.22471605078E+02  0.36642095490E+01 -0.18242357011E+02  0.29175041657E+02  0.00000000000E+00 0. -1.
</event>
<event>
 5    1  0.1043455E-009  0.9118800E+02  0.7561462E-02  0.1125453E+00
         25   -1    0    0    0    0  0.00000000000E+00  0.00000000000E+00  0.99999998245E-14  0.12509000000E+03  0.12509000000E+03 0.  0.
        -11    1    3    3    0    0  0.52353204313E+02 -0.66631515391E+01 -0.13097467092E+02  0.54376458461E+02  0.51100000000E-03 0.  1.
         23    2    1    0    0    0  0.21929804000E+02 -0.15431773303E+02  0.12889896010E+02  0.95337599258E+02  0.90576224709E+02 0.  0.
         11    1    3    3    0    0 -0.30423400313E+02 -0.87686217640E+01  0.25987363101E+02  0.40961140798E+02  0.51100000000E-03 0. -1.
         22    1    1    0    0    0 -0.21929804000E+02  0.15431773303E+02 -0.12889896010E+02  0.29752400742E+02  0.00000000000E+00 0.  1.
</event>
<event>
 5    1  0.1043455E-009  0.9118800E+02  0.7561462E-02  0.1125453E+00
         25   -1    0    0    0    0  0.00000000000E+00  0.00000000000E+00  0.99999998245E-14  0.12509000000E+03  0.12509000000E+03 0.  0.
        -11    1    3    3    0    0 -0.17263325941E+02  0.30017386755E+02  0.34167656141E+02  0.48646630475E+02  0.51100000000E-03 0. -1.
         23    2    1    0    0    0  0.48485434315E+01 -0.94357573640E+01  0.29051535202E+02  0.94162122801E+02  0.88938022141E+02 0.  0.
         11    1    3    3    0    0  0.22111869372E+02 -0.39453144119E+02 -0.51161209384E+01  0.45515492326E+02  0.51100000000E-03 0.  1.
         22    1    1    0    0    0 -0.48485434315E+01  0.94357573640E+01 -0.29051535202E+02  0.30927877199E+02  0.00000000000E+00 0. -1.
</event>
<event>
 5    1  0.1043455E-009  0.9118800E+02  0.7561462E-02  0.1125453E+00
         25   -1    0    0    0    0  0.00000000000E+00  0.00000000000E+00  0.99999998245E-14  0.12509000000E+03  0.12509000000E+03 0.  0.
        -11    1    3    3    0    0 -0.13963084939E+02  0.34907698324E+02 -0.14474154811E+02  0.40286676471E+02  0.51100000000E-03 0.  1.
         23    2    1    0    0    0  0.53647226776E+01 -0.20092080435E+02 -0.16384607186E+02  0.98614968400E+02  0.94994656135E+02 0.  0.
         11    1    3    3    0    0  0.19327807617E+02 -0.54999778759E+02 -0.19104523752E+01  0.58328291929E+02  0.51100000000E-03 0. -1.
         22    1    1    0    0    0 -0.53647226776E+01  0.20092080435E+02  0.16384607186E+02  0.26475031600E+02  0.00000000000E+00 0. -1.
</event>
<event>
 5    1  0.1043455E-009  0.9118800E+02  0.7561462E-02  0.1125453E+00
         25   -1    0    0    0    0  0.00000000000E+00  0.00000000000E+00  0.99999998245E-14  0.12509000000E+03  0.12509000000E+03 0.  0.
        -11    1    3    3    0    0 -0.46563899225E+02 -0.28502170975E+02  0.23891364680E+02  0.59593353386E+02  0.51100000000E-03 0. -1.
         23    2    1    0    0    0 -0.19075918242E+02 -0.21325515828E+02  0.37163623856E+00  0.96475206700E+02  0.92133919445E+02 0.  0.
         11    1    3    3    0    0  0.27487980983E+02  0.71766551462E+01 -0.23519728442E+02  0.36881853314E+02  0.51100000000E-03 0.  1.
         22    1    1    0    0    0  0.19075918242E+02  0.21325515828E+02 -0.37163623856E+00  0.28614793300E+02  0.00000000000E+00 0. -1.
</event>
<event>
 5    1  0.1043455E-009  0.9118800E+02  0.7561462E-02  0.1125453E+00
         25   -1    0    0    0    0  0.00000000000E+00  0.00000000000E+00  0.99999998245E-14  0.12509000000E+03  0.12509000000E+03 0.  0.
        -11    1    3    3    0    0  0.19007598716E+02 -0.11506738991E+02  0.50847400895E+02  0.55490107489E+02  0.51100000000E-03 0.  1.
         23    2    1    0    0    0  0.24270860339E+02 -0.12789572089E+02  0.11279210746E+02  0.95427424069E+02  0.90700192136E+02 0.  0.
         11    1    3    3    0    0  0.52632616231E+01 -0.12828330983E+01 -0.39568190149E+02  0.39937316580E+02  0.51100000000E-03 0. -1.
         22    1    1    0    0    0 -0.24270860339E+02  0.12789572089E+02 -0.11279210746E+02  0.29662575931E+02  0.00000000000E+00 0.  1.
</event>
<event>
 5    1  0.1043455E-009  0.9118800E+02  0.7561462E-02  0.1125453E+00
         25   -1    0    0    0    0  0.00000000000E+00  0.00000000000E+00  0.99999998245E-14  0.12509000000E+03  0.12509000000E+03 0.  0.
        -11    1    3    3    0    0  0.99598163496E+01  0.29623676444E+02  0.13825704266E+02  0.34174701849E+02  0.51100000000E-03 0.  1.
         23    2    1    0    0    0  0.94827250370E+01 -0.27662635964E+02 -0.68072189041E+01  0.95065314626E+02  0.90199403064E+02 0.  0.
         11    1    3    3    0    0 -0.47709131265E+00 -0.57286312408E+02 -0.20632923170E+02  0.60890612776E+02  0.51100000000E-03 0. -1.
         22    1    1    0    0    0 -0.94827250370E+01  0.27662635964E+02  0.68072189041E+01  0.30024685374E+02  0.00000000000E+00 0. -1.
</event>
<event>
 5    1  0.1043455E-009  0.9118800E+02  0.7561462E-02  0.1125453E+00
         25   -1    0    0    0    0  0.00000000000E+00  0.00000000000E+00  0.99999998245E-14  0.12509000000E+03  0.12509000000E+03 0.  0.
        -11    1    3    3    0    0 -0.23606881591E+02 -0.40024118751E+02 -0.28079091046E+02  0.54292267354E+02  0.51100000000E-03 0. -1.
         23    2    1    0    0    0 -0.12848080479E+02 -0.14831874069E+02 -0.37089413207E+02  0.83129515822E+02  0.71762345059E+02 0.  0.
         11    1    3    3    0    0  0.10758801112E+02  0.25192244682E+02 -0.90103221611E+01  0.28837248468E+02  0.51100000000E-03 0.  1.
         22    1    1    0    0    0  0.12848080479E+02  0.14831874069E+02  0.37089413207E+02  0.41960484178E+02  0.00000000000E+00 0. -1.
</event>
<event>
 5    1  0.1043455E-009  0.9118800E+02  0.7561462E-02  0.1125453E+00
         25   -1    0    0    0    0  0.00000000000E+00  0.00000000000E+00  0.99999998245E-14  0.12509000000E+03  0.12509000000E+03 0.  0.
        -11    1    3    3    0    0  0.45162064993E+02  0.14394731049E+02  0.22972833257E+02  0.52674201128E+02  0.51100000000E-03 0. -1.
         23    2    1    0    0    0  0.12627684544E+02 -0.18457168570E+02  0.90967963432E+01  0.10094715029E+03  0.98017600250E+02 0.  0.
         11    1    3    3    0    0 -0.32534380449E+02 -0.32851899619E+02 -0.13876036913E+02  0.48272949159E+02  0.51100000000E-03 0.  1.
         22    1    1    0    0    0 -0.12627684544E+02  0.18457168570E+02 -0.90967963432E+01  0.24142849713E+02  0.00000000000E+00 0. -1.
</event>
<event>
 5    1  0.1043455E-009  0.9118800E+02  0.7561462E-02  0.1125453E+00
         25   -1    0    0    0    0  0.00000000000E+00  0.00000000000E+00  0.99999998245E-14  0.12509000000E+03  0.12509000000E+03 0.  0.
        -11    1    3    3    0    0  0.19717149626E+02 -0.50279789370E+02  0.11349411920E+02  0.55187248161E+02  0.51100000000E-03 0.  1.
         23    2    1    0    0    0  0.74306784104E+01 -0.15782138802E+02  0.25286785852E+02  0.94370097241E+02  0.89230055630E+02 0.  0.
         11    1    3    3    0    0 -0.12286471215E+02  0.34497650568E+02  0.13937373932E+02  0.39182849080E+02  0.51100000000E-03 0. -1.
         22    1    1    0    0    0 -0.74306784104E+01  0.15782138802E+02 -0.25286785852E+02  0.30719902759E+02  0.00000000000E+00 0.  1.
</event>
<event>
 5    1  0.1043455E-009  0.9118800E+02  0.7561462E-02  0.1125453E+00
         25   -1    0    0    0    0  0.00000000000E+00  0.00000000000E+00  0.99999998245E-14  0.12509000000E+03  0.12509000000E+03 0.  0.
        -11    1    3    3    0    0 -0.12949515499E+02 -0.35106962683E+02  0.15722983517E+02  0.40588187831E+02  0.51100000000E-03 0. -1.
         23    2    1    0    0    0 -0.23266318964E+02  0.10394694823E+02 -0.14104450013E+02  0.95964293335E+02  0.91437622490E+02 0.  0.
         11    1    3    3    0    0 -0.10316803465E+02  0.45501657506E+02 -0.29827433530E+02  0.55376105504E+02  0.51100000000E-03 0.  1.
         22    1    1    0    0    0  0.23266318964E+02 -0.10394694823E+02  0.14104450013E+02  0.29125706665E+02  0.00000000000E+00 0.  1.
</event>
<event>
 5    1  0.1043455E-009  0.9118800E+02  0.7561462E-02  0.1125453E+00
         25   -1    0    0    0    0  0.00000000000E+00  0.00000000000E+00  0.99999998245E-14  0.12509000000E+03  0.12509000000E+03 0.  0.
        -11    1    3    3    0    0  0.12973943445E+02  0.11028734694E+02 -0.29055539224E+02  0.33677597261E+02  0.51100000000E-03 0. -1.
         23    2    1    0    0    0 -0.10075106848E+02 -0.30819053633E+01  0.27108791758E+02  0.96005768718E+02  0.91494344732E+02 0.  0.
         11    1    3    3    0    0 -0.23049050293E+02 -0.14110640058E+02  0.56164330982E+02  0.62328171457E+02  0.51100000000E-03 0.  1.
         22    1    1    0    0    0  0.10075106848E+02  0.30819053633E+01 -0.27108791758E+02  0.29084231282E+02  0.00000000000E+00 0.  1.
</event>
<event>
 5    1  0.1043455E-009  0.9118800E+02  0.7561462E-02  0.1125453E+00
         25   -1    0    0    0    0  0.00000000000E+00  0.00000000000E+00  0.99999998245E-14  0.12509000000E+03  0.12509000000E+03 0.  0.
        -11    1    3    3    0    0 -0.51183384617E+02  0.35173293289E+02  0.40898067566E+01  0.62238460306E+02  0.51100000000E-03 0.  1.
         23    2    1    0    0    0 -0.22332477615E+02  0.17064891516E+02  0.59835705823E+01  0.96354078302E+02  0.91969316675E+02 0.  0.
         11    1    3    3    0    0  0.28850907002E+02 -0.18108401773E+02  0.18937638257E+01  0.34115617997E+02  0.51100000000E-03 0. -1.
         22    1    1    0    0    0  0.22332477615E+02 -0.17064891516E+02 -0.59835705823E+01  0.28735921698E+02  0.00000000000E+00 0.  1.
</event>
<event>
 5    1  0.1043455E-009  0.9118800E+02  0.7561462E-02  0.1125453E+00
         25   -1    0    0    0    0  0.00000000000E+00  0.00000000000E+00  0.99999998245E-14  0.12509000000E+03  0.12509000000E+03 0.  0.
        -11    1    3    3    0    0  0.72760114833E+01 -0.11735672656E+02 -0.33813783192E+02  0.36524488906E+02  0.51100000000E-03 0.  1.
         23    2    1    0    0    0 -0.75196121968E+01 -0.16303862047E+02  0.23285587078E+02  0.95686274882E+02  0.91056488786E+02 0.  0.
         11    1    3    3    0    0 -0.14795623680E+02 -0.45681893910E+01  0.57099370270E+02  0.59161785977E+02  0.51100000000E-03 0. -1.
         22    1    1    0    0    0  0.75196121968E+01  0.16303862047E+02 -0.23285587078E+02  0.29403725118E+02  0.00000000000E+00 0. -1.
</event>
<event>
 5    1  0.1043455E-009  0.9118800E+02  0.7561462E-02  0.1125453E+00
         25   -1    0    0    0    0  0.00000000000E+00  0.00000000000E+00  0.99999998245E-14  0.12509000000E+03  0.12509000000E+03 0.  0.
        -11    1    3    3    0    0  0.94834116740E+01 -0.13027663468E+02  0.39030134120E+02  0.42225661417E+02  0.51100000000E-03 0.  1.
         23    2    1    0    0    0 -0.28102065752E+02 -0.11980503272E+02  0.28462248429E+01  0.94408416696E+02  0.89283758820E+02 0.  0.
         11    1    3    3    0    0 -0.37585477426E+02  0.10471601958E+01 -0.36183909277E+02  0.52182755280E+02  0.51100000000E-03 0. -1.
         22    1    1    0    0    0  0.28102065752E+02  0.11980503272E+02 -0.28462248429E+01  0.30681583304E+02  0.00000000000E+00 0. -1.
</event>
<event>
 5    1  0.1043455E-009  0.9118800E+02  0.7561462E-02  0.1125453E+00
         25   -1    0    0    0    0  0.00000000000E+00  0.00000000000E+00  0.99999998245E-14  0.12509000000E+03  0.12509000000E+03 0.  0.
        -11    1    3    3    0    0  0.22412227317E+02  0.72861580790E+01  0.13607055771E+00  0.23567234634E+02  0.51100000000E-03 0.  1.
         23    2    1    0    0    0 -0.14082028961E+02  0.15668631730E+02  0.41001148170E+02  0.78993322123E+02  0.64148587115E+02 0.  0.
         11    1    3    3    0    0 -0.36494256278E+02  0.83824736514E+01  0.40865077613E+02  0.55426087489E+02  0.51100000000E-03 0. -1.
         22    1    1    0    0    0  0.14082028961E+02 -0.15668631730E+02 -0.41001148170E+02  0.46096677877E+02  0.00000000000E+00 0. -1.
</event>
<event>
 5    1  0.1043455E-009  0.9118800E+02  0.7561462E-02  0.1125453E+00
         25   -1    0    0    0    0  0.00000000000E+00  0.00000000000E+00  0.99999998245E-14  0.12509000000E+03  0.12509000000E+03 0.  0.
        -11    1    3    3    0    0  0.33929810259E+02 -0.28928333226E+00  0.51384739386E+02  0.61576839405E+02  0.51100000000E-03 0.  1.
         23    2    1    0    0    0  0.14964156340E+02  0.69808672800E+01  0.17927805620E+02  0.10071655754E+03  0.97722874833E+02 0.  0.
         11    1    3    3    0    0 -0.18965653919E+02  0.72701506122E+01 -0.33456933766E+02  0.39139718136E+02  0.51100000000E-03 0. -1.
         22    1    1    0    0    0 -0.14964156340E+02 -0.69808672800E+01 -0.17927805620E+02  0.24373442459E+02  0.00000000000E+00 0.  1.
</event>
<event>
 5    1  0.1043455E-009  0.9118800E+02  0.7561462E-02  0.1125453E+00
         25   -1    0    0    0    0  0.00000000000E+00  0.00000000000E+00  0.99999998245E-14  0.12509000000E+03  0.12509000000E+03 0.  0.
        -11    1    3    3    0    0 -0.30895320789E+02  0.39922244294E+02 -0.34549822777E+01  0.50598847209E+02  0.51100000000E-03 0.  1.
         23    2    1    0    0    0  0.87076545400E+01  0.30580417483E+02 -0.98833270113E+01  0.91793373537E+02  0.85541557686E+02 0.  0.
         11    1    3    3    0    0  0.39602975329E+02 -0.93418268106E+01 -0.64283447336E+01  0.41194526327E+02  0.51100000000E-03 0. -1.
         22    1    1    0    0    0 -0.87076545400E+01 -0.30580417483E+02  0.98833270113E+01  0.33296626463E+02  0.00000000000E+00 0.  1.
</event>
<event>
 5    1  0.1043455E-009  0.9118800E+02  0.7561462E-02  0.1125453E+00
         25   -1    0    0    0    0  0.00000000000E+00  0.00000000000E+00  0.99999998245E-14  0.12509000000E+03  0.12509000000E+03 0.  0.
        -11    1    3    3    0    0 -0.56085205227E+02 -0.11758437982E+02  0.80961488812E+01  0.57873644572E+02  0.51100000000E-03 0.  1.
         23    2    1    0    0    0 -0.18279987476E+02 -0.20921716814E+02  0.45835088011E+01  0.96931791081E+02  0.92751751427E+02 0.  0.
         11    1    3    3    0    0  0.37805217751E+02 -0.91632788325E+01 -0.35126400801E+01  0.39058146509E+02  0.51100000000E-03 0. -1.
         22    1    1    0    0    0  0.18279987476E+02  0.20921716814E+02 -0.45835088011E+01  0.28158208919E+02  0.00000000000E+00 0.  1.
</event>
<event>
 5    1  0.1043455E-009  0.9118800E+02  0.7561462E-02  0.1125453E+00
         25   -1    0    0    0    0  0.00000000000E+00  0.00000000000E+00  0.99999998245E-14  0.12509000000E+03  0.12509000000E+03 0.  0.
        -11    1    3    3    0    0  0.55131590426E+02 -0.62510001735E+01 -0.27078802986E+02  0.61740010022E+02  0.51100000000E-03 0. -1.
         23    2    1    0    0    0  0.28455461348E+02  0.27851280504E+01 -0.94032306609E+01  0.94991977380E+02  0.90097640373E+02 0.  0.
         11    1    3    3    0    0 -0.26676129078E+02  0.90361282239E+01  0.17675572325E+02  0.33251967358E+02  0.51100000000E-03 0.  1.
         22    1    1    0    0    0 -0.28455461348E+02 -0.27851280504E+01  0.94032306609E+01  0.30098022620E+02  0.00000000000E+00 0. -1.
</event>
<event>
 5    1  0.1043455E-009  0.9118800E+02  0.7561462E-02  0.1125453E+00
         25   -1    0    0    0    0  0.00000000000E+00  0.00000000000E+00  0.99999998245E-14  0.12509000000E+03  0.12509000000E+03 0.  0.
        -11    1    3    3    0    0  0.38744698466E+02 -0.34529937562E+02  0.15274178018E+02  0.54099618868E+02  0.51100000000E-03 0.  1.
         23    2    1    0    0    0  0.26723163765E+02  0.48219825100E+01  0.12076802926E+02  0.95370845135E+02  0.90622127188E+02 0.  0.
         11    1    3    3    0    0 -0.12021534701E+02  0.39351920072E+02 -0.31973750917E+01  0.41271226268E+02  0.51100000000E-03 0. -1.
         22    1    1    0    0    0 -0.26723163765E+02 -0.48219825100E+01 -0.12076802926E+02  0.29719154865E+02  0.00000000000E+00 0.  1.
</event>
<event>
 5    1  0.1043455E-009  0.9118800E+02  0.7561462E-02  0.1125453E+00
         25   -1    0    0    0    0  0.00000000000E+00  0.00000000000E+00  0.99999998245E-14  0.12509000000E+03  0.12509000000E+03 0.  0.
        -11    1    3    3    0    0  0.15190696771E+02  0.28308110936E+02 -0.88217141649E+01  0.33315597762E+02  0.51100000000E-03 0. -1.
         23    2    1    0    0    0 -0.31658653151E+02  0.10387533957E+02  0.14646147224E+02  0.88693835236E+02  0.80882109266E+02 0.  0.
         11    1    3    3    0    0 -0.46849349922E+02 -0.17920576979E+02  0.23467861388E+02  0.55378237474E+02  0.51100000000E-03 0.  1.
         22    1    1    0    0    0  0.31658653151E+02 -0.10387533957E+02 -0.14646147224E+02  0.36396164764E+02  0.00000000000E+00 0.  1.
</event>
<event>
 5    1  0.1043455E-009  0.9118800E+02  0.7561462E-02  0.1125453E+00
         25   -1    0    0    0    0  0.00000000000E+00  0.00000000000E+00  0.99999998245E-14  0.12509000000E+03  0.12509000000E+03 0.  0.
        -11    1    3    3    0    0 -0.31929086685E+02  0.19051386080E+02 -0.26754201436E+02  0.45806213365E+02  0.51100000000E-03 0.  1.
         23    2    1    0    0    0 -0.12669490885E+02 -0.24176491313E+02 -0.10529182029E+02  0.95834532038E+02  0.91259931653E+02 0.  0.
         11    1    3    3    0    0  0.19259595800E+02 -0.43227877393E+02  0.16225019407E+02  0.50028318673E+02  0.51100000000E-03 0. -1.
         22    1    1    0    0    0  0.12669490885E+02  0.24176491313E+02  0.10529182029E+02  0.29255467962E+02  0.00000000000E+00 0. -1.
</event>
<event>
 5    1  0.1043455E-009  0.9118800E+02  0.7561462E-02  0.1125453E+00
         25   -1    0    0    0    0  0.00000000000E+00  0.00000000000E+00  0.99999998245E-14  0.12509000000E+03  0.12509000000E+03 0.  0.
        -11    1    3    3    0    0 -0.34861847323E+02 -0.81287260282E+01  0.49528066483E+02  0.61110178820E+02  0.51100000000E-03 0.  1.
         23    2    1    0    0    0 -0.28996473771E+02 -0.85048255565E+01  0.26429768002E+02  0.84944512264E+02  0.74859267818E+02 0.  0.
         11    1    3    3    0    0  0.58653735521E+01 -0.37609952831E+00 -0.23098298481E+02  0.23834333444E+02  0.51100000000E-03 0. -1.
         22    1    1    0    0    0  0.28996473771E+02  0.85048255565E+01 -0.26429768002E+02  0.40145487736E+02  0.00000000000E+00 0.  1.
</event>
<event>
 5    1  0.1043455E-009  0.9118800E+02  0.7561462E-02  0.1125453E+00
         25   -1    0    0    0    0  0.00000000000E+00  0.00000000000E+00  0.99999998245E-14  0.12509000000E+03  0.12509000000E+03 0.  0.
        -11    1    3    3    0    0 -0.25742911393E+02 -0.29545921267E+02  0.16974568439E+02  0.42705912055E+02  0.51100000000E-03 0.  1.
         23    2    1    0    0    0  0.20941232753E+02 -0.41507557729E+01  0.19864812732E+02  0.95928813681E+02  0.91389072140E+02 0.  0.
         11    1    3    3    0    0  0.46684144146E+02  0.25395165494E+02  0.28902442923E+01  0.53222901625E+02  0.51100000000E-03 0. -1.
         22    1    1    0    0    0 -0.20941232753E+02  0.41507557729E+01 -0.19864812732E+02  0.29161186319E+02  0.00000000000E+00 0.  1.
</event>
<event>
 5    1  0.1043455E-009  0.9118800E+02  0.7561462E-02  0.1125453E+00
         25   -1    0    0    0    0  0.00000000000E+00  0.00000000000E+00  0.99999998245E-14  0.12509000000E+03  0.12509000000E+03 0.  0.
        -11    1    3    3    0    0  0.18766671549E+02 -0.13569966397E+02 -0.55536573295E+02  0.60171778457E+02  0.51100000000E-03 0.  1.
         23    2    1    0    0    0 -0.30856222228E+00 -0.14503438274E+02 -0.24823527888E+02  0.96338435361E+02  0.91948037818E+02 0.  0.
         11    1    3    3    0    0 -0.19075233771E+02 -0.93347187654E+00  0.30713045407E+02  0.36166656904E+02  0.51100000000E-03 0. -1.
         22    1    1    0    0    0  0.30856222228E+00  0.14503438274E+02  0.24823527888E+02  0.28751564639E+02  0.00000000000E+00 0.  1.
</event>
<event>
 5    1  0.1043455E-009  0.9118800E+02  0.7561462E-02  0.1125453E+00
         25   -1    0    0    0    0  0.00000000000E+00  0.00000000000E+00  0.99999998245E-14  0.12509000000E+03  0.12509000000E+03 0.  0.
        -11    1    3    3    0    0  0.46367270794E+02 -0.31015631121E+02 -0.27099014261E+02  0.62018140483E+02  0.51100000000E-03 0.  1.
         23    2    1    0    0    0  0.24385463647E+02 -0.15787465470E+02 -0.77540062153E+01  0.95023082705E+02  0.90140816122E+02 0.  0.
         11    1    3    3    0    0 -0.21981807147E+02  0.15228165651E+02  0.19345008045E+02  0.33004942222E+02  0.51100000000E-03 0. -1.
         22    1    1    0    0    0 -0.24385463647E+02  0.15787465470E+02  0.77540062153E+01  0.30066917295E+02  0.00000000000E+00 0.  1.
</event>
<event>
 5    1  0.1043455E-009  0.9118800E+02  0.7561462E-02  0.1125453E+00
         25   -1    0    0    0    0  0.00000000000E+00  0.00000000000E+00  0.99999998245E-14  0.12509000000E+03  0.12509000000E+03 0.  0.
        -11    1    3    3    0    0 -0.31361153618E+02 -0.31985068009E+02  0.43537823066E+01  0.45005799098E+02  0.51100000000E-03 0.  1.
         23    2    1    0    0    0 -0.15447818112E+02  0.18833717745E+02  0.10408036775E+02  0.98600922288E+02  0.94976158261E+02 0.  0.
         11    1    3    3    0    0  0.15913335506E+02  0.50818785753E+02  0.60542544685E+01  0.53595123190E+02  0.51100000000E-03 0. -1.
         22    1    1    0    0    0  0.15447818112E+02 -0.18833717745E+02 -0.10408036775E+02  0.26489077712E+02  0.00000000000E+00 0. -1.
</event>
<event>
 5    1  0.1043455E-009  0.9118800E+02  0.7561462E-02  0.1125453E+00
         25   -1    0    0    0    0  0.00000000000E+00  0.00000000000E+00  0.99999998245E-14  0.12509000000E+03  0.12509000000E+03 0.  0.
        -11    1    3    3    0    0  0.40156497471E+02  0.39264397060E+02  0.13975700795E+02  0.57875360721E+02  0.51100000000E-03 0.  1.
         23    2    1    0    0    0  0.15696555368E+02  0.83025825954E+00 -0.68213421866E+01  0.10795518490E+03  0.10658667862E+03 0.  0.
         11    1    3    3    0    0 -0.24459942103E+02 -0.38434138800E+02 -0.20797042982E+02  0.50079824181E+02  0.51100000000E-03 0. -1.
         22    1    1    0    0    0 -0.15696555368E+02 -0.83025825954E+00  0.68213421866E+01  0.17134815098E+02  0.00000000000E+00 0.  1.
</event>
<event>
 5    1  0.1043455E-009  0.9118800E+02  0.7561462E-02  0.1125453E+00
         25   -1    0    0    0    0  0.00000000000E+00  0.00000000000E+00  0.99999998245E-14  0.12509000000E+03  0.12509000000E+03 0.  0.
        -11    1    3    3    0    0  0.31748963532E+02  0.14023061162E+02  0.78622000397E+01  0.35587316834E+02  0.51100000000E-03 0. -1.
         23    2    1    0    0    0 -0.92601142785E+01 -0.53738271883E+01 -0.29086664294E+02  0.94095455725E+02  0.88844206413E+02 0.  0.
         11    1    3    3    0    0 -0.41009077811E+02 -0.19396888351E+02 -0.36948864333E+02  0.58508138890E+02  0.51100000000E-03 0.  1.
         22    1    1    0    0    0  0.92601142785E+01  0.53738271883E+01  0.29086664294E+02  0.30994544275E+02  0.00000000000E+00 0.  1.
</event>
<event>
 5    1  0.1043455E-009  0.9118800E+02  0.7561462E-02  0.1125453E+00
         25   -1    0    0    0    0  0.00000000000E+00  0.00000000000E+00  0.99999998245E-14  0.12509000000E+03  0.12509000000E+03 0.  0.
        -11    1    3    3    0    0 -0.47174735564E+02  0.18678350582E+02  0.25311821527E+02  0.56701188394E+02  0.51100000000E-03 0.  1.
         23    2    1    0    0    0 -0.11578718983E+02  0.24587831221E+02  0.77640614842E+01  0.96825024710E+02  0.92607648614E+02 0.  0.
         11    1    3    3    0    0  0.35596016582E+02  0.59094806392E+01 -0.17547760043E+02  0.40123836315E+02  0.51100000000E-03 0. -1.
         22    1    1    0    0    0  0.11578718983E+02 -0.24587831221E+02 -0.77640614842E+01  0.28264975290E+02  0.00000000000E+00 0.  1.
</event>
<event>
 5    1  0.1043455E-009  0.9118800E+02  0.7561462E-02  0.1125453E+00
         25   -1    0    0    0    0  0.00000000000E+00  0.00000000000E+00  0.99999998245E-14  0.12509000000E+03  0.12509000000E+03 0.  0.
        -11    1    3    3    0    0  0.27126134686E+02  0.48222364457E+02  0.19223924468E+02  0.58572885271E+02  0.51100000000E-03 0.  1.
         23    2    1    0    0    0  0.11487749152E+01  0.22065258821E+02  0.19769222126E+02  0.95441771147E+02  0.90719976882E+02 0.  0.
         11    1    3    3    0    0 -0.25977359771E+02 -0.26157105636E+02  0.54529765893E+00  0.36868885876E+02  0.51100000000E-03 0. -1.
         22    1    1    0    0    0 -0.11487749152E+01 -0.22065258821E+02 -0.19769222126E+02  0.29648228853E+02  0.00000000000E+00 0.  1.
</event>
<event>
 5    1  0.1043455E-009  0.9118800E+02  0.7561462E-02  0.1125453E+00
         25   -1    0    0    0    0  0.00000000000E+00  0.00000000000E+00  0.99999998245E-14  0.12509000000E+03  0.12509000000E+03 0.  0.
        -11    1    3    3    0    0  0.51645799019E+01  0.30878769696E+02 -0.35114709841E+02  0.47044810032E+02  0.51100000000E-03 0.  1.
         23    2    1    0    0    0  0.27344247198E+02  0.75199518026E+01  0.25632417934E+01  0.96614962890E+02  0.92323471099E+02 0.  0.
         11    1    3    3    0    0  0.22179667296E+02 -0.23358817893E+02  0.37677951634E+02  0.49570152858E+02  0.51100000000E-03 0. -1.
         22    1    1    0    0    0 -0.27344247198E+02 -0.75199518026E+01 -0.25632417934E+01  0.28475037110E+02  0.00000000000E+00 0.  1.
</event>
<event>
 5    1  0.1043455E-009  0.9118800E+02  0.7561462E-02  0.1125453E+00
         25   -1    0    0    0    0  0.00000000000E+00  0.00000000000E+00  0.99999998245E-14  0.12509000000E+03  0.12509000000E+03 0.  0.
        -11    1    3    3    0    0 -0.77082552441E+01  0.60397204891E+02 -0.10414856893E+02  0.61771423829E+02  0.51100000000E-03 0. -1.
         23    2    1    0    0    0 -0.42916827302E+01  0.27708028934E+02 -0.11804385305E+02  0.94668019123E+02  0.89646734041E+02 0.  0.
         11    1    3    3    0    0  0.34165725139E+01 -0.32689175957E+02 -0.13895284113E+01  0.32896595294E+02  0.51100000000E-03 0.  1.
         22    1    1    0    0    0  0.42916827302E+01 -0.27708028934E+02  0.11804385305E+02  0.30421980877E+02  0.00000000000E+00 0. -1.
</event>
<event>
 5    1  0.1043455E-009  0.9118800E+02  0.7561462E-02  0.1125453E+00
         25   -1    0    0    0    0  0.00000000000E+00  0.00000000000E+00  0.99999998245E-14  0.12509000000E+03  0.12509000000E+03 0.  0.
        -11    1    3    3    0    0  0.24644703825E+02 -0.55926521483E+02  0.64752279147E+01  0.61457837650E+02  0.51100000000E-03 0. -1.
         23    2    1    0    0    0  0.16004922446E+02 -0.20585084901E+02  0.78286329324E+01  0.97865181241E+02  0.94002143289E+02 0.  0.
         11    1    3    3    0    0 -0.86397813792E+01  0.35341436582E+02  0.13534050177E+01  0.36407343591E+02  0.51100000000E-03 0.  1.
         22    1    1    0    0    0 -0.16004922446E+02  0.20585084901E+02 -0.78286329324E+01  0.27224818759E+02  0.00000000000E+00 0. -1.
</event>
<event>
 5    1  0.1043455E-009  0.9118800E+02  0.7561462E-02  0.1125453E+00
         25   -1    0    0    0    0  0.00000000000E+00  0.00000000000E+00  0.99999998245E-14  0.12509000000E+03  0.12509000000E+03 0.  0.
        -11    1    3    3    0    0 -0.13747155217E+02 -0.30719887404E+02  0.29384735852E+01  0.33783581604E+02  0.51100000000E-03 0.  1.
         23    2    1    0    0    0  0.26210429732E+02  0.15155697814E+02 -0.14465037406E+01  0.94778712069E+02  0.89801058376E+02 0.  0.
         11    1    3    3    0    0  0.39957584949E+02  0.45875585218E+02 -0.43849773258E+01  0.60995130465E+02  0.51100000000E-03 0. -1.
         22    1    1    0    0    0 -0.26210429732E+02 -0.15155697814E+02  0.14465037406E+01  0.30311287931E+02  0.00000000000E+00 0. -1.
</event>
<event>
 5    1  0.1043455E-009  0.9118800E+02  0.7561462E-02  0.1125453E+00
         25   -1    0    0    0    0  0.00000000000E+00  0.00000000000E+00  0.99999998245E-14  0.12509000000E+03  0.12509000000E+03 0.  0.
        -11    1    3    3    0    0 -0.34487245221E+02 -0.20498031352E+01 -0.19558053708E+01  0.34603423974E+02  0.51100000000E-03 0.  1.
         23    2    1    0    0    0  0.26648449011E+02  0.94002650989E+01 -0.11999105233E+01  0.96806708044E+02  0.92582904029E+02 0.  0.
         11    1    3    3    0    0  0.61135694232E+02  0.11450068234E+02  0.75589484749E+00  0.62203284070E+02  0.51100000000E-03 0. -1.
         22    1    1    0    0    0 -0.26648449011E+02 -0.94002650989E+01  0.11999105233E+01  0.28283291956E+02  0.00000000000E+00 0. -1.
</event>
<event>
 5    1  0.1043455E-009  0.9118800E+02  0.7561462E-02  0.1125453E+00
         25   -1    0    0    0    0  0.00000000000E+00  0.00000000000E+00  0.99999998245E-14  0.12509000000E+03  0.12509000000E+03 0.  0.
        -11    1    3    3    0    0 -0.61317143255E+02 -0.26397937589E+01  0.23320913790E+01  0.61418231971E+02  0.51100000000E-03 0.  1.
         23    2    1    0    0    0 -0.25901152096E+02 -0.56025265426E+01 -0.59944821672E+01  0.97920314687E+02  0.94075481547E+02 0.  0.
         11    1    3    3    0    0  0.35415991159E+02 -0.29627327838E+01 -0.83265735462E+01  0.36502082716E+02  0.51100000000E-03 0. -1.
         22    1    1    0    0    0  0.25901152096E+02  0.56025265426E+01  0.59944821672E+01  0.27169685313E+02  0.00000000000E+00 0.  1.
</event>
<event>
 5    1  0.1043455E-009  0.9118800E+02  0.7561462E-02  0.1125453E+00
         25   -1    0    0    0    0  0.00000000000E+00  0.00000000000E+00  0.99999998245E-14  0.12509000000E+03  0.12509000000E+03 0.  0.
        -11    1    3    3    0    0  0.34453235463E+02 -0.10727569055E+02  0.30054579785E+02  0.46961515499E+02  0.51100000000E-03 0.  1.
         23    2    1    0    0    0  0.19960806385E+02  0.83260943024E+01 -0.15539848321E+02  0.98458354844E+02  0.94788201348E+02 0.  0.
         11    1    3    3    0    0 -0.14492429077E+02  0.19053663357E+02 -0.45594428106E+02  0.51496839345E+02  0.51100000000E-03 0. -1.
         22    1    1    0    0    0 -0.19960806385E+02 -0.83260943024E+01  0.15539848321E+02  0.26631645156E+02  0.00000000000E+00 0. -1.
</event>
<event>
 5    1  0.1043455E-009  0.9118800E+02  0.7561462E-02  0.1125453E+00
         25   -1    0    0    0    0  0.00000000000E+00  0.00000000000E+00  0.99999998245E-14  0.12509000000E+03  0.12509000000E+03 0.  0.
        -11    1    3    3    0    0 -0.45371181517E+01  0.66476030940E+01 -0.47126917633E+02  0.47809229589E+02  0.51100000000E-03 0. -1.
         23    2    1    0    0    0  0.25113964794E+02  0.11269780157E+02 -0.94288102740E+01  0.95993236681E+02  0.91477209472E+02 0.  0.
         11    1    3    3    0    0  0.29651082946E+02  0.46221770629E+01  0.37698107359E+02  0.48184007092E+02  0.51100000000E-03 0.  1.
         22    1    1    0    0    0 -0.25113964794E+02 -0.11269780157E+02  0.94288102740E+01  0.29096763319E+02  0.00000000000E+00 0. -1.
</event>
<event>
 5    1  0.1043455E-009  0.9118800E+02  0.7561462E-02  0.1125453E+00
         25   -1    0    0    0    0  0.00000000000E+00  0.00000000000E+00  0.99999998245E-14  0.12509000000E+03  0.12509000000E+03 0.  0.
        -11    1    3    3    0    0  0.55392161731E+01  0.25317931525E+02  0.14032120428E+02  0.29471697890E+02  0.51100000000E-03 0.  1.
         23    2    1    0    0    0 -0.27001542913E+02  0.97669502944E+01  0.41372932889E+02  0.74729338630E+02  0.55211211167E+02 0.  0.
         11    1    3    3    0    0 -0.32540759086E+02 -0.15550981231E+02  0.27340812461E+02  0.45257640741E+02  0.51100000000E-03 0. -1.
         22    1    1    0    0    0  0.27001542913E+02 -0.97669502944E+01 -0.41372932889E+02  0.50360661370E+02  0.00000000000E+00 0. -1.
</event>
<event>
 5    1  0.1043455E-009  0.9118800E+02  0.7561462E-02  0.1125453E+00
         25   -1    0    0    0    0  0.00000000000E+00  0.00000000000E+00  0.99999998245E-14  0.12509000000E+03  0.12509000000E+03 0.  0.
        -11    1    3    3    0    0 -0.17289314340E+01 -0.19438247954E+02  0.31682424432E+02  0.37210357504E+02  0.51100000000E-03 0. -1.
         23    2    1    0    0    0 -0.19116689447E+02 -0.66608597410E+01 -0.22075823253E+02  0.95137423480E+02  0.90299349423E+02 0.  0.
         11    1    3    3    0    0 -0.17387758013E+02  0.12777388213E+02 -0.53758247684E+02  0.57927065976E+02  0.51100000000E-03 0.  1.
         22    1    1    0    0    0  0.19116689447E+02  0.66608597410E+01  0.22075823253E+02  0.29952576520E+02  0.00000000000E+00 0.  1.
</event>
<event>
 5    1  0.1043455E-009  0.9118800E+02  0.7561462E-02  0.1125453E+00
         25   -1    0    0    0    0  0.00000000000E+00  0.00000000000E+00  0.99999998245E-14  0.12509000000E+03  0.12509000000E+03 0.  0.
        -11    1    3    3    0    0 -0.36186814240E+02 -0.43588217863E+02  0.74235857173E+01  0.57136047172E+02  0.51100000000E-03 0. -1.
         23    2    1    0    0    0 -0.94916145667E+00 -0.29630718833E+02  0.32041362088E+01  0.95271433722E+02  0.90484800870E+02 0.  0.
         11    1    3    3    0    0  0.35237652784E+02  0.13957499029E+02 -0.42194495085E+01  0.38135386549E+02  0.51100000000E-03 0.  1.
         22    1    1    0    0    0  0.94916145667E+00  0.29630718833E+02 -0.32041362088E+01  0.29818566278E+02  0.00000000000E+00 0. -1.
</event>
<event>
 5    1  0.1043455E-009  0.9118800E+02  0.7561462E-02  0.1125453E+00
         25   -1    0    0    0    0  0.00000000000E+00  0.00000000000E+00  0.99999998245E-14  0.12509000000E+03  0.12509000000E+03 0.  0.
        -11    1    3    3    0    0 -0.28037193705E+02  0.38741578275E+02 -0.31353872342E+02  0.57184433451E+02  0.51100000000E-03 0. -1.
         23    2    1    0    0    0 -0.75631129002E+01  0.66688325839E+01 -0.27937986363E+02  0.95388062575E+02  0.90645890117E+02 0.  0.
         11    1    3    3    0    0  0.20474080805E+02 -0.32072745691E+02  0.34158859790E+01  0.38203629124E+02  0.51100000000E-03 0.  1.
         22    1    1    0    0    0  0.75631129002E+01 -0.66688325839E+01  0.27937986363E+02  0.29701937425E+02  0.00000000000E+00 0. -1.
</event>
<event>
 5    1  0.1043455E-009  0.9118800E+02  0.7561462E-02  0.1125453E+00
         25   -1    0    0    0    0  0.00000000000E+00  0.00000000000E+00  0.99999998245E-14  0.12509000000E+03  0.12509000000E+03 0.  0.
        -11    1    3    3    0    0  0.17992730237E+02 -0.11915631537E+02  0.29681089204E+02  0.36697243396E+02  0.51100000000E-03 0.  1.
         23    2    1    0    0    0  0.12878916312E+02  0.20705187557E+02 -0.18061351836E+02  0.94745581942E+02  0.89754897305E+02 0.  0.
         11    1    3    3    0    0 -0.51138139252E+01  0.32620819094E+02 -0.47742441040E+02  0.58048338546E+02  0.51100000000E-03 0. -1.
         22    1    1    0    0    0 -0.12878916312E+02 -0.20705187557E+02  0.18061351836E+02  0.30344418058E+02  0.00000000000E+00 0. -1.
</event>
<event>
 5    1  0.1043455E-009  0.9118800E+02  0.7561462E-02  0.1125453E+00
         25   -1    0    0    0    0  0.00000000000E+00  0.00000000000E+00  0.99999998245E-14  0.12509000000E+03  0.12509000000E+03 0.  0.
        -11    1    3    3    0    0 -0.19481262237E+02  0.90644337734E+01  0.28012340841E+02  0.35304033447E+02  0.51100000000E-03 0. -1.
         23    2    1    0    0    0  0.21444520931E+02 -0.19048669536E+02 -0.63830460813E+01  0.95705266442E+02  0.91082574944E+02 0.  0.
         11    1    3    3    0    0  0.40925783167E+02 -0.28113103309E+02 -0.34395386922E+02  0.60401232995E+02  0.51100000000E-03 0.  1.
         22    1    1    0    0    0 -0.21444520931E+02  0.19048669536E+02  0.63830460813E+01  0.29384733558E+02  0.00000000000E+00 0.  1.
</event>
<event>
 5    1  0.1043455E-009  0.9118800E+02  0.7561462E-02  0.1125453E+00
         25   -1    0    0    0    0  0.00000000000E+00  0.00000000000E+00  0.99999998245E-14  0.12509000000E+03  0.12509000000E+03 0.  0.
        -11    1    3    3    0    0 -0.51886792788E+02  0.11269659464E+02  0.14755247896E+02  0.55108636628E+02  0.51100000000E-03 0.  1.
         23    2    1    0    0    0 -0.91778539983E+01  0.20928568981E+02  0.12702860670E+02  0.98944241782E+02  0.95427261875E+02 0.  0.
         11    1    3    3    0    0  0.42708938790E+02  0.96589095167E+01 -0.20523872259E+01  0.43835605154E+02  0.51100000000E-03 0. -1.
         22    1    1    0    0    0  0.91778539983E+01 -0.20928568981E+02 -0.12702860670E+02  0.26145758218E+02  0.00000000000E+00 0.  1.
</event>
<event>
 5    1  0.1043455E-009  0.9118800E+02  0.7561462E-02  0.1125453E+00
         25   -1    0    0    0    0  0.00000000000E+00  0.00000000000E+00  0.99999998245E-14  0.12509000000E+03  0.12509000000E+03 0.  0.
        -11    1    3    3    0    0  0.38550673174E+02 -0.36957798080E+02 -0.21228081877E+02  0.57468815035E+02  0.51100000000E-03 0.  1.
         23    2    1    0    0    0  0.10934042899E+02 -0.27113233647E+02  0.32663843440E+01  0.95673168091E+02  0.91038481385E+02 0.  0.
         11    1    3    3    0    0 -0.27616630275E+02  0.98445644335E+01  0.24494466221E+02  0.38204353055E+02  0.51100000000E-03 0. -1.
         22    1    1    0    0    0 -0.10934042899E+02  0.27113233647E+02 -0.32663843440E+01  0.29416831909E+02  0.00000000000E+00 0.  1.
</event>
<event>
 5    1  0.1043455E-009  0.9118800E+02  0.7561462E-02  0.1125453E+00
         25   -1    0    0    0    0  0.00000000000E+00  0.00000000000E+00  0.99999998245E-14  0.12509000000E+03  0.12509000000E+03 0.  0.
        -11    1    3    3    0    0 -0.90088899516E+01  0.33407301237E+02  0.20904636229E+02  0.40425384232E+02  0.51100000000E-03 0.  1.
         23    2    1    0    0    0  0.25758725530E+02 -0.83639721857E+01  0.11877752631E+02  0.95517225710E+02  0.90823958447E+02 0.  0.
         11    1    3    3    0    0  0.34767615482E+02 -0.41771273423E+02 -0.90268835982E+01  0.55091841478E+02  0.51100000000E-03 0. -1.
         22    1    1    0    0    0 -0.25758725530E+02  0.83639721857E+01 -0.11877752631E+02  0.29572774290E+02  0.00000000000E+00 0. -1.
</event>
<event>
 5    1  0.1043455E-009  0.9118800E+02  0.7561462E-02  0.1125453E+00
         25   -1    0    0    0    0  0.00000000000E+00  0.00000000000E+00  0.99999998245E-14  0.12509000000E+03  0.12509000000E+03 0.  0.
        -11    1    3    3    0    0 -0.24962862057E+02 -0.20693672083E+02 -0.18065254472E+02  0.37117731151E+02  0.51100000000E-03 0. -1.
         23    2    1    0    0    0 -0.49791597620E+01  0.14448354567E+02  0.24749490342E+02  0.96002472539E+02  0.91489838123E+02 0.  0.
         11    1    3    3    0    0  0.19983702295E+02  0.35142026650E+02  0.42814744814E+02  0.58884741388E+02  0.51100000000E-03 0.  1.
         22    1    1    0    0    0  0.49791597620E+01 -0.14448354567E+02 -0.24749490342E+02  0.29087527461E+02  0.00000000000E+00 0.  1.
</event>
<event>
 5    1  0.1043455E-009  0.9118800E+02  0.7561462E-02  0.1125453E+00
         25   -1    0    0    0    0  0.00000000000E+00  0.00000000000E+00  0.99999998245E-14  0.12509000000E+03  0.12509000000E+03 0.  0.
        -11    1    3    3    0    0  0.36167712894E+02  0.14715678954E+01 -0.27715918795E+02  0.45589923481E+02  0.51100000000E-03 0.  1.
         23    2    1    0    0    0  0.20276447452E+02  0.37672867336E+00  0.20430647071E+02  0.96303065715E+02  0.91899906858E+02 0.  0.
         11    1    3    3    0    0 -0.15891265442E+02 -0.10948392220E+01  0.48146565866E+02  0.50713142234E+02  0.51100000000E-03 0. -1.
         22    1    1    0    0    0 -0.20276447452E+02 -0.37672867336E+00 -0.20430647071E+02  0.28786934285E+02  0.00000000000E+00 0.  1.
</event>
<event>
 5    1  0.1043455E-009  0.9118800E+02  0.7561462E-02  0.1125453E+00
         25   -1    0    0    0    0  0.00000000000E+00  0.00000000000E+00  0.99999998245E-14  0.12509000000E+03  0.12509000000E+03 0.  0.
        -11    1    3    3    0    0  0.55963253236E+01 -0.35425844041E+01  0.34079694750E+02  0.34717349495E+02  0.51100000000E-03 0. -1.
         23    2    1    0    0    0 -0.70111324366E+01 -0.17296895951E+02 -0.23405157908E+02  0.95154402390E+02  0.90322866927E+02 0.  0.
         11    1    3    3    0    0 -0.12607457760E+02 -0.13754311547E+02 -0.57484852658E+02  0.60437052895E+02  0.51100000000E-03 0.  1.
         22    1    1    0    0    0  0.70111324366E+01  0.17296895951E+02  0.23405157908E+02  0.29935597610E+02  0.00000000000E+00 0.  1.
</event>
<event>
 5    1  0.1043455E-009  0.9118800E+02  0.7561462E-02  0.1125453E+00
         25   -1    0    0    0    0  0.00000000000E+00  0.00000000000E+00  0.99999998245E-14  0.12509000000E+03  0.12509000000E+03 0.  0.
        -11    1    3    3    0    0  0.33218396059E+02  0.31756370715E+02  0.15562914874E+02  0.48519410934E+02  0.51100000000E-03 0.  1.
         23    2    1    0    0    0  0.24443486645E+02 -0.14143916892E+02  0.59380648071E+01  0.96231811594E+02  0.91802867736E+02 0.  0.
         11    1    3    3    0    0 -0.87749094142E+01 -0.45900287608E+02 -0.96248500673E+01  0.47712400660E+02  0.51100000000E-03 0. -1.
         22    1    1    0    0    0 -0.24443486645E+02  0.14143916892E+02 -0.59380648071E+01  0.28858188406E+02  0.00000000000E+00 0.  1.
</event>
<event>
 5    1  0.1043455E-009  0.9118800E+02  0.7561462E-02  0.1125453E+00
         25   -1    0    0    0    0  0.00000000000E+00  0.00000000000E+00  0.99999998245E-14  0.12509000000E+03  0.12509000000E+03 0.  0.
        -11    1    3    3    0    0 -0.51167619782E+01 -0.30926246194E+02 -0.48997066610E+02  0.58166369093E+02  0.51100000000E-03 0.  1.
         23    2    1    0    0    0 -0.18272129453E+02 -0.14937472283E+02 -0.18153901256E+02  0.95314793473E+02  0.90544723374E+02 0.  0.
         11    1    3    3    0    0 -0.13155367475E+02  0.15988773911E+02  0.30843165354E+02  0.37148424380E+02  0.51100000000E-03 0. -1.
         22    1    1    0    0    0  0.18272129453E+02  0.14937472283E+02  0.18153901256E+02  0.29775206527E+02  0.00000000000E+00 0.  1.
</event>
<event>
 5    1  0.1043455E-009  0.9118800E+02  0.7561462E-02  0.1125453E+00
         25   -1    0    0    0    0  0.00000000000E+00  0.00000000000E+00  0.99999998245E-14  0.12509000000E+03  0.12509000000E+03 0.  0.
        -11    1    3    3    0    0  0.15455587126E+02 -0.74513010386E+01  0.58830843318E+02  0.61281850383E+02  0.51100000000E-03 0.  1.
         23    2    1    0    0    0  0.10273066620E+02  0.45467144436E+01  0.32987662399E+02  0.90241838204E+02  0.83241786273E+02 0.  0.
         11    1    3    3    0    0 -0.51825205063E+01  0.11998015482E+02 -0.25843180919E+02  0.28959987821E+02  0.51100000000E-03 0. -1.
         22    1    1    0    0    0 -0.10273066620E+02 -0.45467144436E+01 -0.32987662399E+02  0.34848161796E+02  0.00000000000E+00 0.  1.
</event>
<event>
 5    1  0.1043455E-009  0.9118800E+02  0.7561462E-02  0.1125453E+00
         25   -1    0    0    0    0  0.00000000000E+00  0.00000000000E+00  0.99999998245E-14  0.12509000000E+03  0.12509000000E+03 0.  0.
        -11    1    3    3    0    0 -0.11087847296E+02  0.34756775851E+02 -0.75643631943E+01  0.37258467709E+02  0.51100000000E-03 0. -1.
         23    2    1    0    0    0  0.22290559822E+02 -0.13075613266E+02 -0.13582734711E+02  0.95895284696E+02  0.91343167370E+02 0.  0.
         11    1    3    3    0    0  0.33378407119E+02 -0.47832389117E+02 -0.60183715166E+01  0.58636816987E+02  0.51100000000E-03 0.  1.
         22    1    1    0    0    0 -0.22290559822E+02  0.13075613266E+02  0.13582734711E+02  0.29194715304E+02  0.00000000000E+00 0.  1.
</event>
<event>
 5    1  0.1043455E-009  0.9118800E+02  0.7561462E-02  0.1125453E+00
         25   -1    0    0    0    0  0.00000000000E+00  0.00000000000E+00  0.99999998245E-14  0.12509000000E+03  0.12509000000E+03 0.  0.
        -11    1    3    3    0    0  0.17038857081E+02  0.13099524740E+02 -0.56903927422E+02  0.60827437521E+02  0.51100000000E-03 0.  1.
         23    2    1    0    0    0  0.16052975882E+02  0.10631703653E+02 -0.21910996662E+02  0.95921130773E+02  0.91378555453E+02 0.  0.
         11    1    3    3    0    0 -0.98588119828E+00 -0.24678210866E+01  0.34992930760E+02  0.35093693252E+02  0.51100000000E-03 0. -1.
         22    1    1    0    0    0 -0.16052975882E+02 -0.10631703653E+02  0.21910996662E+02  0.29168869227E+02  0.00000000000E+00 0.  1.
</event>
<event>
 5    1  0.1043455E-009  0.9118800E+02  0.7561462E-02  0.1125453E+00
         25   -1    0    0    0    0  0.00000000000E+00  0.00000000000E+00  0.99999998245E-14  0.12509000000E+03  0.12509000000E+03 0.  0.
        -11    1    3    3    0    0 -0.50921039027E+02 -0.75290819984E+01  0.24795435276E+02  0.57135390977E+02  0.51100000000E-03 0.  1.
         23    2    1    0    0    0 -0.15417550427E+02  0.75274899352E+01  0.23848449669E+02  0.95711223349E+02  0.91090755609E+02 0.  0.
         11    1    3    3    0    0  0.35503488600E+02  0.15056571934E+02 -0.94698560762E+00  0.38575832372E+02  0.51100000000E-03 0. -1.
         22    1    1    0    0    0  0.15417550427E+02 -0.75274899352E+01 -0.23848449669E+02  0.29378776651E+02  0.00000000000E+00 0.  1.
</event>
<event>
 5    1  0.1043455E-009  0.9118800E+02  0.7561462E-02  0.1125453E+00
         25   -1    0    0    0    0  0.00000000000E+00  0.00000000000E+00  0.99999998245E-14  0.12509000000E+03  0.12509000000E+03 0.  0.
        -11    1    3    3    0    0 -0.99298027965E+01  0.31822649501E+02 -0.21884722108E+02  0.39877601067E+02  0.51100000000E-03 0. -1.
         23    2    1    0    0    0 -0.14421958404E+02  0.49867548075E+01  0.25994087077E+02  0.94947784244E+02  0.90036262484E+02 0.  0.
         11    1    3    3    0    0 -0.44921556079E+01 -0.26835894693E+02  0.47878809185E+02  0.55070183177E+02  0.51100000000E-03 0.  1.
         22    1    1    0    0    0  0.14421958404E+02 -0.49867548075E+01 -0.25994087077E+02  0.30142215756E+02  0.00000000000E+00 0. -1.
</event>
<event>
 5    1  0.1043455E-009  0.9118800E+02  0.7561462E-02  0.1125453E+00
         25   -1    0    0    0    0  0.00000000000E+00  0.00000000000E+00  0.99999998245E-14  0.12509000000E+03  0.12509000000E+03 0.  0.
        -11    1    3    3    0    0  0.35816303925E+02 -0.35900705063E+02  0.28952889550E+02  0.58394674966E+02  0.51100000000E-03 0. -1.
         23    2    1    0    0    0  0.24560617309E+02 -0.23403922488E+01  0.11188474556E+02  0.97999719060E+02  0.94181004531E+02 0.  0.
         11    1    3    3    0    0 -0.11255686616E+02  0.33560312814E+02 -0.17764414994E+02  0.39605044094E+02  0.51100000000E-03 0.  1.
         22    1    1    0    0    0 -0.24560617309E+02  0.23403922488E+01 -0.11188474556E+02  0.27090280940E+02  0.00000000000E+00 0. -1.
</event>
<event>
 5    1  0.1043455E-009  0.9118800E+02  0.7561462E-02  0.1125453E+00
         25   -1    0    0    0    0  0.00000000000E+00  0.00000000000E+00  0.99999998245E-14  0.12509000000E+03  0.12509000000E+03 0.  0.
        -11    1    3    3    0    0 -0.35563894609E+02  0.22916124143E+02 -0.15004383676E+02  0.44889540823E+02  0.51100000000E-03 0.  1.
         23    2    1    0    0    0  0.15081505510E+02  0.23016480405E+02 -0.10122481346E+02  0.95769788417E+02  0.91171144372E+02 0.  0.
         11    1    3    3    0    0  0.50645400119E+02  0.10035626234E+00  0.48819023304E+01  0.50880247594E+02  0.51100000000E-03 0. -1.
         22    1    1    0    0    0 -0.15081505510E+02 -0.23016480405E+02  0.10122481346E+02  0.29320211583E+02  0.00000000000E+00 0. -1.
</event>
<event>
 5    1  0.1043455E-009  0.9118800E+02  0.7561462E-02  0.1125453E+00
         25   -1    0    0    0    0  0.00000000000E+00  0.00000000000E+00  0.99999998245E-14  0.12509000000E+03  0.12509000000E+03 0.  0.
        -11    1    3    3    0    0 -0.41084451736E+02 -0.31486013826E+02 -0.12420234260E+02  0.53231226366E+02  0.51100000000E-03 0. -1.
         23    2    1    0    0    0 -0.19778076240E+01 -0.19055523702E+02 -0.22552937652E+02  0.95498452165E+02  0.90798098342E+02 0.  0.
         11    1    3    3    0    0  0.39106644112E+02  0.12430490124E+02 -0.10132703392E+02  0.42267225799E+02  0.51100000000E-03 0.  1.
         22    1    1    0    0    0  0.19778076240E+01  0.19055523702E+02  0.22552937652E+02  0.29591547835E+02  0.00000000000E+00 0.  1.
</event>
<event>
 5    1  0.1043455E-009  0.9118800E+02  0.7561462E-02  0.1125453E+00
         25   -1    0    0    0    0  0.00000000000E+00  0.00000000000E+00  0.99999998245E-14  0.12509000000E+03  0.12509000000E+03 0.  0.
        -11    1    3    3    0    0 -0.97762684433E+01  0.35599333501E+02 -0.33763580592E+02  0.50028665234E+02  0.51100000000E-03 0. -1.
         23    2    1    0    0    0  0.11564228960E+01 -0.84627835410E+01 -0.28030032461E+02  0.95787461903E+02  0.91195389789E+02 0.  0.
         11    1    3    3    0    0  0.10932691339E+02 -0.44062117042E+02  0.57335481312E+01  0.45758796669E+02  0.51100000000E-03 0.  1.
         22    1    1    0    0    0 -0.11564228960E+01  0.84627835410E+01  0.28030032461E+02  0.29302538097E+02  0.00000000000E+00 0. -1.
</event>
<event>
 5    1  0.1043455E-009  0.9118800E+02  0.7561462E-02  0.1125453E+00
         25   -1    0    0    0    0  0.00000000000E+00  0.00000000000E+00  0.99999998245E-14  0.12509000000E+03  0.12509000000E+03 0.  0.
        -11    1    3    3    0    0 -0.41964036954E+02 -0.29092807975E+02  0.33680299202E+01  0.51173386629E+02  0.51100000000E-03 0.  1.
         23    2    1    0    0    0 -0.10442445040E+02 -0.76374490497E+01  0.26378980457E+02  0.95709293808E+02  0.91088105837E+02 0.  0.
         11    1    3    3    0    0  0.31521591914E+02  0.21455358925E+02  0.23010950537E+02  0.44535907179E+02  0.51100000000E-03 0. -1.
         22    1    1    0    0    0  0.10442445040E+02  0.76374490497E+01 -0.26378980457E+02  0.29380706192E+02  0.00000000000E+00 0.  1.
</event>
<event>
 5    1  0.1043455E-009  0.9118800E+02  0.7561462E-02  0.1125453E+00
         25   -1    0    0    0    0  0.00000000000E+00  0.00000000000E+00  0.99999998245E-14  0.12509000000E+03  0.12509000000E+03 0.  0.
        -11    1    3    3    0    0  0.11000480923E+02  0.30660569657E+02  0.25106242663E+02  0.41126688818E+02  0.51100000000E-03 0.  1.
         23    2    1    0    0    0 -0.20465282861E+02  0.12689998074E+02 -0.16194820262E+02  0.96070419421E+02  0.91582691764E+02 0.  0.
         11    1    3    3    0    0 -0.31465763784E+02 -0.17970571583E+02 -0.41301062925E+02  0.54943730603E+02  0.51100000000E-03 0. -1.
         22    1    1    0    0    0  0.20465282861E+02 -0.12689998074E+02  0.16194820262E+02  0.29019580579E+02  0.00000000000E+00 0.  1.
</event>
<event>
 5    1  0.1043455E-009  0.9118800E+02  0.7561462E-02  0.1125453E+00
         25   -1    0    0    0    0  0.00000000000E+00  0.00000000000E+00  0.99999998245E-14  0.12509000000E+03  0.12509000000E+03 0.  0.
        -11    1    3    3    0    0 -0.29826196494E+02  0.95681823673E+01 -0.21185913010E+02  0.37815274976E+02  0.51100000000E-03 0.  1.
         23    2    1    0    0    0  0.20863042655E+02  0.20006029804E+02  0.49029845119E+01  0.95771967418E+02  0.91174133989E+02 0.  0.
         11    1    3    3    0    0  0.50689239150E+02  0.10437847437E+02  0.26088897522E+02  0.57956692442E+02  0.51100000000E-03 0. -1.
         22    1    1    0    0    0 -0.20863042655E+02 -0.20006029804E+02 -0.49029845119E+01  0.29318032582E+02  0.00000000000E+00 0. -1.
</event>
<event>
 5    1  0.1043455E-009  0.9118800E+02  0.7561462E-02  0.1125453E+00
         25   -1    0    0    0    0  0.00000000000E+00  0.00000000000E+00  0.99999998245E-14  0.12509000000E+03  0.12509000000E+03 0.  0.
        -11    1    3    3    0    0 -0.11645726267E+02 -0.14430590583E+02  0.32093280194E+02  0.37065395165E+02  0.51100000000E-03 0.  1.
         23    2    1    0    0    0  0.14855085642E+02  0.24622193480E+02 -0.34216742297E+01  0.96130824671E+02  0.91665160319E+02 0.  0.
         11    1    3    3    0    0  0.26500811909E+02  0.39052784063E+02 -0.35514954423E+02  0.59065429507E+02  0.51100000000E-03 0. -1.
         22    1    1    0    0    0 -0.14855085642E+02 -0.24622193480E+02  0.34216742297E+01  0.28959175329E+02  0.00000000000E+00 0. -1.
</event>
<event>
 5    1  0.1043455E-009  0.9118800E+02  0.7561462E-02  0.1125453E+00
         25   -1    0    0    0    0  0.00000000000E+00  0.00000000000E+00  0.99999998245E-14  0.12509000000E+03  0.12509000000E+03 0.  0.
        -11    1    3    3    0    0  0.30511229416E+02  0.28466661697E+02 -0.63238551925E+01  0.42205178514E+02  0.51100000000E-03 0. -1.
         23    2    1    0    0    0 -0.19651417534E+02  0.18262063685E+02 -0.15345622658E+02  0.94184186374E+02  0.88969048815E+02 0.  0.
         11    1    3    3    0    0 -0.50162646950E+02 -0.10204598011E+02 -0.90217674653E+01  0.51979007860E+02  0.51100000000E-03 0.  1.
         22    1    1    0    0    0  0.19651417534E+02 -0.18262063685E+02  0.15345622658E+02  0.30905813626E+02  0.00000000000E+00 0.  1.
</event>
<event>
 5    1  0.1043455E-009  0.9118800E+02  0.7561462E-02  0.1125453E+00
         25   -1    0    0    0    0  0.00000000000E+00  0.00000000000E+00  0.99999998245E-14  0.12509000000E+03  0.12509000000E+03 0.  0.
        -11    1    3    3    0    0  0.41972937375E+02 -0.18569991131E+02  0.23335738583E+01  0.45956692763E+02  0.51100000000E-03 0.  1.
         23    2    1    0    0    0  0.27422065858E+02  0.22377046805E+02  0.41737876135E+01  0.89451223047E+02  0.82045102730E+02 0.  0.
         11    1    3    3    0    0 -0.14550871517E+02  0.40947037936E+02  0.18402137552E+01  0.43494530284E+02  0.51100000000E-03 0. -1.
         22    1    1    0    0    0 -0.27422065858E+02 -0.22377046805E+02 -0.41737876135E+01  0.35638776953E+02  0.00000000000E+00 0.  1.
</event>
<event>
 5    1  0.1043455E-009  0.9118800E+02  0.7561462E-02  0.1125453E+00
         25   -1    0    0    0    0  0.00000000000E+00  0.00000000000E+00  0.99999998245E-14  0.12509000000E+03  0.12509000000E+03 0.  0.
        -11    1    3    3    0    0 -0.29167108299E+02 -0.39479129792E+02  0.21074400658E+02  0.53417714843E+02  0.51100000000E-03 0.  1.
         23    2    1    0    0    0 -0.22448055348E+02  0.25430026343E+01  0.18215510077E+02  0.96069544134E+02  0.91581496228E+02 0.  0.
         11    1    3    3    0    0  0.67190529513E+01  0.42022132427E+02 -0.28588905806E+01  0.42651829291E+02  0.51100000000E-03 0. -1.
         22    1    1    0    0    0  0.22448055348E+02 -0.25430026343E+01 -0.18215510077E+02  0.29020455866E+02  0.00000000000E+00 0. -1.
</event>
<event>
 5    1  0.1043455E-009  0.9118800E+02  0.7561462E-02  0.1125453E+00
         25   -1    0    0    0    0  0.00000000000E+00  0.00000000000E+00  0.99999998245E-14  0.12509000000E+03  0.12509000000E+03 0.  0.
        -11    1    3    3    0    0 -0.74658660521E+01  0.33673861420E+02 -0.30007611463E+02  0.45717883206E+02  0.51100000000E-03 0.  1.
         23    2    1    0    0    0  0.23447233913E+02  0.16855493619E+02  0.54814310868E+01  0.95697372862E+02  0.91071733500E+02 0.  0.
         11    1    3    3    0    0  0.30913099965E+02 -0.16818367802E+02  0.35489042550E+02  0.49979489656E+02  0.51100000000E-03 0. -1.
         22    1    1    0    0    0 -0.23447233913E+02 -0.16855493619E+02 -0.54814310868E+01  0.29392627138E+02  0.00000000000E+00 0.  1.
</event>
<event>
 5    1  0.1043455E-009  0.9118800E+02  0.7561462E-02  0.1125453E+00
         25   -1    0    0    0    0  0.00000000000E+00  0.00000000000E+00  0.99999998245E-14  0.12509000000E+03  0.12509000000E+03 0.  0.
        -11    1    3    3    0    0  0.24332104884E+02 -0.10856016673E+02  0.18808325062E+02  0.32613762709E+02  0.51100000000E-03 0.  1.
         23    2    1    0    0    0 -0.15010987547E+02 -0.25323950096E+01 -0.27323054287E+02  0.93812339167E+02  0.88444688438E+02 0.  0.
         11    1    3    3    0    0 -0.39343092432E+02  0.83236216631E+01 -0.46131379349E+02  0.61198576459E+02  0.51100000000E-03 0. -1.
         22    1    1    0    0    0  0.15010987547E+02  0.25323950096E+01  0.27323054287E+02  0.31277660833E+02  0.00000000000E+00 0. -1.
</event>
<event>
 5    1  0.1043455E-009  0.9118800E+02  0.7561462E-02  0.1125453E+00
         25   -1    0    0    0    0  0.00000000000E+00  0.00000000000E+00  0.99999998245E-14  0.12509000000E+03  0.12509000000E+03 0.  0.
        -11    1    3    3    0    0  0.21992942358E+02 -0.22696395997E+01 -0.37143635010E+02  0.43226038443E+02  0.51100000000E-03 0.  1.
         23    2    1    0    0    0  0.25553092261E+02 -0.11241744259E+02  0.13003295148E+02  0.94293522559E+02  0.89122642318E+02 0.  0.
         11    1    3    3    0    0  0.35601499032E+01 -0.89721046592E+01  0.50146930158E+02  0.51067484115E+02  0.51100000000E-03 0. -1.
         22    1    1    0    0    0 -0.25553092261E+02  0.11241744259E+02 -0.13003295148E+02  0.30796477441E+02  0.00000000000E+00 0. -1.
</event>
<event>
 5    1  0.1043455E-009  0.9118800E+02  0.7561462E-02  0.1125453E+00
         25   -1    0    0    0    0  0.00000000000E+00  0.00000000000E+00  0.99999998245E-14  0.12509000000E+03  0.12509000000E+03 0.  0.
        -11    1    3    3    0    0  0.21667105981E+02  0.26983752323E+02 -0.16692887979E+02  0.38421854203E+02  0.51100000000E-03 0.  1.
         23    2    1    0    0    0 -0.22719850342E+02 -0.10178171610E+02 -0.14341186870E+02  0.96359242653E+02  0.91976340582E+02 0.  0.
         11    1    3    3    0    0 -0.44386956323E+02 -0.37161923933E+02  0.23517011090E+01  0.57937388450E+02  0.51100000000E-03 0. -1.
         22    1    1    0    0    0  0.22719850342E+02  0.10178171610E+02  0.14341186870E+02  0.28730757347E+02  0.00000000000E+00 0.  1.
</event>
<event>
 5    1  0.1043455E-009  0.9118800E+02  0.7561462E-02  0.1125453E+00
         25   -1    0    0    0    0  0.00000000000E+00  0.00000000000E+00  0.99999998245E-14  0.12509000000E+03  0.12509000000E+03 0.  0.
        -11    1    3    3    0    0 -0.24398301759E+02 -0.27720838111E+02 -0.11108347706E+02  0.38563160961E+02  0.51100000000E-03 0.  1.
         23    2    1    0    0    0 -0.39425327421E+02 -0.74339066560E+01  0.21317397755E+02  0.79658173518E+02  0.65432207289E+02 0.  0.
         11    1    3    3    0    0 -0.15027025663E+02  0.20286931455E+02  0.32425745461E+02  0.41095012557E+02  0.51100000000E-03 0. -1.
         22    1    1    0    0    0  0.39425327421E+02  0.74339066560E+01 -0.21317397755E+02  0.45431826482E+02  0.00000000000E+00 0. -1.
</event>
<event>
 5    1  0.1043455E-009  0.9118800E+02  0.7561462E-02  0.1125453E+00
         25   -1    0    0    0    0  0.00000000000E+00  0.00000000000E+00  0.99999998245E-14  0.12509000000E+03  0.12509000000E+03 0.  0.
        -11    1    3    3    0    0  0.31909014176E+02 -0.26817204017E+02  0.40918004561E+02  0.58409166357E+02  0.51100000000E-03 0.  1.
         23    2    1    0    0    0  0.21359118584E+01 -0.22298955559E+02  0.15107002637E+02  0.98070986932E+02  0.94275614083E+02 0.  0.
         11    1    3    3    0    0 -0.29773102318E+02  0.45182484581E+01 -0.25811001924E+02  0.39661820575E+02  0.51100000000E-03 0. -1.
         22    1    1    0    0    0 -0.21359118584E+01  0.22298955559E+02 -0.15107002637E+02  0.27019013068E+02  0.00000000000E+00 0.  1.
</event>
<event>
 5    1  0.1043455E-009  0.9118800E+02  0.7561462E-02  0.1125453E+00
         25   -1    0    0    0    0  0.00000000000E+00  0.00000000000E+00  0.99999998245E-14  0.12509000000E+03  0.12509000000E+03 0.  0.
        -11    1    3    3    0    0 -0.11376832069E+02 -0.45198481271E+02 -0.21842477225E+01  0.46659468016E+02  0.51100000000E-03 0. -1.
         23    2    1    0    0    0  0.23517402354E+02 -0.13182035258E+02  0.11238114331E+02  0.95881619683E+02  0.91324451886E+02 0.  0.
         11    1    3    3    0    0  0.34894234424E+02  0.32016446013E+02  0.13422362053E+02  0.49222151667E+02  0.51100000000E-03 0.  1.
         22    1    1    0    0    0 -0.23517402354E+02  0.13182035258E+02 -0.11238114331E+02  0.29208380317E+02  0.00000000000E+00 0. -1.
</event>
<event>
 5    1  0.1043455E-009  0.9118800E+02  0.7561462E-02  0.1125453E+00
         25   -1    0    0    0    0  0.00000000000E+00  0.00000000000E+00  0.99999998245E-14  0.12509000000E+03  0.12509000000E+03 0.  0.
        -11    1    3    3    0    0 -0.26655911329E+02 -0.25614953050E+02  0.13435245549E+02  0.39334072402E+02  0.51100000000E-03 0. -1.
         23    2    1    0    0    0  0.19735944862E+02 -0.92369867319E+01 -0.17233475829E+02  0.97308312999E+02  0.93258166646E+02 0.  0.
         11    1    3    3    0    0  0.46391856191E+02  0.16377966318E+02 -0.30668721378E+02  0.57974240597E+02  0.51100000000E-03 0.  1.
         22    1    1    0    0    0 -0.19735944862E+02  0.92369867319E+01  0.17233475829E+02  0.27781687001E+02  0.00000000000E+00 0.  1.
</event>
<event>
 5    1  0.1043455E-009  0.9118800E+02  0.7561462E-02  0.1125453E+00
         25   -1    0    0    0    0  0.00000000000E+00  0.00000000000E+00  0.99999998245E-14  0.12509000000E+03  0.12509000000E+03 0.  0.
        -11    1    3    3    0    0  0.18152358997E+02  0.36731916762E+02  0.25524916087E+02  0.48272799666E+02  0.51100000000E-03 0.  1.
         23    2    1    0    0    0  0.26759571765E+02  0.68906341707E+01 -0.10222286483E+02  0.95627300510E+02  0.90975435924E+02 0.  0.
         11    1    3    3    0    0  0.86072127681E+01 -0.29841282591E+02 -0.35747202570E+02  0.47354500844E+02  0.51100000000E-03 0. -1.
         22    1    1    0    0    0 -0.26759571765E+02 -0.68906341707E+01  0.10222286483E+02  0.29462699490E+02  0.00000000000E+00 0.  1.
</event>
<event>
 5    1  0.1043455E-009  0.9118800E+02  0.7561462E-02  0.1125453E+00
         25   -1    0    0    0    0  0.00000000000E+00  0.00000000000E+00  0.99999998245E-14  0.12509000000E+03  0.12509000000E+03 0.  0.
        -11    1    3    3    0    0  0.14657873935E+02  0.26514976863E+02 -0.24409725239E+02  0.38906708327E+02  0.51100000000E-03 0. -1.
         23    2    1    0    0    0 -0.13502670695E+02 -0.22131705533E+02 -0.12247834871E+02  0.96416947063E+02  0.92054786493E+02 0.  0.
         11    1    3    3    0    0 -0.28160544629E+02 -0.48646682396E+02  0.12161890368E+02  0.57510238736E+02  0.51100000000E-03 0.  1.
         22    1    1    0    0    0  0.13502670695E+02  0.22131705533E+02  0.12247834871E+02  0.28673052937E+02  0.00000000000E+00 0.  1.
</event>
<event>
 5    1  0.1043455E-009  0.9118800E+02  0.7561462E-02  0.1125453E+00
         25   -1    0    0    0    0  0.00000000000E+00  0.00000000000E+00  0.99999998245E-14  0.12509000000E+03  0.12509000000E+03 0.  0.
        -11    1    3    3    0    0  0.36589096557E+02  0.36964752334E+02  0.58091923288E+01  0.52334516504E+02  0.51100000000E-03 0.  1.
         23    2    1    0    0    0 -0.84924808976E+00  0.20463479189E+02  0.20791495982E+02  0.95905046548E+02  0.91356534771E+02 0.  0.
         11    1    3    3    0    0 -0.37438344646E+02 -0.16501273145E+02  0.14982303653E+02  0.43570530044E+02  0.51100000000E-03 0. -1.
         22    1    1    0    0    0  0.84924808976E+00 -0.20463479189E+02 -0.20791495982E+02  0.29184953452E+02  0.00000000000E+00 0. -1.
</event>
<event>
 5    1  0.1043455E-009  0.9118800E+02  0.7561462E-02  0.1125453E+00
         25   -1    0    0    0    0  0.00000000000E+00  0.00000000000E+00  0.99999998245E-14  0.12509000000E+03  0.12509000000E+03 0.  0.
        -11    1    3    3    0    0  0.60244834713E+02  0.21262470958E+01  0.61454026449E+01  0.60594777088E+02  0.51100000000E-03 0. -1.
         23    2    1    0    0    0  0.25315134890E+02  0.10551204218E+02  0.78380268789E+01  0.96565999048E+02  0.92257105644E+02 0.  0.
         11    1    3    3    0    0 -0.34929699823E+02  0.84249571225E+01  0.16926242341E+01  0.35971221960E+02  0.51100000000E-03 0.  1.
         22    1    1    0    0    0 -0.25315134890E+02 -0.10551204218E+02 -0.78380268789E+01  0.28524000952E+02  0.00000000000E+00 0. -1.
</event>
<event>
 5    1  0.1043455E-009  0.9118800E+02  0.7561462E-02  0.1125453E+00
         25   -1    0    0    0    0  0.00000000000E+00  0.00000000000E+00  0.99999998245E-14  0.12509000000E+03  0.12509000000E+03 0.  0.
        -11    1    3    3    0    0 -0.37223982348E+02  0.30214995872E+02 -0.74128922646E+01  0.48513109665E+02  0.51100000000E-03 0.  1.
         23    2    1    0    0    0 -0.17070796608E+02 -0.12204665129E+02 -0.18886179939E+02  0.96857859797E+02  0.92651990070E+02 0.  0.
         11    1    3    3    0    0  0.20153185740E+02 -0.42419661001E+02 -0.11473287675E+02  0.48344750131E+02  0.51100000000E-03 0. -1.
         22    1    1    0    0    0  0.17070796608E+02  0.12204665129E+02  0.18886179939E+02  0.28232140203E+02  0.00000000000E+00 0. -1.
</event>
<event>
 5    1  0.1043455E-009  0.9118800E+02  0.7561462E-02  0.1125453E+00
         25   -1    0    0    0    0  0.00000000000E+00  0.00000000000E+00  0.99999998245E-14  0.12509000000E+03  0.12509000000E+03 0.  0.
        -11    1    3    3    0    0 -0.24045525697E+02 -0.14745177471E+02  0.38276197315E+02  0.47546554511E+02  0.51100000000E-03 0. -1.
         23    2    1    0    0    0 -0.20441114565E+02 -0.37144654334E+02  0.14827474897E+02  0.80174317638E+02  0.66411615601E+02 0.  0.
         11    1    3    3    0    0  0.36044111325E+01 -0.22399476863E+02 -0.23448722419E+02  0.32627763127E+02  0.51100000000E-03 0.  1.
         22    1    1    0    0    0  0.20441114565E+02  0.37144654334E+02 -0.14827474897E+02  0.44915682362E+02  0.00000000000E+00 0. -1.
</event>
<event>
 5    1  0.1043455E-009  0.9118800E+02  0.7561462E-02  0.1125453E+00
         25   -1    0    0    0    0  0.00000000000E+00  0.00000000000E+00  0.99999998245E-14  0.12509000000E+03  0.12509000000E+03 0.  0.
        -11    1    3    3    0    0  0.17730657126E+02  0.28873952424E+02  0.40112065255E+02  0.52507705244E+02  0.51100000000E-03 0.  1.
         23    2    1    0    0    0  0.44696366915E+00 -0.78733680718E+01  0.29603174570E+02  0.94454438214E+02  0.89348213482E+02 0.  0.
         11    1    3    3    0    0 -0.17283693457E+02 -0.36747320496E+02 -0.10508890686E+02  0.41946732970E+02  0.51100000000E-03 0. -1.
         22    1    1    0    0    0 -0.44696366915E+00  0.78733680718E+01 -0.29603174570E+02  0.30635561786E+02  0.00000000000E+00 0.  1.
</event>
<event>
 5    1  0.1043455E-009  0.9118800E+02  0.7561462E-02  0.1125453E+00
         25   -1    0    0    0    0  0.00000000000E+00  0.00000000000E+00  0.99999998245E-14  0.12509000000E+03  0.12509000000E+03 0.  0.
        -11    1    3    3    0    0  0.16055103119E+02 -0.40852168920E+02  0.11042641864E+01  0.43907692280E+02  0.51100000000E-03 0.  1.
         23    2    1    0    0    0 -0.87994807744E+01  0.40725998105E+01  0.23308394771E+02  0.99845234247E+02  0.96601100428E+02 0.  0.
         11    1    3    3    0    0 -0.24854583893E+02  0.44924768731E+02  0.22204130585E+02  0.55937541967E+02  0.51100000000E-03 0. -1.
         22    1    1    0    0    0  0.87994807744E+01 -0.40725998105E+01 -0.23308394771E+02  0.25244765753E+02  0.00000000000E+00 0. -1.
</event>
<event>
 5    1  0.1043455E-009  0.9118800E+02  0.7561462E-02  0.1125453E+00
         25   -1    0    0    0    0  0.00000000000E+00  0.00000000000E+00  0.99999998245E-14  0.12509000000E+03  0.12509000000E+03 0.  0.
        -11    1    3    3    0    0  0.23386042517E+02  0.18682816893E+02 -0.16610333791E+02  0.34232408921E+02  0.51100000000E-03 0. -1.
         23    2    1    0    0    0 -0.20592878983E+02  0.13445483658E+01  0.21747136903E+02  0.95109799224E+02  0.90261073946E+02 0.  0.
         11    1    3    3    0    0 -0.43978921499E+02 -0.17338268527E+02  0.38357470694E+02  0.60877390303E+02  0.51100000000E-03 0.  1.
         22    1    1    0    0    0  0.20592878983E+02 -0.13445483658E+01 -0.21747136903E+02  0.29980200776E+02  0.00000000000E+00 0.  1.
</event>
<event>
 5    1  0.1043455E-009  0.9118800E+02  0.7561462E-02  0.1125453E+00
         25   -1    0    0    0    0  0.00000000000E+00  0.00000000000E+00  0.99999998245E-14  0.12509000000E+03  0.12509000000E+03 0.  0.
        -11    1    3    3    0    0 -0.16078125345E+02  0.40001681923E+02 -0.41393467545E+02  0.59766711696E+02  0.51100000000E-03 0.  1.
         23    2    1    0    0    0 -0.14490184740E+02  0.79113060692E+01 -0.22966632870E+02  0.96805367372E+02  0.92581092611E+02 0.  0.
         11    1    3    3    0    0  0.15879406052E+01 -0.32090375854E+02  0.18426834675E+02  0.37038655676E+02  0.51100000000E-03 0. -1.
         22    1    1    0    0    0  0.14490184740E+02 -0.79113060692E+01  0.22966632870E+02  0.28284632628E+02  0.00000000000E+00 0.  1.
</event>
<event>
 5    1  0.1043455E-009  0.9118800E+02  0.7561462E-02  0.1125453E+00
         25   -1    0    0    0    0  0.00000000000E+00  0.00000000000E+00  0.99999998245E-14  0.12509000000E+03  0.12509000000E+03 0.  0.
        -11    1    3    3    0    0 -0.30175947073E+02  0.10762866798E+02 -0.16554661150E+02  0.36062222471E+02  0.51100000000E-03 0.  1.
         23    2    1    0    0    0  0.14271520801E+02 -0.13882264206E+02  0.18588084846E+02  0.97851966596E+02  0.93984556726E+02 0.  0.
         11    1    3    3    0    0  0.44447467874E+02 -0.24645131004E+02  0.35142745997E+02  0.61789744125E+02  0.51100000000E-03 0. -1.
         22    1    1    0    0    0 -0.14271520801E+02  0.13882264206E+02 -0.18588084846E+02  0.27238033404E+02  0.00000000000E+00 0. -1.
</event>
<event>
 5    1  0.1043455E-009  0.9118800E+02  0.7561462E-02  0.1125453E+00
         25   -1    0    0    0    0  0.00000000000E+00  0.00000000000E+00  0.99999998245E-14  0.12509000000E+03  0.12509000000E+03 0.  0.
        -11    1    3    3    0    0 -0.39847262718E+02  0.46791172956E+02 -0.97216830742E+01  0.62223221829E+02  0.51100000000E-03 0. -1.
         23    2    1    0    0    0 -0.17663261629E+02  0.21186120125E+02 -0.88812825201E+01  0.96112082950E+02  0.91639581036E+02 0.  0.
         11    1    3    3    0    0  0.22184001089E+02 -0.25605052830E+02  0.84040055413E+00  0.33888861122E+02  0.51100000000E-03 0.  1.
         22    1    1    0    0    0  0.17663261629E+02 -0.21186120125E+02  0.88812825201E+01  0.28977917050E+02  0.00000000000E+00 0. -1.
</event>
<event>
 5    1  0.1043455E-009  0.9118800E+02  0.7561462E-02  0.1125453E+00
         25   -1    0    0    0    0  0.00000000000E+00  0.00000000000E+00  0.99999998245E-14  0.12509000000E+03  0.12509000000E+03 0.  0.
        -11    1    3    3    0    0 -0.16439090569E+02 -0.11343917727E+02 -0.38912809003E+02  0.43739397262E+02  0.51100000000E-03 0. -1.
         23    2    1    0    0    0 -0.27250629670E+02  0.19656296260E+00  0.10701368887E+02  0.95812794695E+02  0.91230131409E+02 0.  0.
         11    1    3    3    0    0 -0.10811539101E+02  0.11540480690E+02  0.49614177890E+02  0.52073397433E+02  0.51100000000E-03 0.  1.
         22    1    1    0    0    0  0.27250629670E+02 -0.19656296260E+00 -0.10701368887E+02  0.29277205305E+02  0.00000000000E+00 0. -1.
</event>
<event>
 5    1  0.1043455E-009  0.9118800E+02  0.7561462E-02  0.1125453E+00
         25   -1    0    0    0    0  0.00000000000E+00  0.00000000000E+00  0.99999998245E-14  0.12509000000E+03  0.12509000000E+03 0.  0.
        -11    1    3    3    0    0  0.43970414270E+00  0.33406069489E+02 -0.17204705283E+02  0.37578726728E+02  0.51100000000E-03 0.  1.
         23    2    1    0    0    0 -0.14277749049E+02 -0.23087196057E+02 -0.87656779653E+01  0.96564400097E+02  0.92254937625E+02 0.  0.
         11    1    3    3    0    0 -0.14717453192E+02 -0.56493265545E+02  0.84390273172E+01  0.58985673368E+02  0.51100000000E-03 0. -1.
         22    1    1    0    0    0  0.14277749049E+02  0.23087196057E+02  0.87656779653E+01  0.28525599903E+02  0.00000000000E+00 0. -1.
</event>
<event>
 5    1  0.1043455E-009  0.9118800E+02  0.7561462E-02  0.1125453E+00
         25   -1    0    0    0    0  0.00000000000E+00  0.00000000000E+00  0.99999998245E-14  0.12509000000E+03  0.12509000000E+03 0.  0.
        -11    1    3    3    0    0 -0.15388851604E+02 -0.17553517703E+02  0.46634465419E+02  0.52150897429E+02  0.51100000000E-03 0.  1.
         23    2    1    0    0    0  0.55885625872E+01  0.14129801901E+02  0.24882589791E+02  0.95934784201E+02  0.91397244004E+02 0.  0.
         11    1    3    3    0    0  0.20977414192E+02  0.31683319604E+02 -0.21751875627E+02  0.43783886772E+02  0.51100000000E-03 0. -1.
         22    1    1    0    0    0 -0.55885625872E+01 -0.14129801901E+02 -0.24882589791E+02  0.29155215799E+02  0.00000000000E+00 0.  1.
</event>
<event>
 5    1  0.1043455E-009  0.9118800E+02  0.7561462E-02  0.1125453E+00
         25   -1    0    0    0    0  0.00000000000E+00  0.00000000000E+00  0.99999998245E-14  0.12509000000E+03  0.12509000000E+03 0.  0.
        -11    1    3    3    0    0 -0.47636614162E+01 -0.48744941056E+00 -0.39743950680E+02  0.40031383850E+02  0.51100000000E-03 0. -1.
         23    2    1    0    0    0  0.66840156246E+01  0.28301409295E+02  0.61142758113E+01  0.95374175905E+02  0.90626724689E+02 0.  0.
         11    1    3    3    0    0  0.11447677041E+02  0.28788858706E+02  0.45858226491E+02  0.55342792055E+02  0.51100000000E-03 0.  1.
         22    1    1    0    0    0 -0.66840156246E+01 -0.28301409295E+02 -0.61142758113E+01  0.29715824095E+02  0.00000000000E+00 0.  1.
</event>
<event>
 5    1  0.1043455E-009  0.9118800E+02  0.7561462E-02  0.1125453E+00
         25   -1    0    0    0    0  0.00000000000E+00  0.00000000000E+00  0.99999998245E-14  0.12509000000E+03  0.12509000000E+03 0.  0.
        -11    1    3    3    0    0  0.36195447348E+02 -0.32402504973E+02 -0.15734272030E+02  0.51064665414E+02  0.51100000000E-03 0.  1.
         23    2    1    0    0    0  0.19240754021E+02 -0.37649419219E+02  0.93449414920E+01  0.81788576070E+02  0.69385573870E+02 0.  0.
         11    1    3    3    0    0 -0.16954693327E+02 -0.52469142466E+01  0.25079213522E+02  0.30723910657E+02  0.51100000000E-03 0. -1.
         22    1    1    0    0    0 -0.19240754021E+02  0.37649419219E+02 -0.93449414920E+01  0.43301423930E+02  0.00000000000E+00 0.  1.
</event>
<event>
 5    1  0.1043455E-009  0.9118800E+02  0.7561462E-02  0.1125453E+00
         25   -1    0    0    0    0  0.00000000000E+00  0.00000000000E+00  0.99999998245E-14  0.12509000000E+03  0.12509000000E+03 0.  0.
        -11    1    3    3    0    0  0.31772849838E+02  0.14313953918E+02  0.14884688931E+02  0.37894026290E+02  0.51100000000E-03 0. -1.
         23    2    1    0    0    0 -0.18786174016E+02 -0.13856962997E+02 -0.84013394419E+01  0.10028035949E+03  0.97162915961E+02 0.  0.
         11    1    3    3    0    0 -0.50559023854E+02 -0.28170916915E+02 -0.23286028373E+02  0.62386333203E+02  0.51100000000E-03 0.  1.
         22    1    1    0    0    0  0.18786174016E+02  0.13856962997E+02  0.84013394419E+01  0.24809640507E+02  0.00000000000E+00 0.  1.
</event>
<event>
 5    1  0.1043455E-009  0.9118800E+02  0.7561462E-02  0.1125453E+00
         25   -1    0    0    0    0  0.00000000000E+00  0.00000000000E+00  0.99999998245E-14  0.12509000000E+03  0.12509000000E+03 0.  0.
        -11    1    3    3    0    0  0.49688999017E+02 -0.10089981875E+02  0.32829426113E+02  0.60403440107E+02  0.51100000000E-03 0. -1.
         23    2    1    0    0    0  0.28845889827E+02  0.35497005482E+01  0.95495492336E+01  0.94497850280E+02  0.89408970932E+02 0.  0.
         11    1    3    3    0    0 -0.20843109190E+02  0.13639682423E+02 -0.23279876879E+02  0.34094410173E+02  0.51100000000E-03 0.  1.
         22    1    1    0    0    0 -0.28845889827E+02 -0.35497005482E+01 -0.95495492336E+01  0.30592149720E+02  0.00000000000E+00 0. -1.
</event>
<event>
 5    1  0.1043455E-009  0.9118800E+02  0.7561462E-02  0.1125453E+00
         25   -1    0    0    0    0  0.00000000000E+00  0.00000000000E+00  0.99999998245E-14  0.12509000000E+03  0.12509000000E+03 0.  0.
        -11    1    3    3    0    0  0.18318900701E+02  0.22135550299E+02  0.26242920803E+02  0.38913437299E+02  0.51100000000E-03 0.  1.
         23    2    1    0    0    0  0.17901575521E+02 -0.19883664351E+02 -0.12032826663E+02  0.95753752257E+02  0.91149139544E+02 0.  0.
         11    1    3    3    0    0 -0.41732518025E+00 -0.42019214649E+02 -0.38275747467E+02  0.56840314957E+02  0.51100000000E-03 0. -1.
         22    1    1    0    0    0 -0.17901575521E+02  0.19883664351E+02  0.12032826663E+02  0.29336247743E+02  0.00000000000E+00 0. -1.
</event>
<event>
 5    1  0.1043455E-009  0.9118800E+02  0.7561462E-02  0.1125453E+00
         25   -1    0    0    0    0  0.00000000000E+00  0.00000000000E+00  0.99999998245E-14  0.12509000000E+03  0.12509000000E+03 0.  0.
        -11    1    3    3    0    0  0.36388108625E+02  0.22029851184E+02 -0.92959471083E+01  0.43541054482E+02  0.51100000000E-03 0. -1.
         23    2    1    0    0    0  0.16968955424E+02 -0.23133887157E+02  0.74008657052E+01  0.95460707123E+02  0.90746083155E+02 0.  0.
         11    1    3    3    0    0 -0.19419153201E+02 -0.45163738342E+02  0.16696812813E+02  0.51919652641E+02  0.51100000000E-03 0.  1.
         22    1    1    0    0    0 -0.16968955424E+02  0.23133887157E+02 -0.74008657052E+01  0.29629292877E+02  0.00000000000E+00 0.  1.
</event>
<event>
 5    1  0.1043455E-009  0.9118800E+02  0.7561462E-02  0.1125453E+00
         25   -1    0    0    0    0  0.00000000000E+00  0.00000000000E+00  0.99999998245E-14  0.12509000000E+03  0.12509000000E+03 0.  0.
        -11    1    3    3    0    0  0.43560798987E+02  0.27440289236E+02 -0.19206592767E+01  0.51518944225E+02  0.51100000000E-03 0.  1.
         23    2    1    0    0    0  0.14089876311E+00  0.26110119539E+02 -0.12368813212E+02  0.96198033382E+02  0.91756830217E+02 0.  0.
         11    1    3    3    0    0 -0.43419900224E+02 -0.13301696972E+01 -0.10448153936E+02  0.44679089156E+02  0.51100000000E-03 0. -1.
         22    1    1    0    0    0 -0.14089876311E+00 -0.26110119539E+02  0.12368813212E+02  0.28891966618E+02  0.00000000000E+00 0.  1.
</event>
<event>
 5    1  0.1043455E-009  0.9118800E+02  0.7561462E-02  0.1125453E+00
         25   -1    0    0    0    0  0.00000000000E+00  0.00000000000E+00  0.99999998245E-14  0.12509000000E+03  0.12509000000E+03 0.  0.
        -11    1    3    3    0    0 -0.51732788763E+01 -0.29986131097E+02  0.20639662296E+02  0.36768553581E+02  0.51100000000E-03 0. -1.
         23    2    1    0    0    0  0.31413127468E+02  0.68836972293E+01 -0.70197434273E+00  0.92923827818E+02  0.87178983383E+02 0.  0.
         11    1    3    3    0    0  0.36586406344E+02  0.36869828326E+02 -0.21341636639E+02  0.56155274237E+02  0.51100000000E-03 0.  1.
         22    1    1    0    0    0 -0.31413127468E+02 -0.68836972293E+01  0.70197434273E+00  0.32166172182E+02  0.00000000000E+00 0.  1.
</event>
<event>
 5    1  0.1043455E-009  0.9118800E+02  0.7561462E-02  0.1125453E+00
         25   -1    0    0    0    0  0.00000000000E+00  0.00000000000E+00  0.99999998245E-14  0.12509000000E+03  0.12509000000E+03 0.  0.
        -11    1    3    3    0    0  0.54717871649E+02 -0.39957365767E+01 -0.28909670216E+02  0.62014356570E+02  0.51100000000E-03 0. -1.
         23    2    1    0    0    0  0.28582442290E+02  0.12682292289E+00 -0.90107845759E+01  0.95120576750E+02  0.90276008946E+02 0.  0.
         11    1    3    3    0    0 -0.26135429359E+02  0.41225594996E+01  0.19898885640E+02  0.33106220180E+02  0.51100000000E-03 0.  1.
         22    1    1    0    0    0 -0.28582442290E+02 -0.12682292289E+00  0.90107845759E+01  0.29969423250E+02  0.00000000000E+00 0. -1.
</event>
<event>
 5    1  0.1043455E-009  0.9118800E+02  0.7561462E-02  0.1125453E+00
         25   -1    0    0    0    0  0.00000000000E+00  0.00000000000E+00  0.99999998245E-14  0.12509000000E+03  0.12509000000E+03 0.  0.
        -11    1    3    3    0    0  0.43279005197E+01 -0.44669560135E+02  0.97867389585E+00  0.44889398842E+02  0.51100000000E-03 0. -1.
         23    2    1    0    0    0 -0.16483150334E+01 -0.84699108902E+00 -0.27522319200E+02  0.97505359518E+02  0.93522097626E+02 0.  0.
         11    1    3    3    0    0 -0.59762155532E+01  0.43822569046E+02 -0.28500993096E+02  0.52615960676E+02  0.51100000000E-03 0.  1.
         22    1    1    0    0    0  0.16483150334E+01  0.84699108902E+00  0.27522319200E+02  0.27584640482E+02  0.00000000000E+00 0.  1.
</event>
<event>
 5    1  0.1043455E-009  0.9118800E+02  0.7561462E-02  0.1125453E+00
         25   -1    0    0    0    0  0.00000000000E+00  0.00000000000E+00  0.99999998245E-14  0.12509000000E+03  0.12509000000E+03 0.  0.
        -11    1    3    3    0    0  0.28232306943E+00  0.27451684091E+02 -0.49232647638E+02  0.56369568558E+02  0.51100000000E-03 0.  1.
         23    2    1    0    0    0 -0.16265177337E+02  0.12443546693E+01 -0.22493620501E+02  0.97303899597E+02  0.93252246628E+02 0.  0.
         11    1    3    3    0    0 -0.16547500407E+02 -0.26207329422E+02  0.26739027136E+02  0.40934331039E+02  0.51100000000E-03 0. -1.
         22    1    1    0    0    0  0.16265177337E+02 -0.12443546693E+01  0.22493620501E+02  0.27786100403E+02  0.00000000000E+00 0.  1.
</event>
<event>
 5    1  0.1043455E-009  0.9118800E+02  0.7561462E-02  0.1125453E+00
         25   -1    0    0    0    0  0.00000000000E+00  0.00000000000E+00  0.99999998245E-14  0.12509000000E+03  0.12509000000E+03 0.  0.
        -11    1    3    3    0    0 -0.36576953814E+02 -0.46835523981E+02 -0.17593701399E+02  0.61975625742E+02  0.51100000000E-03 0. -1.
         23    2    1    0    0    0 -0.19534654408E+02 -0.22234182346E+02 -0.27966984107E+01  0.95361510139E+02  0.90609240735E+02 0.  0.
         11    1    3    3    0    0  0.17042299407E+02  0.24601341634E+02  0.14797002988E+02  0.33385884397E+02  0.51100000000E-03 0.  1.
         22    1    1    0    0    0  0.19534654408E+02  0.22234182346E+02  0.27966984107E+01  0.29728489861E+02  0.00000000000E+00 0. -1.
</event>
<event>
 5    1  0.1043455E-009  0.9118800E+02  0.7561462E-02  0.1125453E+00
         25   -1    0    0    0    0  0.00000000000E+00  0.00000000000E+00  0.99999998245E-14  0.12509000000E+03  0.12509000000E+03 0.  0.
        -11    1    3    3    0    0  0.23818052758E+02  0.21548998629E+02 -0.25776302431E+02  0.41183452337E+02  0.51100000000E-03 0.  1.
         23    2    1    0    0    0 -0.25933551519E+02  0.16452802948E+01 -0.11732441036E+02  0.96578489793E+02  0.92274040100E+02 0.  0.
         11    1    3    3    0    0 -0.49751604277E+02 -0.19903718335E+02  0.14043861395E+02  0.55395037456E+02  0.51100000000E-03 0. -1.
         22    1    1    0    0    0  0.25933551519E+02 -0.16452802948E+01  0.11732441036E+02  0.28511510207E+02  0.00000000000E+00 0. -1.
</event>
<event>
 5    1  0.1043455E-009  0.9118800E+02  0.7561462E-02  0.1125453E+00
         25   -1    0    0    0    0  0.00000000000E+00  0.00000000000E+00  0.99999998245E-14  0.12509000000E+03  0.12509000000E+03 0.  0.
        -11    1    3    3    0    0  0.12444556131E+02  0.46695795025E+02  0.37398018512E+02  0.61106268412E+02  0.51100000000E-03 0. -1.
         23    2    1    0    0    0  0.10558125193E+02  0.24904799789E+02  0.98035647467E+01  0.96317913843E+02  0.91920115237E+02 0.  0.
         11    1    3    3    0    0 -0.18864309389E+01 -0.21790995237E+02 -0.27594453765E+02  0.35211645431E+02  0.51100000000E-03 0.  1.
         22    1    1    0    0    0 -0.10558125193E+02 -0.24904799789E+02 -0.98035647467E+01  0.28772086157E+02  0.00000000000E+00 0. -1.
</event>
<event>
 5    1  0.1043455E-009  0.9118800E+02  0.7561462E-02  0.1125453E+00
         25   -1    0    0    0    0  0.00000000000E+00  0.00000000000E+00  0.99999998245E-14  0.12509000000E+03  0.12509000000E+03 0.  0.
        -11    1    3    3    0    0  0.44823642628E+02 -0.16523337614E+01  0.13293987362E+02  0.46782681043E+02  0.51100000000E-03 0. -1.
         23    2    1    0    0    0  0.15995954272E+02 -0.60501741680E+01 -0.24928565179E+02  0.94859080027E+02  0.89912938675E+02 0.  0.
         11    1    3    3    0    0 -0.28827688356E+02 -0.43978404066E+01 -0.38222552541E+02  0.48076398984E+02  0.51100000000E-03 0.  1.
         22    1    1    0    0    0 -0.15995954272E+02  0.60501741680E+01  0.24928565179E+02  0.30230919973E+02  0.00000000000E+00 0. -1.
</event>
<event>
 5    1  0.1043455E-009  0.9118800E+02  0.7561462E-02  0.1125453E+00
         25   -1    0    0    0    0  0.00000000000E+00  0.00000000000E+00  0.99999998245E-14  0.12509000000E+03  0.12509000000E+03 0.  0.
        -11    1    3    3    0    0  0.32629111948E+02  0.54380807376E+01 -0.23327880046E+02  0.40477421562E+02  0.51100000000E-03 0. -1.
         23    2    1    0    0    0 -0.20209394464E+02  0.14261833683E+02 -0.18376174954E+02  0.94275988081E+02  0.89098028026E+02 0.  0.
         11    1    3    3    0    0 -0.52838506412E+02  0.88237529451E+01  0.49517050923E+01  0.53798566519E+02  0.51100000000E-03 0.  1.
         22    1    1    0    0    0  0.20209394464E+02 -0.14261833683E+02  0.18376174954E+02  0.30814011919E+02  0.00000000000E+00 0.  1.
</event>
<event>
 5    1  0.1043455E-009  0.9118800E+02  0.7561462E-02  0.1125453E+00
         25   -1    0    0    0    0  0.00000000000E+00  0.00000000000E+00  0.99999998245E-14  0.12509000000E+03  0.12509000000E+03 0.  0.
        -11    1    3    3    0    0  0.18772534429E+02  0.90679401275E+01 -0.39238974313E+02  0.44433463656E+02  0.51100000000E-03 0. -1.
         23    2    1    0    0    0  0.14719930125E+02 -0.24243074307E+02  0.85256577876E+00  0.96715189636E+02  0.92459169600E+02 0.  0.
         11    1    3    3    0    0 -0.40526043033E+01 -0.33311014435E+02  0.40091540092E+02  0.52281725981E+02  0.51100000000E-03 0.  1.
         22    1    1    0    0    0 -0.14719930125E+02  0.24243074307E+02 -0.85256577876E+00  0.28374810364E+02  0.00000000000E+00 0.  1.
</event>
<event>
 5    1  0.1043455E-009  0.9118800E+02  0.7561462E-02  0.1125453E+00
         25   -1    0    0    0    0  0.00000000000E+00  0.00000000000E+00  0.99999998245E-14  0.12509000000E+03  0.12509000000E+03 0.  0.
        -11    1    3    3    0    0 -0.11120262564E+02 -0.35721888706E+02  0.16001888740E+02  0.40691203174E+02  0.51100000000E-03 0. -1.
         23    2    1    0    0    0 -0.21064086031E+02  0.46278229819E+01 -0.20002354637E+02  0.95675604597E+02  0.91041829167E+02 0.  0.
         11    1    3    3    0    0 -0.99438234673E+01  0.40349711688E+02 -0.36004243377E+02  0.54984401423E+02  0.51100000000E-03 0.  1.
         22    1    1    0    0    0  0.21064086031E+02 -0.46278229819E+01  0.20002354637E+02  0.29414395403E+02  0.00000000000E+00 0.  1.
</event>
<event>
 5    1  0.1043455E-009  0.9118800E+02  0.7561462E-02  0.1125453E+00
         25   -1    0    0    0    0  0.00000000000E+00  0.00000000000E+00  0.99999998245E-14  0.12509000000E+03  0.12509000000E+03 0.  0.
        -11    1    3    3    0    0  0.56135924810E+02 -0.12482233573E+02  0.18844721926E+02  0.60515880180E+02  0.51100000000E-03 0. -1.
         23    2    1    0    0    0  0.21391613529E+02 -0.32574753611E+01  0.18741137434E+02  0.96464093771E+02  0.92118830212E+02 0.  0.
         11    1    3    3    0    0 -0.34744311280E+02  0.92247582114E+01 -0.10358449196E+00  0.35948213591E+02  0.51100000000E-03 0.  1.
         22    1    1    0    0    0 -0.21391613529E+02  0.32574753611E+01 -0.18741137434E+02  0.28625906229E+02  0.00000000000E+00 0. -1.
</event>
<event>
 5    1  0.1043455E-009  0.9118800E+02  0.7561462E-02  0.1125453E+00
         25   -1    0    0    0    0  0.00000000000E+00  0.00000000000E+00  0.99999998245E-14  0.12509000000E+03  0.12509000000E+03 0.  0.
        -11    1    3    3    0    0 -0.21188111860E+02  0.36965405011E+02  0.23982153979E+02  0.48892954109E+02  0.51100000000E-03 0. -1.
         23    2    1    0    0    0 -0.24016431202E+01 -0.68870300478E+01  0.27413004922E+02  0.96723260472E+02  0.92470088163E+02 0.  0.
         11    1    3    3    0    0  0.18786468740E+02 -0.43852435059E+02  0.34308509434E+01  0.47830306363E+02  0.51100000000E-03 0.  1.
         22    1    1    0    0    0  0.24016431202E+01  0.68870300478E+01 -0.27413004922E+02  0.28366739528E+02  0.00000000000E+00 0. -1.
</event>
<event>
 5    1  0.1043455E-009  0.9118800E+02  0.7561462E-02  0.1125453E+00
         25   -1    0    0    0    0  0.00000000000E+00  0.00000000000E+00  0.99999998245E-14  0.12509000000E+03  0.12509000000E+03 0.  0.
        -11    1    3    3    0    0 -0.88271321200E+01  0.10146286495E+02 -0.39018820169E+02  0.41271463734E+02  0.51100000000E-03 0. -1.
         23    2    1    0    0    0  0.43391397668E+01  0.11827691140E+02  0.19828775331E+02  0.10159738961E+03  0.98843951933E+02 0.  0.
         11    1    3    3    0    0  0.13166271887E+02  0.16814046445E+01  0.58847595500E+02  0.60325925881E+02  0.51100000000E-03 0.  1.
         22    1    1    0    0    0 -0.43391397668E+01 -0.11827691140E+02 -0.19828775331E+02  0.23492610386E+02  0.00000000000E+00 0.  1.
</event>
<event>
 5    1  0.1043455E-009  0.9118800E+02  0.7561462E-02  0.1125453E+00
         25   -1    0    0    0    0  0.00000000000E+00  0.00000000000E+00  0.99999998245E-14  0.12509000000E+03  0.12509000000E+03 0.  0.
        -11    1    3    3    0    0  0.47312163501E+01 -0.31300021865E+02  0.62994784181E+01  0.32276294792E+02  0.51100000000E-03 0. -1.
         23    2    1    0    0    0 -0.40297254803E+01  0.29918873794E+02 -0.27435246906E+01  0.94776560335E+02  0.89798061030E+02 0.  0.
         11    1    3    3    0    0 -0.87609418304E+01  0.61218895659E+02 -0.90430031087E+01  0.62500265543E+02  0.51100000000E-03 0.  1.
         22    1    1    0    0    0  0.40297254803E+01 -0.29918873794E+02  0.27435246906E+01  0.30313439665E+02  0.00000000000E+00 0.  1.
</event>
<event>
 5    1  0.1043455E-009  0.9118800E+02  0.7561462E-02  0.1125453E+00
         25   -1    0    0    0    0  0.00000000000E+00  0.00000000000E+00  0.99999998245E-14  0.12509000000E+03  0.12509000000E+03 0.  0.
        -11    1    3    3    0    0 -0.16073527842E+02 -0.49168225431E+02 -0.16555419210E+02  0.54313484466E+02  0.51100000000E-03 0. -1.
         23    2    1    0    0    0  0.39809542981E+01 -0.13902476421E+02 -0.25424264538E+02  0.95840725222E+02  0.91268420256E+02 0.  0.
         11    1    3    3    0    0  0.20054482140E+02  0.35265749010E+02 -0.88688453280E+01  0.41527240756E+02  0.51100000000E-03 0.  1.
         22    1    1    0    0    0 -0.39809542981E+01  0.13902476421E+02  0.25424264538E+02  0.29249274778E+02  0.00000000000E+00 0. -1.
</event>
<event>
 5    1  0.1043455E-009  0.9118800E+02  0.7561462E-02  0.1125453E+00
         25   -1    0    0    0    0  0.00000000000E+00  0.00000000000E+00  0.99999998245E-14  0.12509000000E+03  0.12509000000E+03 0.  0.
        -11    1    3    3    0    0 -0.21265623242E+02 -0.38326842656E+02 -0.34090185276E+02  0.55527599734E+02  0.51100000000E-03 0.  1.
         23    2    1    0    0    0  0.23877727851E+01 -0.71991116142E+01 -0.29192585919E+02  0.94928174135E+02  0.90009013466E+02 0.  0.
         11    1    3    3    0    0  0.23653396027E+02  0.31127731042E+02  0.48975993571E+01  0.39400574401E+02  0.51100000000E-03 0. -1.
         22    1    1    0    0    0 -0.23877727851E+01  0.71991116142E+01  0.29192585919E+02  0.30161825865E+02  0.00000000000E+00 0.  1.
</event>
<event>
 5    1  0.1043455E-009  0.9118800E+02  0.7561462E-02  0.1125453E+00
         25   -1    0    0    0    0  0.00000000000E+00  0.00000000000E+00  0.99999998245E-14  0.12509000000E+03  0.12509000000E+03 0.  0.
        -11    1    3    3    0    0 -0.16498361133E+02  0.67780329440E+01 -0.42775056385E+02  0.46344828187E+02  0.51100000000E-03 0. -1.
         23    2    1    0    0    0 -0.27509614304E+01 -0.27959536994E+02 -0.12922577964E+02  0.94165955651E+02  0.88943412823E+02 0.  0.
         11    1    3    3    0    0  0.13747399703E+02 -0.34737569938E+02  0.29852478421E+02  0.47821127463E+02  0.51100000000E-03 0.  1.
         22    1    1    0    0    0  0.27509614304E+01  0.27959536994E+02  0.12922577964E+02  0.30924044349E+02  0.00000000000E+00 0. -1.
</event>
<event>
 5    1  0.1043455E-009  0.9118800E+02  0.7561462E-02  0.1125453E+00
         25   -1    0    0    0    0  0.00000000000E+00  0.00000000000E+00  0.99999998245E-14  0.12509000000E+03  0.12509000000E+03 0.  0.
        -11    1    3    3    0    0  0.33867986866E+02  0.28387071009E+02 -0.30008031884E+02  0.53416741876E+02  0.51100000000E-03 0.  1.
         23    2    1    0    0    0  0.26882692820E+02 -0.65717999299E+01 -0.49895485745E+01  0.96969485735E+02  0.92802574539E+02 0.  0.
         11    1    3    3    0    0 -0.69852940463E+01 -0.34958870939E+02  0.25018483309E+02  0.43552743859E+02  0.51100000000E-03 0. -1.
         22    1    1    0    0    0 -0.26882692820E+02  0.65717999299E+01  0.49895485745E+01  0.28120514265E+02  0.00000000000E+00 0.  1.
</event>
<event>
 5    1  0.1043455E-009  0.9118800E+02  0.7561462E-02  0.1125453E+00
         25   -1    0    0    0    0  0.00000000000E+00  0.00000000000E+00  0.99999998245E-14  0.12509000000E+03  0.12509000000E+03 0.  0.
        -11    1    3    3    0    0  0.86601347272E+01 -0.28835612705E+02  0.20318543062E+02  0.36322633247E+02  0.51100000000E-03 0. -1.
         23    2    1    0    0    0 -0.12230377816E+02  0.20682027355E+02 -0.11149598805E+02  0.98601475115E+02  0.94976886369E+02 0.  0.
         11    1    3    3    0    0 -0.20890512543E+02  0.49517640061E+02 -0.31468141868E+02  0.62278841868E+02  0.51100000000E-03 0.  1.
         22    1    1    0    0    0  0.12230377816E+02 -0.20682027355E+02  0.11149598805E+02  0.26488524885E+02  0.00000000000E+00 0.  1.
</event>
<event>
 5    1  0.1043455E-009  0.9118800E+02  0.7561462E-02  0.1125453E+00
         25   -1    0    0    0    0  0.00000000000E+00  0.00000000000E+00  0.99999998245E-14  0.12509000000E+03  0.12509000000E+03 0.  0.
        -11    1    3    3    0    0 -0.25199917236E+02 -0.22399171495E+02 -0.69159902973E+01  0.34417867953E+02  0.51100000000E-03 0. -1.
         23    2    1    0    0    0  0.21025579247E+02  0.17298660931E+02 -0.11525183047E+02  0.95523997616E+02  0.90833284779E+02 0.  0.
         11    1    3    3    0    0  0.46225496483E+02  0.39697832426E+02 -0.46091927496E+01  0.61106129664E+02  0.51100000000E-03 0.  1.
         22    1    1    0    0    0 -0.21025579247E+02 -0.17298660931E+02  0.11525183047E+02  0.29566002384E+02  0.00000000000E+00 0.  1.
</event>
<event>
 5    1  0.1043455E-009  0.9118800E+02  0.7561462E-02  0.1125453E+00
         25   -1    0    0    0    0  0.00000000000E+00  0.00000000000E+00  0.99999998245E-14  0.12509000000E+03  0.12509000000E+03 0.  0.
        -11    1    3    3    0    0  0.30708304868E+02 -0.31432948409E+02 -0.16781225192E+02  0.47038704837E+02  0.51100000000E-03 0.  1.
         23    2    1    0    0    0 -0.82064405540E+01 -0.26153815296E+02  0.11428652636E+02  0.95391821231E+02  0.90651076858E+02 0.  0.
         11    1    3    3    0    0 -0.38914745422E+02  0.52791331122E+01  0.28209877829E+02  0.48353116394E+02  0.51100000000E-03 0. -1.
         22    1    1    0    0    0  0.82064405540E+01  0.26153815296E+02 -0.11428652636E+02  0.29698178769E+02  0.00000000000E+00 0. -1.
</event>
<event>
 5    1  0.1043455E-009  0.9118800E+02  0.7561462E-02  0.1125453E+00
         25   -1    0    0    0    0  0.00000000000E+00  0.00000000000E+00  0.99999998245E-14  0.12509000000E+03  0.12509000000E+03 0.  0.
        -11    1    3    3    0    0 -0.96584369881E+01 -0.18436144922E+02 -0.27486377852E+02  0.34477207142E+02  0.51100000000E-03 0. -1.
         23    2    1    0    0    0  0.23720901486E+02  0.80223054907E+01  0.16020503976E+02  0.95362990390E+02  0.90611284264E+02 0.  0.
         11    1    3    3    0    0  0.33379338474E+02  0.26458450412E+02  0.43506881827E+02  0.60885783249E+02  0.51100000000E-03 0.  1.
         22    1    1    0    0    0 -0.23720901486E+02 -0.80223054907E+01 -0.16020503976E+02  0.29727009610E+02  0.00000000000E+00 0.  1.
</event>
<event>
 5    1  0.1043455E-009  0.9118800E+02  0.7561462E-02  0.1125453E+00
         25   -1    0    0    0    0  0.00000000000E+00  0.00000000000E+00  0.99999998245E-14  0.12509000000E+03  0.12509000000E+03 0.  0.
        -11    1    3    3    0    0 -0.15183545091E+02 -0.13681199159E+02  0.23846515078E+02  0.31406552399E+02  0.51100000000E-03 0.  1.
         23    2    1    0    0    0  0.11117473379E+02  0.15348035402E+02 -0.24808827900E+02  0.93870801632E+02  0.88527335056E+02 0.  0.
         11    1    3    3    0    0  0.26301018469E+02  0.29029234561E+02 -0.48655342977E+02  0.62464249233E+02  0.51100000000E-03 0. -1.
         22    1    1    0    0    0 -0.11117473379E+02 -0.15348035402E+02  0.24808827900E+02  0.31219198368E+02  0.00000000000E+00 0. -1.
</event>
<event>
 5    1  0.1043455E-009  0.9118800E+02  0.7561462E-02  0.1125453E+00
         25   -1    0    0    0    0  0.00000000000E+00  0.00000000000E+00  0.99999998245E-14  0.12509000000E+03  0.12509000000E+03 0.  0.
        -11    1    3    3    0    0 -0.34418631857E+02 -0.61597666369E+01 -0.16091856645E+02  0.38490684516E+02  0.51100000000E-03 0.  1.
         23    2    1    0    0    0 -0.13245345087E+01  0.17320691375E+02  0.23953221221E+02  0.95500854216E+02  0.90801407521E+02 0.  0.
         11    1    3    3    0    0  0.33094097349E+02  0.23480458012E+02  0.40045077865E+02  0.57010169700E+02  0.51100000000E-03 0. -1.
         22    1    1    0    0    0  0.13245345087E+01 -0.17320691375E+02 -0.23953221221E+02  0.29589145784E+02  0.00000000000E+00 0. -1.
</event>
<event>
 5    1  0.1043455E-009  0.9118800E+02  0.7561462E-02  0.1125453E+00
         25   -1    0    0    0    0  0.00000000000E+00  0.00000000000E+00  0.99999998245E-14  0.12509000000E+03  0.12509000000E+03 0.  0.
        -11    1    3    3    0    0  0.39779726730E+02  0.95447599326E+01 -0.10856062708E+02  0.42324735069E+02  0.51100000000E-03 0.  1.
         23    2    1    0    0    0 -0.13976934642E+02  0.21495883605E+02  0.34417392752E+01  0.99219683358E+02  0.95787641595E+02 0.  0.
         11    1    3    3    0    0 -0.53756661372E+02  0.11951123672E+02  0.14297801983E+02  0.56894948288E+02  0.51100000000E-03 0. -1.
         22    1    1    0    0    0  0.13976934642E+02 -0.21495883605E+02 -0.34417392752E+01  0.25870316642E+02  0.00000000000E+00 0. -1.
</event>
<event>
 5    1  0.1043455E-009  0.9118800E+02  0.7561462E-02  0.1125453E+00
         25   -1    0    0    0    0  0.00000000000E+00  0.00000000000E+00  0.99999998245E-14  0.12509000000E+03  0.12509000000E+03 0.  0.
        -11    1    3    3    0    0 -0.46218769016E+02 -0.39182224416E+02 -0.41710858903E+01  0.60735650793E+02  0.51100000000E-03 0.  1.
         23    2    1    0    0    0 -0.26367125779E+02 -0.12472987871E+02  0.55352158903E+01  0.95400955502E+02  0.90663680421E+02 0.  0.
         11    1    3    3    0    0  0.19851643237E+02  0.26709236545E+02  0.97063017806E+01  0.34665304708E+02  0.51100000000E-03 0. -1.
         22    1    1    0    0    0  0.26367125779E+02  0.12472987871E+02 -0.55352158903E+01  0.29689044498E+02  0.00000000000E+00 0.  1.
</event>
<event>
 5    1  0.1043455E-009  0.9118800E+02  0.7561462E-02  0.1125453E+00
         25   -1    0    0    0    0  0.00000000000E+00  0.00000000000E+00  0.99999998245E-14  0.12509000000E+03  0.12509000000E+03 0.  0.
        -11    1    3    3    0    0  0.32690448000E+02 -0.15968006487E+02 -0.15683977393E+01  0.36415690208E+02  0.51100000000E-03 0.  1.
         23    2    1    0    0    0 -0.17207347878E+02  0.85058836592E+01 -0.22239914678E+02  0.95712173622E+02  0.91092060558E+02 0.  0.
         11    1    3    3    0    0 -0.49897795878E+02  0.24473890146E+02 -0.20671516939E+02  0.59296483413E+02  0.51100000000E-03 0. -1.
         22    1    1    0    0    0  0.17207347878E+02 -0.85058836592E+01  0.22239914678E+02  0.29377826378E+02  0.00000000000E+00 0. -1.
</event>
<event>
 5    1  0.1043455E-009  0.9118800E+02  0.7561462E-02  0.1125453E+00
         25   -1    0    0    0    0  0.00000000000E+00  0.00000000000E+00  0.99999998245E-14  0.12509000000E+03  0.12509000000E+03 0.  0.
        -11    1    3    3    0    0 -0.76006638672E+01 -0.36096172252E+02 -0.30224263467E+02  0.47688676275E+02  0.51100000000E-03 0.  1.
         23    2    1    0    0    0  0.22425882729E+02  0.13218442351E+00 -0.18076462497E+02  0.96285552682E+02  0.91876065817E+02 0.  0.
         11    1    3    3    0    0  0.30026546596E+02  0.36228356675E+02  0.12147800969E+02  0.48596876407E+02  0.51100000000E-03 0. -1.
         22    1    1    0    0    0 -0.22425882729E+02 -0.13218442351E+00  0.18076462497E+02  0.28804447318E+02  0.00000000000E+00 0. -1.
</event>
<event>
 5    1  0.1043455E-009  0.9118800E+02  0.7561462E-02  0.1125453E+00
         25   -1    0    0    0    0  0.00000000000E+00  0.00000000000E+00  0.99999998245E-14  0.12509000000E+03  0.12509000000E+03 0.  0.
        -11    1    3    3    0    0 -0.34768633099E+02 -0.27256875701E+02 -0.58089237705E+01  0.44559384154E+02  0.51100000000E-03 0.  1.
         23    2    1    0    0    0 -0.20852131857E+01 -0.10426158990E+02  0.28392997209E+02  0.94771438097E+02  0.89790925394E+02 0.  0.
         11    1    3    3    0    0  0.32683419913E+02  0.16830716711E+02  0.34201920980E+02  0.50212053943E+02  0.51100000000E-03 0. -1.
         22    1    1    0    0    0  0.20852131857E+01  0.10426158990E+02 -0.28392997209E+02  0.30318561903E+02  0.00000000000E+00 0. -1.
</event>
<event>
 5    1  0.1043455E-009  0.9118800E+02  0.7561462E-02  0.1125453E+00
         25   -1    0    0    0    0  0.00000000000E+00  0.00000000000E+00  0.99999998245E-14  0.12509000000E+03  0.12509000000E+03 0.  0.
        -11    1    3    3    0    0  0.37703287433E+02  0.40971519063E+02 -0.80330753886E+01  0.56255964644E+02  0.51100000000E-03 0. -1.
         23    2    1    0    0    0  0.16686899347E+01  0.27696324009E+02 -0.11994531165E+02  0.94861872906E+02  0.89916824141E+02 0.  0.
         11    1    3    3    0    0 -0.36034597498E+02 -0.13275195054E+02 -0.39614557764E+01  0.38605908262E+02  0.51100000000E-03 0.  1.
         22    1    1    0    0    0 -0.16686899347E+01 -0.27696324009E+02  0.11994531165E+02  0.30228127094E+02  0.00000000000E+00 0. -1.
</event>
<event>
 5    1  0.1043455E-009  0.9118800E+02  0.7561462E-02  0.1125453E+00
         25   -1    0    0    0    0  0.00000000000E+00  0.00000000000E+00  0.99999998245E-14  0.12509000000E+03  0.12509000000E+03 0.  0.
        -11    1    3    3    0    0  0.65870069514E+01 -0.30943743180E+01 -0.47419536226E+02  0.47974745744E+02  0.51100000000E-03 0.  1.
         23    2    1    0    0    0 -0.19561080719E+02 -0.18089420350E+02 -0.86615435231E+01  0.97074194752E+02  0.92943606252E+02 0.  0.
         11    1    3    3    0    0 -0.26148087670E+02 -0.14995046032E+02  0.38757992703E+02  0.49099449009E+02  0.51100000000E-03 0. -1.
         22    1    1    0    0    0  0.19561080719E+02  0.18089420350E+02  0.86615435231E+01  0.28015805248E+02  0.00000000000E+00 0.  1.
</event>
<event>
 5    1  0.1043455E-009  0.9118800E+02  0.7561462E-02  0.1125453E+00
         25   -1    0    0    0    0  0.00000000000E+00  0.00000000000E+00  0.99999998245E-14  0.12509000000E+03  0.12509000000E+03 0.  0.
        -11    1    3    3    0    0  0.31779415758E+02  0.68325151713E+01 -0.16956173279E+02  0.36662328650E+02  0.51100000000E-03 0.  1.
         23    2    1    0    0    0 -0.25651855026E+02  0.13086882594E+02 -0.26983323075E+01  0.96166563836E+02  0.91713918467E+02 0.  0.
         11    1    3    3    0    0 -0.57431270784E+02  0.62543674230E+01  0.14257840971E+02  0.59504235186E+02  0.51100000000E-03 0. -1.
         22    1    1    0    0    0  0.25651855026E+02 -0.13086882594E+02  0.26983323075E+01  0.28923436164E+02  0.00000000000E+00 0. -1.
</event>
<event>
 5    1  0.1043455E-009  0.9118800E+02  0.7561462E-02  0.1125453E+00
         25   -1    0    0    0    0  0.00000000000E+00  0.00000000000E+00  0.99999998245E-14  0.12509000000E+03  0.12509000000E+03 0.  0.
        -11    1    3    3    0    0  0.78848700477E+01 -0.37576712806E+02 -0.21183456795E+01  0.38453451206E+02  0.51100000000E-03 0.  1.
         23    2    1    0    0    0 -0.31908697645E+02 -0.14640074492E+02  0.14232778232E+02  0.87207698819E+02  0.78550073142E+02 0.  0.
         11    1    3    3    0    0 -0.39793567693E+02  0.22936638314E+02  0.16351123911E+02  0.48754247613E+02  0.51100000000E-03 0. -1.
         22    1    1    0    0    0  0.31908697645E+02  0.14640074492E+02 -0.14232778232E+02  0.37882301181E+02  0.00000000000E+00 0. -1.
</event>
<event>
 5    1  0.1043455E-009  0.9118800E+02  0.7561462E-02  0.1125453E+00
         25   -1    0    0    0    0  0.00000000000E+00  0.00000000000E+00  0.99999998245E-14  0.12509000000E+03  0.12509000000E+03 0.  0.
        -11    1    3    3    0    0  0.88535304459E+01  0.42306227131E+02 -0.29614814456E+02  0.52395029258E+02  0.51100000000E-03 0.  1.
         23    2    1    0    0    0  0.92993676460E+01  0.25849298555E+02  0.10440641070E+02  0.95701712191E+02  0.91077693514E+02 0.  0.
         11    1    3    3    0    0  0.44583720014E+00 -0.16456928576E+02  0.40055455526E+02  0.43306682932E+02  0.51100000000E-03 0. -1.
         22    1    1    0    0    0 -0.92993676460E+01 -0.25849298555E+02 -0.10440641070E+02  0.29388287809E+02  0.00000000000E+00 0. -1.
</event>
<event>
 5    1  0.1043455E-009  0.9118800E+02  0.7561462E-02  0.1125453E+00
         25   -1    0    0    0    0  0.00000000000E+00  0.00000000000E+00  0.99999998245E-14  0.12509000000E+03  0.12509000000E+03 0.  0.
        -11    1    3    3    0    0 -0.19371443755E+02 -0.65212432600E+01  0.31993906737E+02  0.37965635980E+02  0.51100000000E-03 0. -1.
         23    2    1    0    0    0  0.68809019734E+01  0.29392487652E+02 -0.32608264902E+01  0.94727224571E+02  0.89729309276E+02 0.  0.
         11    1    3    3    0    0  0.26252345728E+02  0.35913730912E+02 -0.35254733227E+02  0.56761588591E+02  0.51100000000E-03 0.  1.
         22    1    1    0    0    0 -0.68809019734E+01 -0.29392487652E+02  0.32608264902E+01  0.30362775429E+02  0.00000000000E+00 0.  1.
</event>
<event>
 5    1  0.1043455E-009  0.9118800E+02  0.7561462E-02  0.1125453E+00
         25   -1    0    0    0    0  0.00000000000E+00  0.00000000000E+00  0.99999998245E-14  0.12509000000E+03  0.12509000000E+03 0.  0.
        -11    1    3    3    0    0  0.17634414299E+02  0.33356908573E+02  0.34082407336E+02  0.50845515115E+02  0.51100000000E-03 0. -1.
         23    2    1    0    0    0  0.28991565119E+02  0.21397909832E+01  0.38431170815E+01  0.95766645785E+02  0.91166832470E+02 0.  0.
         11    1    3    3    0    0  0.11357150819E+02 -0.31217117590E+02 -0.30239290254E+02  0.44921130670E+02  0.51100000000E-03 0.  1.
         22    1    1    0    0    0 -0.28991565119E+02 -0.21397909832E+01 -0.38431170815E+01  0.29323354215E+02  0.00000000000E+00 0. -1.
</event>
<event>
 5    1  0.1043455E-009  0.9118800E+02  0.7561462E-02  0.1125453E+00
         25   -1    0    0    0    0  0.00000000000E+00  0.00000000000E+00  0.99999998245E-14  0.12509000000E+03  0.12509000000E+03 0.  0.
        -11    1    3    3    0    0  0.33829941135E+02 -0.47406411040E+02 -0.18491077663E+01  0.58268790314E+02  0.51100000000E-03 0. -1.
         23    2    1    0    0    0  0.18150087638E+02 -0.18138846444E+02 -0.16523397803E+02  0.94570070338E+02  0.89509955296E+02 0.  0.
         11    1    3    3    0    0 -0.15679853496E+02  0.29267564595E+02 -0.14674290037E+02  0.36301280024E+02  0.51100000000E-03 0.  1.
         22    1    1    0    0    0 -0.18150087638E+02  0.18138846444E+02  0.16523397803E+02  0.30519929662E+02  0.00000000000E+00 0. -1.
</event>
<event>
 5    1  0.1043455E-009  0.9118800E+02  0.7561462E-02  0.1125453E+00
         25   -1    0    0    0    0  0.00000000000E+00  0.00000000000E+00  0.99999998245E-14  0.12509000000E+03  0.12509000000E+03 0.  0.
        -11    1    3    3    0    0  0.11756843527E+02  0.27381579779E+02  0.24873726962E+02  0.38815931963E+02  0.51100000000E-03 0. -1.
         23    2    1    0    0    0 -0.26372574080E+02 -0.10925162279E+02  0.94050966592E+01  0.95034589878E+02  0.90156783415E+02 0.  0.
         11    1    3    3    0    0 -0.38129417607E+02 -0.38306742057E+02 -0.15468630303E+02  0.56218657915E+02  0.51100000000E-03 0.  1.
         22    1    1    0    0    0  0.26372574080E+02  0.10925162279E+02 -0.94050966592E+01  0.30055410122E+02  0.00000000000E+00 0.  1.
</event>
<event>
 5    1  0.1043455E-009  0.9118800E+02  0.7561462E-02  0.1125453E+00
         25   -1    0    0    0    0  0.00000000000E+00  0.00000000000E+00  0.99999998245E-14  0.12509000000E+03  0.12509000000E+03 0.  0.
        -11    1    3    3    0    0 -0.28708799010E+02  0.94081011203E+01 -0.28999846491E+02  0.41877184768E+02  0.51100000000E-03 0. -1.
         23    2    1    0    0    0  0.13081698939E+02 -0.21455868335E+02 -0.15536951074E+02  0.95545423817E+02  0.90862786830E+02 0.  0.
         11    1    3    3    0    0  0.41790497950E+02 -0.30863969455E+02  0.13462895417E+02  0.53668239050E+02  0.51100000000E-03 0.  1.
         22    1    1    0    0    0 -0.13081698939E+02  0.21455868335E+02  0.15536951074E+02  0.29544576183E+02  0.00000000000E+00 0.  1.
</event>
<event>
 5    1  0.1043455E-009  0.9118800E+02  0.7561462E-02  0.1125453E+00
         25   -1    0    0    0    0  0.00000000000E+00  0.00000000000E+00  0.99999998245E-14  0.12509000000E+03  0.12509000000E+03 0.  0.
        -11    1    3    3    0    0  0.15304223868E+02 -0.15094117345E+02  0.57211590846E+02  0.61116428021E+02  0.51100000000E-03 0.  1.
         23    2    1    0    0    0  0.91995374815E+01  0.18725203234E+01  0.29091973619E+02  0.94520722101E+02  0.89440964637E+02 0.  0.
         11    1    3    3    0    0 -0.61046863865E+01  0.16966637669E+02 -0.28119617228E+02  0.33404294080E+02  0.51100000000E-03 0. -1.
         22    1    1    0    0    0 -0.91995374815E+01 -0.18725203234E+01 -0.29091973619E+02  0.30569277899E+02  0.00000000000E+00 0.  1.
</event>
<event>
 5    1  0.1043455E-009  0.9118800E+02  0.7561462E-02  0.1125453E+00
         25   -1    0    0    0    0  0.00000000000E+00  0.00000000000E+00  0.99999998245E-14  0.12509000000E+03  0.12509000000E+03 0.  0.
        -11    1    3    3    0    0 -0.44149290316E+02 -0.27653725319E+02  0.19891164922E+02  0.55763310533E+02  0.51100000000E-03 0.  1.
         23    2    1    0    0    0 -0.22331358077E+02  0.69116034337E+01  0.15869237189E+02  0.96835929416E+02  0.92622377001E+02 0.  0.
         11    1    3    3    0    0  0.21817932239E+02  0.34565328753E+02 -0.40219277332E+01  0.41072618883E+02  0.51100000000E-03 0. -1.
         22    1    1    0    0    0  0.22331358077E+02 -0.69116034337E+01 -0.15869237189E+02  0.28254070584E+02  0.00000000000E+00 0.  1.
</event>
<event>
 5    1  0.1043455E-009  0.9118800E+02  0.7561462E-02  0.1125453E+00
         25   -1    0    0    0    0  0.00000000000E+00  0.00000000000E+00  0.99999998245E-14  0.12509000000E+03  0.12509000000E+03 0.  0.
        -11    1    3    3    0    0 -0.25627177454E+02 -0.21852210635E+02  0.22698426835E+02  0.40613912825E+02  0.51100000000E-03 0. -1.
         23    2    1    0    0    0  0.50809628306E+01 -0.18828667551E+02 -0.22483336665E+02  0.95327014051E+02  0.90561604862E+02 0.  0.
         11    1    3    3    0    0  0.30708140284E+02  0.30235430838E+01 -0.45181763500E+02  0.54713101226E+02  0.51100000000E-03 0.  1.
         22    1    1    0    0    0 -0.50809628306E+01  0.18828667551E+02  0.22483336665E+02  0.29762985949E+02  0.00000000000E+00 0.  1.
</event>
<event>
 5    1  0.1043455E-009  0.9118800E+02  0.7561462E-02  0.1125453E+00
         25   -1    0    0    0    0  0.00000000000E+00  0.00000000000E+00  0.99999998245E-14  0.12509000000E+03  0.12509000000E+03 0.  0.
        -11    1    3    3    0    0  0.25469106994E+02 -0.28937574323E+02 -0.45575409251E+02  0.59692349153E+02  0.51100000000E-03 0.  1.
         23    2    1    0    0    0  0.36371771719E+01 -0.21975025369E+02 -0.13734181711E+02  0.98922108510E+02  0.95398244256E+02 0.  0.
         11    1    3    3    0    0 -0.21831929822E+02  0.69625489543E+01  0.31841227540E+02  0.39229759357E+02  0.51100000000E-03 0. -1.
         22    1    1    0    0    0 -0.36371771719E+01  0.21975025369E+02  0.13734181711E+02  0.26167891490E+02  0.00000000000E+00 0.  1.
</event>
<event>
 5    1  0.1043455E-009  0.9118800E+02  0.7561462E-02  0.1125453E+00
         25   -1    0    0    0    0  0.00000000000E+00  0.00000000000E+00  0.99999998245E-14  0.12509000000E+03  0.12509000000E+03 0.  0.
        -11    1    3    3    0    0 -0.50746060942E+02  0.14935086434E+02  0.16039391286E+01  0.52922510606E+02  0.51100000000E-03 0.  1.
         23    2    1    0    0    0 -0.11301124198E+02  0.22058541429E+02  0.16087164567E+02  0.95541877861E+02  0.90857905013E+02 0.  0.
         11    1    3    3    0    0  0.39444936744E+02  0.71234549958E+01  0.14483225438E+02  0.42619367255E+02  0.51100000000E-03 0. -1.
         22    1    1    0    0    0  0.11301124198E+02 -0.22058541429E+02 -0.16087164567E+02  0.29548122139E+02  0.00000000000E+00 0. -1.
</event>
<event>
 5    1  0.1043455E-009  0.9118800E+02  0.7561462E-02  0.1125453E+00
         25   -1    0    0    0    0  0.00000000000E+00  0.00000000000E+00  0.99999998245E-14  0.12509000000E+03  0.12509000000E+03 0.  0.
        -11    1    3    3    0    0 -0.24750681829E+02  0.39428032657E+02 -0.53452967696E+01  0.46858704720E+02  0.51100000000E-03 0.  1.
         23    2    1    0    0    0  0.20729609874E+02  0.17956165873E+02 -0.53240187772E+01  0.97152824153E+02  0.93049371016E+02 0.  0.
         11    1    3    3    0    0  0.45480291703E+02 -0.21471866783E+02  0.21277992445E-01  0.50294119433E+02  0.51100000000E-03 0. -1.
         22    1    1    0    0    0 -0.20729609874E+02 -0.17956165873E+02  0.53240187772E+01  0.27937175847E+02  0.00000000000E+00 0. -1.
</event>
<event>
 5    1  0.1043455E-009  0.9118800E+02  0.7561462E-02  0.1125453E+00
         25   -1    0    0    0    0  0.00000000000E+00  0.00000000000E+00  0.99999998245E-14  0.12509000000E+03  0.12509000000E+03 0.  0.
        -11    1    3    3    0    0 -0.89856165768E+01  0.26953632037E+02  0.17542324486E+02  0.33391207434E+02  0.51100000000E-03 0. -1.
         23    2    1    0    0    0  0.23377679035E+02 -0.14560785760E+02 -0.13411691630E+02  0.94456589622E+02  0.89351225463E+02 0.  0.
         11    1    3    3    0    0  0.32363295611E+02 -0.41514417796E+02 -0.30954016117E+02  0.61065382188E+02  0.51100000000E-03 0.  1.
         22    1    1    0    0    0 -0.23377679035E+02  0.14560785760E+02  0.13411691630E+02  0.30633410378E+02  0.00000000000E+00 0.  1.
</event>
<event>
 5    1  0.1043455E-009  0.9118800E+02  0.7561462E-02  0.1125453E+00
         25   -1    0    0    0    0  0.00000000000E+00  0.00000000000E+00  0.99999998245E-14  0.12509000000E+03  0.12509000000E+03 0.  0.
        -11    1    3    3    0    0 -0.49448198890E+00  0.44014531020E+02  0.32981505744E+02  0.55002756065E+02  0.51100000000E-03 0.  1.
         23    2    1    0    0    0  0.11113573754E+02  0.57418024994E+01  0.26856131430E+02  0.95463464379E+02  0.90749883847E+02 0.  0.
         11    1    3    3    0    0  0.11608055743E+02 -0.38272728520E+02 -0.61253743140E+01  0.40460708314E+02  0.51100000000E-03 0. -1.
         22    1    1    0    0    0 -0.11113573754E+02 -0.57418024994E+01 -0.26856131430E+02  0.29626535621E+02  0.00000000000E+00 0.  1.
</event>
<event>
 5    1  0.1043455E-009  0.9118800E+02  0.7561462E-02  0.1125453E+00
         25   -1    0    0    0    0  0.00000000000E+00  0.00000000000E+00  0.99999998245E-14  0.12509000000E+03  0.12509000000E+03 0.  0.
        -11    1    3    3    0    0  0.38232537760E+02 -0.27445012940E+02 -0.32079300952E+02  0.56956450281E+02  0.51100000000E-03 0.  1.
         23    2    1    0    0    0  0.15421894150E+01 -0.21910060079E+02 -0.18173356881E+02  0.96582106687E+02  0.92278943161E+02 0.  0.
         11    1    3    3    0    0 -0.36690348345E+02  0.55349528610E+01  0.13905944070E+02  0.39625656406E+02  0.51100000000E-03 0. -1.
         22    1    1    0    0    0 -0.15421894150E+01  0.21910060079E+02  0.18173356881E+02  0.28507893313E+02  0.00000000000E+00 0.  1.
</event>
<event>
 5    1  0.1043455E-009  0.9118800E+02  0.7561462E-02  0.1125453E+00
         25   -1    0    0    0    0  0.00000000000E+00  0.00000000000E+00  0.99999998245E-14  0.12509000000E+03  0.12509000000E+03 0.  0.
        -11    1    3    3    0    0  0.41408414170E+02 -0.57583684685E+01  0.33082236272E+02  0.53312755777E+02  0.51100000000E-03 0.  1.
         23    2    1    0    0    0  0.15082827778E+00  0.61927754030E+01  0.27821293755E+02  0.96587410599E+02  0.92286132673E+02 0.  0.
         11    1    3    3    0    0 -0.41257585893E+02  0.11951143871E+02 -0.52609425174E+01  0.43274654822E+02  0.51100000000E-03 0. -1.
         22    1    1    0    0    0 -0.15082827778E+00 -0.61927754030E+01 -0.27821293755E+02  0.28502589401E+02  0.00000000000E+00 0.  1.
</event>
<event>
 5    1  0.1043455E-009  0.9118800E+02  0.7561462E-02  0.1125453E+00
         25   -1    0    0    0    0  0.00000000000E+00  0.00000000000E+00  0.99999998245E-14  0.12509000000E+03  0.12509000000E+03 0.  0.
        -11    1    3    3    0    0  0.34386084732E+01 -0.66334513305E-01 -0.60180759058E+02  0.60278953123E+02  0.51100000000E-03 0.  1.
         23    2    1    0    0    0  0.87865517655E+00  0.11749730106E+02 -0.25703682712E+02  0.96814436390E+02  0.92593345312E+02 0.  0.
         11    1    3    3    0    0 -0.25599532966E+01  0.11816064619E+02  0.34477076346E+02  0.36535483268E+02  0.51100000000E-03 0. -1.
         22    1    1    0    0    0 -0.87865517655E+00 -0.11749730106E+02  0.25703682712E+02  0.28275563610E+02  0.00000000000E+00 0.  1.
</event>
<event>
 5    1  0.1043455E-009  0.9118800E+02  0.7561462E-02  0.1125453E+00
         25   -1    0    0    0    0  0.00000000000E+00  0.00000000000E+00  0.99999998245E-14  0.12509000000E+03  0.12509000000E+03 0.  0.
        -11    1    3    3    0    0  0.16691876470E+02  0.38175595277E+02  0.33887081085E+02  0.53705950132E+02  0.51100000000E-03 0.  1.
         23    2    1    0    0    0  0.17270212685E+02  0.24201817906E+02 -0.49176839050E+01  0.94954110248E+02  0.90045050957E+02 0.  0.
         11    1    3    3    0    0  0.57833621477E+00 -0.13973777371E+02 -0.38804764990E+02  0.41248160116E+02  0.51100000000E-03 0. -1.
         22    1    1    0    0    0 -0.17270212685E+02 -0.24201817906E+02  0.49176839050E+01  0.30135889752E+02  0.00000000000E+00 0.  1.
</event>
<event>
 5    1  0.1043455E-009  0.9118800E+02  0.7561462E-02  0.1125453E+00
         25   -1    0    0    0    0  0.00000000000E+00  0.00000000000E+00  0.99999998245E-14  0.12509000000E+03  0.12509000000E+03 0.  0.
        -11    1    3    3    0    0  0.45850735693E+02 -0.14225782416E+02 -0.26639870868E+02  0.54903056100E+02  0.51100000000E-03 0.  1.
         23    2    1    0    0    0  0.26249511058E+02  0.13125055093E+02 -0.39740473617E+01  0.95474177296E+02  0.90764649374E+02 0.  0.
         11    1    3    3    0    0 -0.19601224635E+02  0.27350837510E+02  0.22665823506E+02  0.40571121196E+02  0.51100000000E-03 0. -1.
         22    1    1    0    0    0 -0.26249511058E+02 -0.13125055093E+02  0.39740473617E+01  0.29615822704E+02  0.00000000000E+00 0.  1.
</event>
<event>
 5    1  0.1043455E-009  0.9118800E+02  0.7561462E-02  0.1125453E+00
         25   -1    0    0    0    0  0.00000000000E+00  0.00000000000E+00  0.99999998245E-14  0.12509000000E+03  0.12509000000E+03 0.  0.
        -11    1    3    3    0    0  0.21167917678E+01  0.38571762224E+02 -0.31262573029E+01  0.38756098016E+02  0.51100000000E-03 0. -1.
         23    2    1    0    0    0  0.24563276560E+02 -0.12383226145E+02  0.97492041189E+01  0.95905315214E+02  0.91356902641E+02 0.  0.
         11    1    3    3    0    0  0.22446484792E+02 -0.50954988369E+02  0.12875461422E+02  0.57149217198E+02  0.51100000000E-03 0.  1.
         22    1    1    0    0    0 -0.24563276560E+02  0.12383226145E+02 -0.97492041189E+01  0.29184684786E+02  0.00000000000E+00 0.  1.
</event>
<event>
 5    1  0.1043455E-009  0.9118800E+02  0.7561462E-02  0.1125453E+00
         25   -1    0    0    0    0  0.00000000000E+00  0.00000000000E+00  0.99999998245E-14  0.12509000000E+03  0.12509000000E+03 0.  0.
        -11    1    3    3    0    0  0.74356138958E+01 -0.33698654974E+02 -0.41493947379E+02  0.53968837031E+02  0.51100000000E-03 0.  1.
         23    2    1    0    0    0  0.89338354790E+01 -0.29771494794E+02 -0.17251696370E+01  0.93959122581E+02  0.88652045590E+02 0.  0.
         11    1    3    3    0    0  0.14982215831E+01  0.39271601807E+01  0.39768777742E+02  0.39990285550E+02  0.51100000000E-03 0. -1.
         22    1    1    0    0    0 -0.89338354790E+01  0.29771494794E+02  0.17251696370E+01  0.31130877419E+02  0.00000000000E+00 0. -1.
</event>
<event>
 5    1  0.1043455E-009  0.9118800E+02  0.7561462E-02  0.1125453E+00
         25   -1    0    0    0    0  0.00000000000E+00  0.00000000000E+00  0.99999998245E-14  0.12509000000E+03  0.12509000000E+03 0.  0.
        -11    1    3    3    0    0 -0.14243869957E+02 -0.19069209066E+02 -0.30960332530E+02  0.39052077492E+02  0.51100000000E-03 0.  1.
         23    2    1    0    0    0 -0.58501013241E+01 -0.11119919134E+02  0.25488615624E+02  0.96672649429E+02  0.92401598114E+02 0.  0.
         11    1    3    3    0    0  0.83937686331E+01  0.79492899320E+01  0.56448948155E+02  0.57620571937E+02  0.51100000000E-03 0. -1.
         22    1    1    0    0    0  0.58501013241E+01  0.11119919134E+02 -0.25488615624E+02  0.28417350571E+02  0.00000000000E+00 0. -1.
</event>
<event>
 5    1  0.1043455E-009  0.9118800E+02  0.7561462E-02  0.1125453E+00
         25   -1    0    0    0    0  0.00000000000E+00  0.00000000000E+00  0.99999998245E-14  0.12509000000E+03  0.12509000000E+03 0.  0.
        -11    1    3    3    0    0  0.35447703705E+02 -0.41163503003E+02 -0.60650683410E+01  0.54660394544E+02  0.51100000000E-03 0.  1.
         23    2    1    0    0    0  0.13288404365E+02 -0.13847452759E+02 -0.24175392038E+02  0.94222813237E+02  0.89023341409E+02 0.  0.
         11    1    3    3    0    0 -0.22159299340E+02  0.27316050243E+02 -0.18110323697E+02  0.39562418693E+02  0.51100000000E-03 0. -1.
         22    1    1    0    0    0 -0.13288404365E+02  0.13847452759E+02  0.24175392038E+02  0.30867186763E+02  0.00000000000E+00 0.  1.
</event>
<event>
 5    1  0.1043455E-009  0.9118800E+02  0.7561462E-02  0.1125453E+00
         25   -1    0    0    0    0  0.00000000000E+00  0.00000000000E+00  0.99999998245E-14  0.12509000000E+03  0.12509000000E+03 0.  0.
        -11    1    3    3    0    0 -0.13502885490E+02  0.43775445630E+02  0.26797554706E+02  0.53072841408E+02  0.51100000000E-03 0.  1.
         23    2    1    0    0    0 -0.27104093931E+02  0.98773338092E+01  0.44258493899E+01  0.95904699354E+02  0.91356059374E+02 0.  0.
         11    1    3    3    0    0 -0.13601208440E+02 -0.33898111821E+02 -0.22371705316E+02  0.42831857946E+02  0.51100000000E-03 0. -1.
         22    1    1    0    0    0  0.27104093931E+02 -0.98773338092E+01 -0.44258493899E+01  0.29185300646E+02  0.00000000000E+00 0.  1.
</event>
<event>
 5    1  0.1043455E-009  0.9118800E+02  0.7561462E-02  0.1125453E+00
         25   -1    0    0    0    0  0.00000000000E+00  0.00000000000E+00  0.99999998245E-14  0.12509000000E+03  0.12509000000E+03 0.  0.
        -11    1    3    3    0    0 -0.29059844493E+01  0.38326396000E+02  0.25191471875E+02  0.45956149006E+02  0.51100000000E-03 0.  1.
         23    2    1    0    0    0  0.16541865671E+02 -0.71274103592E+01  0.23574343743E+02  0.95422122064E+02  0.90692879533E+02 0.  0.
         11    1    3    3    0    0  0.19447850120E+02 -0.45453806360E+02 -0.16171281317E+01  0.49465973058E+02  0.51100000000E-03 0. -1.
         22    1    1    0    0    0 -0.16541865671E+02  0.71274103592E+01 -0.23574343743E+02  0.29667877936E+02  0.00000000000E+00 0. -1.
</event>
<event>
 5    1  0.1043455E-009  0.9118800E+02  0.7561462E-02  0.1125453E+00
         25   -1    0    0    0    0  0.00000000000E+00  0.00000000000E+00  0.99999998245E-14  0.12509000000E+03  0.12509000000E+03 0.  0.
        -11    1    3    3    0    0 -0.95399584495E+01  0.50514949198E+01 -0.39315756992E+02  0.40770788026E+02  0.51100000000E-03 0.  1.
         23    2    1    0    0    0  0.20556603893E+02  0.16021245725E+02  0.79259411436E+01  0.97848949705E+02  0.93980541269E+02 0.  0.
         11    1    3    3    0    0  0.30096562342E+02  0.10969750805E+02  0.47241698136E+02  0.57078161678E+02  0.51100000000E-03 0. -1.
         22    1    1    0    0    0 -0.20556603893E+02 -0.16021245725E+02 -0.79259411436E+01  0.27241050295E+02  0.00000000000E+00 0. -1.
</event>
<event>
 5    1  0.1043455E-009  0.9118800E+02  0.7561462E-02  0.1125453E+00
         25   -1    0    0    0    0  0.00000000000E+00  0.00000000000E+00  0.99999998245E-14  0.12509000000E+03  0.12509000000E+03 0.  0.
        -11    1    3    3    0    0  0.12026006901E+02 -0.98807785151E+01 -0.38728611396E+02  0.41739189822E+02  0.51100000000E-03 0.  1.
         23    2    1    0    0    0 -0.16748558310E+02 -0.10355721000E+02  0.13391339281E+02  0.10127649269E+03  0.98437009504E+02 0.  0.
         11    1    3    3    0    0 -0.28774565211E+02 -0.47494248444E+00  0.52119950677E+02  0.59537302864E+02  0.51100000000E-03 0. -1.
         22    1    1    0    0    0  0.16748558310E+02  0.10355721000E+02 -0.13391339281E+02  0.23813507314E+02  0.00000000000E+00 0. -1.
</event>
<event>
 5    1  0.1043455E-009  0.9118800E+02  0.7561462E-02  0.1125453E+00
         25   -1    0    0    0    0  0.00000000000E+00  0.00000000000E+00  0.99999998245E-14  0.12509000000E+03  0.12509000000E+03 0.  0.
        -11    1    3    3    0    0  0.44205957939E+02  0.83732170748E+01  0.40069810048E+01  0.45170049574E+02  0.51100000000E-03 0.  1.
         23    2    1    0    0    0 -0.47996924682E+01  0.21348355618E+02  0.16858071613E+02  0.97467836545E+02  0.93471895492E+02 0.  0.
         11    1    3    3    0    0 -0.49005650407E+02  0.12975138543E+02  0.12851090608E+02  0.52297786972E+02  0.51100000000E-03 0. -1.
         22    1    1    0    0    0  0.47996924682E+01 -0.21348355618E+02 -0.16858071613E+02  0.27622163455E+02  0.00000000000E+00 0. -1.
</event>
<event>
 5    1  0.1043455E-009  0.9118800E+02  0.7561462E-02  0.1125453E+00
         25   -1    0    0    0    0  0.00000000000E+00  0.00000000000E+00  0.99999998245E-14  0.12509000000E+03  0.12509000000E+03 0.  0.
        -11    1    3    3    0    0  0.71820410831E+01  0.15378460142E+02  0.31879529509E+02  0.36116244994E+02  0.51100000000E-03 0.  1.
         23    2    1    0    0    0  0.18880760793E+02 -0.59314428668E+01 -0.22164360873E+02  0.95375962316E+02  0.90629190398E+02 0.  0.
         11    1    3    3    0    0  0.11698719710E+02 -0.21309903009E+02 -0.54043890382E+02  0.59259717322E+02  0.51100000000E-03 0. -1.
         22    1    1    0    0    0 -0.18880760793E+02  0.59314428668E+01  0.22164360873E+02  0.29714037684E+02  0.00000000000E+00 0. -1.
</event>
<event>
 5    1  0.1043455E-009  0.9118800E+02  0.7561462E-02  0.1125453E+00
         25   -1    0    0    0    0  0.00000000000E+00  0.00000000000E+00  0.99999998245E-14  0.12509000000E+03  0.12509000000E+03 0.  0.
        -11    1    3    3    0    0 -0.77128216741E+01 -0.31721514078E+02  0.20849051058E+02  0.38735319849E+02  0.51100000000E-03 0.  1.
         23    2    1    0    0    0 -0.23045281484E+02  0.15508216484E+02 -0.80255214294E+01  0.96176356656E+02  0.91727274069E+02 0.  0.
         11    1    3    3    0    0 -0.15332459810E+02  0.47229730562E+02 -0.28874572487E+02  0.57441036806E+02  0.51100000000E-03 0. -1.
         22    1    1    0    0    0  0.23045281484E+02 -0.15508216484E+02  0.80255214294E+01  0.28913643344E+02  0.00000000000E+00 0. -1.
</event>
<event>
 5    1  0.1043455E-009  0.9118800E+02  0.7561462E-02  0.1125453E+00
         25   -1    0    0    0    0  0.00000000000E+00  0.00000000000E+00  0.99999998245E-14  0.12509000000E+03  0.12509000000E+03 0.  0.
        -11    1    3    3    0    0 -0.35985395844E+02  0.45613303629E+02  0.43588887510E+00  0.58100879351E+02  0.51100000000E-03 0. -1.
         23    2    1    0    0    0 -0.41851565538E+01  0.30241950179E+02 -0.59268818897E+01  0.93989855066E+02  0.88695399206E+02 0.  0.
         11    1    3    3    0    0  0.31800239290E+02 -0.15371353451E+02 -0.63627707648E+01  0.35888975715E+02  0.51100000000E-03 0.  1.
         22    1    1    0    0    0  0.41851565538E+01 -0.30241950179E+02  0.59268818897E+01  0.31100144934E+02  0.00000000000E+00 0. -1.
</event>
<event>
 5    1  0.1043455E-009  0.9118800E+02  0.7561462E-02  0.1125453E+00
         25   -1    0    0    0    0  0.00000000000E+00  0.00000000000E+00  0.99999998245E-14  0.12509000000E+03  0.12509000000E+03 0.  0.
        -11    1    3    3    0    0 -0.85448954028E+01  0.27840370811E+02 -0.15677506981E+00  0.29122603988E+02  0.51100000000E-03 0.  1.
         23    2    1    0    0    0 -0.84171458457E+01 -0.29642448369E+02  0.17998275497E+02  0.89404414529E+02  0.81973705095E+02 0.  0.
         11    1    3    3    0    0  0.12774955710E+00 -0.57482819180E+02  0.18155050567E+02  0.60281810542E+02  0.51100000000E-03 0. -1.
         22    1    1    0    0    0  0.84171458457E+01  0.29642448369E+02 -0.17998275497E+02  0.35685585471E+02  0.00000000000E+00 0. -1.
</event>
<event>
 5    1  0.1043455E-009  0.9118800E+02  0.7561462E-02  0.1125453E+00
         25   -1    0    0    0    0  0.00000000000E+00  0.00000000000E+00  0.99999998245E-14  0.12509000000E+03  0.12509000000E+03 0.  0.
        -11    1    3    3    0    0 -0.13307820207E+02 -0.33613349623E+02  0.48836918498E+01  0.36480211045E+02  0.51100000000E-03 0.  1.
         23    2    1    0    0    0 -0.45330025626E+01  0.25358501308E+02  0.12269081822E+02  0.96557000341E+02  0.92244903628E+02 0.  0.
         11    1    3    3    0    0  0.87748176443E+01  0.58971850930E+02  0.73853899719E+01  0.60076789296E+02  0.51100000000E-03 0. -1.
         22    1    1    0    0    0  0.45330025626E+01 -0.25358501308E+02 -0.12269081822E+02  0.28532999659E+02  0.00000000000E+00 0. -1.
</event>
<event>
 5    1  0.1043455E-009  0.9118800E+02  0.7561462E-02  0.1125453E+00
         25   -1    0    0    0    0  0.00000000000E+00  0.00000000000E+00  0.99999998245E-14  0.12509000000E+03  0.12509000000E+03 0.  0.
        -11    1    3    3    0    0  0.19948393243E+02 -0.44944095199E+02  0.28491472629E+02  0.56830221705E+02  0.51100000000E-03 0.  1.
         23    2    1    0    0    0  0.19596304332E+02 -0.62987441624E+01  0.58770750428E+00  0.10449789662E+03  0.10244889300E+03 0.  0.
         11    1    3    3    0    0 -0.35208891031E+00  0.38645351037E+02 -0.27903765125E+02  0.47667674915E+02  0.51100000000E-03 0. -1.
         22    1    1    0    0    0 -0.19596304332E+02  0.62987441624E+01 -0.58770750428E+00  0.20592103380E+02  0.00000000000E+00 0.  1.
</event>
<event>
 5    1  0.1043455E-009  0.9118800E+02  0.7561462E-02  0.1125453E+00
         25   -1    0    0    0    0  0.00000000000E+00  0.00000000000E+00  0.99999998245E-14  0.12509000000E+03  0.12509000000E+03 0.  0.
        -11    1    3    3    0    0  0.98471152204E+01 -0.29740496405E+02 -0.13615377704E+02  0.34159059045E+02  0.51100000000E-03 0.  1.
         23    2    1    0    0    0 -0.10422513415E+01  0.29066757825E+02  0.18898545267E+01  0.95943229193E+02  0.91408801434E+02 0.  0.
         11    1    3    3    0    0 -0.10889366562E+02  0.58807254230E+02  0.15505232230E+02  0.61784170148E+02  0.51100000000E-03 0. -1.
         22    1    1    0    0    0  0.10422513415E+01 -0.29066757825E+02 -0.18898545267E+01  0.29146770807E+02  0.00000000000E+00 0. -1.
</event>
<event>
 5    1  0.1043455E-009  0.9118800E+02  0.7561462E-02  0.1125453E+00
         25   -1    0    0    0    0  0.00000000000E+00  0.00000000000E+00  0.99999998245E-14  0.12509000000E+03  0.12509000000E+03 0.  0.
        -11    1    3    3    0    0  0.21281514561E+02 -0.29398545940E+02  0.50739889376E+02  0.62383601527E+02  0.51100000000E-03 0.  1.
         23    2    1    0    0    0  0.10451623669E+02 -0.16294696755E+02  0.21904498084E+02  0.95857131240E+02  0.91290903126E+02 0.  0.
         11    1    3    3    0    0 -0.10829890892E+02  0.13103849185E+02 -0.28835391292E+02  0.33473529712E+02  0.51100000000E-03 0. -1.
         22    1    1    0    0    0 -0.10451623669E+02  0.16294696755E+02 -0.21904498084E+02  0.29232868760E+02  0.00000000000E+00 0.  1.
</event>
<event>
 5    1  0.1043455E-009  0.9118800E+02  0.7561462E-02  0.1125453E+00
         25   -1    0    0    0    0  0.00000000000E+00  0.00000000000E+00  0.99999998245E-14  0.12509000000E+03  0.12509000000E+03 0.  0.
        -11    1    3    3    0    0  0.10569694779E+02  0.18699121949E+02  0.56717059153E+02  0.60648169046E+02  0.51100000000E-03 0.  1.
         23    2    1    0    0    0  0.14112492422E+02  0.14112383928E+02  0.23994097005E+02  0.93880409910E+02  0.88540910608E+02 0.  0.
         11    1    3    3    0    0  0.35427976429E+01 -0.45867380216E+01 -0.32722962148E+02  0.33232240864E+02  0.51100000000E-03 0. -1.
         22    1    1    0    0    0 -0.14112492422E+02 -0.14112383928E+02 -0.23994097005E+02  0.31209590090E+02  0.00000000000E+00 0.  1.
</event>
<event>
 5    1  0.1043455E-009  0.9118800E+02  0.7561462E-02  0.1125453E+00
         25   -1    0    0    0    0  0.00000000000E+00  0.00000000000E+00  0.99999998245E-14  0.12509000000E+03  0.12509000000E+03 0.  0.
        -11    1    3    3    0    0 -0.71975879197E+01 -0.29154442057E+02 -0.83585489574E+01  0.31171334660E+02  0.51100000000E-03 0.  1.
         23    2    1    0    0    0  0.65254586084E+01  0.30996596779E+02 -0.55469993917E+01  0.92931955530E+02  0.87190644764E+02 0.  0.
         11    1    3    3    0    0  0.13723046528E+02  0.60151038836E+02  0.28115495657E+01  0.61760620870E+02  0.51100000000E-03 0. -1.
         22    1    1    0    0    0 -0.65254586084E+01 -0.30996596779E+02  0.55469993917E+01  0.32158044470E+02  0.00000000000E+00 0. -1.
</event>
<event>
 5    1  0.1043455E-009  0.9118800E+02  0.7561462E-02  0.1125453E+00
         25   -1    0    0    0    0  0.00000000000E+00  0.00000000000E+00  0.99999998245E-14  0.12509000000E+03  0.12509000000E+03 0.  0.
        -11    1    3    3    0    0 -0.28923480455E+02 -0.36419749880E+02 -0.34489841754E+02  0.57900907484E+02  0.51100000000E-03 0.  1.
         23    2    1    0    0    0 -0.26230294481E+02 -0.83752907859E+01 -0.83919672045E+01  0.96304605129E+02  0.91902002215E+02 0.  0.
         11    1    3    3    0    0  0.26931859735E+01  0.28044459094E+02  0.26097874549E+02  0.38403697645E+02  0.51100000000E-03 0. -1.
         22    1    1    0    0    0  0.26230294481E+02  0.83752907859E+01  0.83919672045E+01  0.28785394871E+02  0.00000000000E+00 0. -1.
</event>
<event>
 5    1  0.1043455E-009  0.9118800E+02  0.7561462E-02  0.1125453E+00
         25   -1    0    0    0    0  0.00000000000E+00  0.00000000000E+00  0.99999998245E-14  0.12509000000E+03  0.12509000000E+03 0.  0.
        -11    1    3    3    0    0  0.27978743368E+02  0.26779631885E+02 -0.11808044762E+01  0.38747297504E+02  0.51100000000E-03 0.  1.
         23    2    1    0    0    0 -0.16319051282E+02 -0.36472613001E+01 -0.22919858934E+02  0.96718643260E+02  0.92463841964E+02 0.  0.
         11    1    3    3    0    0 -0.44297794651E+02 -0.30426893185E+02 -0.21739054458E+02  0.57971345756E+02  0.51100000000E-03 0. -1.
         22    1    1    0    0    0  0.16319051282E+02  0.36472613001E+01  0.22919858934E+02  0.28371356740E+02  0.00000000000E+00 0. -1.
</event>
<event>
 5    1  0.1043455E-009  0.9118800E+02  0.7561462E-02  0.1125453E+00
         25   -1    0    0    0    0  0.00000000000E+00  0.00000000000E+00  0.99999998245E-14  0.12509000000E+03  0.12509000000E+03 0.  0.
        -11    1    3    3    0    0  0.41467346018E+02 -0.16149986849E+02 -0.11307720099E+02  0.45915437438E+02  0.51100000000E-03 0.  1.
         23    2    1    0    0    0  0.60914806552E+01 -0.13536062328E+02  0.24580198214E+02  0.96375591349E+02  0.91998572509E+02 0.  0.
         11    1    3    3    0    0 -0.35375865363E+02  0.26139245213E+01  0.35887918313E+02  0.50460153911E+02  0.51100000000E-03 0. -1.
         22    1    1    0    0    0 -0.60914806552E+01  0.13536062328E+02 -0.24580198214E+02  0.28714408651E+02  0.00000000000E+00 0.  1.
</event>
<event>
 5    1  0.1043455E-009  0.9118800E+02  0.7561462E-02  0.1125453E+00
         25   -1    0    0    0    0  0.00000000000E+00  0.00000000000E+00  0.99999998245E-14  0.12509000000E+03  0.12509000000E+03 0.  0.
        -11    1    3    3    0    0 -0.48102067871E+02 -0.15982584249E+02 -0.23021512398E+02  0.55670835867E+02  0.51100000000E-03 0. -1.
         23    2    1    0    0    0 -0.10230476325E+02 -0.24354022588E+02 -0.12546590530E+02  0.95846231502E+02  0.91275966701E+02 0.  0.
         11    1    3    3    0    0  0.37871591546E+02 -0.83714383381E+01  0.10474921869E+02  0.40175395635E+02  0.51100000000E-03 0.  1.
         22    1    1    0    0    0  0.10230476325E+02  0.24354022588E+02  0.12546590530E+02  0.29243768498E+02  0.00000000000E+00 0. -1.
</event>
<event>
 5    1  0.1043455E-009  0.9118800E+02  0.7561462E-02  0.1125453E+00
         25   -1    0    0    0    0  0.00000000000E+00  0.00000000000E+00  0.99999998245E-14  0.12509000000E+03  0.12509000000E+03 0.  0.
        -11    1    3    3    0    0  0.21610798365E+02 -0.29642092372E+02  0.31280798834E+02  0.48209632047E+02  0.51100000000E-03 0. -1.
         23    2    1    0    0    0  0.32636658626E+02 -0.29644728495E+01 -0.19914199755E+01  0.92258531269E+02  0.86219088680E+02 0.  0.
         11    1    3    3    0    0  0.11025860261E+02  0.26677619523E+02 -0.33272218809E+02  0.44048899222E+02  0.51100000000E-03 0.  1.
         22    1    1    0    0    0 -0.32636658626E+02  0.29644728495E+01  0.19914199755E+01  0.32831468731E+02  0.00000000000E+00 0.  1.
</event>
<event>
 5    1  0.1043455E-009  0.9118800E+02  0.7561462E-02  0.1125453E+00
         25   -1    0    0    0    0  0.00000000000E+00  0.00000000000E+00  0.99999998245E-14  0.12509000000E+03  0.12509000000E+03 0.  0.
        -11    1    3    3    0    0 -0.21471338294E+02 -0.39358569873E+02 -0.78137780232E+01  0.45510114457E+02  0.51100000000E-03 0. -1.
         23    2    1    0    0    0 -0.26925197269E+02  0.10585145123E+02 -0.37910993677E+01  0.95911515124E+02  0.91365391444E+02 0.  0.
         11    1    3    3    0    0 -0.54538589756E+01  0.49943714997E+02  0.40226786555E+01  0.50401400667E+02  0.51100000000E-03 0.  1.
         22    1    1    0    0    0  0.26925197269E+02 -0.10585145123E+02  0.37910993677E+01  0.29178484876E+02  0.00000000000E+00 0. -1.
</event>
<event>
 5    1  0.1043455E-009  0.9118800E+02  0.7561462E-02  0.1125453E+00
         25   -1    0    0    0    0  0.00000000000E+00  0.00000000000E+00  0.99999998245E-14  0.12509000000E+03  0.12509000000E+03 0.  0.
        -11    1    3    3    0    0 -0.53347210483E+02  0.21940482651E+00  0.26227898445E+02  0.59446410000E+02  0.51100000000E-03 0. -1.
         23    2    1    0    0    0 -0.21866684246E+02 -0.13624084435E+02  0.12125583581E+02  0.96615496777E+02  0.92324194465E+02 0.  0.
         11    1    3    3    0    0  0.31480526237E+02 -0.13843489262E+02 -0.14102314864E+02  0.37169086777E+02  0.51100000000E-03 0.  1.
         22    1    1    0    0    0  0.21866684246E+02  0.13624084435E+02 -0.12125583581E+02  0.28474503223E+02  0.00000000000E+00 0. -1.
</event>
<event>
 5    1  0.1043455E-009  0.9118800E+02  0.7561462E-02  0.1125453E+00
         25   -1    0    0    0    0  0.00000000000E+00  0.00000000000E+00  0.99999998245E-14  0.12509000000E+03  0.12509000000E+03 0.  0.
        -11    1    3    3    0    0  0.21758565269E+02  0.29515677399E+02 -0.25510875125E+02  0.44670069675E+02  0.51100000000E-03 0.  1.
         23    2    1    0    0    0  0.73262491092E+01  0.15963685359E+02  0.22466889041E+02  0.96572035847E+02  0.92265290485E+02 0.  0.
         11    1    3    3    0    0 -0.14432316160E+02 -0.13551992040E+02  0.47977764166E+02  0.51901966172E+02  0.51100000000E-03 0. -1.
         22    1    1    0    0    0 -0.73262491092E+01 -0.15963685359E+02 -0.22466889041E+02  0.28517964153E+02  0.00000000000E+00 0.  1.
</event>
<event>
 5    1  0.1043455E-009  0.9118800E+02  0.7561462E-02  0.1125453E+00
         25   -1    0    0    0    0  0.00000000000E+00  0.00000000000E+00  0.99999998245E-14  0.12509000000E+03  0.12509000000E+03 0.  0.
        -11    1    3    3    0    0  0.21291070870E+02 -0.26640631287E+02 -0.25524331878E+02  0.42597235265E+02  0.51100000000E-03 0.  1.
         23    2    1    0    0    0 -0.57946071498E+01  0.91695158040E+01 -0.34966931888E+02  0.88479293673E+02  0.80549621917E+02 0.  0.
         11    1    3    3    0    0 -0.27085678020E+02  0.35810147091E+02 -0.94426000108E+01  0.45882058408E+02  0.51100000000E-03 0. -1.
         22    1    1    0    0    0  0.57946071498E+01 -0.91695158040E+01  0.34966931888E+02  0.36610706327E+02  0.00000000000E+00 0. -1.
</event>
<event>
 5    1  0.1043455E-009  0.9118800E+02  0.7561462E-02  0.1125453E+00
         25   -1    0    0    0    0  0.00000000000E+00  0.00000000000E+00  0.99999998245E-14  0.12509000000E+03  0.12509000000E+03 0.  0.
        -11    1    3    3    0    0  0.13211134534E+02 -0.23404419229E+02  0.37664777923E+02  0.46270254067E+02  0.51100000000E-03 0.  1.
         23    2    1    0    0    0 -0.20486594286E+02 -0.30949549540E+01  0.33319081772E+02  0.85854295574E+02  0.76364386770E+02 0.  0.
         11    1    3    3    0    0 -0.33697728821E+02  0.20309464275E+02 -0.43456961511E+01  0.39584041508E+02  0.51100000000E-03 0. -1.
         22    1    1    0    0    0  0.20486594286E+02  0.30949549540E+01 -0.33319081772E+02  0.39235704426E+02  0.00000000000E+00 0.  1.
</event>
<event>
 5    1  0.1043455E-009  0.9118800E+02  0.7561462E-02  0.1125453E+00
         25   -1    0    0    0    0  0.00000000000E+00  0.00000000000E+00  0.99999998245E-14  0.12509000000E+03  0.12509000000E+03 0.  0.
        -11    1    3    3    0    0 -0.82286978440E+01 -0.17253719524E+02  0.29586675283E+02  0.35224617247E+02  0.51100000000E-03 0.  1.
         23    2    1    0    0    0  0.18154097235E+02 -0.19407517922E+01 -0.22821399660E+02  0.95864086048E+02  0.91300432351E+02 0.  0.
         11    1    3    3    0    0  0.26382795079E+02  0.15312967732E+02 -0.52408074943E+02  0.60639468801E+02  0.51100000000E-03 0. -1.
         22    1    1    0    0    0 -0.18154097235E+02  0.19407517922E+01  0.22821399660E+02  0.29225913952E+02  0.00000000000E+00 0. -1.
</event>
<event>
 5    1  0.1043455E-009  0.9118800E+02  0.7561462E-02  0.1125453E+00
         25   -1    0    0    0    0  0.00000000000E+00  0.00000000000E+00  0.99999998245E-14  0.12509000000E+03  0.12509000000E+03 0.  0.
        -11    1    3    3    0    0 -0.82009784100E+01 -0.48819027875E+02 -0.25697007573E+02  0.55775350541E+02  0.51100000000E-03 0.  1.
         23    2    1    0    0    0 -0.67140625592E+01 -0.28097533165E+02  0.77777772402E+01  0.95172716955E+02  0.90348227585E+02 0.  0.
         11    1    3    3    0    0  0.14869158508E+01  0.20721494709E+02  0.33474784814E+02  0.39397366413E+02  0.51100000000E-03 0. -1.
         22    1    1    0    0    0  0.67140625592E+01  0.28097533165E+02 -0.77777772402E+01  0.29917283045E+02  0.00000000000E+00 0.  1.
</event>
<event>
 5    1  0.1043455E-009  0.9118800E+02  0.7561462E-02  0.1125453E+00
         25   -1    0    0    0    0  0.00000000000E+00  0.00000000000E+00  0.99999998245E-14  0.12509000000E+03  0.12509000000E+03 0.  0.
        -11    1    3    3    0    0  0.30476466971E+02 -0.51976369466E+01  0.27939808955E+02  0.41670893842E+02  0.51100000000E-03 0. -1.
         23    2    1    0    0    0 -0.80148616222E+01  0.26860162683E+02  0.56653577120E+01  0.96492751458E+02  0.92157736841E+02 0.  0.
         11    1    3    3    0    0 -0.38491328593E+02  0.32057799630E+02 -0.22274451243E+02  0.54821857616E+02  0.51100000000E-03 0.  1.
         22    1    1    0    0    0  0.80148616222E+01 -0.26860162683E+02 -0.56653577120E+01  0.28597248542E+02  0.00000000000E+00 0.  1.
</event>
<event>
 5    1  0.1043455E-009  0.9118800E+02  0.7561462E-02  0.1125453E+00
         25   -1    0    0    0    0  0.00000000000E+00  0.00000000000E+00  0.99999998245E-14  0.12509000000E+03  0.12509000000E+03 0.  0.
        -11    1    3    3    0    0  0.38725032342E+02 -0.67841808683E+01 -0.42566565468E+00  0.39317101005E+02  0.51100000000E-03 0. -1.
         23    2    1    0    0    0 -0.15957472076E+02 -0.23633562446E+02  0.10269345049E+01  0.96555095349E+02  0.92242320301E+02 0.  0.
         11    1    3    3    0    0 -0.54682504418E+02 -0.16849381578E+02  0.14526001596E+01  0.57237994344E+02  0.51100000000E-03 0.  1.
         22    1    1    0    0    0  0.15957472076E+02  0.23633562446E+02 -0.10269345049E+01  0.28534904651E+02  0.00000000000E+00 0.  1.
</event>
<event>
 5    1  0.1043455E-009  0.9118800E+02  0.7561462E-02  0.1125453E+00
         25   -1    0    0    0    0  0.00000000000E+00  0.00000000000E+00  0.99999998245E-14  0.12509000000E+03  0.12509000000E+03 0.  0.
        -11    1    3    3    0    0 -0.41434408527E+02 -0.14345073615E+02 -0.19012883359E+02  0.47792060856E+02  0.51100000000E-03 0.  1.
         23    2    1    0    0    0 -0.27251468722E+02  0.20792739818E+02  0.13036787987E+01  0.90787228172E+02  0.84057365199E+02 0.  0.
         11    1    3    3    0    0  0.14182939805E+02  0.35137813434E+02  0.20316562158E+02  0.42995167316E+02  0.51100000000E-03 0. -1.
         22    1    1    0    0    0  0.27251468722E+02 -0.20792739818E+02 -0.13036787987E+01  0.34302771828E+02  0.00000000000E+00 0. -1.
</event>
<event>
 5    1  0.1043455E-009  0.9118800E+02  0.7561462E-02  0.1125453E+00
         25   -1    0    0    0    0  0.00000000000E+00  0.00000000000E+00  0.99999998245E-14  0.12509000000E+03  0.12509000000E+03 0.  0.
        -11    1    3    3    0    0  0.27530749336E+02  0.10984341649E+01  0.32742585065E+02  0.42792821754E+02  0.51100000000E-03 0. -1.
         23    2    1    0    0    0  0.16316206890E+02  0.29377500739E+02 -0.48334165719E+01  0.91139770653E+02  0.84580374331E+02 0.  0.
         11    1    3    3    0    0 -0.11214542446E+02  0.28279066574E+02 -0.37576001637E+02  0.48346948899E+02  0.51100000000E-03 0.  1.
         22    1    1    0    0    0 -0.16316206890E+02 -0.29377500739E+02  0.48334165719E+01  0.33950229347E+02  0.00000000000E+00 0.  1.
</event>
<event>
 5    1  0.1043455E-009  0.9118800E+02  0.7561462E-02  0.1125453E+00
         25   -1    0    0    0    0  0.00000000000E+00  0.00000000000E+00  0.99999998245E-14  0.12509000000E+03  0.12509000000E+03 0.  0.
        -11    1    3    3    0    0 -0.28180316955E+02 -0.21176314384E+02 -0.15406148976E+02  0.38469676124E+02  0.51100000000E-03 0.  1.
         23    2    1    0    0    0  0.70302787358E+01  0.25240062786E+02  0.57745146379E+00  0.98882767435E+02  0.95346644706E+02 0.  0.
         11    1    3    3    0    0  0.35210595691E+02  0.46416377170E+02  0.15983600439E+02  0.60413091311E+02  0.51100000000E-03 0. -1.
         22    1    1    0    0    0 -0.70302787358E+01 -0.25240062786E+02 -0.57745146379E+00  0.26207232565E+02  0.00000000000E+00 0. -1.
</event>
<event>
 5    1  0.1043455E-009  0.9118800E+02  0.7561462E-02  0.1125453E+00
         25   -1    0    0    0    0  0.00000000000E+00  0.00000000000E+00  0.99999998245E-14  0.12509000000E+03  0.12509000000E+03 0.  0.
        -11    1    3    3    0    0 -0.20593218003E+02 -0.52241679079E+01 -0.40107473679E+02  0.45387024613E+02  0.51100000000E-03 0. -1.
         23    2    1    0    0    0 -0.55448208261E+01  0.27614901232E+02 -0.36864583056E+01  0.96683701704E+02  0.92416559081E+02 0.  0.
         11    1    3    3    0    0  0.15048397177E+02  0.32839069140E+02  0.36421015373E+02  0.51296677091E+02  0.51100000000E-03 0.  1.
         22    1    1    0    0    0  0.55448208261E+01 -0.27614901232E+02  0.36864583056E+01  0.28406298296E+02  0.00000000000E+00 0.  1.
</event>
<event>
 5    1  0.1043455E-009  0.9118800E+02  0.7561462E-02  0.1125453E+00
         25   -1    0    0    0    0  0.00000000000E+00  0.00000000000E+00  0.99999998245E-14  0.12509000000E+03  0.12509000000E+03 0.  0.
        -11    1    3    3    0    0  0.11321700092E+02  0.22853502979E+02 -0.54986759604E+02  0.60613589429E+02  0.51100000000E-03 0.  1.
         23    2    1    0    0    0  0.88821019913E+01  0.16461400484E+02 -0.15189845420E+02  0.10099433969E+03  0.98077804853E+02 0.  0.
         11    1    3    3    0    0 -0.24395981007E+01 -0.63921024950E+01  0.39796914184E+02  0.40380750266E+02  0.51100000000E-03 0. -1.
         22    1    1    0    0    0 -0.88821019913E+01 -0.16461400484E+02  0.15189845420E+02  0.24095660306E+02  0.00000000000E+00 0.  1.
</event>
<event>
 5    1  0.1043455E-009  0.9118800E+02  0.7561462E-02  0.1125453E+00
         25   -1    0    0    0    0  0.00000000000E+00  0.00000000000E+00  0.99999998245E-14  0.12509000000E+03  0.12509000000E+03 0.  0.
        -11    1    3    3    0    0 -0.93846431437E+01 -0.24764620469E+02 -0.25252750951E+02  0.36593160355E+02  0.51100000000E-03 0. -1.
         23    2    1    0    0    0 -0.10214023283E+02  0.19894233517E+02  0.16156291415E+02  0.97501369168E+02  0.93516760201E+02 0.  0.
         11    1    3    3    0    0 -0.82938013941E+00  0.44658853987E+02  0.41409042367E+02  0.60908208813E+02  0.51100000000E-03 0.  1.
         22    1    1    0    0    0  0.10214023283E+02 -0.19894233517E+02 -0.16156291415E+02  0.27588630832E+02  0.00000000000E+00 0.  1.
</event>
<event>
 5    1  0.1043455E-009  0.9118800E+02  0.7561462E-02  0.1125453E+00
         25   -1    0    0    0    0  0.00000000000E+00  0.00000000000E+00  0.99999998245E-14  0.12509000000E+03  0.12509000000E+03 0.  0.
        -11    1    3    3    0    0 -0.23780914926E+02  0.44188028372E+02 -0.25552656125E+02  0.56312094629E+02  0.51100000000E-03 0. -1.
         23    2    1    0    0    0 -0.64637274160E+01  0.32876545490E+02  0.28666648837E+01  0.91461666960E+02  0.85055110018E+02 0.  0.
         11    1    3    3    0    0  0.17317187510E+02 -0.11311482882E+02  0.28419321009E+02  0.35149572332E+02  0.51100000000E-03 0.  1.
         22    1    1    0    0    0  0.64637274160E+01 -0.32876545490E+02 -0.28666648837E+01  0.33628333040E+02  0.00000000000E+00 0. -1.
</event>
<event>
 5    1  0.1043455E-009  0.9118800E+02  0.7561462E-02  0.1125453E+00
         25   -1    0    0    0    0  0.00000000000E+00  0.00000000000E+00  0.99999998245E-14  0.12509000000E+03  0.12509000000E+03 0.  0.
        -11    1    3    3    0    0 -0.23189001354E+02  0.20522961935E+02  0.26519353426E+02  0.40770060790E+02  0.51100000000E-03 0. -1.
         23    2    1    0    0    0  0.26620268402E+02  0.17423676798E+01  0.11147484968E+02  0.96177356468E+02  0.91728637519E+02 0.  0.
         11    1    3    3    0    0  0.49809269756E+02 -0.18780594256E+02 -0.15371868457E+02  0.55407295678E+02  0.51100000000E-03 0.  1.
         22    1    1    0    0    0 -0.26620268402E+02 -0.17423676798E+01 -0.11147484968E+02  0.28912643532E+02  0.00000000000E+00 0.  1.
</event>
<event>
 5    1  0.1043455E-009  0.9118800E+02  0.7561462E-02  0.1125453E+00
         25   -1    0    0    0    0  0.00000000000E+00  0.00000000000E+00  0.99999998245E-14  0.12509000000E+03  0.12509000000E+03 0.  0.
        -11    1    3    3    0    0 -0.32723412487E+02 -0.11498181281E+02 -0.12868887275E+02  0.36995109914E+02  0.51100000000E-03 0.  1.
         23    2    1    0    0    0  0.16997718675E+02 -0.17942948741E+02  0.16755291995E+02  0.95230132962E+02  0.90427686935E+02 0.  0.
         11    1    3    3    0    0  0.49721131162E+02 -0.64447674602E+01  0.29624179270E+02  0.58235023048E+02  0.51100000000E-03 0. -1.
         22    1    1    0    0    0 -0.16997718675E+02  0.17942948741E+02 -0.16755291995E+02  0.29859867038E+02  0.00000000000E+00 0. -1.
</event>
<event>
 5    1  0.1043455E-009  0.9118800E+02  0.7561462E-02  0.1125453E+00
         25   -1    0    0    0    0  0.00000000000E+00  0.00000000000E+00  0.99999998245E-14  0.12509000000E+03  0.12509000000E+03 0.  0.
        -11    1    3    3    0    0 -0.97963134730E+01  0.45332632057E+02 -0.28233550848E+02  0.54296857004E+02  0.51100000000E-03 0. -1.
         23    2    1    0    0    0 -0.21256482247E+02  0.43765654535E+01 -0.14503439077E+02  0.98987469323E+02  0.95483909510E+02 0.  0.
         11    1    3    3    0    0 -0.11460168774E+02 -0.40956066603E+02  0.13730111771E+02  0.44690612319E+02  0.51100000000E-03 0.  1.
         22    1    1    0    0    0  0.21256482247E+02 -0.43765654535E+01  0.14503439077E+02  0.26102530677E+02  0.00000000000E+00 0. -1.
</event>
<event>
 5    1  0.1043455E-009  0.9118800E+02  0.7561462E-02  0.1125453E+00
         25   -1    0    0    0    0  0.00000000000E+00  0.00000000000E+00  0.99999998245E-14  0.12509000000E+03  0.12509000000E+03 0.  0.
        -11    1    3    3    0    0 -0.61098007220E+01 -0.30154953614E+02  0.40868085678E+02  0.51155169040E+02  0.51100000000E-03 0.  1.
         23    2    1    0    0    0  0.22949416648E+02 -0.62768594512E+01  0.18834650427E+02  0.94745004601E+02  0.89754092670E+02 0.  0.
         11    1    3    3    0    0  0.29059217370E+02  0.23878094163E+02 -0.22033435251E+02  0.43589835561E+02  0.51100000000E-03 0. -1.
         22    1    1    0    0    0 -0.22949416648E+02  0.62768594512E+01 -0.18834650427E+02  0.30344995399E+02  0.00000000000E+00 0.  1.
</event>
<event>
 5    1  0.1043455E-009  0.9118800E+02  0.7561462E-02  0.1125453E+00
         25   -1    0    0    0    0  0.00000000000E+00  0.00000000000E+00  0.99999998245E-14  0.12509000000E+03  0.12509000000E+03 0.  0.
        -11    1    3    3    0    0  0.60058833363E+01  0.39937457867E+02 -0.53288512413E+01  0.40736566268E+02  0.51100000000E-03 0.  1.
         23    2    1    0    0    0  0.25763216870E+02 -0.90546926466E+01  0.10422050778E+02  0.95860734788E+02  0.91295840701E+02 0.  0.
         11    1    3    3    0    0  0.19757333534E+02 -0.48992150513E+02  0.15750902019E+02  0.55124168520E+02  0.51100000000E-03 0. -1.
         22    1    1    0    0    0 -0.25763216870E+02  0.90546926466E+01 -0.10422050778E+02  0.29229265212E+02  0.00000000000E+00 0.  1.
</event>
<event>
 5    1  0.1043455E-009  0.9118800E+02  0.7561462E-02  0.1125453E+00
         25   -1    0    0    0    0  0.00000000000E+00  0.00000000000E+00  0.99999998245E-14  0.12509000000E+03  0.12509000000E+03 0.  0.
        -11    1    3    3    0    0  0.33708534157E+02 -0.12715518217E+02 -0.83597353082E+01  0.36984251422E+02  0.51100000000E-03 0.  1.
         23    2    1    0    0    0 -0.23747151947E+02  0.95212758879E+01 -0.68184243664E+01  0.98612220052E+02  0.94991037012E+02 0.  0.
         11    1    3    3    0    0 -0.57455686105E+02  0.22236794104E+02  0.15413109418E+01  0.61627968630E+02  0.51100000000E-03 0. -1.
         22    1    1    0    0    0  0.23747151947E+02 -0.95212758879E+01  0.68184243664E+01  0.26477779948E+02  0.00000000000E+00 0. -1.
</event>
<event>
 5    1  0.1043455E-009  0.9118800E+02  0.7561462E-02  0.1125453E+00
         25   -1    0    0    0    0  0.00000000000E+00  0.00000000000E+00  0.99999998245E-14  0.12509000000E+03  0.12509000000E+03 0.  0.
        -11    1    3    3    0    0 -0.14059789939E+02 -0.11885863641E+01 -0.32683681149E+02  0.35599346123E+02  0.51100000000E-03 0. -1.
         23    2    1    0    0    0  0.26577170225E+02 -0.57898808229E+01  0.11279543210E+02  0.95643492701E+02  0.90997697245E+02 0.  0.
         11    1    3    3    0    0  0.40636960164E+02 -0.46012944588E+01  0.43963224358E+02  0.60044146578E+02  0.51100000000E-03 0.  1.
         22    1    1    0    0    0 -0.26577170225E+02  0.57898808229E+01 -0.11279543210E+02  0.29446507299E+02  0.00000000000E+00 0.  1.
</event>
<event>
 5    1  0.1043455E-009  0.9118800E+02  0.7561462E-02  0.1125453E+00
         25   -1    0    0    0    0  0.00000000000E+00  0.00000000000E+00  0.99999998245E-14  0.12509000000E+03  0.12509000000E+03 0.  0.
        -11    1    3    3    0    0  0.55822625778E+02  0.11254197350E+02  0.21790273419E+02  0.60972440681E+02  0.51100000000E-03 0.  1.
         23    2    1    0    0    0  0.29487112703E+02  0.13100934745E+01  0.17607691389E+01  0.95521326231E+02  0.90829605837E+02 0.  0.
         11    1    3    3    0    0 -0.26335513074E+02 -0.99441038753E+01 -0.20029504280E+02  0.34548885550E+02  0.51100000000E-03 0. -1.
         22    1    1    0    0    0 -0.29487112703E+02 -0.13100934745E+01 -0.17607691389E+01  0.29568673769E+02  0.00000000000E+00 0.  1.
</event>
<event>
 5    1  0.1043455E-009  0.9118800E+02  0.7561462E-02  0.1125453E+00
         25   -1    0    0    0    0  0.00000000000E+00  0.00000000000E+00  0.99999998245E-14  0.12509000000E+03  0.12509000000E+03 0.  0.
        -11    1    3    3    0    0 -0.25497652599E+02 -0.29776522455E+02  0.35087228920E+01  0.39358388104E+02  0.51100000000E-03 0. -1.
         23    2    1    0    0    0  0.45085431414E+01 -0.47562900516E+02  0.13129869016E+02  0.75542548732E+02  0.57023913772E+02 0.  0.
         11    1    3    3    0    0  0.30006195741E+02 -0.17786378061E+02  0.96211461245E+01  0.36184160628E+02  0.51100000000E-03 0.  1.
         22    1    1    0    0    0 -0.45085431414E+01  0.47562900516E+02 -0.13129869016E+02  0.49547451268E+02  0.00000000000E+00 0. -1.
</event>
<event>
 5    1  0.1043455E-009  0.9118800E+02  0.7561462E-02  0.1125453E+00
         25   -1    0    0    0    0  0.00000000000E+00  0.00000000000E+00  0.99999998245E-14  0.12509000000E+03  0.12509000000E+03 0.  0.
        -11    1    3    3    0    0 -0.29046046540E+02  0.35811332190E+01 -0.28879394699E+02  0.41115894411E+02  0.51100000000E-03 0.  1.
         23    2    1    0    0    0  0.87739330465E+01 -0.27375761191E+02 -0.36678938063E+01  0.96109529906E+02  0.91636096010E+02 0.  0.
         11    1    3    3    0    0  0.37819979586E+02 -0.30956894410E+02  0.25211500893E+02  0.54993635495E+02  0.51100000000E-03 0. -1.
         22    1    1    0    0    0 -0.87739330465E+01  0.27375761191E+02  0.36678938063E+01  0.28980470094E+02  0.00000000000E+00 0. -1.
</event>
<event>
 5    1  0.1043455E-009  0.9118800E+02  0.7561462E-02  0.1125453E+00
         25   -1    0    0    0    0  0.00000000000E+00  0.00000000000E+00  0.99999998245E-14  0.12509000000E+03  0.12509000000E+03 0.  0.
        -11    1    3    3    0    0 -0.31347604942E+01  0.54945213894E+02  0.17065563664E+02  0.57619759776E+02  0.51100000000E-03 0.  1.
         23    2    1    0    0    0 -0.13734836599E+02  0.18456529530E+02  0.18385370823E+02  0.95639854347E+02  0.90992695643E+02 0.  0.
         11    1    3    3    0    0 -0.10600076105E+02 -0.36488684363E+02  0.13198071591E+01  0.38020094571E+02  0.51100000000E-03 0. -1.
         22    1    1    0    0    0  0.13734836599E+02 -0.18456529530E+02 -0.18385370823E+02  0.29450145653E+02  0.00000000000E+00 0.  1.
</event>
<event>
 5    1  0.1043455E-009  0.9118800E+02  0.7561462E-02  0.1125453E+00
         25   -1    0    0    0    0  0.00000000000E+00  0.00000000000E+00  0.99999998245E-14  0.12509000000E+03  0.12509000000E+03 0.  0.
        -11    1    3    3    0    0  0.32298844495E+02 -0.38477990266E+02 -0.13902448408E+02  0.52125321703E+02  0.51100000000E-03 0. -1.
         23    2    1    0    0    0  0.31838246286E+02 -0.24815263880E+01 -0.18122737243E+02  0.88371264932E+02  0.80381682993E+02 0.  0.
         11    1    3    3    0    0 -0.46059820893E+00  0.35996463879E+02 -0.42202888351E+01  0.36245943229E+02  0.51100000000E-03 0.  1.
         22    1    1    0    0    0 -0.31838246286E+02  0.24815263880E+01  0.18122737243E+02  0.36718735068E+02  0.00000000000E+00 0. -1.
</event>
<event>
 5    1  0.1043455E-009  0.9118800E+02  0.7561462E-02  0.1125453E+00
         25   -1    0    0    0    0  0.00000000000E+00  0.00000000000E+00  0.99999998245E-14  0.12509000000E+03  0.12509000000E+03 0.  0.
        -11    1    3    3    0    0  0.20769851110E+02  0.15138681856E+02  0.40751965700E+02  0.48179758324E+02  0.51100000000E-03 0.  1.
         23    2    1    0    0    0  0.64264290739E+01 -0.22047574669E+02  0.25285920184E+02  0.90931951183E+02  0.84272459600E+02 0.  0.
         11    1    3    3    0    0 -0.14343422037E+02 -0.37186256526E+02 -0.15466045516E+02  0.42752192859E+02  0.51100000000E-03 0. -1.
         22    1    1    0    0    0 -0.64264290739E+01  0.22047574669E+02 -0.25285920184E+02  0.34158048817E+02  0.00000000000E+00 0.  1.
</event>
<event>
 5    1  0.1043455E-009  0.9118800E+02  0.7561462E-02  0.1125453E+00
         25   -1    0    0    0    0  0.00000000000E+00  0.00000000000E+00  0.99999998245E-14  0.12509000000E+03  0.12509000000E+03 0.  0.
        -11    1    3    3    0    0 -0.23700678342E+02 -0.33354036451E+02 -0.40883067929E+02  0.57841500197E+02  0.51100000000E-03 0.  1.
         23    2    1    0    0    0 -0.22788192178E+02 -0.33489219192E+01 -0.14016033698E+02  0.98127689613E+02  0.94350820280E+02 0.  0.
         11    1    3    3    0    0  0.91248616333E+00  0.30005114532E+02  0.26867034232E+02  0.40286189417E+02  0.51100000000E-03 0. -1.
         22    1    1    0    0    0  0.22788192178E+02  0.33489219192E+01  0.14016033698E+02  0.26962310387E+02  0.00000000000E+00 0.  1.
</event>
<event>
 5    1  0.1043455E-009  0.9118800E+02  0.7561462E-02  0.1125453E+00
         25   -1    0    0    0    0  0.00000000000E+00  0.00000000000E+00  0.99999998245E-14  0.12509000000E+03  0.12509000000E+03 0.  0.
        -11    1    3    3    0    0  0.28126472792E+02  0.45658245716E+02 -0.20807929005E+02  0.57521680985E+02  0.51100000000E-03 0.  1.
         23    2    1    0    0    0  0.68253505903E+01  0.15512072908E+01 -0.17064456358E+02  0.10664583221E+03  0.10503878427E+03 0.  0.
         11    1    3    3    0    0 -0.21301122202E+02 -0.44107038425E+02  0.37434726468E+01  0.49124151223E+02  0.51100000000E-03 0. -1.
         22    1    1    0    0    0 -0.68253505903E+01 -0.15512072908E+01  0.17064456358E+02  0.18444167792E+02  0.00000000000E+00 0. -1.
</event>
<event>
 5    1  0.1043455E-009  0.9118800E+02  0.7561462E-02  0.1125453E+00
         25   -1    0    0    0    0  0.00000000000E+00  0.00000000000E+00  0.99999998245E-14  0.12509000000E+03  0.12509000000E+03 0.  0.
        -11    1    3    3    0    0  0.46250668568E+02 -0.39722958034E+02  0.95568735906E+01  0.61712005081E+02  0.51100000000E-03 0. -1.
         23    2    1    0    0    0  0.15890966085E+02 -0.23100596021E+02  0.45533168967E+01  0.96684137323E+02  0.92417148709E+02 0.  0.
         11    1    3    3    0    0 -0.30359702483E+02  0.16622362013E+02 -0.50035566939E+01  0.34972132243E+02  0.51100000000E-03 0.  1.
         22    1    1    0    0    0 -0.15890966085E+02  0.23100596021E+02 -0.45533168967E+01  0.28405862677E+02  0.00000000000E+00 0. -1.
</event>
<event>
 5    1  0.1043455E-009  0.9118800E+02  0.7561462E-02  0.1125453E+00
         25   -1    0    0    0    0  0.00000000000E+00  0.00000000000E+00  0.99999998245E-14  0.12509000000E+03  0.12509000000E+03 0.  0.
        -11    1    3    3    0    0 -0.53918901317E+02  0.15320306702E+02  0.17820447746E+02  0.58817753058E+02  0.51100000000E-03 0. -1.
         23    2    1    0    0    0 -0.16984001954E+02  0.10076067607E+02  0.21005980144E+02  0.96258859499E+02  0.91839715643E+02 0.  0.
         11    1    3    3    0    0  0.36934899362E+02 -0.52442390943E+01  0.31855323983E+01  0.37441106441E+02  0.51100000000E-03 0.  1.
         22    1    1    0    0    0  0.16984001954E+02 -0.10076067607E+02 -0.21005980144E+02  0.28831140501E+02  0.00000000000E+00 0. -1.
</event>
<event>
 5    1  0.1043455E-009  0.9118800E+02  0.7561462E-02  0.1125453E+00
         25   -1    0    0    0    0  0.00000000000E+00  0.00000000000E+00  0.99999998245E-14  0.12509000000E+03  0.12509000000E+03 0.  0.
        -11    1    3    3    0    0  0.47121313375E+02 -0.15589604866E+02  0.55093721863E+01  0.49938032963E+02  0.51100000000E-03 0.  1.
         23    2    1    0    0    0  0.12393505589E+02 -0.11077822683E+02 -0.24110725415E+02  0.95804436726E+02  0.91218670678E+02 0.  0.
         11    1    3    3    0    0 -0.34727807785E+02  0.45117821829E+01 -0.29620097602E+02  0.45866403764E+02  0.51100000000E-03 0. -1.
         22    1    1    0    0    0 -0.12393505589E+02  0.11077822683E+02  0.24110725415E+02  0.29285563274E+02  0.00000000000E+00 0. -1.
</event>
<event>
 5    1  0.1043455E-009  0.9118800E+02  0.7561462E-02  0.1125453E+00
         25   -1    0    0    0    0  0.00000000000E+00  0.00000000000E+00  0.99999998245E-14  0.12509000000E+03  0.12509000000E+03 0.  0.
        -11    1    3    3    0    0 -0.40325989421E+01  0.43416908434E+02  0.19699745735E+02  0.47847359117E+02  0.51100000000E-03 0. -1.
         23    2    1    0    0    0  0.18106729325E+02  0.34928381911E+01  0.25236953754E+02  0.93833682234E+02  0.88474869434E+02 0.  0.
         11    1    3    3    0    0  0.22139328267E+02 -0.39924070243E+02  0.55372080192E+01  0.45986323117E+02  0.51100000000E-03 0.  1.
         22    1    1    0    0    0 -0.18106729325E+02 -0.34928381911E+01 -0.25236953754E+02  0.31256317766E+02  0.00000000000E+00 0.  1.
</event>
<event>
 5    1  0.1043455E-009  0.9118800E+02  0.7561462E-02  0.1125453E+00
         25   -1    0    0    0    0  0.00000000000E+00  0.00000000000E+00  0.99999998245E-14  0.12509000000E+03  0.12509000000E+03 0.  0.
        -11    1    3    3    0    0 -0.24520272561E+02 -0.28728337731E+02 -0.14924468580E+01  0.37799319480E+02  0.51100000000E-03 0.  1.
         23    2    1    0    0    0  0.17936878867E+02  0.99405936834E-01  0.24021182473E+02  0.95110695264E+02  0.90262315731E+02 0.  0.
         11    1    3    3    0    0  0.42457151428E+02  0.28827743668E+02  0.25513629331E+02  0.57311375784E+02  0.51100000000E-03 0. -1.
         22    1    1    0    0    0 -0.17936878867E+02 -0.99405936834E-01 -0.24021182473E+02  0.29979304736E+02  0.00000000000E+00 0. -1.
</event>
<event>
 5    1  0.1043455E-009  0.9118800E+02  0.7561462E-02  0.1125453E+00
         25   -1    0    0    0    0  0.00000000000E+00  0.00000000000E+00  0.99999998245E-14  0.12509000000E+03  0.12509000000E+03 0.  0.
        -11    1    3    3    0    0 -0.34080931658E+02  0.22460046463E+02  0.44219015287E+01  0.41055046014E+02  0.51100000000E-03 0. -1.
         23    2    1    0    0    0  0.10680501389E+02  0.13585134444E+02 -0.24520314021E+02  0.95092086948E+02  0.90236523718E+02 0.  0.
         11    1    3    3    0    0  0.44761433047E+02 -0.88749120187E+01 -0.28942215549E+02  0.54037040934E+02  0.51100000000E-03 0.  1.
         22    1    1    0    0    0 -0.10680501389E+02 -0.13585134444E+02  0.24520314021E+02  0.29997913052E+02  0.00000000000E+00 0. -1.
</event>
<event>
 5    1  0.1043455E-009  0.9118800E+02  0.7561462E-02  0.1125453E+00
         25   -1    0    0    0    0  0.00000000000E+00  0.00000000000E+00  0.99999998245E-14  0.12509000000E+03  0.12509000000E+03 0.  0.
        -11    1    3    3    0    0  0.93793365205E+01 -0.25794465852E+02 -0.11020690256E+01  0.27468909308E+02  0.51100000000E-03 0. -1.
         23    2    1    0    0    0 -0.20533904372E+01  0.35310908641E+02  0.14833542259E+01  0.89688347198E+02  0.82405840824E+02 0.  0.
         11    1    3    3    0    0 -0.11432726958E+02  0.61105374494E+02  0.25854232514E+01  0.62219437890E+02  0.51100000000E-03 0.  1.
         22    1    1    0    0    0  0.20533904372E+01 -0.35310908641E+02 -0.14833542259E+01  0.35401652802E+02  0.00000000000E+00 0.  1.
</event>
<event>
 5    1  0.1043455E-009  0.9118800E+02  0.7561462E-02  0.1125453E+00
         25   -1    0    0    0    0  0.00000000000E+00  0.00000000000E+00  0.99999998245E-14  0.12509000000E+03  0.12509000000E+03 0.  0.
        -11    1    3    3    0    0 -0.29699430574E+01 -0.20236923934E+02 -0.38051955171E+02  0.43200751668E+02  0.51100000000E-03 0.  1.
         23    2    1    0    0    0  0.26914627350E+02  0.89228505321E+01 -0.53546796203E+01  0.96233683173E+02  0.91805417902E+02 0.  0.
         11    1    3    3    0    0  0.29884570407E+02  0.29159774466E+02  0.32697275550E+02  0.53032931505E+02  0.51100000000E-03 0. -1.
         22    1    1    0    0    0 -0.26914627350E+02 -0.89228505321E+01  0.53546796203E+01  0.28856316827E+02  0.00000000000E+00 0. -1.
</event>
<event>
 5    1  0.1043455E-009  0.9118800E+02  0.7561462E-02  0.1125453E+00
         25   -1    0    0    0    0  0.00000000000E+00  0.00000000000E+00  0.99999998245E-14  0.12509000000E+03  0.12509000000E+03 0.  0.
        -11    1    3    3    0    0  0.91239754865E+01  0.34741359301E+02  0.42550959820E+00  0.35921999296E+02  0.51100000000E-03 0.  1.
         23    2    1    0    0    0 -0.23220146142E+02 -0.16545410769E+02  0.10427753273E+01  0.96559083703E+02  0.92247728757E+02 0.  0.
         11    1    3    3    0    0 -0.32344121628E+02 -0.51286770070E+02  0.61726572909E+00  0.60637084407E+02  0.51100000000E-03 0. -1.
         22    1    1    0    0    0  0.23220146142E+02  0.16545410769E+02 -0.10427753273E+01  0.28530916297E+02  0.00000000000E+00 0. -1.
</event>
<event>
 5    1  0.1043455E-009  0.9118800E+02  0.7561462E-02  0.1125453E+00
         25   -1    0    0    0    0  0.00000000000E+00  0.00000000000E+00  0.99999998245E-14  0.12509000000E+03  0.12509000000E+03 0.  0.
        -11    1    3    3    0    0 -0.31124127345E+02  0.23307875483E+01 -0.26418263892E+02  0.40890934704E+02  0.51100000000E-03 0.  1.
         23    2    1    0    0    0 -0.57607041187E+01  0.71204266906E+01  0.25022282518E+02  0.98444159601E+02  0.94769466332E+02 0.  0.
         11    1    3    3    0    0  0.25363423227E+02  0.47896391423E+01  0.51440546409E+02  0.57553224897E+02  0.51100000000E-03 0. -1.
         22    1    1    0    0    0  0.57607041187E+01 -0.71204266906E+01 -0.25022282518E+02  0.26645840399E+02  0.00000000000E+00 0. -1.
</event>
<event>
 5    1  0.1043455E-009  0.9118800E+02  0.7561462E-02  0.1125453E+00
         25   -1    0    0    0    0  0.00000000000E+00  0.00000000000E+00  0.99999998245E-14  0.12509000000E+03  0.12509000000E+03 0.  0.
        -11    1    3    3    0    0 -0.40745648021E+01  0.16309307849E+02  0.30563648560E+02  0.34881688813E+02  0.51100000000E-03 0.  1.
         23    2    1    0    0    0  0.22997117779E+02 -0.33362265997E+01 -0.19271086853E+02  0.94901051317E+02  0.89971311642E+02 0.  0.
         11    1    3    3    0    0  0.27071682581E+02 -0.19645534449E+02 -0.49834735413E+02  0.60019362505E+02  0.51100000000E-03 0. -1.
         22    1    1    0    0    0 -0.22997117779E+02  0.33362265997E+01  0.19271086853E+02  0.30188948683E+02  0.00000000000E+00 0. -1.
</event>
<event>
 5    1  0.1043455E-009  0.9118800E+02  0.7561462E-02  0.1125453E+00
         25   -1    0    0    0    0  0.00000000000E+00  0.00000000000E+00  0.99999998245E-14  0.12509000000E+03  0.12509000000E+03 0.  0.
        -11    1    3    3    0    0 -0.68239532529E+01  0.50436085073E+02 -0.23660007884E+02  0.56126294986E+02  0.51100000000E-03 0.  1.
         23    2    1    0    0    0  0.16694918357E+02  0.22138176474E+02 -0.71542336737E+01  0.96454319180E+02  0.92105556143E+02 0.  0.
         11    1    3    3    0    0  0.23518871610E+02 -0.28297908599E+02  0.16505774210E+02  0.40328024194E+02  0.51100000000E-03 0. -1.
         22    1    1    0    0    0 -0.16694918357E+02 -0.22138176474E+02  0.71542336737E+01  0.28635680820E+02  0.00000000000E+00 0.  1.
</event>
<event>
 5    1  0.1043455E-009  0.9118800E+02  0.7561462E-02  0.1125453E+00
         25   -1    0    0    0    0  0.00000000000E+00  0.00000000000E+00  0.99999998245E-14  0.12509000000E+03  0.12509000000E+03 0.  0.
        -11    1    3    3    0    0  0.31630486581E+02 -0.27074340724E+02 -0.27076038934E+02  0.49665073156E+02  0.51100000000E-03 0.  1.
         23    2    1    0    0    0 -0.77843004804E+01 -0.28227953218E+02 -0.35185732012E+01  0.95597746200E+02  0.90934790065E+02 0.  0.
         11    1    3    3    0    0 -0.39414787062E+02 -0.11536124939E+01  0.23557465733E+02  0.45932673043E+02  0.51100000000E-03 0. -1.
         22    1    1    0    0    0  0.77843004804E+01  0.28227953218E+02  0.35185732012E+01  0.29492253800E+02  0.00000000000E+00 0.  1.
</event>
<event>
 5    1  0.1043455E-009  0.9118800E+02  0.7561462E-02  0.1125453E+00
         25   -1    0    0    0    0  0.00000000000E+00  0.00000000000E+00  0.99999998245E-14  0.12509000000E+03  0.12509000000E+03 0.  0.
        -11    1    3    3    0    0  0.18956926199E+02  0.33202580504E+02 -0.52076469216E+01  0.38586215022E+02  0.51100000000E-03 0.  1.
         23    2    1    0    0    0 -0.19860386245E+02 -0.84955770826E+01 -0.17997615279E+02  0.96973742648E+02  0.92808312320E+02 0.  0.
         11    1    3    3    0    0 -0.38817312443E+02 -0.41698157586E+02 -0.12789968358E+02  0.58387527626E+02  0.51100000000E-03 0. -1.
         22    1    1    0    0    0  0.19860386245E+02  0.84955770826E+01  0.17997615279E+02  0.28116257352E+02  0.00000000000E+00 0. -1.
</event>
<event>
 5    1  0.1043455E-009  0.9118800E+02  0.7561462E-02  0.1125453E+00
         25   -1    0    0    0    0  0.00000000000E+00  0.00000000000E+00  0.99999998245E-14  0.12509000000E+03  0.12509000000E+03 0.  0.
        -11    1    3    3    0    0  0.13771900242E+02  0.41903227367E+02 -0.12399071549E+02  0.45817929630E+02  0.51100000000E-03 0.  1.
         23    2    1    0    0    0 -0.88856084298E+01  0.15751789734E+02  0.23340373224E+02  0.95562962573E+02  0.90886929074E+02 0.  0.
         11    1    3    3    0    0 -0.22657508672E+02 -0.26151437633E+02  0.35739444773E+02  0.49745032943E+02  0.51100000000E-03 0. -1.
         22    1    1    0    0    0  0.88856084298E+01 -0.15751789734E+02 -0.23340373224E+02  0.29527037427E+02  0.00000000000E+00 0. -1.
</event>
<event>
 5    1  0.1043455E-009  0.9118800E+02  0.7561462E-02  0.1125453E+00
         25   -1    0    0    0    0  0.00000000000E+00  0.00000000000E+00  0.99999998245E-14  0.12509000000E+03  0.12509000000E+03 0.  0.
        -11    1    3    3    0    0 -0.39055497087E+02 -0.42763509542E+02  0.14727462038E+02  0.59757407402E+02  0.51100000000E-03 0. -1.
         23    2    1    0    0    0 -0.76624393367E+01 -0.27659321562E+02  0.85856303402E+01  0.95132294912E+02  0.90292244634E+02 0.  0.
         11    1    3    3    0    0  0.31393057750E+02  0.15104187980E+02 -0.61418316976E+01  0.35374887510E+02  0.51100000000E-03 0.  1.
         22    1    1    0    0    0  0.76624393367E+01  0.27659321562E+02 -0.85856303402E+01  0.29957705088E+02  0.00000000000E+00 0. -1.
</event>
<event>
 5    1  0.1043455E-009  0.9118800E+02  0.7561462E-02  0.1125453E+00
         25   -1    0    0    0    0  0.00000000000E+00  0.00000000000E+00  0.99999998245E-14  0.12509000000E+03  0.12509000000E+03 0.  0.
        -11    1    3    3    0    0 -0.92037977219E+01  0.52373175820E+02  0.28791234690E+02  0.60469782811E+02  0.51100000000E-03 0.  1.
         23    2    1    0    0    0 -0.59092557595E+01  0.23934495015E+02  0.92807211417E+00  0.10041935605E+03  0.97341699161E+02 0.  0.
         11    1    3    3    0    0  0.32945419624E+01 -0.28438680805E+02 -0.27863162575E+02  0.39949573235E+02  0.51100000000E-03 0. -1.
         22    1    1    0    0    0  0.59092557595E+01 -0.23934495015E+02 -0.92807211417E+00  0.24670643954E+02  0.00000000000E+00 0.  1.
</event>
<event>
 5    1  0.1043455E-009  0.9118800E+02  0.7561462E-02  0.1125453E+00
         25   -1    0    0    0    0  0.00000000000E+00  0.00000000000E+00  0.99999998245E-14  0.12509000000E+03  0.12509000000E+03 0.  0.
        -11    1    3    3    0    0  0.33890817155E+02  0.10026449704E+02 -0.10559864797E+02  0.36886690363E+02  0.51100000000E-03 0.  1.
         23    2    1    0    0    0 -0.17245417913E+02  0.21972417867E+02  0.12804660170E+02  0.94362961288E+02  0.89220051307E+02 0.  0.
         11    1    3    3    0    0 -0.51136235069E+02  0.11945968163E+02  0.23364524967E+02  0.57476270926E+02  0.51100000000E-03 0. -1.
         22    1    1    0    0    0  0.17245417913E+02 -0.21972417867E+02 -0.12804660170E+02  0.30727038712E+02  0.00000000000E+00 0. -1.
</event>
<event>
 5    1  0.1043455E-009  0.9118800E+02  0.7561462E-02  0.1125453E+00
         25   -1    0    0    0    0  0.00000000000E+00  0.00000000000E+00  0.99999998245E-14  0.12509000000E+03  0.12509000000E+03 0.  0.
        -11    1    3    3    0    0 -0.34249849666E+02 -0.50051043026E+02  0.10295190555E+02  0.61515445694E+02  0.51100000000E-03 0.  1.
         23    2    1    0    0    0 -0.10136503907E+02 -0.28101444384E+02  0.20674253045E+01  0.95144814489E+02  0.90309587469E+02 0.  0.
         11    1    3    3    0    0  0.24113345759E+02  0.21949598643E+02 -0.82277652502E+01  0.33629368795E+02  0.51100000000E-03 0. -1.
         22    1    1    0    0    0  0.10136503907E+02  0.28101444384E+02 -0.20674253045E+01  0.29945185511E+02  0.00000000000E+00 0.  1.
</event>
<event>
 5    1  0.1043455E-009  0.9118800E+02  0.7561462E-02  0.1125453E+00
         25   -1    0    0    0    0  0.00000000000E+00  0.00000000000E+00  0.99999998245E-14  0.12509000000E+03  0.12509000000E+03 0.  0.
        -11    1    3    3    0    0  0.34338924038E+02 -0.28929640146E+02 -0.23757336964E+02  0.50798590954E+02  0.51100000000E-03 0. -1.
         23    2    1    0    0    0  0.12295528959E+02  0.73014540305E+01 -0.28230983075E+02  0.93443836430E+02  0.87921959134E+02 0.  0.
         11    1    3    3    0    0 -0.22043395079E+02  0.36231094177E+02 -0.44736461112E+01  0.42645245475E+02  0.51100000000E-03 0.  1.
         22    1    1    0    0    0 -0.12295528959E+02 -0.73014540305E+01  0.28230983075E+02  0.31646163570E+02  0.00000000000E+00 0. -1.
</event>
<event>
 5    1  0.1043455E-009  0.9118800E+02  0.7561462E-02  0.1125453E+00
         25   -1    0    0    0    0  0.00000000000E+00  0.00000000000E+00  0.99999998245E-14  0.12509000000E+03  0.12509000000E+03 0.  0.
        -11    1    3    3    0    0  0.29962074299E+02  0.11421748821E+02 -0.51388229893E+02  0.60571712987E+02  0.51100000000E-03 0.  1.
         23    2    1    0    0    0  0.13493884597E+02 -0.40198032137E+01 -0.96611019867E+01  0.10801426778E+03  0.10665599567E+03 0.  0.
         11    1    3    3    0    0 -0.16468189702E+02 -0.15441552035E+02  0.41727127906E+02  0.47442554789E+02  0.51100000000E-03 0. -1.
         22    1    1    0    0    0 -0.13493884597E+02  0.40198032137E+01  0.96611019867E+01  0.17075732224E+02  0.00000000000E+00 0.  1.
</event>
<event>
 5    1  0.1043455E-009  0.9118800E+02  0.7561462E-02  0.1125453E+00
         25   -1    0    0    0    0  0.00000000000E+00  0.00000000000E+00  0.99999998245E-14  0.12509000000E+03  0.12509000000E+03 0.  0.
        -11    1    3    3    0    0  0.30124764895E+02 -0.14625878613E+02  0.67902727158E+01  0.34169073575E+02  0.51100000000E-03 0.  1.
         23    2    1    0    0    0 -0.18764262755E+02  0.13563289312E+02 -0.17956151441E+02  0.95790106686E+02  0.91199017487E+02 0.  0.
         11    1    3    3    0    0 -0.48889027649E+02  0.28189167925E+02 -0.24746424156E+02  0.61621033110E+02  0.51100000000E-03 0. -1.
         22    1    1    0    0    0  0.18764262755E+02 -0.13563289312E+02  0.17956151441E+02  0.29299893314E+02  0.00000000000E+00 0. -1.
</event>
<event>
 5    1  0.1043455E-009  0.9118800E+02  0.7561462E-02  0.1125453E+00
         25   -1    0    0    0    0  0.00000000000E+00  0.00000000000E+00  0.99999998245E-14  0.12509000000E+03  0.12509000000E+03 0.  0.
        -11    1    3    3    0    0 -0.32691431463E+02  0.95959072409E+01  0.30417938458E+02  0.45673428896E+02  0.51100000000E-03 0. -1.
         23    2    1    0    0    0 -0.66592046244E+01  0.27218970204E+02 -0.85985729720E+01  0.95778691562E+02  0.91183358980E+02 0.  0.
         11    1    3    3    0    0  0.26032226838E+02  0.17623062963E+02 -0.39016511430E+02  0.50105262666E+02  0.51100000000E-03 0.  1.
         22    1    1    0    0    0  0.66592046244E+01 -0.27218970204E+02  0.85985729720E+01  0.29311308438E+02  0.00000000000E+00 0.  1.
</event>
<event>
 5    1  0.1043455E-009  0.9118800E+02  0.7561462E-02  0.1125453E+00
         25   -1    0    0    0    0  0.00000000000E+00  0.00000000000E+00  0.99999998245E-14  0.12509000000E+03  0.12509000000E+03 0.  0.
        -11    1    3    3    0    0  0.34368667758E+02 -0.22295956351E+02  0.12581003115E+02  0.42855532114E+02  0.51100000000E-03 0.  1.
         23    2    1    0    0    0  0.93215979355E+01  0.23179396202E+00 -0.27989003525E+02  0.95588640119E+02  0.90922262868E+02 0.  0.
         11    1    3    3    0    0 -0.25047069823E+02  0.22527750313E+02 -0.40570006640E+02  0.52733108005E+02  0.51100000000E-03 0. -1.
         22    1    1    0    0    0 -0.93215979355E+01 -0.23179396202E+00  0.27989003525E+02  0.29501359881E+02  0.00000000000E+00 0. -1.
</event>
<event>
 5    1  0.1043455E-009  0.9118800E+02  0.7561462E-02  0.1125453E+00
         25   -1    0    0    0    0  0.00000000000E+00  0.00000000000E+00  0.99999998245E-14  0.12509000000E+03  0.12509000000E+03 0.  0.
        -11    1    3    3    0    0 -0.15194512723E+01  0.33094861958E+02  0.30612520237E+02  0.45107704616E+02  0.51100000000E-03 0. -1.
         23    2    1    0    0    0 -0.20599783361E+02 -0.10626705333E+02  0.21089161860E+02  0.93752631114E+02  0.88360201177E+02 0.  0.
         11    1    3    3    0    0 -0.19080332089E+02 -0.43721567291E+02 -0.95233583769E+01  0.48644926498E+02  0.51100000000E-03 0.  1.
         22    1    1    0    0    0  0.20599783361E+02  0.10626705333E+02 -0.21089161860E+02  0.31337368886E+02  0.00000000000E+00 0. -1.
</event>
<event>
 5    1  0.1043455E-009  0.9118800E+02  0.7561462E-02  0.1125453E+00
         25   -1    0    0    0    0  0.00000000000E+00  0.00000000000E+00  0.99999998245E-14  0.12509000000E+03  0.12509000000E+03 0.  0.
        -11    1    3    3    0    0  0.17355991246E+02  0.23601550445E+02  0.23364455988E+02  0.37472141911E+02  0.51100000000E-03 0.  1.
         23    2    1    0    0    0  0.25300802741E+01 -0.19086273240E+02 -0.17998958062E+02  0.98733793450E+02  0.95150997606E+02 0.  0.
         11    1    3    3    0    0 -0.14825910972E+02 -0.42687823685E+02 -0.41363414050E+02  0.61261651539E+02  0.51100000000E-03 0. -1.
         22    1    1    0    0    0 -0.25300802741E+01  0.19086273240E+02  0.17998958062E+02  0.26356206550E+02  0.00000000000E+00 0. -1.
</event>
<event>
 5    1  0.1043455E-009  0.9118800E+02  0.7561462E-02  0.1125453E+00
         25   -1    0    0    0    0  0.00000000000E+00  0.00000000000E+00  0.99999998245E-14  0.12509000000E+03  0.12509000000E+03 0.  0.
        -11    1    3    3    0    0 -0.33367658311E+02 -0.15409305644E+02 -0.58438984559E+01  0.37215567590E+02  0.51100000000E-03 0.  1.
         23    2    1    0    0    0  0.24658915798E+02 -0.14205207590E+02 -0.87207884811E+01  0.95325890695E+02  0.90560053192E+02 0.  0.
         11    1    3    3    0    0  0.58026574109E+02  0.12040980542E+01 -0.28768900252E+01  0.58110323105E+02  0.51100000000E-03 0. -1.
         22    1    1    0    0    0 -0.24658915798E+02  0.14205207590E+02  0.87207884811E+01  0.29764109305E+02  0.00000000000E+00 0. -1.
</event>
<event>
 5    1  0.1043455E-009  0.9118800E+02  0.7561462E-02  0.1125453E+00
         25   -1    0    0    0    0  0.00000000000E+00  0.00000000000E+00  0.99999998245E-14  0.12509000000E+03  0.12509000000E+03 0.  0.
        -11    1    3    3    0    0 -0.19443277425E+02  0.54152479164E+02  0.10975898096E+02  0.58574758863E+02  0.51100000000E-03 0. -1.
         23    2    1    0    0    0 -0.20455160245E+02  0.20639467354E+02  0.15076962538E+02  0.92352926327E+02  0.86355932097E+02 0.  0.
         11    1    3    3    0    0 -0.10118828202E+01 -0.33513011809E+02  0.41010644420E+01  0.33778167463E+02  0.51100000000E-03 0.  1.
         22    1    1    0    0    0  0.20455160245E+02 -0.20639467354E+02 -0.15076962538E+02  0.32737073673E+02  0.00000000000E+00 0. -1.
</event>
<event>
 5    1  0.1043455E-009  0.9118800E+02  0.7561462E-02  0.1125453E+00
         25   -1    0    0    0    0  0.00000000000E+00  0.00000000000E+00  0.99999998245E-14  0.12509000000E+03  0.12509000000E+03 0.  0.
        -11    1    3    3    0    0  0.15965809707E+02 -0.35989644846E+02 -0.19780130265E+02  0.44061493045E+02  0.51100000000E-03 0. -1.
         23    2    1    0    0    0  0.25827759093E+02  0.12762915440E+02 -0.62143632825E+01  0.95618259955E+02  0.90963004433E+02 0.  0.
         11    1    3    3    0    0  0.98619493852E+01  0.48752560286E+02  0.13565766983E+02  0.51556766910E+02  0.51100000000E-03 0.  1.
         22    1    1    0    0    0 -0.25827759093E+02 -0.12762915440E+02  0.62143632825E+01  0.29471740045E+02  0.00000000000E+00 0.  1.
</event>
<event>
 5    1  0.1043455E-009  0.9118800E+02  0.7561462E-02  0.1125453E+00
         25   -1    0    0    0    0  0.00000000000E+00  0.00000000000E+00  0.99999998245E-14  0.12509000000E+03  0.12509000000E+03 0.  0.
        -11    1    3    3    0    0 -0.34561298231E+02  0.45301892755E+01 -0.18720273738E+02  0.39565826156E+02  0.51100000000E-03 0.  1.
         23    2    1    0    0    0 -0.49359580184E+01 -0.35950174623E+01  0.28524282937E+02  0.95919423228E+02  0.91376217930E+02 0.  0.
         11    1    3    3    0    0  0.29625340213E+02 -0.81252067378E+01  0.47244556676E+02  0.56353597072E+02  0.51100000000E-03 0. -1.
         22    1    1    0    0    0  0.49359580184E+01  0.35950174623E+01 -0.28524282937E+02  0.29170576772E+02  0.00000000000E+00 0. -1.
</event>
<event>
 5    1  0.1043455E-009  0.9118800E+02  0.7561462E-02  0.1125453E+00
         25   -1    0    0    0    0  0.00000000000E+00  0.00000000000E+00  0.99999998245E-14  0.12509000000E+03  0.12509000000E+03 0.  0.
        -11    1    3    3    0    0 -0.35880477006E+02  0.39846141358E+02  0.19788437799E+02  0.57155103727E+02  0.51100000000E-03 0.  1.
         23    2    1    0    0    0 -0.43743042565E+01  0.18276071346E+02  0.22902515143E+02  0.95464427914E+02  0.90751211978E+02 0.  0.
         11    1    3    3    0    0  0.31506172750E+02 -0.21570070011E+02  0.31140773438E+01  0.38309324186E+02  0.51100000000E-03 0. -1.
         22    1    1    0    0    0  0.43743042565E+01 -0.18276071346E+02 -0.22902515143E+02  0.29625572086E+02  0.00000000000E+00 0.  1.
</event>
<event>
 5    1  0.1043455E-009  0.9118800E+02  0.7561462E-02  0.1125453E+00
         25   -1    0    0    0    0  0.00000000000E+00  0.00000000000E+00  0.99999998245E-14  0.12509000000E+03  0.12509000000E+03 0.  0.
        -11    1    3    3    0    0  0.15195370069E+02  0.36325762705E+02  0.33424367135E+01  0.39517492216E+02  0.51100000000E-03 0.  1.
         23    2    1    0    0    0 -0.14535513519E+02  0.40840165107E+01 -0.27901191502E+02  0.93365611411E+02  0.87810594821E+02 0.  0.
         11    1    3    3    0    0 -0.29730883587E+02 -0.32241746194E+02 -0.31243628215E+02  0.53848119195E+02  0.51100000000E-03 0. -1.
         22    1    1    0    0    0  0.14535513519E+02 -0.40840165107E+01  0.27901191502E+02  0.31724388589E+02  0.00000000000E+00 0. -1.
</event>
<event>
 5    1  0.1043455E-009  0.9118800E+02  0.7561462E-02  0.1125453E+00
         25   -1    0    0    0    0  0.00000000000E+00  0.00000000000E+00  0.99999998245E-14  0.12509000000E+03  0.12509000000E+03 0.  0.
        -11    1    3    3    0    0 -0.19947517576E+02  0.34549222986E+02  0.10274783787E+02  0.41196158176E+02  0.51100000000E-03 0. -1.
         23    2    1    0    0    0 -0.68492337939E+01 -0.68338395807E+00 -0.28837401736E+02  0.95442491571E+02  0.90720970239E+02 0.  0.
         11    1    3    3    0    0  0.13098283782E+02 -0.35232606944E+02 -0.39112185523E+02  0.54246333394E+02  0.51100000000E-03 0.  1.
         22    1    1    0    0    0  0.68492337939E+01  0.68338395807E+00  0.28837401736E+02  0.29647508429E+02  0.00000000000E+00 0.  1.
</event>
<event>
 5    1  0.1043455E-009  0.9118800E+02  0.7561462E-02  0.1125453E+00
         25   -1    0    0    0    0  0.00000000000E+00  0.00000000000E+00  0.99999998245E-14  0.12509000000E+03  0.12509000000E+03 0.  0.
        -11    1    3    3    0    0  0.12084686729E+02  0.49307463122E+02 -0.95611826734E+01  0.51659285586E+02  0.51100000000E-03 0. -1.
         23    2    1    0    0    0 -0.16395391812E+02  0.14339408179E+02 -0.17118603616E+02  0.97386677287E+02  0.93363219865E+02 0.  0.
         11    1    3    3    0    0 -0.28480078541E+02 -0.34968054943E+02 -0.75574209428E+01  0.45727391701E+02  0.51100000000E-03 0.  1.
         22    1    1    0    0    0  0.16395391812E+02 -0.14339408179E+02  0.17118603616E+02  0.27703322713E+02  0.00000000000E+00 0. -1.
</event>
<event>
 5    1  0.1043455E-009  0.9118800E+02  0.7561462E-02  0.1125453E+00
         25   -1    0    0    0    0  0.00000000000E+00  0.00000000000E+00  0.99999998245E-14  0.12509000000E+03  0.12509000000E+03 0.  0.
        -11    1    3    3    0    0 -0.50301862694E+02  0.71507647385E+01 -0.22389962031E+02  0.55522258841E+02  0.51100000000E-03 0. -1.
         23    2    1    0    0    0 -0.24675674956E+02  0.12928980610E+02  0.83977479619E+01  0.95994130105E+02  0.91478431171E+02 0.  0.
         11    1    3    3    0    0  0.25626187739E+02  0.57782158718E+01  0.30787709993E+02  0.40471871263E+02  0.51100000000E-03 0.  1.
         22    1    1    0    0    0  0.24675674956E+02 -0.12928980610E+02 -0.83977479619E+01  0.29095869895E+02  0.00000000000E+00 0. -1.
</event>
<event>
 5    1  0.1043455E-009  0.9118800E+02  0.7561462E-02  0.1125453E+00
         25   -1    0    0    0    0  0.00000000000E+00  0.00000000000E+00  0.99999998245E-14  0.12509000000E+03  0.12509000000E+03 0.  0.
        -11    1    3    3    0    0 -0.16188291454E+02 -0.10442317332E+01  0.59477506743E+02  0.61650020347E+02  0.51100000000E-03 0.  1.
         23    2    1    0    0    0 -0.16661993406E+01 -0.45211471470E+01  0.30120485218E+02  0.94586547384E+02  0.89532978977E+02 0.  0.
         11    1    3    3    0    0  0.14522092113E+02 -0.34769154138E+01 -0.29357021526E+02  0.32936527037E+02  0.51100000000E-03 0. -1.
         22    1    1    0    0    0  0.16661993406E+01  0.45211471470E+01 -0.30120485218E+02  0.30503452616E+02  0.00000000000E+00 0.  1.
</event>
<event>
 5    1  0.1043455E-009  0.9118800E+02  0.7561462E-02  0.1125453E+00
         25   -1    0    0    0    0  0.00000000000E+00  0.00000000000E+00  0.99999998245E-14  0.12509000000E+03  0.12509000000E+03 0.  0.
        -11    1    3    3    0    0  0.69490961672E+01  0.42746219347E+02  0.32742361449E+02  0.54291725331E+02  0.51100000000E-03 0. -1.
         23    2    1    0    0    0  0.81289401287E+01  0.24489698793E+02 -0.72646834927E+01  0.98283272470E+02  0.94556866523E+02 0.  0.
         11    1    3    3    0    0  0.11798439616E+01 -0.18256520554E+02 -0.40007044941E+02  0.43991547139E+02  0.51100000000E-03 0.  1.
         22    1    1    0    0    0 -0.81289401287E+01 -0.24489698793E+02  0.72646834927E+01  0.26806727530E+02  0.00000000000E+00 0. -1.
</event>
<event>
 5    1  0.1043455E-009  0.9118800E+02  0.7561462E-02  0.1125453E+00
         25   -1    0    0    0    0  0.00000000000E+00  0.00000000000E+00  0.99999998245E-14  0.12509000000E+03  0.12509000000E+03 0.  0.
        -11    1    3    3    0    0  0.37768930518E+02  0.34776227929E+01  0.34885763965E+02  0.51532538269E+02  0.51100000000E-03 0.  1.
         23    2    1    0    0    0  0.26705796923E+02 -0.61682278464E+01 -0.77355994743E+01  0.96610426210E+02  0.92317324101E+02 0.  0.
         11    1    3    3    0    0 -0.11063133595E+02 -0.96458506393E+01 -0.42621363439E+02  0.45077887941E+02  0.51100000000E-03 0. -1.
         22    1    1    0    0    0 -0.26705796923E+02  0.61682278464E+01  0.77355994743E+01  0.28479573790E+02  0.00000000000E+00 0.  1.
</event>
<event>
 5    1  0.1043455E-009  0.9118800E+02  0.7561462E-02  0.1125453E+00
         25   -1    0    0    0    0  0.00000000000E+00  0.00000000000E+00  0.99999998245E-14  0.12509000000E+03  0.12509000000E+03 0.  0.
        -11    1    3    3    0    0 -0.24717980909E+02 -0.28401060264E+01  0.23880393655E+02  0.34486489874E+02  0.51100000000E-03 0. -1.
         23    2    1    0    0    0  0.10279352201E+02 -0.89553822103E-01 -0.26941389161E+02  0.96254057992E+02  0.91833175532E+02 0.  0.
         11    1    3    3    0    0  0.34997333111E+02  0.27505522043E+01 -0.50821782816E+02  0.61767568118E+02  0.51100000000E-03 0.  1.
         22    1    1    0    0    0 -0.10279352201E+02  0.89553822103E-01  0.26941389161E+02  0.28835942008E+02  0.00000000000E+00 0.  1.
</event>
<event>
 5    1  0.1043455E-009  0.9118800E+02  0.7561462E-02  0.1125453E+00
         25   -1    0    0    0    0  0.00000000000E+00  0.00000000000E+00  0.99999998245E-14  0.12509000000E+03  0.12509000000E+03 0.  0.
        -11    1    3    3    0    0  0.15467235192E+02 -0.29694717841E+02 -0.43613432419E+02  0.54983116679E+02  0.51100000000E-03 0.  1.
         23    2    1    0    0    0 -0.48028065419E+01  0.40678142635E+00 -0.31472874539E+02  0.93250178180E+02  0.87646000919E+02 0.  0.
         11    1    3    3    0    0 -0.20270041734E+02  0.30101499267E+02  0.12140557880E+02  0.38267061501E+02  0.51100000000E-03 0. -1.
         22    1    1    0    0    0  0.48028065419E+01 -0.40678142635E+00  0.31472874539E+02  0.31839821820E+02  0.00000000000E+00 0.  1.
</event>
<event>
 5    1  0.1043455E-009  0.9118800E+02  0.7561462E-02  0.1125453E+00
         25   -1    0    0    0    0  0.00000000000E+00  0.00000000000E+00  0.99999998245E-14  0.12509000000E+03  0.12509000000E+03 0.  0.
        -11    1    3    3    0    0 -0.27034555205E+02  0.46113401591E+02  0.25534745602E+02  0.59239650696E+02  0.51100000000E-03 0.  1.
         23    2    1    0    0    0 -0.94051922365E+00  0.28536432818E+02  0.72381697499E+01  0.95634887104E+02  0.90985866791E+02 0.  0.
         11    1    3    3    0    0  0.26094035981E+02 -0.17576968773E+02 -0.18296575852E+02  0.36395236408E+02  0.51100000000E-03 0. -1.
         22    1    1    0    0    0  0.94051922365E+00 -0.28536432818E+02 -0.72381697499E+01  0.29455112896E+02  0.00000000000E+00 0.  1.
</event>
<event>
 5    1  0.1043455E-009  0.9118800E+02  0.7561462E-02  0.1125453E+00
         25   -1    0    0    0    0  0.00000000000E+00  0.00000000000E+00  0.99999998245E-14  0.12509000000E+03  0.12509000000E+03 0.  0.
        -11    1    3    3    0    0  0.14082525171E+01 -0.36654093062E+02  0.18425409557E+02  0.41048768933E+02  0.51100000000E-03 0. -1.
         23    2    1    0    0    0  0.25268247284E+02 -0.33701995681E+01 -0.16375970626E+02  0.94791237981E+02  0.89818504876E+02 0.  0.
         11    1    3    3    0    0  0.23859994767E+02  0.33283893494E+02 -0.34801380184E+02  0.53742469048E+02  0.51100000000E-03 0.  1.
         22    1    1    0    0    0 -0.25268247284E+02  0.33701995681E+01  0.16375970626E+02  0.30298762019E+02  0.00000000000E+00 0.  1.
</event>
<event>
 5    1  0.1043455E-009  0.9118800E+02  0.7561462E-02  0.1125453E+00
         25   -1    0    0    0    0  0.00000000000E+00  0.00000000000E+00  0.99999998245E-14  0.12509000000E+03  0.12509000000E+03 0.  0.
        -11    1    3    3    0    0 -0.27434139539E+01  0.19402479932E+02  0.28601180841E+02  0.34670017211E+02  0.51100000000E-03 0.  1.
         23    2    1    0    0    0  0.11765024622E+02 -0.54250123141E+01 -0.25809104153E+02  0.96211696377E+02  0.91775454777E+02 0.  0.
         11    1    3    3    0    0  0.14508438575E+02 -0.24827492246E+02 -0.54410284995E+02  0.61541679166E+02  0.51100000000E-03 0. -1.
         22    1    1    0    0    0 -0.11765024622E+02  0.54250123141E+01  0.25809104153E+02  0.28878303623E+02  0.00000000000E+00 0. -1.
</event>
<event>
 5    1  0.1043455E-009  0.9118800E+02  0.7561462E-02  0.1125453E+00
         25   -1    0    0    0    0  0.00000000000E+00  0.00000000000E+00  0.99999998245E-14  0.12509000000E+03  0.12509000000E+03 0.  0.
        -11    1    3    3    0    0 -0.19796216233E+02  0.36327672227E+02 -0.11951670031E+02  0.43063120688E+02  0.51100000000E-03 0.  1.
         23    2    1    0    0    0  0.23878452293E+02  0.24520439167E+02 -0.13413390014E+02  0.88329267519E+02  0.80316300014E+02 0.  0.
         11    1    3    3    0    0  0.43674668526E+02 -0.11807233061E+02 -0.14617199834E+01  0.45266146831E+02  0.51100000000E-03 0. -1.
         22    1    1    0    0    0 -0.23878452293E+02 -0.24520439167E+02  0.13413390014E+02  0.36760732481E+02  0.00000000000E+00 0. -1.
</event>
<event>
 5    1  0.1043455E-009  0.9118800E+02  0.7561462E-02  0.1125453E+00
         25   -1    0    0    0    0  0.00000000000E+00  0.00000000000E+00  0.99999998245E-14  0.12509000000E+03  0.12509000000E+03 0.  0.
        -11    1    3    3    0    0  0.20211422138E+02  0.24581688832E+02  0.30799488056E+02  0.44287351190E+02  0.51100000000E-03 0.  1.
         23    2    1    0    0    0 -0.17242969658E+02  0.23154425479E+02 -0.46157039131E+01  0.95853855513E+02  0.91286414499E+02 0.  0.
         11    1    3    3    0    0 -0.37454391796E+02 -0.14272633536E+01 -0.35415191969E+02  0.51566504322E+02  0.51100000000E-03 0. -1.
         22    1    1    0    0    0  0.17242969658E+02 -0.23154425479E+02  0.46157039131E+01  0.29236144487E+02  0.00000000000E+00 0.  1.
</event>
<event>
 5    1  0.1043455E-009  0.9118800E+02  0.7561462E-02  0.1125453E+00
         25   -1    0    0    0    0  0.00000000000E+00  0.00000000000E+00  0.99999998245E-14  0.12509000000E+03  0.12509000000E+03 0.  0.
        -11    1    3    3    0    0 -0.12617624949E+02 -0.31181803464E+02  0.26768740364E+02  0.42989240370E+02  0.51100000000E-03 0. -1.
         23    2    1    0    0    0 -0.17068417423E+02 -0.79364202162E+01 -0.21358165069E+02  0.96620914060E+02  0.92331534047E+02 0.  0.
         11    1    3    3    0    0 -0.44507924739E+01  0.23245383248E+02 -0.48126905433E+02  0.53631673690E+02  0.51100000000E-03 0.  1.
         22    1    1    0    0    0  0.17068417423E+02  0.79364202162E+01  0.21358165069E+02  0.28469085940E+02  0.00000000000E+00 0.  1.
</event>
<event>
 5    1  0.1043455E-009  0.9118800E+02  0.7561462E-02  0.1125453E+00
         25   -1    0    0    0    0  0.00000000000E+00  0.00000000000E+00  0.99999998245E-14  0.12509000000E+03  0.12509000000E+03 0.  0.
        -11    1    3    3    0    0  0.32155293007E+00  0.35051562101E+02  0.22592141704E+02  0.41702760928E+02  0.51100000000E-03 0.  1.
         23    2    1    0    0    0 -0.27639273980E+02  0.32176893684E+01 -0.10380651308E+02  0.95390826398E+02  0.90649704072E+02 0.  0.
         11    1    3    3    0    0 -0.27960826910E+02 -0.31833872733E+02 -0.32972793012E+02  0.53688065470E+02  0.51100000000E-03 0. -1.
         22    1    1    0    0    0  0.27639273980E+02 -0.32176893684E+01  0.10380651308E+02  0.29699173602E+02  0.00000000000E+00 0. -1.
</event>
<event>
 5    1  0.1043455E-009  0.9118800E+02  0.7561462E-02  0.1125453E+00
         25   -1    0    0    0    0  0.00000000000E+00  0.00000000000E+00  0.99999998245E-14  0.12509000000E+03  0.12509000000E+03 0.  0.
        -11    1    3    3    0    0 -0.13402224937E+01 -0.84372186789E+00  0.50439557414E+02  0.50464413355E+02  0.51100000000E-03 0.  1.
         23    2    1    0    0    0  0.22058497229E+02 -0.13372848719E+02  0.13429619097E+02  0.96007959976E+02  0.91497340545E+02 0.  0.
         11    1    3    3    0    0  0.23398719723E+02 -0.12529126851E+02 -0.37009938317E+02  0.45543546621E+02  0.51100000000E-03 0. -1.
         22    1    1    0    0    0 -0.22058497229E+02  0.13372848719E+02 -0.13429619097E+02  0.29082040024E+02  0.00000000000E+00 0. -1.
</event>
<event>
 5    1  0.1043455E-009  0.9118800E+02  0.7561462E-02  0.1125453E+00
         25   -1    0    0    0    0  0.00000000000E+00  0.00000000000E+00  0.99999998245E-14  0.12509000000E+03  0.12509000000E+03 0.  0.
        -11    1    3    3    0    0 -0.84462628703E+00 -0.18997142875E+02  0.33382246367E+02  0.38418474771E+02  0.51100000000E-03 0.  1.
         23    2    1    0    0    0  0.54301062386E+00 -0.15959559499E+02 -0.24199283694E+02  0.96096764043E+02  0.91618668012E+02 0.  0.
         11    1    3    3    0    0  0.13876369109E+01  0.30375833756E+01 -0.57581530061E+02  0.57678289272E+02  0.51100000000E-03 0. -1.
         22    1    1    0    0    0 -0.54301062386E+00  0.15959559499E+02  0.24199283694E+02  0.28993235957E+02  0.00000000000E+00 0. -1.
</event>
<event>
 5    1  0.1043455E-009  0.9118800E+02  0.7561462E-02  0.1125453E+00
         25   -1    0    0    0    0  0.00000000000E+00  0.00000000000E+00  0.99999998245E-14  0.12509000000E+03  0.12509000000E+03 0.  0.
        -11    1    3    3    0    0  0.54867319966E+02 -0.24304628683E+02  0.30869060852E+01  0.60088823962E+02  0.51100000000E-03 0. -1.
         23    2    1    0    0    0  0.15280048075E+02 -0.11010887008E+02  0.11958129673E+02  0.10278044225E+03  0.10032997030E+03 0.  0.
         11    1    3    3    0    0 -0.39587271892E+02  0.13293741675E+02  0.88712235876E+01  0.42691618285E+02  0.51100000000E-03 0.  1.
         22    1    1    0    0    0 -0.15280048075E+02  0.11010887008E+02 -0.11958129673E+02  0.22309557753E+02  0.00000000000E+00 0. -1.
</event>
<event>
 5    1  0.1043455E-009  0.9118800E+02  0.7561462E-02  0.1125453E+00
         25   -1    0    0    0    0  0.00000000000E+00  0.00000000000E+00  0.99999998245E-14  0.12509000000E+03  0.12509000000E+03 0.  0.
        -11    1    3    3    0    0  0.24444847974E+02  0.42533672723E+02  0.29230564161E-01  0.49057769644E+02  0.51100000000E-03 0. -1.
         23    2    1    0    0    0 -0.67653732969E+01  0.16690163980E+02 -0.23165388075E+02  0.95747759898E+02  0.91140915463E+02 0.  0.
         11    1    3    3    0    0 -0.31210221271E+02 -0.25843508742E+02 -0.23194618639E+02  0.46689990254E+02  0.51100000000E-03 0.  1.
         22    1    1    0    0    0  0.67653732969E+01 -0.16690163980E+02  0.23165388075E+02  0.29342240102E+02  0.00000000000E+00 0. -1.
</event>
<event>
 5    1  0.1043455E-009  0.9118800E+02  0.7561462E-02  0.1125453E+00
         25   -1    0    0    0    0  0.00000000000E+00  0.00000000000E+00  0.99999998245E-14  0.12509000000E+03  0.12509000000E+03 0.  0.
        -11    1    3    3    0    0 -0.42113785051E+02  0.13443464648E+02 -0.82541908090E+00  0.44215143898E+02  0.51100000000E-03 0. -1.
         23    2    1    0    0    0 -0.50245991118E+01 -0.21556344447E+02 -0.16406449487E+02  0.97538336404E+02  0.93566195293E+02 0.  0.
         11    1    3    3    0    0  0.37089185939E+02 -0.34999809095E+02 -0.15581030406E+02  0.53323192506E+02  0.51100000000E-03 0.  1.
         22    1    1    0    0    0  0.50245991118E+01  0.21556344447E+02  0.16406449487E+02  0.27551663596E+02  0.00000000000E+00 0. -1.
</event>
<event>
 5    1  0.1043455E-009  0.9118800E+02  0.7561462E-02  0.1125453E+00
         25   -1    0    0    0    0  0.00000000000E+00  0.00000000000E+00  0.99999998245E-14  0.12509000000E+03  0.12509000000E+03 0.  0.
        -11    1    3    3    0    0 -0.30710496433E+02  0.22416973087E+02  0.85139550574E+01  0.38963350787E+02  0.51100000000E-03 0. -1.
         23    2    1    0    0    0  0.18612771335E+01 -0.33917282206E+01 -0.29531739489E+02  0.95305913475E+02  0.90532454584E+02 0.  0.
         11    1    3    3    0    0  0.32571773566E+02 -0.25808701308E+02 -0.38045694547E+02  0.56342562688E+02  0.51100000000E-03 0.  1.
         22    1    1    0    0    0 -0.18612771335E+01  0.33917282206E+01  0.29531739489E+02  0.29784086525E+02  0.00000000000E+00 0. -1.
</event>
<event>
 5    1  0.1043455E-009  0.9118800E+02  0.7561462E-02  0.1125453E+00
         25   -1    0    0    0    0  0.00000000000E+00  0.00000000000E+00  0.99999998245E-14  0.12509000000E+03  0.12509000000E+03 0.  0.
        -11    1    3    3    0    0  0.36237187767E+02 -0.14115919044E+02  0.40228383923E+02  0.55952799939E+02  0.51100000000E-03 0.  1.
         23    2    1    0    0    0  0.16258987133E+01 -0.72867535740E+01  0.32069978895E+02  0.92162445116E+02  0.86079570278E+02 0.  0.
         11    1    3    3    0    0 -0.34611289054E+02  0.68291654702E+01 -0.81584050279E+01  0.36209645177E+02  0.51100000000E-03 0. -1.
         22    1    1    0    0    0 -0.16258987133E+01  0.72867535740E+01 -0.32069978895E+02  0.32927554884E+02  0.00000000000E+00 0.  1.
</event>
<event>
 5    1  0.1043455E-009  0.9118800E+02  0.7561462E-02  0.1125453E+00
         25   -1    0    0    0    0  0.00000000000E+00  0.00000000000E+00  0.99999998245E-14  0.12509000000E+03  0.12509000000E+03 0.  0.
        -11    1    3    3    0    0 -0.47426982964E+01  0.46039992689E+02 -0.30531537882E+02  0.55446811627E+02  0.51100000000E-03 0.  1.
         23    2    1    0    0    0  0.17776681050E+02  0.22446774635E+02 -0.71496531931E+01  0.95577534473E+02  0.90906982540E+02 0.  0.
         11    1    3    3    0    0  0.22519379346E+02 -0.23593218053E+02  0.23381884689E+02  0.40130722846E+02  0.51100000000E-03 0. -1.
         22    1    1    0    0    0 -0.17776681050E+02 -0.22446774635E+02  0.71496531931E+01  0.29512465527E+02  0.00000000000E+00 0.  1.
</event>
<event>
 5    1  0.1043455E-009  0.9118800E+02  0.7561462E-02  0.1125453E+00
         25   -1    0    0    0    0  0.00000000000E+00  0.00000000000E+00  0.99999998245E-14  0.12509000000E+03  0.12509000000E+03 0.  0.
        -11    1    3    3    0    0 -0.13508337038E+02  0.25034251516E+01 -0.50926749319E+02  0.52747285271E+02  0.51100000000E-03 0. -1.
         23    2    1    0    0    0  0.12738967688E+02 -0.15115556259E+02 -0.19669228183E+02  0.97203804919E+02  0.93117881283E+02 0.  0.
         11    1    3    3    0    0  0.26247304726E+02 -0.17618981411E+02  0.31257521136E+02  0.44456519647E+02  0.51100000000E-03 0.  1.
         22    1    1    0    0    0 -0.12738967688E+02  0.15115556259E+02  0.19669228183E+02  0.27886195081E+02  0.00000000000E+00 0. -1.
</event>
<event>
 5    1  0.1043455E-009  0.9118800E+02  0.7561462E-02  0.1125453E+00
         25   -1    0    0    0    0  0.00000000000E+00  0.00000000000E+00  0.99999998245E-14  0.12509000000E+03  0.12509000000E+03 0.  0.
        -11    1    3    3    0    0 -0.10691958345E+02  0.28237434848E+02 -0.17834987350E+02  0.35067898056E+02  0.51100000000E-03 0.  1.
         23    2    1    0    0    0  0.83725970155E+01 -0.26964702401E+02  0.20983843902E+01  0.96777480271E+02  0.92543405569E+02 0.  0.
         11    1    3    3    0    0  0.19064555360E+02 -0.55202137249E+02  0.19933371740E+02  0.61709582215E+02  0.51100000000E-03 0. -1.
         22    1    1    0    0    0 -0.83725970155E+01  0.26964702401E+02 -0.20983843902E+01  0.28312519729E+02  0.00000000000E+00 0. -1.
</event>
<event>
 5    1  0.1043455E-009  0.9118800E+02  0.7561462E-02  0.1125453E+00
         25   -1    0    0    0    0  0.00000000000E+00  0.00000000000E+00  0.99999998245E-14  0.12509000000E+03  0.12509000000E+03 0.  0.
        -11    1    3    3    0    0 -0.75345735747E+01  0.64865068494E+01  0.61002570328E+02  0.61807428008E+02  0.51100000000E-03 0. -1.
         23    2    1    0    0    0 -0.22446054841E+01 -0.36769891519E+01  0.28408419524E+02  0.96356799641E+02  0.91973017968E+02 0.  0.
         11    1    3    3    0    0  0.52899680906E+01 -0.10163496001E+02 -0.32594150804E+02  0.34549371633E+02  0.51100000000E-03 0.  1.
         22    1    1    0    0    0  0.22446054841E+01  0.36769891519E+01 -0.28408419524E+02  0.28733200359E+02  0.00000000000E+00 0. -1.
</event>
<event>
 5    1  0.1043455E-009  0.9118800E+02  0.7561462E-02  0.1125453E+00
         25   -1    0    0    0    0  0.00000000000E+00  0.00000000000E+00  0.99999998245E-14  0.12509000000E+03  0.12509000000E+03 0.  0.
        -11    1    3    3    0    0  0.18702875375E+02 -0.27765444110E+01  0.30223919080E+02  0.35650975176E+02  0.51100000000E-03 0.  1.
         23    2    1    0    0    0 -0.25158001096E+02  0.32922583534E+01 -0.12167752436E+02  0.96950735910E+02  0.92777297923E+02 0.  0.
         11    1    3    3    0    0 -0.43860876471E+02  0.60688027644E+01 -0.42391671516E+02  0.61299760734E+02  0.51100000000E-03 0. -1.
         22    1    1    0    0    0  0.25158001096E+02 -0.32922583534E+01  0.12167752436E+02  0.28139264090E+02  0.00000000000E+00 0. -1.
</event>
<event>
 5    1  0.1043455E-009  0.9118800E+02  0.7561462E-02  0.1125453E+00
         25   -1    0    0    0    0  0.00000000000E+00  0.00000000000E+00  0.99999998245E-14  0.12509000000E+03  0.12509000000E+03 0.  0.
        -11    1    3    3    0    0  0.91925959781E+01 -0.11497963997E+02  0.47047797205E+02  0.49297081242E+02  0.51100000000E-03 0.  1.
         23    2    1    0    0    0 -0.22533283106E+02 -0.13205504058E+02  0.12828852155E+02  0.95991655845E+02  0.91475047741E+02 0.  0.
         11    1    3    3    0    0 -0.31725879084E+02 -0.17075400612E+01 -0.34218945050E+02  0.46694574603E+02  0.51100000000E-03 0. -1.
         22    1    1    0    0    0  0.22533283106E+02  0.13205504058E+02 -0.12828852155E+02  0.29098344155E+02  0.00000000000E+00 0. -1.
</event>
<event>
 5    1  0.1043455E-009  0.9118800E+02  0.7561462E-02  0.1125453E+00
         25   -1    0    0    0    0  0.00000000000E+00  0.00000000000E+00  0.99999998245E-14  0.12509000000E+03  0.12509000000E+03 0.  0.
        -11    1    3    3    0    0 -0.30560010478E+02 -0.13386988666E+02  0.31991898789E+02  0.46223449615E+02  0.51100000000E-03 0.  1.
         23    2    1    0    0    0 -0.16132355299E+02 -0.18825498828E+02 -0.15294207557E+02  0.95959859622E+02  0.91431556808E+02 0.  0.
         11    1    3    3    0    0  0.14427655179E+02 -0.54385101629E+01 -0.47286106346E+02  0.49736410007E+02  0.51100000000E-03 0. -1.
         22    1    1    0    0    0  0.16132355299E+02  0.18825498828E+02  0.15294207557E+02  0.29130140378E+02  0.00000000000E+00 0. -1.
</event>
<event>
 5    1  0.1043455E-009  0.9118800E+02  0.7561462E-02  0.1125453E+00
         25   -1    0    0    0    0  0.00000000000E+00  0.00000000000E+00  0.99999998245E-14  0.12509000000E+03  0.12509000000E+03 0.  0.
        -11    1    3    3    0    0  0.20483933975E+02 -0.39483038020E+02  0.16780060516E+02  0.47540217433E+02  0.51100000000E-03 0.  1.
         23    2    1    0    0    0  0.14556239967E+02  0.69298149131E+01  0.25290822087E+02  0.95097798704E+02  0.90244441269E+02 0.  0.
         11    1    3    3    0    0 -0.59276940081E+01  0.46412852933E+02  0.85107615714E+01  0.47557581272E+02  0.51100000000E-03 0. -1.
         22    1    1    0    0    0 -0.14556239967E+02 -0.69298149131E+01 -0.25290822087E+02  0.29992201296E+02  0.00000000000E+00 0.  1.
</event>
<event>
 5    1  0.1043455E-009  0.9118800E+02  0.7561462E-02  0.1125453E+00
         25   -1    0    0    0    0  0.00000000000E+00  0.00000000000E+00  0.99999998245E-14  0.12509000000E+03  0.12509000000E+03 0.  0.
        -11    1    3    3    0    0  0.36732443117E+02 -0.36966300823E+02  0.61724433571E+01  0.52477412580E+02  0.51100000000E-03 0.  1.
         23    2    1    0    0    0  0.33568890729E+01 -0.26003947740E+02 -0.16334263592E+02  0.94198542129E+02  0.88989230639E+02 0.  0.
         11    1    3    3    0    0 -0.33375554044E+02  0.10962353083E+02 -0.22506706949E+02  0.41721129548E+02  0.51100000000E-03 0. -1.
         22    1    1    0    0    0 -0.33568890729E+01  0.26003947740E+02  0.16334263592E+02  0.30891457871E+02  0.00000000000E+00 0.  1.
</event>
<event>
 5    1  0.1043455E-009  0.9118800E+02  0.7561462E-02  0.1125453E+00
         25   -1    0    0    0    0  0.00000000000E+00  0.00000000000E+00  0.99999998245E-14  0.12509000000E+03  0.12509000000E+03 0.  0.
        -11    1    3    3    0    0  0.33438597823E+02  0.33027721813E+02  0.37565455486E+02  0.60167546723E+02  0.51100000000E-03 0.  1.
         23    2    1    0    0    0  0.96065192172E+01  0.93271297915E+01  0.26233140351E+02  0.95637356412E+02  0.90989261604E+02 0.  0.
         11    1    3    3    0    0 -0.23832078606E+02 -0.23700592022E+02 -0.11332315134E+02  0.35469809690E+02  0.51100000000E-03 0. -1.
         22    1    1    0    0    0 -0.96065192172E+01 -0.93271297915E+01 -0.26233140351E+02  0.29452643588E+02  0.00000000000E+00 0.  1.
</event>
<event>
 5    1  0.1043455E-009  0.9118800E+02  0.7561462E-02  0.1125453E+00
         25   -1    0    0    0    0  0.00000000000E+00  0.00000000000E+00  0.99999998245E-14  0.12509000000E+03  0.12509000000E+03 0.  0.
        -11    1    3    3    0    0  0.14008843584E+02  0.44986499182E+02  0.36550346022E+02  0.59631875720E+02  0.51100000000E-03 0.  1.
         23    2    1    0    0    0  0.39571104539E+01  0.18577543566E+02  0.31455156774E+02  0.88344786220E+02  0.80340466245E+02 0.  0.
         11    1    3    3    0    0 -0.10051733130E+02 -0.26408955616E+02 -0.50951892484E+01  0.28712910500E+02  0.51100000000E-03 0. -1.
         22    1    1    0    0    0 -0.39571104539E+01 -0.18577543566E+02 -0.31455156774E+02  0.36745213780E+02  0.00000000000E+00 0.  1.
</event>
<event>
 5    1  0.1043455E-009  0.9118800E+02  0.7561462E-02  0.1125453E+00
         25   -1    0    0    0    0  0.00000000000E+00  0.00000000000E+00  0.99999998245E-14  0.12509000000E+03  0.12509000000E+03 0.  0.
        -11    1    3    3    0    0 -0.14754081939E+02  0.12532149762E+02  0.44388553613E+02  0.48426040553E+02  0.51100000000E-03 0.  1.
         23    2    1    0    0    0 -0.31503178422E+02 -0.71178274822E+00  0.50629520288E+01  0.93174637420E+02  0.87538121352E+02 0.  0.
         11    1    3    3    0    0 -0.16749096483E+02 -0.13243932511E+02 -0.39325601584E+02  0.44748596867E+02  0.51100000000E-03 0. -1.
         22    1    1    0    0    0  0.31503178422E+02  0.71178274822E+00 -0.50629520288E+01  0.31915362580E+02  0.00000000000E+00 0.  1.
</event>
<event>
 5    1  0.1043455E-009  0.9118800E+02  0.7561462E-02  0.1125453E+00
         25   -1    0    0    0    0  0.00000000000E+00  0.00000000000E+00  0.99999998245E-14  0.12509000000E+03  0.12509000000E+03 0.  0.
        -11    1    3    3    0    0  0.50943677412E+02  0.27192902082E+01 -0.96858078087E+00  0.51025395211E+02  0.51100000000E-03 0.  1.
         23    2    1    0    0    0  0.14414483305E+02  0.14274025443E+02  0.21572488842E+02  0.95477546435E+02  0.90769292534E+02 0.  0.
         11    1    3    3    0    0 -0.36529194107E+02  0.11554735235E+02  0.22541069623E+02  0.44452151224E+02  0.51100000000E-03 0. -1.
         22    1    1    0    0    0 -0.14414483305E+02 -0.14274025443E+02 -0.21572488842E+02  0.29612453565E+02  0.00000000000E+00 0.  1.
</event>
<event>
 5    1  0.1043455E-009  0.9118800E+02  0.7561462E-02  0.1125453E+00
         25   -1    0    0    0    0  0.00000000000E+00  0.00000000000E+00  0.99999998245E-14  0.12509000000E+03  0.12509000000E+03 0.  0.
        -11    1    3    3    0    0 -0.61810102126E+01 -0.10692384119E+02  0.59103402658E+02  0.60379998107E+02  0.51100000000E-03 0.  1.
         23    2    1    0    0    0 -0.48474212584E+00  0.63096483207E+01  0.28902695980E+02  0.95502629861E+02  0.90803853655E+02 0.  0.
         11    1    3    3    0    0  0.56962680868E+01  0.17002032440E+02 -0.30200706678E+02  0.35122631754E+02  0.51100000000E-03 0. -1.
         22    1    1    0    0    0  0.48474212584E+00 -0.63096483207E+01 -0.28902695980E+02  0.29587370139E+02  0.00000000000E+00 0.  1.
</event>
<event>
 5    1  0.1043455E-009  0.9118800E+02  0.7561462E-02  0.1125453E+00
         25   -1    0    0    0    0  0.00000000000E+00  0.00000000000E+00  0.99999998245E-14  0.12509000000E+03  0.12509000000E+03 0.  0.
        -11    1    3    3    0    0 -0.77993301695E+01  0.44816271148E+02 -0.26344167378E+02  0.52567507700E+02  0.51100000000E-03 0.  1.
         23    2    1    0    0    0  0.50154326274E+01  0.46605155987E+01 -0.29470903176E+02  0.94834271549E+02  0.89878417633E+02 0.  0.
         11    1    3    3    0    0  0.12814762797E+02 -0.40155755549E+02 -0.31267357977E+01  0.42266763849E+02  0.51100000000E-03 0. -1.
         22    1    1    0    0    0 -0.50154326274E+01 -0.46605155987E+01  0.29470903176E+02  0.30255728451E+02  0.00000000000E+00 0.  1.
</event>
<event>
 5    1  0.1043455E-009  0.9118800E+02  0.7561462E-02  0.1125453E+00
         25   -1    0    0    0    0  0.00000000000E+00  0.00000000000E+00  0.99999998245E-14  0.12509000000E+03  0.12509000000E+03 0.  0.
        -11    1    3    3    0    0 -0.19558795871E+02  0.19507078686E+02 -0.25695426074E+02  0.37727013348E+02  0.51100000000E-03 0.  1.
         23    2    1    0    0    0  0.28706431950E+02 -0.52862834287E+01 -0.75688996966E+01  0.94935526528E+02  0.90019230871E+02 0.  0.
         11    1    3    3    0    0  0.48265227820E+02 -0.24793362114E+02  0.18126526377E+02  0.57208513180E+02  0.51100000000E-03 0. -1.
         22    1    1    0    0    0 -0.28706431950E+02  0.52862834287E+01  0.75688996966E+01  0.30154473472E+02  0.00000000000E+00 0. -1.
</event>
<event>
 5    1  0.1043455E-009  0.9118800E+02  0.7561462E-02  0.1125453E+00
         25   -1    0    0    0    0  0.00000000000E+00  0.00000000000E+00  0.99999998245E-14  0.12509000000E+03  0.12509000000E+03 0.  0.
        -11    1    3    3    0    0 -0.18861211894E+02 -0.65403276000E+01 -0.22329317163E+02  0.29951954935E+02  0.51100000000E-03 0.  1.
         23    2    1    0    0    0  0.35943982607E+02  0.23651348291E-01 -0.98338418837E+00  0.89132560025E+02  0.81557806292E+02 0.  0.
         11    1    3    3    0    0  0.54805194502E+02  0.65639789483E+01  0.21345932974E+02  0.59180605090E+02  0.51100000000E-03 0. -1.
         22    1    1    0    0    0 -0.35943982607E+02 -0.23651348291E-01  0.98338418837E+00  0.35957439975E+02  0.00000000000E+00 0. -1.
</event>
<event>
 5    1  0.1043455E-009  0.9118800E+02  0.7561462E-02  0.1125453E+00
         25   -1    0    0    0    0  0.00000000000E+00  0.00000000000E+00  0.99999998245E-14  0.12509000000E+03  0.12509000000E+03 0.  0.
        -11    1    3    3    0    0 -0.45506475514E+02 -0.79059769015E+00 -0.39266671911E+02  0.60111029617E+02  0.51100000000E-03 0. -1.
         23    2    1    0    0    0 -0.23444528031E+02 -0.11421327311E+02 -0.13258291877E+02  0.95834660050E+02  0.91260107118E+02 0.  0.
         11    1    3    3    0    0  0.22061947483E+02 -0.10630729620E+02  0.26008380034E+02  0.35723630432E+02  0.51100000000E-03 0.  1.
         22    1    1    0    0    0  0.23444528031E+02  0.11421327311E+02  0.13258291877E+02  0.29255339950E+02  0.00000000000E+00 0. -1.
</event>
<event>
 5    1  0.1043455E-009  0.9118800E+02  0.7561462E-02  0.1125453E+00
         25   -1    0    0    0    0  0.00000000000E+00  0.00000000000E+00  0.99999998245E-14  0.12509000000E+03  0.12509000000E+03 0.  0.
        -11    1    3    3    0    0 -0.91414236171E-01  0.26233565382E+02  0.28588914649E+02  0.38801215835E+02  0.51100000000E-03 0.  1.
         23    2    1    0    0    0  0.53257813100E+01 -0.26748279483E+02  0.37735231232E+01  0.97556858540E+02  0.93590954529E+02 0.  0.
         11    1    3    3    0    0  0.54171955462E+01 -0.52981844865E+02 -0.24815391526E+02  0.58755642705E+02  0.51100000000E-03 0. -1.
         22    1    1    0    0    0 -0.53257813100E+01  0.26748279483E+02 -0.37735231232E+01  0.27533141460E+02  0.00000000000E+00 0. -1.
</event>
<event>
 5    1  0.1043455E-009  0.9118800E+02  0.7561462E-02  0.1125453E+00
         25   -1    0    0    0    0  0.00000000000E+00  0.00000000000E+00  0.99999998245E-14  0.12509000000E+03  0.12509000000E+03 0.  0.
        -11    1    3    3    0    0 -0.27654187187E+02 -0.56873235076E+00 -0.25611885413E+02  0.37696766441E+02  0.51100000000E-03 0. -1.
         23    2    1    0    0    0  0.25758128235E+02 -0.11516570806E+02 -0.14601975786E+02  0.93320041389E+02  0.87745654335E+02 0.  0.
         11    1    3    3    0    0  0.53412315422E+02 -0.10947838456E+02  0.11009909627E+02  0.55623274947E+02  0.51100000000E-03 0.  1.
         22    1    1    0    0    0 -0.25758128235E+02  0.11516570806E+02  0.14601975786E+02  0.31769958611E+02  0.00000000000E+00 0.  1.
</event>
<event>
 5    1  0.1043455E-009  0.9118800E+02  0.7561462E-02  0.1125453E+00
         25   -1    0    0    0    0  0.00000000000E+00  0.00000000000E+00  0.99999998245E-14  0.12509000000E+03  0.12509000000E+03 0.  0.
        -11    1    3    3    0    0  0.30780794744E+02 -0.46039655386E+01  0.20639643919E+02  0.37344995985E+02  0.51100000000E-03 0. -1.
         23    2    1    0    0    0 -0.21834113607E+02 -0.20702560073E+02  0.46474987546E+01  0.94644577433E+02  0.89614018335E+02 0.  0.
         11    1    3    3    0    0 -0.52614908352E+02 -0.16098594535E+02 -0.15992145165E+02  0.57299581448E+02  0.51100000000E-03 0.  1.
         22    1    1    0    0    0  0.21834113607E+02  0.20702560073E+02 -0.46474987546E+01  0.30445422567E+02  0.00000000000E+00 0.  1.
</event>
<event>
 5    1  0.1043455E-009  0.9118800E+02  0.7561462E-02  0.1125453E+00
         25   -1    0    0    0    0  0.00000000000E+00  0.00000000000E+00  0.99999998245E-14  0.12509000000E+03  0.12509000000E+03 0.  0.
        -11    1    3    3    0    0 -0.48749218402E+02  0.54143978273E+01 -0.29373904666E+02  0.57171918581E+02  0.51100000000E-03 0. -1.
         23    2    1    0    0    0 -0.10804773343E+02  0.40309817168E+01 -0.27593842370E+02  0.95183277054E+02  0.90362847197E+02 0.  0.
         11    1    3    3    0    0  0.37944445059E+02 -0.13834161105E+01  0.17800622960E+01  0.38011358473E+02  0.51100000000E-03 0.  1.
         22    1    1    0    0    0  0.10804773343E+02 -0.40309817168E+01  0.27593842370E+02  0.29906722946E+02  0.00000000000E+00 0. -1.
</event>
<event>
 5    1  0.1043455E-009  0.9118800E+02  0.7561462E-02  0.1125453E+00
         25   -1    0    0    0    0  0.00000000000E+00  0.00000000000E+00  0.99999998245E-14  0.12509000000E+03  0.12509000000E+03 0.  0.
        -11    1    3    3    0    0 -0.56780410498E+02  0.12377843426E+02 -0.11190536074E+02  0.59181535314E+02  0.51100000000E-03 0.  1.
         23    2    1    0    0    0 -0.24981219843E+02  0.12309259637E+02  0.77350336356E+01  0.96186540640E+02  0.91741161085E+02 0.  0.
         11    1    3    3    0    0  0.31799190655E+02 -0.68583788978E-01  0.18925569710E+02  0.37005005326E+02  0.51100000000E-03 0. -1.
         22    1    1    0    0    0  0.24981219843E+02 -0.12309259637E+02 -0.77350336356E+01  0.28903459360E+02  0.00000000000E+00 0.  1.
</event>
<event>
 5    1  0.1043455E-009  0.9118800E+02  0.7561462E-02  0.1125453E+00
         25   -1    0    0    0    0  0.00000000000E+00  0.00000000000E+00  0.99999998245E-14  0.12509000000E+03  0.12509000000E+03 0.  0.
        -11    1    3    3    0    0  0.73241208089E+01  0.21570056066E+02  0.55740184692E+02  0.60215265956E+02  0.51100000000E-03 0.  1.
         23    2    1    0    0    0 -0.74686005624E+01  0.67638975315E+01  0.30300613073E+02  0.93157924327E+02  0.87514235459E+02 0.  0.
         11    1    3    3    0    0 -0.14792721371E+02 -0.14806158535E+02 -0.25439571619E+02  0.32942658371E+02  0.51100000000E-03 0. -1.
         22    1    1    0    0    0  0.74686005624E+01 -0.67638975315E+01 -0.30300613073E+02  0.31932075673E+02  0.00000000000E+00 0.  1.
</event>
<event>
 5    1  0.1043455E-009  0.9118800E+02  0.7561462E-02  0.1125453E+00
         25   -1    0    0    0    0  0.00000000000E+00  0.00000000000E+00  0.99999998245E-14  0.12509000000E+03  0.12509000000E+03 0.  0.
        -11    1    3    3    0    0 -0.10796300567E+02  0.11160347816E+02  0.35442306458E+02  0.38694580455E+02  0.51100000000E-03 0. -1.
         23    2    1    0    0    0 -0.13629673914E+02  0.33636483771E+01 -0.23228413748E+02  0.97948862465E+02  0.94113433215E+02 0.  0.
         11    1    3    3    0    0 -0.28333733475E+01 -0.77966994384E+01 -0.58670720207E+02  0.59254282010E+02  0.51100000000E-03 0.  1.
         22    1    1    0    0    0  0.13629673914E+02 -0.33636483771E+01  0.23228413748E+02  0.27141137535E+02  0.00000000000E+00 0.  1.
</event>
<event>
 5    1  0.1043455E-009  0.9118800E+02  0.7561462E-02  0.1125453E+00
         25   -1    0    0    0    0  0.00000000000E+00  0.00000000000E+00  0.99999998245E-14  0.12509000000E+03  0.12509000000E+03 0.  0.
        -11    1    3    3    0    0 -0.46442097454E+02  0.29295966239E+02  0.57068388497E+01  0.55205887944E+02  0.51100000000E-03 0.  1.
         23    2    1    0    0    0 -0.22106230376E+02  0.58277919230E+01 -0.17573897296E+02  0.96254423947E+02  0.91833674015E+02 0.  0.
         11    1    3    3    0    0  0.24335867078E+02 -0.23468174316E+02 -0.23280736146E+02  0.41048536002E+02  0.51100000000E-03 0. -1.
         22    1    1    0    0    0  0.22106230376E+02 -0.58277919230E+01  0.17573897296E+02  0.28835576053E+02  0.00000000000E+00 0.  1.
</event>
<event>
 5    1  0.1043455E-009  0.9118800E+02  0.7561462E-02  0.1125453E+00
         25   -1    0    0    0    0  0.00000000000E+00  0.00000000000E+00  0.99999998245E-14  0.12509000000E+03  0.12509000000E+03 0.  0.
        -11    1    3    3    0    0  0.17971710685E+02 -0.45338249564E+02  0.77894613346E+01  0.49388409234E+02  0.51100000000E-03 0.  1.
         23    2    1    0    0    0  0.26988497572E+02 -0.71069052887E+00  0.12835046564E+02  0.95196480594E+02  0.90381123112E+02 0.  0.
         11    1    3    3    0    0  0.90167868861E+01  0.44627559035E+02  0.50455852292E+01  0.45808071360E+02  0.51100000000E-03 0. -1.
         22    1    1    0    0    0 -0.26988497572E+02  0.71069052887E+00 -0.12835046564E+02  0.29893519406E+02  0.00000000000E+00 0.  1.
</event>
<event>
 5    1  0.1043455E-009  0.9118800E+02  0.7561462E-02  0.1125453E+00
         25   -1    0    0    0    0  0.00000000000E+00  0.00000000000E+00  0.99999998245E-14  0.12509000000E+03  0.12509000000E+03 0.  0.
        -11    1    3    3    0    0  0.26976400352E+02 -0.53848764911E+02  0.15968349558E+02  0.62308938735E+02  0.51100000000E-03 0. -1.
         23    2    1    0    0    0  0.13483794275E+02 -0.29044611232E+02  0.46373714127E+01  0.92734052118E+02  0.86906254429E+02 0.  0.
         11    1    3    3    0    0 -0.13492606076E+02  0.24804153679E+02 -0.11330978145E+02  0.30425113384E+02  0.51100000000E-03 0.  1.
         22    1    1    0    0    0 -0.13483794275E+02  0.29044611232E+02 -0.46373714127E+01  0.32355947882E+02  0.00000000000E+00 0. -1.
</event>
<event>
 5    1  0.1043455E-009  0.9118800E+02  0.7561462E-02  0.1125453E+00
         25   -1    0    0    0    0  0.00000000000E+00  0.00000000000E+00  0.99999998245E-14  0.12509000000E+03  0.12509000000E+03 0.  0.
        -11    1    3    3    0    0  0.27058660322E+02  0.34484546796E+01 -0.16633866902E+02  0.31949154394E+02  0.51100000000E-03 0. -1.
         23    2    1    0    0    0 -0.27196436092E+02 -0.28888713081E+01  0.13775489455E+02  0.94467200923E+02  0.89366079846E+02 0.  0.
         11    1    3    3    0    0 -0.54255096414E+02 -0.63373259877E+01  0.30409356357E+02  0.62518046530E+02  0.51100000000E-03 0.  1.
         22    1    1    0    0    0  0.27196436092E+02  0.28888713081E+01 -0.13775489455E+02  0.30622799077E+02  0.00000000000E+00 0.  1.
</event>
<event>
 5    1  0.1043455E-009  0.9118800E+02  0.7561462E-02  0.1125453E+00
         25   -1    0    0    0    0  0.00000000000E+00  0.00000000000E+00  0.99999998245E-14  0.12509000000E+03  0.12509000000E+03 0.  0.
        -11    1    3    3    0    0  0.54750756246E+01 -0.31419638276E+02  0.34927300613E+02  0.47297848269E+02  0.51100000000E-03 0.  1.
         23    2    1    0    0    0  0.11121275699E+01 -0.27131976889E+02 -0.12555521770E+02  0.95173079627E+02  0.90348729715E+02 0.  0.
         11    1    3    3    0    0 -0.43629480547E+01  0.42876613868E+01 -0.47482822383E+02  0.47875231358E+02  0.51100000000E-03 0. -1.
         22    1    1    0    0    0 -0.11121275699E+01  0.27131976889E+02  0.12555521770E+02  0.29916920373E+02  0.00000000000E+00 0. -1.
</event>
<event>
 5    1  0.1043455E-009  0.9118800E+02  0.7561462E-02  0.1125453E+00
         25   -1    0    0    0    0  0.00000000000E+00  0.00000000000E+00  0.99999998245E-14  0.12509000000E+03  0.12509000000E+03 0.  0.
        -11    1    3    3    0    0 -0.20021536663E+02 -0.67813417770E+01 -0.83903256446E+01  0.22743044900E+02  0.51100000000E-03 0.  1.
         23    2    1    0    0    0 -0.24966951013E+02  0.41395921911E+02  0.11983789669E+02  0.75284556437E+02  0.56455134659E+02 0.  0.
         11    1    3    3    0    0 -0.49454143501E+01  0.48177263688E+02  0.20374115314E+02  0.52541511537E+02  0.51100000000E-03 0. -1.
         22    1    1    0    0    0  0.24966951013E+02 -0.41395921911E+02 -0.11983789669E+02  0.49805443563E+02  0.00000000000E+00 0. -1.
</event>
<event>
 5    1  0.1043455E-009  0.9118800E+02  0.7561462E-02  0.1125453E+00
         25   -1    0    0    0    0  0.00000000000E+00  0.00000000000E+00  0.99999998245E-14  0.12509000000E+03  0.12509000000E+03 0.  0.
        -11    1    3    3    0    0 -0.75632629547E+01  0.20755953875E+02  0.22625516212E+02  0.31621615264E+02  0.51100000000E-03 0.  1.
         23    2    1    0    0    0 -0.12661551423E+02 -0.23955089276E+01 -0.31687360404E+02  0.90882659314E+02  0.84199261322E+02 0.  0.
         11    1    3    3    0    0 -0.50982884685E+01 -0.23151462803E+02 -0.54312876616E+02  0.59261044049E+02  0.51100000000E-03 0. -1.
         22    1    1    0    0    0  0.12661551423E+02  0.23955089276E+01  0.31687360404E+02  0.34207340686E+02  0.00000000000E+00 0. -1.
</event>
<event>
 5    1  0.1043455E-009  0.9118800E+02  0.7561462E-02  0.1125453E+00
         25   -1    0    0    0    0  0.00000000000E+00  0.00000000000E+00  0.99999998245E-14  0.12509000000E+03  0.12509000000E+03 0.  0.
        -11    1    3    3    0    0 -0.23244424585E+02  0.11891788839E+02  0.22945365942E+02  0.34759282711E+02  0.51100000000E-03 0.  1.
         23    2    1    0    0    0  0.55398937131E+01 -0.21136023180E+02 -0.19532908396E+02  0.95782041889E+02  0.91187955014E+02 0.  0.
         11    1    3    3    0    0  0.28784318298E+02 -0.33027812019E+02 -0.42478274338E+02  0.61022759178E+02  0.51100000000E-03 0. -1.
         22    1    1    0    0    0 -0.55398937131E+01  0.21136023180E+02  0.19532908396E+02  0.29307958111E+02  0.00000000000E+00 0. -1.
</event>
<event>
 5    1  0.1043455E-009  0.9118800E+02  0.7561462E-02  0.1125453E+00
         25   -1    0    0    0    0  0.00000000000E+00  0.00000000000E+00  0.99999998245E-14  0.12509000000E+03  0.12509000000E+03 0.  0.
        -11    1    3    3    0    0  0.31610308549E+02 -0.11779044511E+02 -0.84658789593E+00  0.33744247028E+02  0.51100000000E-03 0. -1.
         23    2    1    0    0    0 -0.26085186228E+02  0.93871570692E+01  0.89124409006E+01  0.95969779170E+02  0.91445127003E+02 0.  0.
         11    1    3    3    0    0 -0.57695494778E+02  0.21166201580E+02  0.97590287965E+01  0.62225532141E+02  0.51100000000E-03 0.  1.
         22    1    1    0    0    0  0.26085186228E+02 -0.93871570692E+01 -0.89124409006E+01  0.29120220830E+02  0.00000000000E+00 0.  1.
</event>
<event>
 5    1  0.1043455E-009  0.9118800E+02  0.7561462E-02  0.1125453E+00
         25   -1    0    0    0    0  0.00000000000E+00  0.00000000000E+00  0.99999998245E-14  0.12509000000E+03  0.12509000000E+03 0.  0.
        -11    1    3    3    0    0 -0.16510112979E+02  0.28053312672E+02  0.55316310277E+01  0.33017739543E+02  0.51100000000E-03 0. -1.
         23    2    1    0    0    0  0.19092808655E+02 -0.22845140050E+02  0.93295250150E+00  0.95302315185E+02  0.90527482639E+02 0.  0.
         11    1    3    3    0    0  0.35602921634E+02 -0.50898452722E+02 -0.45986785262E+01  0.62284575642E+02  0.51100000000E-03 0.  1.
         22    1    1    0    0    0 -0.19092808655E+02  0.22845140050E+02 -0.93295250150E+00  0.29787684815E+02  0.00000000000E+00 0.  1.
</event>
<event>
 5    1  0.1043455E-009  0.9118800E+02  0.7561462E-02  0.1125453E+00
         25   -1    0    0    0    0  0.00000000000E+00  0.00000000000E+00  0.99999998245E-14  0.12509000000E+03  0.12509000000E+03 0.  0.
        -11    1    3    3    0    0  0.25334370986E+02  0.53190465680E+02  0.98883003226E+01  0.59739722766E+02  0.51100000000E-03 0.  1.
         23    2    1    0    0    0  0.17749725184E+02  0.18995770126E+02  0.14904327826E+02  0.95122834389E+02  0.90279137166E+02 0.  0.
         11    1    3    3    0    0 -0.75846458017E+01 -0.34194695555E+02  0.50160275032E+01  0.35383111624E+02  0.51100000000E-03 0. -1.
         22    1    1    0    0    0 -0.17749725184E+02 -0.18995770126E+02 -0.14904327826E+02  0.29967165611E+02  0.00000000000E+00 0.  1.
</event>
<event>
 5    1  0.1043455E-009  0.9118800E+02  0.7561462E-02  0.1125453E+00
         25   -1    0    0    0    0  0.00000000000E+00  0.00000000000E+00  0.99999998245E-14  0.12509000000E+03  0.12509000000E+03 0.  0.
        -11    1    3    3    0    0 -0.21914546416E+01  0.18092265771E+02 -0.31457409708E+02  0.36355208430E+02  0.51100000000E-03 0.  1.
         23    2    1    0    0    0  0.13620904630E+01 -0.27081404485E+02  0.83996811509E+01  0.96703164975E+02  0.92442899746E+02 0.  0.
         11    1    3    3    0    0  0.35535451045E+01 -0.45173670256E+02  0.39857090859E+02  0.60347956545E+02  0.51100000000E-03 0. -1.
         22    1    1    0    0    0 -0.13620904630E+01  0.27081404485E+02 -0.83996811509E+01  0.28386835025E+02  0.00000000000E+00 0. -1.
</event>
<event>
 5    1  0.1043455E-009  0.9118800E+02  0.7561462E-02  0.1125453E+00
         25   -1    0    0    0    0  0.00000000000E+00  0.00000000000E+00  0.99999998245E-14  0.12509000000E+03  0.12509000000E+03 0.  0.
        -11    1    3    3    0    0  0.42683517805E+02 -0.27811818870E+02 -0.69058038998E+01  0.51410797395E+02  0.51100000000E-03 0.  1.
         23    2    1    0    0    0  0.11189663251E+01 -0.20275927444E+02 -0.20937497708E+02  0.95922481600E+02  0.91380404610E+02 0.  0.
         11    1    3    3    0    0 -0.41564551480E+02  0.75358914266E+01 -0.14031693809E+02  0.44511684204E+02  0.51100000000E-03 0. -1.
         22    1    1    0    0    0 -0.11189663251E+01  0.20275927444E+02  0.20937497708E+02  0.29167518400E+02  0.00000000000E+00 0.  1.
</event>
<event>
 5    1  0.1043455E-009  0.9118800E+02  0.7561462E-02  0.1125453E+00
         25   -1    0    0    0    0  0.00000000000E+00  0.00000000000E+00  0.99999998245E-14  0.12509000000E+03  0.12509000000E+03 0.  0.
        -11    1    3    3    0    0  0.51644482530E+02  0.32700864401E+02 -0.47105007417E+01  0.61308139148E+02  0.51100000000E-03 0. -1.
         23    2    1    0    0    0  0.29744739962E+02  0.87731942336E+01 -0.46112811342E-01  0.94078379294E+02  0.88820160052E+02 0.  0.
         11    1    3    3    0    0 -0.21899742568E+02 -0.23927670167E+02  0.46643879304E+01  0.32770240145E+02  0.51100000000E-03 0.  1.
         22    1    1    0    0    0 -0.29744739962E+02 -0.87731942336E+01  0.46112811342E-01  0.31011620706E+02  0.00000000000E+00 0. -1.
</event>
<event>
 5    1  0.1043455E-009  0.9118800E+02  0.7561462E-02  0.1125453E+00
         25   -1    0    0    0    0  0.00000000000E+00  0.00000000000E+00  0.99999998245E-14  0.12509000000E+03  0.12509000000E+03 0.  0.
        -11    1    3    3    0    0  0.28335244199E+02 -0.44272074998E+02 -0.90398085686E+01  0.53334986900E+02  0.51100000000E-03 0.  1.
         23    2    1    0    0    0 -0.31215114538E+01 -0.24899135370E+02  0.13483192732E+02  0.96603033469E+02  0.92307306391E+02 0.  0.
         11    1    3    3    0    0 -0.31456755652E+02  0.19372939628E+02  0.22523001300E+02  0.43268046568E+02  0.51100000000E-03 0. -1.
         22    1    1    0    0    0  0.31215114538E+01  0.24899135370E+02 -0.13483192732E+02  0.28486966531E+02  0.00000000000E+00 0. -1.
</event>
<event>
 5    1  0.1043455E-009  0.9118800E+02  0.7561462E-02  0.1125453E+00
         25   -1    0    0    0    0  0.00000000000E+00  0.00000000000E+00  0.99999998245E-14  0.12509000000E+03  0.12509000000E+03 0.  0.
        -11    1    3    3    0    0 -0.22956755245E+02 -0.20507213219E+02  0.29797478346E+02  0.42842130216E+02  0.51100000000E-03 0.  1.
         23    2    1    0    0    0  0.72354949743E+01 -0.22995703692E+02 -0.14834301308E+02  0.96784324401E+02  0.92552656248E+02 0.  0.
         11    1    3    3    0    0  0.30192250219E+02 -0.24884904731E+01 -0.44631779654E+02  0.53942194185E+02  0.51100000000E-03 0. -1.
         22    1    1    0    0    0 -0.72354949743E+01  0.22995703692E+02  0.14834301308E+02  0.28305675599E+02  0.00000000000E+00 0. -1.
</event>
<event>
 5    1  0.1043455E-009  0.9118800E+02  0.7561462E-02  0.1125453E+00
         25   -1    0    0    0    0  0.00000000000E+00  0.00000000000E+00  0.99999998245E-14  0.12509000000E+03  0.12509000000E+03 0.  0.
        -11    1    3    3    0    0 -0.24727054272E+02 -0.10316383006E+02 -0.19379075436E+02  0.33066652935E+02  0.51100000000E-03 0.  1.
         23    2    1    0    0    0  0.29376461645E+02  0.87981469132E+01  0.21398188289E+01  0.94349754189E+02  0.89201532515E+02 0.  0.
         11    1    3    3    0    0  0.54103515917E+02  0.19114529920E+02  0.21518894265E+02  0.61283101254E+02  0.51100000000E-03 0. -1.
         22    1    1    0    0    0 -0.29376461645E+02 -0.87981469132E+01 -0.21398188289E+01  0.30740245811E+02  0.00000000000E+00 0. -1.
</event>
<event>
 5    1  0.1043455E-009  0.9118800E+02  0.7561462E-02  0.1125453E+00
         25   -1    0    0    0    0  0.00000000000E+00  0.00000000000E+00  0.99999998245E-14  0.12509000000E+03  0.12509000000E+03 0.  0.
        -11    1    3    3    0    0 -0.98145466538E+01 -0.42181476036E+02  0.17379345785E+02  0.46665232312E+02  0.51100000000E-03 0. -1.
         23    2    1    0    0    0 -0.12492265779E+02 -0.16540006964E+02 -0.22719076511E+02  0.94336382779E+02  0.89182779412E+02 0.  0.
         11    1    3    3    0    0 -0.26777191253E+01  0.25641469072E+02 -0.40098422296E+02  0.47671150467E+02  0.51100000000E-03 0.  1.
         22    1    1    0    0    0  0.12492265779E+02  0.16540006964E+02  0.22719076511E+02  0.30753617221E+02  0.00000000000E+00 0.  1.
</event>
<event>
 5    1  0.1043455E-009  0.9118800E+02  0.7561462E-02  0.1125453E+00
         25   -1    0    0    0    0  0.00000000000E+00  0.00000000000E+00  0.99999998245E-14  0.12509000000E+03  0.12509000000E+03 0.  0.
        -11    1    3    3    0    0 -0.57340013710E+02  0.37087920293E+01  0.19393732367E+02  0.60644448765E+02  0.51100000000E-03 0.  1.
         23    2    1    0    0    0 -0.25691261989E+02 -0.82798547933E+01  0.13172453291E+02  0.95054846202E+02  0.90184884115E+02 0.  0.
         11    1    3    3    0    0  0.31648751722E+02 -0.11988646823E+02 -0.62212790752E+01  0.34410397437E+02  0.51100000000E-03 0. -1.
         22    1    1    0    0    0  0.25691261989E+02  0.82798547933E+01 -0.13172453291E+02  0.30035153798E+02  0.00000000000E+00 0.  1.
</event>
<event>
 5    1  0.1043455E-009  0.9118800E+02  0.7561462E-02  0.1125453E+00
         25   -1    0    0    0    0  0.00000000000E+00  0.00000000000E+00  0.99999998245E-14  0.12509000000E+03  0.12509000000E+03 0.  0.
        -11    1    3    3    0    0 -0.24867626080E+02  0.39422503896E+02  0.36072864456E+02  0.58938817350E+02  0.51100000000E-03 0. -1.
         23    2    1    0    0    0 -0.15666673273E+02  0.53254536533E+01  0.23337503012E+02  0.96481537006E+02  0.92142513685E+02 0.  0.
         11    1    3    3    0    0  0.92009528073E+01 -0.34097050242E+02 -0.12735361445E+02  0.37542719656E+02  0.51100000000E-03 0.  1.
         22    1    1    0    0    0  0.15666673273E+02 -0.53254536533E+01 -0.23337503012E+02  0.28608462994E+02  0.00000000000E+00 0. -1.
</event>
<event>
 5    1  0.1043455E-009  0.9118800E+02  0.7561462E-02  0.1125453E+00
         25   -1    0    0    0    0  0.00000000000E+00  0.00000000000E+00  0.99999998245E-14  0.12509000000E+03  0.12509000000E+03 0.  0.
        -11    1    3    3    0    0 -0.23704130065E+02 -0.32879960581E+02  0.15322115627E+02  0.43332953021E+02  0.51100000000E-03 0. -1.
         23    2    1    0    0    0  0.24626341346E+02 -0.14596347768E+02  0.60194303673E+01  0.95836904468E+02  0.91263183485E+02 0.  0.
         11    1    3    3    0    0  0.48330471411E+02  0.18283612814E+02 -0.93026852598E+01  0.52503951447E+02  0.51100000000E-03 0.  1.
         22    1    1    0    0    0 -0.24626341346E+02  0.14596347768E+02 -0.60194303673E+01  0.29253095532E+02  0.00000000000E+00 0.  1.
</event>
<event>
 5    1  0.1043455E-009  0.9118800E+02  0.7561462E-02  0.1125453E+00
         25   -1    0    0    0    0  0.00000000000E+00  0.00000000000E+00  0.99999998245E-14  0.12509000000E+03  0.12509000000E+03 0.  0.
        -11    1    3    3    0    0  0.28838389469E+01  0.11498306854E+02  0.36545157190E+02  0.38419735839E+02  0.51100000000E-03 0.  1.
         23    2    1    0    0    0  0.25386887965E+02 -0.18735729086E+00 -0.14813446275E+02  0.95696678074E+02  0.91070779180E+02 0.  0.
         11    1    3    3    0    0  0.22503049018E+02 -0.11685664145E+02 -0.51358603465E+02  0.57276942235E+02  0.51100000000E-03 0. -1.
         22    1    1    0    0    0 -0.25386887965E+02  0.18735729086E+00  0.14813446275E+02  0.29393321926E+02  0.00000000000E+00 0. -1.
</event>
<event>
 5    1  0.1043455E-009  0.9118800E+02  0.7561462E-02  0.1125453E+00
         25   -1    0    0    0    0  0.00000000000E+00  0.00000000000E+00  0.99999998245E-14  0.12509000000E+03  0.12509000000E+03 0.  0.
        -11    1    3    3    0    0 -0.19173417663E+02  0.43499866929E+02 -0.12314015320E+02  0.49106958176E+02  0.51100000000E-03 0. -1.
         23    2    1    0    0    0  0.14931242810E+02  0.14159936030E+02 -0.21829242403E+02  0.95090639605E+02  0.90234517323E+02 0.  0.
         11    1    3    3    0    0  0.34104660473E+02 -0.29339930899E+02 -0.95152270829E+01  0.45983681430E+02  0.51100000000E-03 0.  1.
         22    1    1    0    0    0 -0.14931242810E+02 -0.14159936030E+02  0.21829242403E+02  0.29999360395E+02  0.00000000000E+00 0. -1.
</event>
<event>
 5    1  0.1043455E-009  0.9118800E+02  0.7561462E-02  0.1125453E+00
         25   -1    0    0    0    0  0.00000000000E+00  0.00000000000E+00  0.99999998245E-14  0.12509000000E+03  0.12509000000E+03 0.  0.
        -11    1    3    3    0    0 -0.40390380671E+02  0.83989905700E+01  0.42760288052E+02  0.59416901029E+02  0.51100000000E-03 0.  1.
         23    2    1    0    0    0 -0.88611146612E+01  0.11027438784E+02  0.26643020864E+02  0.94924219388E+02  0.90003517190E+02 0.  0.
         11    1    3    3    0    0  0.31529266010E+02  0.26284482143E+01 -0.16117267188E+02  0.35507318359E+02  0.51100000000E-03 0. -1.
         22    1    1    0    0    0  0.88611146612E+01 -0.11027438784E+02 -0.26643020864E+02  0.30165780612E+02  0.00000000000E+00 0.  1.
</event>
<event>
 5    1  0.1043455E-009  0.9118800E+02  0.7561462E-02  0.1125453E+00
         25   -1    0    0    0    0  0.00000000000E+00  0.00000000000E+00  0.99999998245E-14  0.12509000000E+03  0.12509000000E+03 0.  0.
        -11    1    3    3    0    0 -0.45186149247E+02  0.28679389206E+02  0.66123285143E+01  0.53926045077E+02  0.51100000000E-03 0. -1.
         23    2    1    0    0    0 -0.28692501137E+02 -0.87125528062E+01  0.25406514386E+01  0.94996427470E+02  0.90103818590E+02 0.  0.
         11    1    3    3    0    0  0.16493648110E+02 -0.37391942012E+02 -0.40716770756E+01  0.41070382393E+02  0.51100000000E-03 0.  1.
         22    1    1    0    0    0  0.28692501137E+02  0.87125528062E+01 -0.25406514386E+01  0.30093572530E+02  0.00000000000E+00 0. -1.
</event>
<event>
 5    1  0.1043455E-009  0.9118800E+02  0.7561462E-02  0.1125453E+00
         25   -1    0    0    0    0  0.00000000000E+00  0.00000000000E+00  0.99999998245E-14  0.12509000000E+03  0.12509000000E+03 0.  0.
        -11    1    3    3    0    0 -0.12118430886E+02 -0.32075856363E+02  0.11368044521E+02  0.36124082896E+02  0.51100000000E-03 0.  1.
         23    2    1    0    0    0  0.42068636735E+01  0.25547275440E+02  0.13168628482E+02  0.96042215911E+02  0.91544161347E+02 0.  0.
         11    1    3    3    0    0  0.16325294559E+02  0.57623131803E+02  0.18005839615E+01  0.59918133016E+02  0.51100000000E-03 0. -1.
         22    1    1    0    0    0 -0.42068636735E+01 -0.25547275440E+02 -0.13168628482E+02  0.29047784089E+02  0.00000000000E+00 0. -1.
</event>
<event>
 5    1  0.1043455E-009  0.9118800E+02  0.7561462E-02  0.1125453E+00
         25   -1    0    0    0    0  0.00000000000E+00  0.00000000000E+00  0.99999998245E-14  0.12509000000E+03  0.12509000000E+03 0.  0.
        -11    1    3    3    0    0  0.34380908255E+02  0.17411926116E+01  0.13501371119E+02  0.36977907276E+02  0.51100000000E-03 0. -1.
         23    2    1    0    0    0 -0.85452726855E+01 -0.13186292987E+02 -0.24341019188E+02  0.96117854358E+02  0.91647458793E+02 0.  0.
         11    1    3    3    0    0 -0.42926180941E+02 -0.14927485598E+02 -0.37842390307E+02  0.59139947082E+02  0.51100000000E-03 0.  1.
         22    1    1    0    0    0  0.85452726855E+01  0.13186292987E+02  0.24341019188E+02  0.28972145642E+02  0.00000000000E+00 0.  1.
</event>
<event>
 5    1  0.1043455E-009  0.9118800E+02  0.7561462E-02  0.1125453E+00
         25   -1    0    0    0    0  0.00000000000E+00  0.00000000000E+00  0.99999998245E-14  0.12509000000E+03  0.12509000000E+03 0.  0.
        -11    1    3    3    0    0 -0.39336172955E+02  0.10432360063E+01 -0.43294993155E+02  0.58505378186E+02  0.51100000000E-03 0. -1.
         23    2    1    0    0    0 -0.25240302423E+02  0.10605463120E+02 -0.99296402190E+01  0.95967045663E+02  0.91441387698E+02 0.  0.
         11    1    3    3    0    0  0.14095870532E+02  0.95622271139E+01  0.33365352936E+02  0.37461667478E+02  0.51100000000E-03 0.  1.
         22    1    1    0    0    0  0.25240302423E+02 -0.10605463120E+02  0.99296402190E+01  0.29122954337E+02  0.00000000000E+00 0. -1.
</event>
<event>
 5    1  0.1043455E-009  0.9118800E+02  0.7561462E-02  0.1125453E+00
         25   -1    0    0    0    0  0.00000000000E+00  0.00000000000E+00  0.99999998245E-14  0.12509000000E+03  0.12509000000E+03 0.  0.
        -11    1    3    3    0    0 -0.25089704746E+02  0.87579247277E+01 -0.43220734787E+01  0.26923499943E+02  0.51100000000E-03 0.  1.
         23    2    1    0    0    0  0.11824907712E+02 -0.90450720730E+01 -0.40718432506E+02  0.81735271112E+02  0.69289407754E+02 0.  0.
         11    1    3    3    0    0  0.36914612458E+02 -0.17802996801E+02 -0.36396359027E+02  0.54811771169E+02  0.51100000000E-03 0. -1.
         22    1    1    0    0    0 -0.11824907712E+02  0.90450720730E+01  0.40718432506E+02  0.43354728888E+02  0.00000000000E+00 0. -1.
</event>
<event>
 5    1  0.1043455E-009  0.9118800E+02  0.7561462E-02  0.1125453E+00
         25   -1    0    0    0    0  0.00000000000E+00  0.00000000000E+00  0.99999998245E-14  0.12509000000E+03  0.12509000000E+03 0.  0.
        -11    1    3    3    0    0 -0.29000816337E+02 -0.74116883117E+01  0.22588810703E+02  0.37499797880E+02  0.51100000000E-03 0.  1.
         23    2    1    0    0    0  0.65700594486E+01  0.28992719604E+02 -0.42825032018E+01  0.95055298322E+02  0.90185511221E+02 0.  0.
         11    1    3    3    0    0  0.35570875786E+02  0.36404407916E+02 -0.26871313905E+02  0.57555500442E+02  0.51100000000E-03 0. -1.
         22    1    1    0    0    0 -0.65700594486E+01 -0.28992719604E+02  0.42825032018E+01  0.30034701678E+02  0.00000000000E+00 0. -1.
</event>
<event>
 5    1  0.1043455E-009  0.9118800E+02  0.7561462E-02  0.1125453E+00
         25   -1    0    0    0    0  0.00000000000E+00  0.00000000000E+00  0.99999998245E-14  0.12509000000E+03  0.12509000000E+03 0.  0.
        -11    1    3    3    0    0  0.40654738878E+02  0.28632483798E+02 -0.98233647622E+01  0.50686540789E+02  0.51100000000E-03 0. -1.
         23    2    1    0    0    0 -0.29737513829E+01  0.19141802342E+02 -0.20801766777E+02  0.96665269654E+02  0.92391607098E+02 0.  0.
         11    1    3    3    0    0 -0.43628490261E+02 -0.94906814562E+01 -0.10978402015E+02  0.45978728865E+02  0.51100000000E-03 0.  1.
         22    1    1    0    0    0  0.29737513829E+01 -0.19141802342E+02  0.20801766777E+02  0.28424730346E+02  0.00000000000E+00 0. -1.
</event>
<event>
 5    1  0.1043455E-009  0.9118800E+02  0.7561462E-02  0.1125453E+00
         25   -1    0    0    0    0  0.00000000000E+00  0.00000000000E+00  0.99999998245E-14  0.12509000000E+03  0.12509000000E+03 0.  0.
        -11    1    3    3    0    0  0.42621801247E+01 -0.58929587188E+01  0.52353708336E+02  0.52856446330E+02  0.51100000000E-03 0.  1.
         23    2    1    0    0    0  0.24255796601E+02  0.20875075965E+01  0.13560047987E+02  0.97222882134E+02  0.93143505154E+02 0.  0.
         11    1    3    3    0    0  0.19993616477E+02  0.79804663154E+01 -0.38793660349E+02  0.44366435804E+02  0.51100000000E-03 0. -1.
         22    1    1    0    0    0 -0.24255796601E+02 -0.20875075965E+01 -0.13560047987E+02  0.27867117866E+02  0.00000000000E+00 0. -1.
</event>
<event>
 5    1  0.1043455E-009  0.9118800E+02  0.7561462E-02  0.1125453E+00
         25   -1    0    0    0    0  0.00000000000E+00  0.00000000000E+00  0.99999998245E-14  0.12509000000E+03  0.12509000000E+03 0.  0.
        -11    1    3    3    0    0  0.25725596446E+02 -0.15807096283E+02  0.12049099672E+02  0.32509251124E+02  0.51100000000E-03 0.  1.
         23    2    1    0    0    0 -0.25729890161E+02  0.80056541435E+01 -0.13792192154E+02  0.94818853501E+02  0.89856956708E+02 0.  0.
         11    1    3    3    0    0 -0.51455486607E+02  0.23812750427E+02 -0.25841291827E+02  0.62309602377E+02  0.51100000000E-03 0. -1.
         22    1    1    0    0    0  0.25729890161E+02 -0.80056541435E+01  0.13792192154E+02  0.30271146499E+02  0.00000000000E+00 0. -1.
</event>
<event>
 5    1  0.1043455E-009  0.9118800E+02  0.7561462E-02  0.1125453E+00
         25   -1    0    0    0    0  0.00000000000E+00  0.00000000000E+00  0.99999998245E-14  0.12509000000E+03  0.12509000000E+03 0.  0.
        -11    1    3    3    0    0  0.91432541226E+01 -0.10439325038E+02  0.36980538187E+02  0.39498592482E+02  0.51100000000E-03 0.  1.
         23    2    1    0    0    0 -0.28912289790E+02  0.59880758207E+01 -0.75763647985E+00  0.95554401716E+02  0.90875145785E+02 0.  0.
         11    1    3    3    0    0 -0.38055543913E+02  0.16427400859E+02 -0.37738174667E+02  0.56055809234E+02  0.51100000000E-03 0. -1.
         22    1    1    0    0    0  0.28912289790E+02 -0.59880758207E+01  0.75763647985E+00  0.29535598284E+02  0.00000000000E+00 0.  1.
</event>
<event>
 5    1  0.1043455E-009  0.9118800E+02  0.7561462E-02  0.1125453E+00
         25   -1    0    0    0    0  0.00000000000E+00  0.00000000000E+00  0.99999998245E-14  0.12509000000E+03  0.12509000000E+03 0.  0.
        -11    1    3    3    0    0 -0.76630864140E+01 -0.49176985144E+02  0.17013544938E+02  0.52598093814E+02  0.51100000000E-03 0. -1.
         23    2    1    0    0    0  0.15152338277E+02 -0.11206951260E+02  0.20757104142E+02  0.97053479457E+02  0.92915721978E+02 0.  0.
         11    1    3    3    0    0  0.22815424691E+02  0.37970033884E+02  0.37435592039E+01  0.44455385644E+02  0.51100000000E-03 0.  1.
         22    1    1    0    0    0 -0.15152338277E+02  0.11206951260E+02 -0.20757104142E+02  0.28036520543E+02  0.00000000000E+00 0. -1.
</event>
<event>
 5    1  0.1043455E-009  0.9118800E+02  0.7561462E-02  0.1125453E+00
         25   -1    0    0    0    0  0.00000000000E+00  0.00000000000E+00  0.99999998245E-14  0.12509000000E+03  0.12509000000E+03 0.  0.
        -11    1    3    3    0    0  0.44215931241E+02 -0.25125518293E+02 -0.20473569500E+02  0.54822507179E+02  0.51100000000E-03 0. -1.
         23    2    1    0    0    0  0.24968039305E+01 -0.23386912942E+02 -0.15612880356E+02  0.96859807655E+02  0.92654619848E+02 0.  0.
         11    1    3    3    0    0 -0.41719127311E+02  0.17386053514E+01  0.48606891437E+01  0.42037300476E+02  0.51100000000E-03 0.  1.
         22    1    1    0    0    0 -0.24968039305E+01  0.23386912942E+02  0.15612880356E+02  0.28230192345E+02  0.00000000000E+00 0. -1.
</event>
<event>
 5    1  0.1043455E-009  0.9118800E+02  0.7561462E-02  0.1125453E+00
         25   -1    0    0    0    0  0.00000000000E+00  0.00000000000E+00  0.99999998245E-14  0.12509000000E+03  0.12509000000E+03 0.  0.
        -11    1    3    3    0    0  0.55701452061E+02  0.10922201674E+02 -0.25053711909E+02  0.62045424745E+02  0.51100000000E-03 0.  1.
         23    2    1    0    0    0  0.24169759792E+02  0.81296363776E+01 -0.16061569498E+02  0.94952941571E+02  0.90043427423E+02 0.  0.
         11    1    3    3    0    0 -0.31531692268E+02 -0.27925652968E+01  0.89921424112E+01  0.32907516826E+02  0.51100000000E-03 0. -1.
         22    1    1    0    0    0 -0.24169759792E+02 -0.81296363776E+01  0.16061569498E+02  0.30137058429E+02  0.00000000000E+00 0.  1.
</event>
<event>
 5    1  0.1043455E-009  0.9118800E+02  0.7561462E-02  0.1125453E+00
         25   -1    0    0    0    0  0.00000000000E+00  0.00000000000E+00  0.99999998245E-14  0.12509000000E+03  0.12509000000E+03 0.  0.
        -11    1    3    3    0    0 -0.15092264213E+02 -0.27292266872E+02 -0.28583526697E+02  0.42304400112E+02  0.51100000000E-03 0. -1.
         23    2    1    0    0    0  0.27740451673E+02 -0.17507116206E+01 -0.91500620403E+01  0.95827032182E+02  0.91249651020E+02 0.  0.
         11    1    3    3    0    0  0.42832715886E+02  0.25541555251E+02  0.19433464657E+02  0.53522632070E+02  0.51100000000E-03 0.  1.
         22    1    1    0    0    0 -0.27740451673E+02  0.17507116206E+01  0.91500620403E+01  0.29262967818E+02  0.00000000000E+00 0.  1.
</event>
<event>
 5    1  0.1043455E-009  0.9118800E+02  0.7561462E-02  0.1125453E+00
         25   -1    0    0    0    0  0.00000000000E+00  0.00000000000E+00  0.99999998245E-14  0.12509000000E+03  0.12509000000E+03 0.  0.
        -11    1    3    3    0    0 -0.14595913355E+02  0.24982761543E+02 -0.19607782910E+02  0.34952027293E+02  0.51100000000E-03 0.  1.
         23    2    1    0    0    0 -0.20303290184E+02 -0.68121758998E+01  0.26355025625E+02  0.91130955425E+02  0.84567336059E+02 0.  0.
         11    1    3    3    0    0 -0.57073768286E+01 -0.31794937443E+02  0.45962808536E+02  0.56178928131E+02  0.51100000000E-03 0. -1.
         22    1    1    0    0    0  0.20303290184E+02  0.68121758998E+01 -0.26355025625E+02  0.33959044575E+02  0.00000000000E+00 0. -1.
</event>
<event>
 5    1  0.1043455E-009  0.9118800E+02  0.7561462E-02  0.1125453E+00
         25   -1    0    0    0    0  0.00000000000E+00  0.00000000000E+00  0.99999998245E-14  0.12509000000E+03  0.12509000000E+03 0.  0.
        -11    1    3    3    0    0 -0.40712334811E+02 -0.48971411794E+01 -0.13529155042E+02  0.43180021235E+02  0.51100000000E-03 0.  1.
         23    2    1    0    0    0 -0.48374444253E+01  0.27756127505E+02  0.73187992932E+01  0.95980408698E+02  0.91459666237E+02 0.  0.
         11    1    3    3    0    0  0.35874890386E+02  0.32653268685E+02  0.20847954335E+02  0.52800387463E+02  0.51100000000E-03 0. -1.
         22    1    1    0    0    0  0.48374444253E+01 -0.27756127505E+02 -0.73187992932E+01  0.29109591302E+02  0.00000000000E+00 0. -1.
</event>
<event>
 5    1  0.1043455E-009  0.9118800E+02  0.7561462E-02  0.1125453E+00
         25   -1    0    0    0    0  0.00000000000E+00  0.00000000000E+00  0.99999998245E-14  0.12509000000E+03  0.12509000000E+03 0.  0.
        -11    1    3    3    0    0  0.48061448779E+02 -0.31480412027E+01  0.23207501820E+02  0.53464017462E+02  0.51100000000E-03 0. -1.
         23    2    1    0    0    0  0.76185054367E+01 -0.15591429547E+02  0.23620820504E+02  0.95779976771E+02  0.91185122079E+02 0.  0.
         11    1    3    3    0    0 -0.40442943343E+02 -0.12443388344E+02  0.41331868404E+00  0.42315959310E+02  0.51100000000E-03 0.  1.
         22    1    1    0    0    0 -0.76185054367E+01  0.15591429547E+02 -0.23620820504E+02  0.29310023229E+02  0.00000000000E+00 0. -1.
</event>
<event>
 5    1  0.1043455E-009  0.9118800E+02  0.7561462E-02  0.1125453E+00
         25   -1    0    0    0    0  0.00000000000E+00  0.00000000000E+00  0.99999998245E-14  0.12509000000E+03  0.12509000000E+03 0.  0.
        -11    1    3    3    0    0 -0.22647412341E+02 -0.33662189370E+02 -0.52411311382E+01  0.40908651099E+02  0.51100000000E-03 0.  1.
         23    2    1    0    0    0  0.97958820657E+01 -0.26704456841E+01  0.27056260838E+02  0.96191352348E+02  0.91747721663E+02 0.  0.
         11    1    3    3    0    0  0.32443294406E+02  0.30991743686E+02  0.32297391976E+02  0.55282701249E+02  0.51100000000E-03 0. -1.
         22    1    1    0    0    0 -0.97958820657E+01  0.26704456841E+01 -0.27056260838E+02  0.28898647652E+02  0.00000000000E+00 0. -1.
</event>
<event>
 5    1  0.1043455E-009  0.9118800E+02  0.7561462E-02  0.1125453E+00
         25   -1    0    0    0    0  0.00000000000E+00  0.00000000000E+00  0.99999998245E-14  0.12509000000E+03  0.12509000000E+03 0.  0.
        -11    1    3    3    0    0  0.38571726283E+02 -0.27382072831E+02  0.22667871621E+02  0.52453678470E+02  0.51100000000E-03 0. -1.
         23    2    1    0    0    0  0.27730407592E+02  0.93218857086E+01  0.24632461276E+01  0.95731174412E+02  0.91118149205E+02 0.  0.
         11    1    3    3    0    0 -0.10841318691E+02  0.36703958539E+02 -0.20204625494E+02  0.43277495942E+02  0.51100000000E-03 0.  1.
         22    1    1    0    0    0 -0.27730407592E+02 -0.93218857086E+01 -0.24632461276E+01  0.29358825588E+02  0.00000000000E+00 0.  1.
</event>
<event>
 5    1  0.1043455E-009  0.9118800E+02  0.7561462E-02  0.1125453E+00
         25   -1    0    0    0    0  0.00000000000E+00  0.00000000000E+00  0.99999998245E-14  0.12509000000E+03  0.12509000000E+03 0.  0.
        -11    1    3    3    0    0  0.15319359402E+02 -0.22833720517E+02 -0.28132107477E+02  0.39337984653E+02  0.51100000000E-03 0. -1.
         23    2    1    0    0    0  0.35755504490E+02  0.13623691589E+02 -0.69238816482E+01  0.86205540239E+02  0.76937597811E+02 0.  0.
         11    1    3    3    0    0  0.20436145088E+02  0.36457412106E+02  0.21208225829E+02  0.46867555586E+02  0.51100000000E-03 0.  1.
         22    1    1    0    0    0 -0.35755504490E+02 -0.13623691589E+02  0.69238816482E+01  0.38884459761E+02  0.00000000000E+00 0.  1.
</event>
<event>
 5    1  0.1043455E-009  0.9118800E+02  0.7561462E-02  0.1125453E+00
         25   -1    0    0    0    0  0.00000000000E+00  0.00000000000E+00  0.99999998245E-14  0.12509000000E+03  0.12509000000E+03 0.  0.
        -11    1    3    3    0    0 -0.19873326581E+02  0.12189522699E+02 -0.35248471885E+02  0.42260955307E+02  0.51100000000E-03 0.  1.
         23    2    1    0    0    0 -0.13820179437E+02  0.29337544722E+02  0.10103373153E+02  0.91122853534E+02  0.84555351085E+02 0.  0.
         11    1    3    3    0    0  0.60531471437E+01  0.17148022023E+02  0.45351845038E+02  0.48861898226E+02  0.51100000000E-03 0. -1.
         22    1    1    0    0    0  0.13820179437E+02 -0.29337544722E+02 -0.10103373153E+02  0.33967146466E+02  0.00000000000E+00 0.  1.
</event>
<event>
 5    1  0.1043455E-009  0.9118800E+02  0.7561462E-02  0.1125453E+00
         25   -1    0    0    0    0  0.00000000000E+00  0.00000000000E+00  0.99999998245E-14  0.12509000000E+03  0.12509000000E+03 0.  0.
        -11    1    3    3    0    0  0.79111305428E+01  0.24998134867E+02 -0.55972345334E+02  0.61809353465E+02  0.51100000000E-03 0.  1.
         23    2    1    0    0    0  0.24347983616E+01  0.49942975196E+01 -0.27498349014E+02  0.97035937028E+02  0.92892102062E+02 0.  0.
         11    1    3    3    0    0 -0.54763321812E+01 -0.20003837347E+02  0.28473996321E+02  0.35226583563E+02  0.51100000000E-03 0. -1.
         22    1    1    0    0    0 -0.24347983616E+01 -0.49942975196E+01  0.27498349014E+02  0.28054062972E+02  0.00000000000E+00 0.  1.
</event>
<event>
 5    1  0.1043455E-009  0.9118800E+02  0.7561462E-02  0.1125453E+00
         25   -1    0    0    0    0  0.00000000000E+00  0.00000000000E+00  0.99999998245E-14  0.12509000000E+03  0.12509000000E+03 0.  0.
        -11    1    3    3    0    0  0.32320046427E+01  0.13151574452E+02 -0.46447167555E+02  0.48381289139E+02  0.51100000000E-03 0.  1.
         23    2    1    0    0    0 -0.19288984018E+02  0.21163192098E+02 -0.52982295736E+01  0.95969271286E+02  0.91444432254E+02 0.  0.
         11    1    3    3    0    0 -0.22520988660E+02  0.80116176461E+01  0.41148937982E+02  0.47587982147E+02  0.51100000000E-03 0. -1.
         22    1    1    0    0    0  0.19288984018E+02 -0.21163192098E+02  0.52982295736E+01  0.29120728714E+02  0.00000000000E+00 0.  1.
</event>
<event>
 5    1  0.1043455E-009  0.9118800E+02  0.7561462E-02  0.1125453E+00
         25   -1    0    0    0    0  0.00000000000E+00  0.00000000000E+00  0.99999998245E-14  0.12509000000E+03  0.12509000000E+03 0.  0.
        -11    1    3    3    0    0 -0.27627054937E+02  0.14706644861E+02 -0.35288958345E+01  0.31495915190E+02  0.51100000000E-03 0. -1.
         23    2    1    0    0    0  0.19952544119E+02  0.30947482428E+02  0.15347236782E+02  0.85197790707E+02  0.75281306969E+02 0.  0.
         11    1    3    3    0    0  0.47579599056E+02  0.16240837567E+02  0.18876132616E+02  0.53701875517E+02  0.51100000000E-03 0.  1.
         22    1    1    0    0    0 -0.19952544119E+02 -0.30947482428E+02 -0.15347236782E+02  0.39892209293E+02  0.00000000000E+00 0.  1.
</event>
<event>
 5    1  0.1043455E-009  0.9118800E+02  0.7561462E-02  0.1125453E+00
         25   -1    0    0    0    0  0.00000000000E+00  0.00000000000E+00  0.99999998245E-14  0.12509000000E+03  0.12509000000E+03 0.  0.
        -11    1    3    3    0    0  0.86570982173E+01  0.20923843491E+02 -0.51308292587E+02  0.56082915976E+02  0.51100000000E-03 0. -1.
         23    2    1    0    0    0 -0.62189333091E+01  0.25666902638E+02 -0.17260388650E+02  0.93540260875E+02  0.88059039091E+02 0.  0.
         11    1    3    3    0    0 -0.14876031526E+02  0.47430591473E+01  0.34047903937E+02  0.37457344898E+02  0.51100000000E-03 0.  1.
         22    1    1    0    0    0  0.62189333091E+01 -0.25666902638E+02  0.17260388650E+02  0.31549739125E+02  0.00000000000E+00 0. -1.
</event>
<event>
 5    1  0.1043455E-009  0.9118800E+02  0.7561462E-02  0.1125453E+00
         25   -1    0    0    0    0  0.00000000000E+00  0.00000000000E+00  0.99999998245E-14  0.12509000000E+03  0.12509000000E+03 0.  0.
        -11    1    3    3    0    0 -0.35482287102E+02  0.14354474868E+02  0.28501063645E+02  0.47721633207E+02  0.51100000000E-03 0.  1.
         23    2    1    0    0    0 -0.96423175518E+01 -0.23802517554E+02  0.12712291517E+02  0.96434520850E+02  0.92078663795E+02 0.  0.
         11    1    3    3    0    0  0.25839969551E+02 -0.38156992421E+02 -0.15788772128E+02  0.48712887644E+02  0.51100000000E-03 0. -1.
         22    1    1    0    0    0  0.96423175518E+01  0.23802517554E+02 -0.12712291517E+02  0.28655479150E+02  0.00000000000E+00 0.  1.
</event>
<event>
 5    1  0.1043455E-009  0.9118800E+02  0.7561462E-02  0.1125453E+00
         25   -1    0    0    0    0  0.00000000000E+00  0.00000000000E+00  0.99999998245E-14  0.12509000000E+03  0.12509000000E+03 0.  0.
        -11    1    3    3    0    0 -0.49405241945E+02  0.12229439656E+02  0.90609693435E+01  0.51696598453E+02  0.51100000000E-03 0. -1.
         23    2    1    0    0    0 -0.98261170025E+01  0.11441211956E+02  0.26219667906E+02  0.94842274607E+02  0.89889555350E+02 0.  0.
         11    1    3    3    0    0  0.39579124942E+02 -0.78822769965E+00  0.17158698562E+02  0.43145676153E+02  0.51100000000E-03 0.  1.
         22    1    1    0    0    0  0.98261170025E+01 -0.11441211956E+02 -0.26219667906E+02  0.30247725393E+02  0.00000000000E+00 0. -1.
</event>
<event>
 5    1  0.1043455E-009  0.9118800E+02  0.7561462E-02  0.1125453E+00
         25   -1    0    0    0    0  0.00000000000E+00  0.00000000000E+00  0.99999998245E-14  0.12509000000E+03  0.12509000000E+03 0.  0.
        -11    1    3    3    0    0 -0.34769258929E+02  0.68162842815E+01  0.54555396949E+01  0.35848654250E+02  0.51100000000E-03 0.  1.
         23    2    1    0    0    0  0.15937959929E+02 -0.22303060472E+02  0.12899400845E+02  0.94794132043E+02  0.89822535338E+02 0.  0.
         11    1    3    3    0    0  0.50707218858E+02 -0.29119344754E+02  0.74438611496E+01  0.58945477793E+02  0.51100000000E-03 0. -1.
         22    1    1    0    0    0 -0.15937959929E+02  0.22303060472E+02 -0.12899400845E+02  0.30295867957E+02  0.00000000000E+00 0. -1.
</event>
<event>
 5    1  0.1043455E-009  0.9118800E+02  0.7561462E-02  0.1125453E+00
         25   -1    0    0    0    0  0.00000000000E+00  0.00000000000E+00  0.99999998245E-14  0.12509000000E+03  0.12509000000E+03 0.  0.
        -11    1    3    3    0    0 -0.66723037832E+01  0.16264395064E+02  0.12016509764E+02  0.21294287772E+02  0.51100000000E-03 0. -1.
         23    2    1    0    0    0  0.17134232579E+02 -0.31435371956E+02 -0.20593735232E+02  0.83787863652E+02  0.72900889079E+02 0.  0.
         11    1    3    3    0    0  0.23806536362E+02 -0.47699767019E+02 -0.32610244996E+02  0.62493575880E+02  0.51100000000E-03 0.  1.
         22    1    1    0    0    0 -0.17134232579E+02  0.31435371956E+02  0.20593735232E+02  0.41302136348E+02  0.00000000000E+00 0.  1.
</event>
<event>
 5    1  0.1043455E-009  0.9118800E+02  0.7561462E-02  0.1125453E+00
         25   -1    0    0    0    0  0.00000000000E+00  0.00000000000E+00  0.99999998245E-14  0.12509000000E+03  0.12509000000E+03 0.  0.
        -11    1    3    3    0    0 -0.37753267487E+02  0.27566832669E+01  0.46006215253E+02  0.59577515480E+02  0.51100000000E-03 0. -1.
         23    2    1    0    0    0 -0.15267526618E+02 -0.11760881803E+02  0.24537641541E+02  0.93888853191E+02  0.88552838414E+02 0.  0.
         11    1    3    3    0    0  0.22485740869E+02 -0.14517565070E+02 -0.21468573712E+02  0.34311337710E+02  0.51100000000E-03 0.  1.
         22    1    1    0    0    0  0.15267526618E+02  0.11760881803E+02 -0.24537641541E+02  0.31201146809E+02  0.00000000000E+00 0. -1.
</event>
<event>
 5    1  0.1043455E-009  0.9118800E+02  0.7561462E-02  0.1125453E+00
         25   -1    0    0    0    0  0.00000000000E+00  0.00000000000E+00  0.99999998245E-14  0.12509000000E+03  0.12509000000E+03 0.  0.
        -11    1    3    3    0    0  0.15023496124E+02  0.40223198531E+02  0.29838694823E+01  0.43040848193E+02  0.51100000000E-03 0. -1.
         23    2    1    0    0    0  0.17315248954E+02 -0.12330358415E+02 -0.15483484995E+02  0.98791827201E+02  0.95227260955E+02 0.  0.
         11    1    3    3    0    0  0.22917528304E+01 -0.52553556946E+02 -0.18467354477E+02  0.55750979008E+02  0.51100000000E-03 0.  1.
         22    1    1    0    0    0 -0.17315248954E+02  0.12330358415E+02  0.15483484995E+02  0.26298172799E+02  0.00000000000E+00 0.  1.
</event>
<event>
 5    1  0.1043455E-009  0.9118800E+02  0.7561462E-02  0.1125453E+00
         25   -1    0    0    0    0  0.00000000000E+00  0.00000000000E+00  0.99999998245E-14  0.12509000000E+03  0.12509000000E+03 0.  0.
        -11    1    3    3    0    0  0.21276047817E+02  0.68874106289E+01  0.23390545266E+02  0.32360844303E+02  0.51100000000E-03 0.  1.
         23    2    1    0    0    0 -0.27519488735E+02  0.63080902992E+01 -0.13750639901E+02  0.93686268356E+02  0.88266202577E+02 0.  0.
         11    1    3    3    0    0 -0.48795536552E+02 -0.57932032967E+00 -0.37141185167E+02  0.61325424053E+02  0.51100000000E-03 0. -1.
         22    1    1    0    0    0  0.27519488735E+02 -0.63080902992E+01  0.13750639901E+02  0.31403731644E+02  0.00000000000E+00 0. -1.
</event>
<event>
 5    1  0.1043455E-009  0.9118800E+02  0.7561462E-02  0.1125453E+00
         25   -1    0    0    0    0  0.00000000000E+00  0.00000000000E+00  0.99999998245E-14  0.12509000000E+03  0.12509000000E+03 0.  0.
        -11    1    3    3    0    0  0.24562563792E+02 -0.26059431940E+02  0.25394635263E+02  0.43901036815E+02  0.51100000000E-03 0. -1.
         23    2    1    0    0    0  0.77896833639E+01  0.19462989618E+02  0.25061587645E+02  0.92416305579E+02  0.86447690714E+02 0.  0.
         11    1    3    3    0    0 -0.16772880428E+02  0.45522421558E+02 -0.33304761747E+00  0.48515268764E+02  0.51100000000E-03 0.  1.
         22    1    1    0    0    0 -0.77896833639E+01 -0.19462989618E+02 -0.25061587645E+02  0.32673694421E+02  0.00000000000E+00 0. -1.
</event>
<event>
 5    1  0.1043455E-009  0.9118800E+02  0.7561462E-02  0.1125453E+00
         25   -1    0    0    0    0  0.00000000000E+00  0.00000000000E+00  0.99999998245E-14  0.12509000000E+03  0.12509000000E+03 0.  0.
        -11    1    3    3    0    0  0.74777550060E+01 -0.39446445044E+01  0.31605968940E+02  0.32717186815E+02  0.51100000000E-03 0. -1.
         23    2    1    0    0    0  0.76090794493E+01  0.57515914586E+01 -0.29241320880E+02  0.94332338497E+02  0.89177106620E+02 0.  0.
         11    1    3    3    0    0  0.13132444337E+00  0.96962359630E+01 -0.60847289820E+02  0.61615151681E+02  0.51100000000E-03 0.  1.
         22    1    1    0    0    0 -0.76090794493E+01 -0.57515914586E+01  0.29241320880E+02  0.30757661503E+02  0.00000000000E+00 0.  1.
</event>
<event>
 5    1  0.1043455E-009  0.9118800E+02  0.7561462E-02  0.1125453E+00
         25   -1    0    0    0    0  0.00000000000E+00  0.00000000000E+00  0.99999998245E-14  0.12509000000E+03  0.12509000000E+03 0.  0.
        -11    1    3    3    0    0  0.16131097890E+02  0.14278923519E+02 -0.39286525612E+02  0.44805480367E+02  0.51100000000E-03 0.  1.
         23    2    1    0    0    0 -0.26114919739E+02  0.58539080479E+01 -0.12322103892E+02  0.95626607176E+02  0.90974482594E+02 0.  0.
         11    1    3    3    0    0 -0.42246017629E+02 -0.84250154716E+01  0.26964421720E+02  0.50821126809E+02  0.51100000000E-03 0. -1.
         22    1    1    0    0    0  0.26114919739E+02 -0.58539080479E+01  0.12322103892E+02  0.29463392824E+02  0.00000000000E+00 0. -1.
</event>
<event>
 5    1  0.1043455E-009  0.9118800E+02  0.7561462E-02  0.1125453E+00
         25   -1    0    0    0    0  0.00000000000E+00  0.00000000000E+00  0.99999998245E-14  0.12509000000E+03  0.12509000000E+03 0.  0.
        -11    1    3    3    0    0  0.40855998697E+02  0.44751397744E+02  0.73558855520E+01  0.61041045880E+02  0.51100000000E-03 0. -1.
         23    2    1    0    0    0  0.29600739679E+02  0.32614549359E+02 -0.36123316560E+01  0.80897675333E+02  0.67760403739E+02 0.  0.
         11    1    3    3    0    0 -0.11255259017E+02 -0.12136848385E+02 -0.10968217208E+02  0.19856629453E+02  0.51100000000E-03 0.  1.
         22    1    1    0    0    0 -0.29600739679E+02 -0.32614549359E+02  0.36123316560E+01  0.44192324667E+02  0.00000000000E+00 0. -1.
</event>
<event>
 5    1  0.1043455E-009  0.9118800E+02  0.7561462E-02  0.1125453E+00
         25   -1    0    0    0    0  0.00000000000E+00  0.00000000000E+00  0.99999998245E-14  0.12509000000E+03  0.12509000000E+03 0.  0.
        -11    1    3    3    0    0 -0.22642371950E+02 -0.14549458317E+02  0.15908924008E+02  0.31264318451E+02  0.51100000000E-03 0.  1.
         23    2    1    0    0    0  0.29173940244E+02  0.13015108716E+02 -0.31904139453E+01  0.92985629808E+02  0.87267615789E+02 0.  0.
         11    1    3    3    0    0  0.51816312194E+02  0.27564567033E+02 -0.19099337953E+02  0.61721311357E+02  0.51100000000E-03 0. -1.
         22    1    1    0    0    0 -0.29173940244E+02 -0.13015108716E+02  0.31904139453E+01  0.32104370192E+02  0.00000000000E+00 0. -1.
</event>
<event>
 5    1  0.1043455E-009  0.9118800E+02  0.7561462E-02  0.1125453E+00
         25   -1    0    0    0    0  0.00000000000E+00  0.00000000000E+00  0.99999998245E-14  0.12509000000E+03  0.12509000000E+03 0.  0.
        -11    1    3    3    0    0 -0.32230334900E+02 -0.20267686088E+02  0.24410994284E+02  0.45226875078E+02  0.51100000000E-03 0.  1.
         23    2    1    0    0    0  0.16341287671E+02 -0.22014154269E+02  0.97172772302E+01  0.96002439983E+02  0.91489793611E+02 0.  0.
         11    1    3    3    0    0  0.48571622572E+02 -0.17464681814E+01 -0.14693717054E+02  0.50775564905E+02  0.51100000000E-03 0. -1.
         22    1    1    0    0    0 -0.16341287671E+02  0.22014154269E+02 -0.97172772302E+01  0.29087560017E+02  0.00000000000E+00 0.  1.
</event>
<event>
 5    1  0.1043455E-009  0.9118800E+02  0.7561462E-02  0.1125453E+00
         25   -1    0    0    0    0  0.00000000000E+00  0.00000000000E+00  0.99999998245E-14  0.12509000000E+03  0.12509000000E+03 0.  0.
        -11    1    3    3    0    0  0.18288821591E+02 -0.27475833942E+02 -0.62030313232E+00  0.33011925455E+02  0.51100000000E-03 0. -1.
         23    2    1    0    0    0 -0.22391740383E+02  0.19314380075E+02 -0.47004168756E+01  0.95147901980E+02  0.90313863926E+02 0.  0.
         11    1    3    3    0    0 -0.40680561974E+02  0.46790214017E+02 -0.40801137433E+01  0.62135976525E+02  0.51100000000E-03 0.  1.
         22    1    1    0    0    0  0.22391740383E+02 -0.19314380075E+02  0.47004168756E+01  0.29942098020E+02  0.00000000000E+00 0.  1.
</event>
<event>
 5    1  0.1043455E-009  0.9118800E+02  0.7561462E-02  0.1125453E+00
         25   -1    0    0    0    0  0.00000000000E+00  0.00000000000E+00  0.99999998245E-14  0.12509000000E+03  0.12509000000E+03 0.  0.
        -11    1    3    3    0    0  0.19224234191E+02 -0.30913024500E+02 -0.61699305020E+01  0.36922273855E+02  0.51100000000E-03 0.  1.
         23    2    1    0    0    0 -0.95979972188E+00  0.15393328278E+02  0.24588919158E+02  0.96064309374E+02  0.91574345857E+02 0.  0.
         11    1    3    3    0    0 -0.20184033913E+02  0.46306352778E+02  0.30758849660E+02  0.59142035518E+02  0.51100000000E-03 0. -1.
         22    1    1    0    0    0  0.95979972188E+00 -0.15393328278E+02 -0.24588919158E+02  0.29025690626E+02  0.00000000000E+00 0. -1.
</event>
<event>
 5    1  0.1043455E-009  0.9118800E+02  0.7561462E-02  0.1125453E+00
         25   -1    0    0    0    0  0.00000000000E+00  0.00000000000E+00  0.99999998245E-14  0.12509000000E+03  0.12509000000E+03 0.  0.
        -11    1    3    3    0    0 -0.44708636274E+02  0.37867432993E+02 -0.13802712569E+02  0.60194015595E+02  0.51100000000E-03 0.  1.
         23    2    1    0    0    0 -0.20858212322E+02  0.21464817527E+02  0.50480282685E+01  0.94737306510E+02  0.89743363223E+02 0.  0.
         11    1    3    3    0    0  0.23850423952E+02 -0.16402615466E+02  0.18850740838E+02  0.34543290915E+02  0.51100000000E-03 0. -1.
         22    1    1    0    0    0  0.20858212322E+02 -0.21464817527E+02 -0.50480282685E+01  0.30352693490E+02  0.00000000000E+00 0.  1.
</event>
<event>
 5    1  0.1043455E-009  0.9118800E+02  0.7561462E-02  0.1125453E+00
         25   -1    0    0    0    0  0.00000000000E+00  0.00000000000E+00  0.99999998245E-14  0.12509000000E+03  0.12509000000E+03 0.  0.
        -11    1    3    3    0    0  0.20390471734E+02  0.27063692966E+02  0.43066194195E+02  0.54798831167E+02  0.51100000000E-03 0. -1.
         23    2    1    0    0    0  0.13949616640E+02  0.21713464476E+02 -0.61411744956E+00  0.99274433297E+02  0.95859113403E+02 0.  0.
         11    1    3    3    0    0 -0.64408550942E+01 -0.53502284906E+01 -0.43680311645E+02  0.44475602131E+02  0.51100000000E-03 0.  1.
         22    1    1    0    0    0 -0.13949616640E+02 -0.21713464476E+02  0.61411744956E+00  0.25815566703E+02  0.00000000000E+00 0. -1.
</event>
<event>
 5    1  0.1043455E-009  0.9118800E+02  0.7561462E-02  0.1125453E+00
         25   -1    0    0    0    0  0.00000000000E+00  0.00000000000E+00  0.99999998245E-14  0.12509000000E+03  0.12509000000E+03 0.  0.
        -11    1    3    3    0    0 -0.52925914076E+02  0.21746222589E+01 -0.21799274224E+02  0.57280797129E+02  0.51100000000E-03 0. -1.
         23    2    1    0    0    0 -0.26512057346E+02  0.14075144382E+02  0.23286055787E+01  0.94983168914E+02  0.90085410023E+02 0.  0.
         11    1    3    3    0    0  0.26413856730E+02  0.11900522123E+02  0.24127879803E+02  0.37702371785E+02  0.51100000000E-03 0.  1.
         22    1    1    0    0    0  0.26512057346E+02 -0.14075144382E+02 -0.23286055787E+01  0.30106831086E+02  0.00000000000E+00 0. -1.
</event>
<event>
 5    1  0.1043455E-009  0.9118800E+02  0.7561462E-02  0.1125453E+00
         25   -1    0    0    0    0  0.00000000000E+00  0.00000000000E+00  0.99999998245E-14  0.12509000000E+03  0.12509000000E+03 0.  0.
        -11    1    3    3    0    0  0.23438250281E+02  0.72570867942E+01  0.20042802013E+02  0.31681710777E+02  0.51100000000E-03 0.  1.
         23    2    1    0    0    0 -0.16095323503E+02  0.50641295919E+01 -0.27050730495E+02  0.93208236129E+02  0.87586119989E+02 0.  0.
         11    1    3    3    0    0 -0.39533573784E+02 -0.21929572023E+01 -0.47093532509E+02  0.61526525352E+02  0.51100000000E-03 0. -1.
         22    1    1    0    0    0  0.16095323503E+02 -0.50641295919E+01  0.27050730495E+02  0.31881763871E+02  0.00000000000E+00 0. -1.
</event>
<event>
 5    1  0.1043455E-009  0.9118800E+02  0.7561462E-02  0.1125453E+00
         25   -1    0    0    0    0  0.00000000000E+00  0.00000000000E+00  0.99999998245E-14  0.12509000000E+03  0.12509000000E+03 0.  0.
        -11    1    3    3    0    0 -0.62329512833E+01 -0.40352616119E+02  0.12776754595E+02  0.42783510464E+02  0.51100000000E-03 0.  1.
         23    2    1    0    0    0 -0.64197769409E+01 -0.54479397291E+01 -0.27645511561E+02  0.96190728508E+02  0.91746871109E+02 0.  0.
         11    1    3    3    0    0 -0.18682565762E+00  0.34904676390E+02 -0.40422266157E+02  0.53407218044E+02  0.51100000000E-03 0. -1.
         22    1    1    0    0    0  0.64197769409E+01  0.54479397291E+01  0.27645511561E+02  0.28899271492E+02  0.00000000000E+00 0. -1.
</event>
<event>
 5    1  0.1043455E-009  0.9118800E+02  0.7561462E-02  0.1125453E+00
         25   -1    0    0    0    0  0.00000000000E+00  0.00000000000E+00  0.99999998245E-14  0.12509000000E+03  0.12509000000E+03 0.  0.
        -11    1    3    3    0    0  0.31670178981E+02 -0.11587534060E+02  0.18135771698E+01  0.33772181521E+02  0.51100000000E-03 0. -1.
         23    2    1    0    0    0 -0.20648847444E+02  0.19408275914E+02  0.97985622491E+01  0.95105539076E+02  0.90255169747E+02 0.  0.
         11    1    3    3    0    0 -0.52319026425E+02  0.30995809975E+02  0.79849850793E+01  0.61333357555E+02  0.51100000000E-03 0.  1.
         22    1    1    0    0    0  0.20648847444E+02 -0.19408275914E+02 -0.97985622491E+01  0.29984460924E+02  0.00000000000E+00 0.  1.
</event>
<event>
 5    1  0.1043455E-009  0.9118800E+02  0.7561462E-02  0.1125453E+00
         25   -1    0    0    0    0  0.00000000000E+00  0.00000000000E+00  0.99999998245E-14  0.12509000000E+03  0.12509000000E+03 0.  0.
        -11    1    3    3    0    0 -0.33549773033E+02  0.45101174522E+01  0.44852917250E+02  0.56193528240E+02  0.51100000000E-03 0.  1.
         23    2    1    0    0    0 -0.94920340013E+00  0.15259227417E+02  0.24821769660E+02  0.95937551432E+02  0.91401031271E+02 0.  0.
         11    1    3    3    0    0  0.32600569633E+02  0.10749109965E+02 -0.20031147590E+02  0.39744023192E+02  0.51100000000E-03 0. -1.
         22    1    1    0    0    0  0.94920340013E+00 -0.15259227417E+02 -0.24821769660E+02  0.29152448568E+02  0.00000000000E+00 0.  1.
</event>
<event>
 5    1  0.1043455E-009  0.9118800E+02  0.7561462E-02  0.1125453E+00
         25   -1    0    0    0    0  0.00000000000E+00  0.00000000000E+00  0.99999998245E-14  0.12509000000E+03  0.12509000000E+03 0.  0.
        -11    1    3    3    0    0 -0.47518568347E+02 -0.27594515138E+02  0.12522420681E+02  0.56358518641E+02  0.51100000000E-03 0. -1.
         23    2    1    0    0    0 -0.26039042951E+02  0.28882430450E+01  0.16912797717E+02  0.93906407642E+02  0.88577632413E+02 0.  0.
         11    1    3    3    0    0  0.21479525396E+02  0.30482758183E+02  0.43903770365E+01  0.37547889001E+02  0.51100000000E-03 0.  1.
         22    1    1    0    0    0  0.26039042951E+02 -0.28882430450E+01 -0.16912797717E+02  0.31183592358E+02  0.00000000000E+00 0. -1.
</event>
<event>
 5    1  0.1043455E-009  0.9118800E+02  0.7561462E-02  0.1125453E+00
         25   -1    0    0    0    0  0.00000000000E+00  0.00000000000E+00  0.99999998245E-14  0.12509000000E+03  0.12509000000E+03 0.  0.
        -11    1    3    3    0    0  0.46231754692E+02  0.19743076930E+02 -0.27296890519E+02  0.57203885015E+02  0.51100000000E-03 0.  1.
         23    2    1    0    0    0  0.18704709589E+02 -0.62037266886E+01 -0.22250661857E+02  0.95367208430E+02  0.90617107133E+02 0.  0.
         11    1    3    3    0    0 -0.27527045103E+02 -0.25946803619E+02  0.50462286620E+01  0.38163323415E+02  0.51100000000E-03 0. -1.
         22    1    1    0    0    0 -0.18704709589E+02  0.62037266886E+01  0.22250661857E+02  0.29722791570E+02  0.00000000000E+00 0. -1.
</event>
<event>
 5    1  0.1043455E-009  0.9118800E+02  0.7561462E-02  0.1125453E+00
         25   -1    0    0    0    0  0.00000000000E+00  0.00000000000E+00  0.99999998245E-14  0.12509000000E+03  0.12509000000E+03 0.  0.
        -11    1    3    3    0    0 -0.29149160855E+02 -0.17130434024E+02 -0.84551069969E+01  0.34851315370E+02  0.51100000000E-03 0. -1.
         23    2    1    0    0    0  0.10424099041E+02  0.16911987105E+02  0.22128820677E+02  0.95351777908E+02  0.90595803970E+02 0.  0.
         11    1    3    3    0    0  0.39573259896E+02  0.34042421129E+02  0.30583927674E+02  0.60500462538E+02  0.51100000000E-03 0.  1.
         22    1    1    0    0    0 -0.10424099041E+02 -0.16911987105E+02 -0.22128820677E+02  0.29738222092E+02  0.00000000000E+00 0.  1.
</event>
<event>
 5    1  0.1043455E-009  0.9118800E+02  0.7561462E-02  0.1125453E+00
         25   -1    0    0    0    0  0.00000000000E+00  0.00000000000E+00  0.99999998245E-14  0.12509000000E+03  0.12509000000E+03 0.  0.
        -11    1    3    3    0    0  0.28952940580E+01 -0.41248903390E+02 -0.40807166806E+01  0.41551257592E+02  0.51100000000E-03 0.  1.
         23    2    1    0    0    0 -0.78685325934E+01  0.16559670103E+02 -0.15052699704E+02  0.10136827478E+03  0.98553573675E+02 0.  0.
         11    1    3    3    0    0 -0.10763826651E+02  0.57808573493E+02 -0.10971983023E+02  0.59817017187E+02  0.51100000000E-03 0. -1.
         22    1    1    0    0    0  0.78685325934E+01 -0.16559670103E+02  0.15052699704E+02  0.23721725221E+02  0.00000000000E+00 0. -1.
</event>
<event>
 5    1  0.1043455E-009  0.9118800E+02  0.7561462E-02  0.1125453E+00
         25   -1    0    0    0    0  0.00000000000E+00  0.00000000000E+00  0.99999998245E-14  0.12509000000E+03  0.12509000000E+03 0.  0.
        -11    1    3    3    0    0 -0.15295961619E+02 -0.30286214364E+02 -0.41005632764E+02  0.53222956898E+02  0.51100000000E-03 0.  1.
         23    2    1    0    0    0  0.16665007681E+02 -0.11726676213E+02 -0.23086562475E+02  0.94296708800E+02  0.89127114324E+02 0.  0.
         11    1    3    3    0    0  0.31960969300E+02  0.18559538152E+02  0.17919070289E+02  0.41073751902E+02  0.51100000000E-03 0. -1.
         22    1    1    0    0    0 -0.16665007681E+02  0.11726676213E+02  0.23086562475E+02  0.30793291200E+02  0.00000000000E+00 0. -1.
</event>
<event>
 5    1  0.1043455E-009  0.9118800E+02  0.7561462E-02  0.1125453E+00
         25   -1    0    0    0    0  0.00000000000E+00  0.00000000000E+00  0.99999998245E-14  0.12509000000E+03  0.12509000000E+03 0.  0.
        -11    1    3    3    0    0 -0.22751927110E+02 -0.18725490266E+02 -0.19251745911E+02  0.35198350726E+02  0.51100000000E-03 0.  1.
         23    2    1    0    0    0  0.22754101789E+02 -0.28170778586E+01  0.17852969104E+02  0.96031204744E+02  0.91529113964E+02 0.  0.
         11    1    3    3    0    0  0.45506028898E+02  0.15908412407E+02  0.37104715016E+02  0.60832854019E+02  0.51100000000E-03 0. -1.
         22    1    1    0    0    0 -0.22754101789E+02  0.28170778586E+01 -0.17852969104E+02  0.29058795256E+02  0.00000000000E+00 0. -1.
</event>
<event>
 5    1  0.1043455E-009  0.9118800E+02  0.7561462E-02  0.1125453E+00
         25   -1    0    0    0    0  0.00000000000E+00  0.00000000000E+00  0.99999998245E-14  0.12509000000E+03  0.12509000000E+03 0.  0.
        -11    1    3    3    0    0 -0.30286649593E+02  0.18423125366E+02  0.25208126318E+01  0.35539375183E+02  0.51100000000E-03 0. -1.
         23    2    1    0    0    0  0.11268078772E+02 -0.25695254234E+02 -0.49300088382E+01  0.96602798023E+02  0.92306987326E+02 0.  0.
         11    1    3    3    0    0  0.41554728365E+02 -0.44118379600E+02 -0.74508214700E+01  0.61063422840E+02  0.51100000000E-03 0.  1.
         22    1    1    0    0    0 -0.11268078772E+02  0.25695254234E+02  0.49300088382E+01  0.28487201977E+02  0.00000000000E+00 0.  1.
</event>
<event>
 5    1  0.1043455E-009  0.9118800E+02  0.7561462E-02  0.1125453E+00
         25   -1    0    0    0    0  0.00000000000E+00  0.00000000000E+00  0.99999998245E-14  0.12509000000E+03  0.12509000000E+03 0.  0.
        -11    1    3    3    0    0 -0.10302543354E+02  0.38890438969E+02  0.79861901492E-01  0.40232014876E+02  0.51100000000E-03 0. -1.
         23    2    1    0    0    0  0.24371570800E+02  0.37141472843E+01 -0.19794695634E+02  0.93473575020E+02  0.87964259210E+02 0.  0.
         11    1    3    3    0    0  0.34674114154E+02 -0.35176291685E+02 -0.19874557535E+02  0.53241560144E+02  0.51100000000E-03 0.  1.
         22    1    1    0    0    0 -0.24371570800E+02 -0.37141472843E+01  0.19794695634E+02  0.31616424980E+02  0.00000000000E+00 0.  1.
</event>
<event>
 5    1  0.1043455E-009  0.9118800E+02  0.7561462E-02  0.1125453E+00
         25   -1    0    0    0    0  0.00000000000E+00  0.00000000000E+00  0.99999998245E-14  0.12509000000E+03  0.12509000000E+03 0.  0.
        -11    1    3    3    0    0  0.33063637591E+02 -0.76854886867E+01 -0.17243220723E+02  0.38073606714E+02  0.51100000000E-03 0.  1.
         23    2    1    0    0    0 -0.38449723277E+01  0.27213350815E+02  0.10158965596E+02  0.95788893251E+02  0.91197353106E+02 0.  0.
         11    1    3    3    0    0 -0.36908609919E+02  0.34898839501E+02  0.27402186318E+02  0.57715286536E+02  0.51100000000E-03 0. -1.
         22    1    1    0    0    0  0.38449723277E+01 -0.27213350815E+02 -0.10158965596E+02  0.29301106749E+02  0.00000000000E+00 0. -1.
</event>
<event>
 5    1  0.1043455E-009  0.9118800E+02  0.7561462E-02  0.1125453E+00
         25   -1    0    0    0    0  0.00000000000E+00  0.00000000000E+00  0.99999998245E-14  0.12509000000E+03  0.12509000000E+03 0.  0.
        -11    1    3    3    0    0 -0.47132385838E+02 -0.12393655558E+02 -0.15305105463E+02  0.51081412924E+02  0.51100000000E-03 0. -1.
         23    2    1    0    0    0 -0.84059310173E+01  0.25138282333E+01 -0.29009716553E+02  0.94782531232E+02  0.89806378190E+02 0.  0.
         11    1    3    3    0    0  0.38726454820E+02  0.14907483791E+02 -0.13704611090E+02  0.43701118307E+02  0.51100000000E-03 0.  1.
         22    1    1    0    0    0  0.84059310173E+01 -0.25138282333E+01  0.29009716553E+02  0.30307468768E+02  0.00000000000E+00 0. -1.
</event>
<event>
 5    1  0.1043455E-009  0.9118800E+02  0.7561462E-02  0.1125453E+00
         25   -1    0    0    0    0  0.00000000000E+00  0.00000000000E+00  0.99999998245E-14  0.12509000000E+03  0.12509000000E+03 0.  0.
        -11    1    3    3    0    0  0.38755279920E+02 -0.40621582995E+02 -0.20984899811E+02  0.59937056543E+02  0.51100000000E-03 0.  1.
         23    2    1    0    0    0  0.24934072030E+02 -0.16033926303E+02  0.57607043418E+00  0.95439930897E+02  0.90717439402E+02 0.  0.
         11    1    3    3    0    0 -0.13821207890E+02  0.24587656692E+02  0.21560970245E+02  0.35502874353E+02  0.51100000000E-03 0. -1.
         22    1    1    0    0    0 -0.24934072030E+02  0.16033926303E+02 -0.57607043418E+00  0.29650069103E+02  0.00000000000E+00 0.  1.
</event>
<event>
 5    1  0.1043455E-009  0.9118800E+02  0.7561462E-02  0.1125453E+00
         25   -1    0    0    0    0  0.00000000000E+00  0.00000000000E+00  0.99999998245E-14  0.12509000000E+03  0.12509000000E+03 0.  0.
        -11    1    3    3    0    0 -0.56413103169E+02  0.20656020661E+02 -0.15421572889E+02  0.62023659271E+02  0.51100000000E-03 0. -1.
         23    2    1    0    0    0 -0.31017300633E+02  0.53168820072E+01 -0.72806706703E+01  0.92789065985E+02  0.86985403535E+02 0.  0.
         11    1    3    3    0    0  0.25395802536E+02 -0.15339138654E+02  0.81409022187E+01  0.30765406714E+02  0.51100000000E-03 0.  1.
         22    1    1    0    0    0  0.31017300633E+02 -0.53168820072E+01  0.72806706703E+01  0.32300934015E+02  0.00000000000E+00 0. -1.
</event>
<event>
 5    1  0.1043455E-009  0.9118800E+02  0.7561462E-02  0.1125453E+00
         25   -1    0    0    0    0  0.00000000000E+00  0.00000000000E+00  0.99999998245E-14  0.12509000000E+03  0.12509000000E+03 0.  0.
        -11    1    3    3    0    0  0.12221964403E+02 -0.24341657659E+02  0.18418967154E+02  0.32880861648E+02  0.51100000000E-03 0. -1.
         23    2    1    0    0    0 -0.21303434132E+02  0.20170336490E+02 -0.81872687348E+01  0.94631665356E+02  0.89595992872E+02 0.  0.
         11    1    3    3    0    0 -0.33525398535E+02  0.44511994149E+02 -0.26606235888E+02  0.61750803707E+02  0.51100000000E-03 0.  1.
         22    1    1    0    0    0  0.21303434132E+02 -0.20170336490E+02  0.81872687348E+01  0.30458334644E+02  0.00000000000E+00 0.  1.
</event>
<event>
 5    1  0.1043455E-009  0.9118800E+02  0.7561462E-02  0.1125453E+00
         25   -1    0    0    0    0  0.00000000000E+00  0.00000000000E+00  0.99999998245E-14  0.12509000000E+03  0.12509000000E+03 0.  0.
        -11    1    3    3    0    0 -0.29928477466E+02  0.34827649511E+02  0.11474989671E+02  0.47332381327E+02  0.51100000000E-03 0.  1.
         23    2    1    0    0    0 -0.25384438491E+02 -0.12966167083E+02  0.80853034993E+01  0.95461241352E+02  0.90746819567E+02 0.  0.
         11    1    3    3    0    0  0.45440389750E+01 -0.47793816594E+02 -0.33896861716E+01  0.48128860026E+02  0.51100000000E-03 0. -1.
         22    1    1    0    0    0  0.25384438491E+02  0.12966167083E+02 -0.80853034993E+01  0.29628758648E+02  0.00000000000E+00 0.  1.
</event>
<event>
 5    1  0.1043455E-009  0.9118800E+02  0.7561462E-02  0.1125453E+00
         25   -1    0    0    0    0  0.00000000000E+00  0.00000000000E+00  0.99999998245E-14  0.12509000000E+03  0.12509000000E+03 0.  0.
        -11    1    3    3    0    0  0.15511453212E+02  0.35832706921E+02 -0.46131977371E+02  0.60437963256E+02  0.51100000000E-03 0. -1.
         23    2    1    0    0    0  0.40641121572E+00  0.24668944139E+02 -0.16898462972E+02  0.95185484859E+02  0.90365903427E+02 0.  0.
         11    1    3    3    0    0 -0.15105041997E+02 -0.11163762783E+02  0.29233514400E+02  0.34747521604E+02  0.51100000000E-03 0.  1.
         22    1    1    0    0    0 -0.40641121572E+00 -0.24668944139E+02  0.16898462972E+02  0.29904515141E+02  0.00000000000E+00 0. -1.
</event>
<event>
 5    1  0.1043455E-009  0.9118800E+02  0.7561462E-02  0.1125453E+00
         25   -1    0    0    0    0  0.00000000000E+00  0.00000000000E+00  0.99999998245E-14  0.12509000000E+03  0.12509000000E+03 0.  0.
        -11    1    3    3    0    0  0.20134048725E+02 -0.39214707672E+02 -0.41830273916E+02  0.60769606153E+02  0.51100000000E-03 0. -1.
         23    2    1    0    0    0  0.17450517591E+02 -0.18631603733E+02 -0.12595059615E+02  0.96624358456E+02  0.92336200368E+02 0.  0.
         11    1    3    3    0    0 -0.26835311339E+01  0.20583103940E+02  0.29235214302E+02  0.35854752302E+02  0.51100000000E-03 0.  1.
         22    1    1    0    0    0 -0.17450517591E+02  0.18631603733E+02  0.12595059615E+02  0.28465641544E+02  0.00000000000E+00 0. -1.
</event>
<event>
 5    1  0.1043455E-009  0.9118800E+02  0.7561462E-02  0.1125453E+00
         25   -1    0    0    0    0  0.00000000000E+00  0.00000000000E+00  0.99999998245E-14  0.12509000000E+03  0.12509000000E+03 0.  0.
        -11    1    3    3    0    0 -0.14939180297E+02  0.38968062848E+02 -0.24002283978E+02  0.48143521543E+02  0.51100000000E-03 0.  1.
         23    2    1    0    0    0  0.22119094200E+02  0.16200700897E+02 -0.31092058469E+00  0.97670778468E+02  0.93743091784E+02 0.  0.
         11    1    3    3    0    0  0.37058274497E+02 -0.22767361951E+02  0.23691363394E+02  0.49527256926E+02  0.51100000000E-03 0. -1.
         22    1    1    0    0    0 -0.22119094200E+02 -0.16200700897E+02  0.31092058469E+00  0.27419221532E+02  0.00000000000E+00 0.  1.
</event>
<event>
 5    1  0.1043455E-009  0.9118800E+02  0.7561462E-02  0.1125453E+00
         25   -1    0    0    0    0  0.00000000000E+00  0.00000000000E+00  0.99999998245E-14  0.12509000000E+03  0.12509000000E+03 0.  0.
        -11    1    3    3    0    0 -0.33728709354E+01 -0.39474620044E+02  0.20059560741E+02  0.44407295159E+02  0.51100000000E-03 0.  1.
         23    2    1    0    0    0 -0.27678111806E+02 -0.32394262886E+01  0.24128870462E+02  0.88228446240E+02  0.80159120382E+02 0.  0.
         11    1    3    3    0    0 -0.24305240870E+02  0.36235193755E+02  0.40693097210E+01  0.43821151082E+02  0.51100000000E-03 0. -1.
         22    1    1    0    0    0  0.27678111806E+02  0.32394262886E+01 -0.24128870462E+02  0.36861553760E+02  0.00000000000E+00 0. -1.
</event>
<event>
 5    1  0.1043455E-009  0.9118800E+02  0.7561462E-02  0.1125453E+00
         25   -1    0    0    0    0  0.00000000000E+00  0.00000000000E+00  0.99999998245E-14  0.12509000000E+03  0.12509000000E+03 0.  0.
        -11    1    3    3    0    0  0.85398403843E+01 -0.59424237546E+02 -0.11675708681E+02  0.61159554079E+02  0.51100000000E-03 0.  1.
         23    2    1    0    0    0  0.12934558687E+02 -0.26545523904E+02 -0.32606703525E+01  0.95381421795E+02  0.90636725475E+02 0.  0.
         11    1    3    3    0    0  0.43947183026E+01  0.32878713641E+02  0.84150383284E+01  0.34221867716E+02  0.51100000000E-03 0. -1.
         22    1    1    0    0    0 -0.12934558687E+02  0.26545523904E+02  0.32606703525E+01  0.29708578205E+02  0.00000000000E+00 0.  1.
</event>
<event>
 5    1  0.1043455E-009  0.9118800E+02  0.7561462E-02  0.1125453E+00
         25   -1    0    0    0    0  0.00000000000E+00  0.00000000000E+00  0.99999998245E-14  0.12509000000E+03  0.12509000000E+03 0.  0.
        -11    1    3    3    0    0 -0.15055561612E+02 -0.11380072626E+02  0.37531335110E+02  0.42009250217E+02  0.51100000000E-03 0.  1.
         23    2    1    0    0    0  0.15928780322E+02  0.22588262297E+02  0.94708755948E+01  0.95872657193E+02  0.91312174854E+02 0.  0.
         11    1    3    3    0    0  0.30984341934E+02  0.33968334923E+02 -0.28060459515E+02  0.53863406976E+02  0.51100000000E-03 0. -1.
         22    1    1    0    0    0 -0.15928780322E+02 -0.22588262297E+02 -0.94708755948E+01  0.29217342807E+02  0.00000000000E+00 0. -1.
</event>
<event>
 5    1  0.1043455E-009  0.9118800E+02  0.7561462E-02  0.1125453E+00
         25   -1    0    0    0    0  0.00000000000E+00  0.00000000000E+00  0.99999998245E-14  0.12509000000E+03  0.12509000000E+03 0.  0.
        -11    1    3    3    0    0  0.18874690341E+01 -0.29346856714E+02 -0.24054224863E+02  0.37992186991E+02  0.51100000000E-03 0. -1.
         23    2    1    0    0    0  0.24227078533E+02  0.18743768373E+02 -0.10303157124E+02  0.92772276786E+02  0.86961256351E+02 0.  0.
         11    1    3    3    0    0  0.22339609499E+02  0.48090625086E+02  0.13751067738E+02  0.54780089795E+02  0.51100000000E-03 0.  1.
         22    1    1    0    0    0 -0.24227078533E+02 -0.18743768373E+02  0.10303157124E+02  0.32317723214E+02  0.00000000000E+00 0.  1.
</event>
<event>
 5    1  0.1043455E-009  0.9118800E+02  0.7561462E-02  0.1125453E+00
         25   -1    0    0    0    0  0.00000000000E+00  0.00000000000E+00  0.99999998245E-14  0.12509000000E+03  0.12509000000E+03 0.  0.
        -11    1    3    3    0    0 -0.44761594524E+02  0.21172183449E+02 -0.13432211596E+01  0.49534492423E+02  0.51100000000E-03 0. -1.
         23    2    1    0    0    0 -0.22706160350E+02 -0.19021429955E+02 -0.21783581568E+01  0.95389330653E+02  0.90647640029E+02 0.  0.
         11    1    3    3    0    0  0.22055434174E+02 -0.40193613404E+02 -0.83513699721E+00  0.45854838230E+02  0.51100000000E-03 0.  1.
         22    1    1    0    0    0  0.22706160350E+02  0.19021429955E+02  0.21783581568E+01  0.29700669347E+02  0.00000000000E+00 0. -1.
</event>
<event>
 5    1  0.1043455E-009  0.9118800E+02  0.7561462E-02  0.1125453E+00
         25   -1    0    0    0    0  0.00000000000E+00  0.00000000000E+00  0.99999998245E-14  0.12509000000E+03  0.12509000000E+03 0.  0.
        -11    1    3    3    0    0 -0.28701728925E+02  0.14534022161E+02  0.16059931283E+02  0.35957592196E+02  0.51100000000E-03 0.  1.
         23    2    1    0    0    0  0.23147901289E+02 -0.15002958660E+02  0.91422184955E+01  0.96029816558E+02  0.91527216753E+02 0.  0.
         11    1    3    3    0    0  0.51849630214E+02 -0.29536980820E+02 -0.69177127877E+01  0.60072224362E+02  0.51100000000E-03 0. -1.
         22    1    1    0    0    0 -0.23147901289E+02  0.15002958660E+02 -0.91422184955E+01  0.29060183442E+02  0.00000000000E+00 0. -1.
</event>
<event>
 5    1  0.1043455E-009  0.9118800E+02  0.7561462E-02  0.1125453E+00
         25   -1    0    0    0    0  0.00000000000E+00  0.00000000000E+00  0.99999998245E-14  0.12509000000E+03  0.12509000000E+03 0.  0.
        -11    1    3    3    0    0  0.19283661095E+02  0.66569839672E+01 -0.36111931295E+02  0.41475855662E+02  0.51100000000E-03 0.  1.
         23    2    1    0    0    0 -0.25852414241E+02  0.98736676685E+01 -0.36265770869E+01  0.97179631019E+02  0.93085401585E+02 0.  0.
         11    1    3    3    0    0 -0.45136075335E+02  0.32166837013E+01  0.32485354209E+02  0.55703775357E+02  0.51100000000E-03 0. -1.
         22    1    1    0    0    0  0.25852414241E+02 -0.98736676685E+01  0.36265770869E+01  0.27910368981E+02  0.00000000000E+00 0.  1.
</event>
<event>
 5    1  0.1043455E-009  0.9118800E+02  0.7561462E-02  0.1125453E+00
         25   -1    0    0    0    0  0.00000000000E+00  0.00000000000E+00  0.99999998245E-14  0.12509000000E+03  0.12509000000E+03 0.  0.
        -11    1    3    3    0    0  0.24726276955E+02 -0.29629141405E+02 -0.46604786445E+02  0.60508519337E+02  0.51100000000E-03 0.  1.
         23    2    1    0    0    0  0.14730525558E+02 -0.32873167912E+01 -0.24477350910E+02  0.96333513037E+02  0.91941341036E+02 0.  0.
         11    1    3    3    0    0 -0.99957513963E+01  0.26341824614E+02  0.22127435535E+02  0.35824993700E+02  0.51100000000E-03 0. -1.
         22    1    1    0    0    0 -0.14730525558E+02  0.32873167912E+01  0.24477350910E+02  0.28756486963E+02  0.00000000000E+00 0.  1.
</event>
<event>
 5    1  0.1043455E-009  0.9118800E+02  0.7561462E-02  0.1125453E+00
         25   -1    0    0    0    0  0.00000000000E+00  0.00000000000E+00  0.99999998245E-14  0.12509000000E+03  0.12509000000E+03 0.  0.
        -11    1    3    3    0    0 -0.23255912753E+02  0.16489707527E+02  0.48809951564E+02  0.56525740192E+02  0.51100000000E-03 0. -1.
         23    2    1    0    0    0 -0.25862940416E+01  0.25155655792E+02  0.21174418914E+02  0.92107399261E+02  0.85999540970E+02 0.  0.
         11    1    3    3    0    0  0.20669618711E+02  0.86659482646E+01 -0.27635532650E+02  0.35581659069E+02  0.51100000000E-03 0.  1.
         22    1    1    0    0    0  0.25862940416E+01 -0.25155655792E+02 -0.21174418914E+02  0.32982600739E+02  0.00000000000E+00 0. -1.
</event>
<event>
 5    1  0.1043455E-009  0.9118800E+02  0.7561462E-02  0.1125453E+00
         25   -1    0    0    0    0  0.00000000000E+00  0.00000000000E+00  0.99999998245E-14  0.12509000000E+03  0.12509000000E+03 0.  0.
        -11    1    3    3    0    0  0.55856909302E+02  0.53825418872E+01  0.12528500303E+02  0.57497212054E+02  0.51100000000E-03 0.  1.
         23    2    1    0    0    0  0.22352579745E+02 -0.12980728345E+02  0.13925074154E+02  0.95729400213E+02  0.91115713493E+02 0.  0.
         11    1    3    3    0    0 -0.33504329556E+02 -0.18363270233E+02  0.13965738513E+01  0.38232188159E+02  0.51100000000E-03 0. -1.
         22    1    1    0    0    0 -0.22352579745E+02  0.12980728345E+02 -0.13925074154E+02  0.29360599787E+02  0.00000000000E+00 0.  1.
</event>
<event>
 5    1  0.1043455E-009  0.9118800E+02  0.7561462E-02  0.1125453E+00
         25   -1    0    0    0    0  0.00000000000E+00  0.00000000000E+00  0.99999998245E-14  0.12509000000E+03  0.12509000000E+03 0.  0.
        -11    1    3    3    0    0 -0.34757109090E+02 -0.75322495683E+01 -0.55981781572E+01  0.36001819604E+02  0.51100000000E-03 0. -1.
         23    2    1    0    0    0  0.40112432042E+01 -0.27618175655E+02  0.23611284969E+02  0.88533926955E+02  0.80634420353E+02 0.  0.
         11    1    3    3    0    0  0.38768352294E+02 -0.20085926087E+02  0.29209463126E+02  0.52532107351E+02  0.51100000000E-03 0.  1.
         22    1    1    0    0    0 -0.40112432042E+01  0.27618175655E+02 -0.23611284969E+02  0.36556073045E+02  0.00000000000E+00 0. -1.
</event>
<event>
 5    1  0.1043455E-009  0.9118800E+02  0.7561462E-02  0.1125453E+00
         25   -1    0    0    0    0  0.00000000000E+00  0.00000000000E+00  0.99999998245E-14  0.12509000000E+03  0.12509000000E+03 0.  0.
        -11    1    3    3    0    0  0.26374306139E+02 -0.20179573992E+02 -0.51963777596E+02  0.61668901508E+02  0.51100000000E-03 0.  1.
         23    2    1    0    0    0  0.83114259505E+01 -0.15615985129E+02 -0.23846451817E+02  0.95398384060E+02  0.90660132496E+02 0.  0.
         11    1    3    3    0    0 -0.18062880188E+02  0.45635888634E+01  0.28117325780E+02  0.33729482552E+02  0.51100000000E-03 0. -1.
         22    1    1    0    0    0 -0.83114259505E+01  0.15615985129E+02  0.23846451817E+02  0.29691615940E+02  0.00000000000E+00 0.  1.
</event>
<event>
 5    1  0.1043455E-009  0.9118800E+02  0.7561462E-02  0.1125453E+00
         25   -1    0    0    0    0  0.00000000000E+00  0.00000000000E+00  0.99999998245E-14  0.12509000000E+03  0.12509000000E+03 0.  0.
        -11    1    3    3    0    0  0.53322300209E+02 -0.20673362640E+02  0.21789058598E+02  0.61199825958E+02  0.51100000000E-03 0. -1.
         23    2    1    0    0    0  0.24768227184E+02 -0.16621975118E+01  0.14737285821E+02  0.96221062163E+02  0.91788219462E+02 0.  0.
         11    1    3    3    0    0 -0.28554073025E+02  0.19011165128E+02 -0.70517727770E+01  0.35021236206E+02  0.51100000000E-03 0.  1.
         22    1    1    0    0    0 -0.24768227184E+02  0.16621975118E+01 -0.14737285821E+02  0.28868937837E+02  0.00000000000E+00 0. -1.
</event>
<event>
 5    1  0.1043455E-009  0.9118800E+02  0.7561462E-02  0.1125453E+00
         25   -1    0    0    0    0  0.00000000000E+00  0.00000000000E+00  0.99999998245E-14  0.12509000000E+03  0.12509000000E+03 0.  0.
        -11    1    3    3    0    0 -0.86073915522E+01  0.31843923954E+02  0.53987645254E+01  0.33425579139E+02  0.51100000000E-03 0. -1.
         23    2    1    0    0    0  0.12218014964E+02 -0.19149110758E+02 -0.20682289199E+02  0.94369885759E+02  0.89229759156E+02 0.  0.
         11    1    3    3    0    0  0.20825406516E+02 -0.50993034712E+02 -0.26081053725E+02  0.60944306620E+02  0.51100000000E-03 0.  1.
         22    1    1    0    0    0 -0.12218014964E+02  0.19149110758E+02  0.20682289199E+02  0.30720114241E+02  0.00000000000E+00 0.  1.
</event>
<event>
 5    1  0.1043455E-009  0.9118800E+02  0.7561462E-02  0.1125453E+00
         25   -1    0    0    0    0  0.00000000000E+00  0.00000000000E+00  0.99999998245E-14  0.12509000000E+03  0.12509000000E+03 0.  0.
        -11    1    3    3    0    0  0.16087185887E+01  0.41663296966E+02 -0.54349019135E+00  0.41697885695E+02  0.51100000000E-03 0.  1.
         23    2    1    0    0    0  0.31705276532E+01 -0.93431265061E+01 -0.24946759081E+02  0.98263016436E+02  0.94530065863E+02 0.  0.
         11    1    3    3    0    0  0.15618090645E+01 -0.51006423472E+02 -0.24403268889E+02  0.56565130741E+02  0.51100000000E-03 0. -1.
         22    1    1    0    0    0 -0.31705276532E+01  0.93431265061E+01  0.24946759081E+02  0.26826983564E+02  0.00000000000E+00 0. -1.
</event>
<event>
 5    1  0.1043455E-009  0.9118800E+02  0.7561462E-02  0.1125453E+00
         25   -1    0    0    0    0  0.00000000000E+00  0.00000000000E+00  0.99999998245E-14  0.12509000000E+03  0.12509000000E+03 0.  0.
        -11    1    3    3    0    0 -0.94909368544E+01  0.10314613624E+00  0.49379017669E+02  0.50282958422E+02  0.51100000000E-03 0.  1.
         23    2    1    0    0    0  0.15605922125E+02 -0.18805033481E+02  0.17593816353E+02  0.94978267013E+02  0.90078603127E+02 0.  0.
         11    1    3    3    0    0  0.25096858979E+02 -0.18908179618E+02 -0.31785201316E+02  0.44695308591E+02  0.51100000000E-03 0. -1.
         22    1    1    0    0    0 -0.15605922125E+02  0.18805033481E+02 -0.17593816353E+02  0.30111732987E+02  0.00000000000E+00 0.  1.
</event>
<event>
 5    1  0.1043455E-009  0.9118800E+02  0.7561462E-02  0.1125453E+00
         25   -1    0    0    0    0  0.00000000000E+00  0.00000000000E+00  0.99999998245E-14  0.12509000000E+03  0.12509000000E+03 0.  0.
        -11    1    3    3    0    0 -0.55547178911E+01 -0.26030810195E+02  0.31199260438E+02  0.41010386762E+02  0.51100000000E-03 0. -1.
         23    2    1    0    0    0  0.28369240552E+01  0.25278437873E+02  0.15423990536E+02  0.95341940510E+02  0.90582219981E+02 0.  0.
         11    1    3    3    0    0  0.83916419463E+01  0.51309248068E+02 -0.15775269902E+02  0.54331553747E+02  0.51100000000E-03 0.  1.
         22    1    1    0    0    0 -0.28369240552E+01 -0.25278437873E+02 -0.15423990536E+02  0.29748059490E+02  0.00000000000E+00 0.  1.
</event>
<event>
 5    1  0.1043455E-009  0.9118800E+02  0.7561462E-02  0.1125453E+00
         25   -1    0    0    0    0  0.00000000000E+00  0.00000000000E+00  0.99999998245E-14  0.12509000000E+03  0.12509000000E+03 0.  0.
        -11    1    3    3    0    0  0.25208317133E+01  0.45087170298E+02  0.36442077536E+02  0.58027859976E+02  0.51100000000E-03 0.  1.
         23    2    1    0    0    0  0.17159287198E+02  0.20600573799E+02  0.11520637129E+02  0.95908672788E+02  0.91361499867E+02 0.  0.
         11    1    3    3    0    0  0.14638455485E+02 -0.24486596498E+02 -0.24921440407E+02  0.37880812812E+02  0.51100000000E-03 0. -1.
         22    1    1    0    0    0 -0.17159287198E+02 -0.20600573799E+02 -0.11520637129E+02  0.29181327212E+02  0.00000000000E+00 0.  1.
</event>
<event>
 5    1  0.1043455E-009  0.9118800E+02  0.7561462E-02  0.1125453E+00
         25   -1    0    0    0    0  0.00000000000E+00  0.00000000000E+00  0.99999998245E-14  0.12509000000E+03  0.12509000000E+03 0.  0.
        -11    1    3    3    0    0  0.37416602221E+02 -0.13793359717E+02 -0.83753733961E+01  0.40748076934E+02  0.51100000000E-03 0. -1.
         23    2    1    0    0    0 -0.12922328965E+02 -0.27244557441E+02  0.49560351333E+01  0.94531616858E+02  0.89456200487E+02 0.  0.
         11    1    3    3    0    0 -0.50338931186E+02 -0.13451197724E+02  0.13331408529E+02  0.53783539924E+02  0.51100000000E-03 0.  1.
         22    1    1    0    0    0  0.12922328965E+02  0.27244557441E+02 -0.49560351333E+01  0.30558383142E+02  0.00000000000E+00 0.  1.
</event>
<event>
 5    1  0.1043455E-009  0.9118800E+02  0.7561462E-02  0.1125453E+00
         25   -1    0    0    0    0  0.00000000000E+00  0.00000000000E+00  0.99999998245E-14  0.12509000000E+03  0.12509000000E+03 0.  0.
        -11    1    3    3    0    0  0.15513072327E+02  0.59877827610E+01  0.30131014362E+02  0.34414923829E+02  0.51100000000E-03 0. -1.
         23    2    1    0    0    0  0.41552713609E+01 -0.94275134921E+01 -0.27807428896E+02  0.95435364738E+02  0.90711142922E+02 0.  0.
         11    1    3    3    0    0 -0.11357800966E+02 -0.15415296253E+02 -0.57938443258E+02  0.61020440909E+02  0.51100000000E-03 0.  1.
         22    1    1    0    0    0 -0.41552713609E+01  0.94275134921E+01  0.27807428896E+02  0.29654635262E+02  0.00000000000E+00 0.  1.
</event>
<event>
 5    1  0.1043455E-009  0.9118800E+02  0.7561462E-02  0.1125453E+00
         25   -1    0    0    0    0  0.00000000000E+00  0.00000000000E+00  0.99999998245E-14  0.12509000000E+03  0.12509000000E+03 0.  0.
        -11    1    3    3    0    0 -0.24262863513E+02  0.24847216527E+02 -0.11090047528E+00  0.34728705910E+02  0.51100000000E-03 0.  1.
         23    2    1    0    0    0  0.20636265665E+02  0.89547887796E+01 -0.27413604658E+02  0.89628056694E+02  0.82314270475E+02 0.  0.
         11    1    3    3    0    0  0.44899129178E+02 -0.15892427747E+02 -0.27302704183E+02  0.54899350785E+02  0.51100000000E-03 0. -1.
         22    1    1    0    0    0 -0.20636265665E+02 -0.89547887796E+01  0.27413604658E+02  0.35461943306E+02  0.00000000000E+00 0. -1.
</event>
<event>
 5    1  0.1043455E-009  0.9118800E+02  0.7561462E-02  0.1125453E+00
         25   -1    0    0    0    0  0.00000000000E+00  0.00000000000E+00  0.99999998245E-14  0.12509000000E+03  0.12509000000E+03 0.  0.
        -11    1    3    3    0    0 -0.30203782662E+02 -0.28913728436E+02 -0.18569121496E+02  0.45750239918E+02  0.51100000000E-03 0. -1.
         23    2    1    0    0    0 -0.23500552142E+02  0.17565038606E+02 -0.15127204655E+01  0.95711523943E+02  0.91091168398E+02 0.  0.
         11    1    3    3    0    0  0.67032305196E+01  0.46478767042E+02  0.17056401031E+02  0.49961284026E+02  0.51100000000E-03 0.  1.
         22    1    1    0    0    0  0.23500552142E+02 -0.17565038606E+02  0.15127204655E+01  0.29378476057E+02  0.00000000000E+00 0. -1.
</event>
<event>
 5    1  0.1043455E-009  0.9118800E+02  0.7561462E-02  0.1125453E+00
         25   -1    0    0    0    0  0.00000000000E+00  0.00000000000E+00  0.99999998245E-14  0.12509000000E+03  0.12509000000E+03 0.  0.
        -11    1    3    3    0    0  0.34073277699E+02 -0.10503166561E+02 -0.30776437888E+01  0.35787940043E+02  0.51100000000E-03 0.  1.
         23    2    1    0    0    0 -0.15191397060E+02  0.44772578259E+01  0.25794134414E+02  0.94821835991E+02  0.89861108541E+02 0.  0.
         11    1    3    3    0    0 -0.49264674759E+02  0.14980424387E+02  0.28871778203E+02  0.59033895948E+02  0.51100000000E-03 0. -1.
         22    1    1    0    0    0  0.15191397060E+02 -0.44772578259E+01 -0.25794134414E+02  0.30268164009E+02  0.00000000000E+00 0. -1.
</event>
<event>
 5    1  0.1043455E-009  0.9118800E+02  0.7561462E-02  0.1125453E+00
         25   -1    0    0    0    0  0.00000000000E+00  0.00000000000E+00  0.99999998245E-14  0.12509000000E+03  0.12509000000E+03 0.  0.
        -11    1    3    3    0    0 -0.12331092705E+02  0.51362647195E+02  0.23470280054E+02  0.57801655861E+02  0.51100000000E-03 0.  1.
         23    2    1    0    0    0 -0.19668990802E+02  0.14523158310E+02  0.15314223043E+02  0.96240099586E+02  0.91814160207E+02 0.  0.
         11    1    3    3    0    0 -0.73378980970E+01 -0.36839488885E+02 -0.81560570110E+01  0.38438443725E+02  0.51100000000E-03 0. -1.
         22    1    1    0    0    0  0.19668990802E+02 -0.14523158310E+02 -0.15314223043E+02  0.28849900414E+02  0.00000000000E+00 0.  1.
</event>
<event>
 5    1  0.1043455E-009  0.9118800E+02  0.7561462E-02  0.1125453E+00
         25   -1    0    0    0    0  0.00000000000E+00  0.00000000000E+00  0.99999998245E-14  0.12509000000E+03  0.12509000000E+03 0.  0.
        -11    1    3    3    0    0 -0.12276798002E+02 -0.48663916196E+02 -0.23462553103E+02  0.55402056885E+02  0.51100000000E-03 0. -1.
         23    2    1    0    0    0 -0.66931412545E+01 -0.29669052115E+02  0.89524648630E+01  0.93385151469E+02  0.87838426070E+02 0.  0.
         11    1    3    3    0    0  0.55836567479E+01  0.18994864081E+02  0.32415017966E+02  0.37983094583E+02  0.51100000000E-03 0.  1.
         22    1    1    0    0    0  0.66931412545E+01  0.29669052115E+02 -0.89524648630E+01  0.31704848531E+02  0.00000000000E+00 0. -1.
</event>
<event>
 5    1  0.1043455E-009  0.9118800E+02  0.7561462E-02  0.1125453E+00
         25   -1    0    0    0    0  0.00000000000E+00  0.00000000000E+00  0.99999998245E-14  0.12509000000E+03  0.12509000000E+03 0.  0.
        -11    1    3    3    0    0 -0.93586618348E+01 -0.84193176819E+01  0.33005126550E+02  0.35324323637E+02  0.51100000000E-03 0.  1.
         23    2    1    0    0    0 -0.44456559968E+01  0.22422910771E+02 -0.18583477406E+02  0.95629918242E+02  0.90979035199E+02 0.  0.
         11    1    3    3    0    0  0.49130058379E+01  0.30842228453E+02 -0.51588603956E+02  0.60305594605E+02  0.51100000000E-03 0. -1.
         22    1    1    0    0    0  0.44456559968E+01 -0.22422910771E+02  0.18583477406E+02  0.29460081758E+02  0.00000000000E+00 0. -1.
</event>
<event>
 5    1  0.1043455E-009  0.9118800E+02  0.7561462E-02  0.1125453E+00
         25   -1    0    0    0    0  0.00000000000E+00  0.00000000000E+00  0.99999998245E-14  0.12509000000E+03  0.12509000000E+03 0.  0.
        -11    1    3    3    0    0  0.10947785438E+02 -0.15496176551E+02 -0.33375045580E+02  0.38391133890E+02  0.51100000000E-03 0.  1.
         23    2    1    0    0    0 -0.18209175167E+02  0.21463617201E+02  0.13837193669E+01  0.96908878608E+02  0.92720845283E+02 0.  0.
         11    1    3    3    0    0 -0.29156960605E+02  0.36959793752E+02  0.34758764947E+02  0.58517744717E+02  0.51100000000E-03 0. -1.
         22    1    1    0    0    0  0.18209175167E+02 -0.21463617201E+02 -0.13837193669E+01  0.28181121392E+02  0.00000000000E+00 0. -1.
</event>
<event>
 5    1  0.1043455E-009  0.9118800E+02  0.7561462E-02  0.1125453E+00
         25   -1    0    0    0    0  0.00000000000E+00  0.00000000000E+00  0.99999998245E-14  0.12509000000E+03  0.12509000000E+03 0.  0.
        -11    1    3    3    0    0  0.31071656963E+02 -0.88307885330E+01  0.14365855821E+02  0.35352630825E+02  0.51100000000E-03 0.  1.
         23    2    1    0    0    0 -0.16476110985E+02 -0.10525779574E+02 -0.22309707812E+02  0.95425588132E+02  0.90697660051E+02 0.  0.
         11    1    3    3    0    0 -0.47547767948E+02 -0.16949910412E+01 -0.36675563634E+02  0.60072957306E+02  0.51100000000E-03 0. -1.
         22    1    1    0    0    0  0.16476110985E+02  0.10525779574E+02  0.22309707812E+02  0.29664411868E+02  0.00000000000E+00 0. -1.
</event>
<event>
 5    1  0.1043455E-009  0.9118800E+02  0.7561462E-02  0.1125453E+00
         25   -1    0    0    0    0  0.00000000000E+00  0.00000000000E+00  0.99999998245E-14  0.12509000000E+03  0.12509000000E+03 0.  0.
        -11    1    3    3    0    0 -0.60909252422E+02  0.56764644028E+01 -0.27740644220E+01  0.61236057290E+02  0.51100000000E-03 0.  1.
         23    2    1    0    0    0 -0.28271763867E+02 -0.64028730429E+01 -0.16513750207E+01  0.96055254353E+02  0.91561975918E+02 0.  0.
         11    1    3    3    0    0  0.32637488556E+02 -0.12079337446E+02  0.11226894012E+01  0.34819197063E+02  0.51100000000E-03 0. -1.
         22    1    1    0    0    0  0.28271763867E+02  0.64028730429E+01  0.16513750207E+01  0.29034745647E+02  0.00000000000E+00 0.  1.
</event>
<event>
 5    1  0.1043455E-009  0.9118800E+02  0.7561462E-02  0.1125453E+00
         25   -1    0    0    0    0  0.00000000000E+00  0.00000000000E+00  0.99999998245E-14  0.12509000000E+03  0.12509000000E+03 0.  0.
        -11    1    3    3    0    0  0.23909950339E+02  0.32190134454E+02  0.32389794830E+02  0.51545991995E+02  0.51100000000E-03 0.  1.
         23    2    1    0    0    0 -0.94646933629E+01  0.29416170187E+02  0.74461044908E+01  0.93304217628E+02  0.87723093117E+02 0.  0.
         11    1    3    3    0    0 -0.33374643702E+02 -0.27739642664E+01 -0.24943690340E+02  0.41758225633E+02  0.51100000000E-03 0. -1.
         22    1    1    0    0    0  0.94646933629E+01 -0.29416170187E+02 -0.74461044908E+01  0.31785782372E+02  0.00000000000E+00 0.  1.
</event>
<event>
 5    1  0.1043455E-009  0.9118800E+02  0.7561462E-02  0.1125453E+00
         25   -1    0    0    0    0  0.00000000000E+00  0.00000000000E+00  0.99999998245E-14  0.12509000000E+03  0.12509000000E+03 0.  0.
        -11    1    3    3    0    0 -0.33920841307E+02  0.11331422068E+02 -0.19306013123E+01  0.35815524885E+02  0.51100000000E-03 0. -1.
         23    2    1    0    0    0  0.25529974491E+02  0.59301666816E+01 -0.11843504249E+02  0.96328653243E+02  0.91934728848E+02 0.  0.
         11    1    3    3    0    0  0.59450815798E+02 -0.54012553859E+01 -0.99129029368E+01  0.60513128358E+02  0.51100000000E-03 0.  1.
         22    1    1    0    0    0 -0.25529974491E+02 -0.59301666816E+01  0.11843504249E+02  0.28761346757E+02  0.00000000000E+00 0.  1.
</event>
<event>
 5    1  0.1043455E-009  0.9118800E+02  0.7561462E-02  0.1125453E+00
         25   -1    0    0    0    0  0.00000000000E+00  0.00000000000E+00  0.99999998245E-14  0.12509000000E+03  0.12509000000E+03 0.  0.
        -11    1    3    3    0    0  0.15220345212E+02 -0.42075708647E+02 -0.21365985733E+02  0.49583560916E+02  0.51100000000E-03 0.  1.
         23    2    1    0    0    0 -0.12479912844E+02 -0.30632764714E+01 -0.24386245560E+02  0.97525151736E+02  0.93548566859E+02 0.  0.
         11    1    3    3    0    0 -0.27700258056E+02  0.39012432176E+02 -0.30202598269E+01  0.47941590820E+02  0.51100000000E-03 0. -1.
         22    1    1    0    0    0  0.12479912844E+02  0.30632764714E+01  0.24386245560E+02  0.27564848264E+02  0.00000000000E+00 0.  1.
</event>
<event>
 5    1  0.1043455E-009  0.9118800E+02  0.7561462E-02  0.1125453E+00
         25   -1    0    0    0    0  0.00000000000E+00  0.00000000000E+00  0.99999998245E-14  0.12509000000E+03  0.12509000000E+03 0.  0.
        -11    1    3    3    0    0  0.19756219888E+02 -0.38315459572E+02 -0.21375192108E+02  0.48117372168E+02  0.51100000000E-03 0.  1.
         23    2    1    0    0    0  0.56567994240E+00 -0.23802880651E+02  0.18669067998E+02  0.94833906051E+02  0.89877908943E+02 0.  0.
         11    1    3    3    0    0 -0.19190539946E+02  0.14512578920E+02  0.40044260107E+02  0.46716533883E+02  0.51100000000E-03 0. -1.
         22    1    1    0    0    0 -0.56567994240E+00  0.23802880651E+02 -0.18669067998E+02  0.30256093949E+02  0.00000000000E+00 0. -1.
</event>
<event>
 5    1  0.1043455E-009  0.9118800E+02  0.7561462E-02  0.1125453E+00
         25   -1    0    0    0    0  0.00000000000E+00  0.00000000000E+00  0.99999998245E-14  0.12509000000E+03  0.12509000000E+03 0.  0.
        -11    1    3    3    0    0 -0.36413961924E+02  0.17257586685E+02 -0.12710370453E+02  0.42253454752E+02  0.51100000000E-03 0.  1.
         23    2    1    0    0    0  0.16997559022E+02  0.19192212740E+02 -0.14320912816E+02  0.95724261691E+02  0.91108658698E+02 0.  0.
         11    1    3    3    0    0  0.53411520946E+02  0.19346260551E+01 -0.16105423630E+01  0.53470806939E+02  0.51100000000E-03 0. -1.
         22    1    1    0    0    0 -0.16997559022E+02 -0.19192212740E+02  0.14320912816E+02  0.29365738309E+02  0.00000000000E+00 0. -1.
</event>
<event>
 5    1  0.1043455E-009  0.9118800E+02  0.7561462E-02  0.1125453E+00
         25   -1    0    0    0    0  0.00000000000E+00  0.00000000000E+00  0.99999998245E-14  0.12509000000E+03  0.12509000000E+03 0.  0.
        -11    1    3    3    0    0  0.86800160934E+01 -0.13015212184E+02 -0.48488778972E+02  0.50949976585E+02  0.51100000000E-03 0.  1.
         23    2    1    0    0    0  0.17334863534E+02 -0.23108482143E+02 -0.58470436418E+01  0.95616497323E+02  0.90960580475E+02 0.  0.
         11    1    3    3    0    0  0.86548474402E+01 -0.10093269959E+02  0.42641735330E+02  0.44666520738E+02  0.51100000000E-03 0. -1.
         22    1    1    0    0    0 -0.17334863534E+02  0.23108482143E+02  0.58470436418E+01  0.29473502677E+02  0.00000000000E+00 0. -1.
</event>
<event>
 5    1  0.1043455E-009  0.9118800E+02  0.7561462E-02  0.1125453E+00
         25   -1    0    0    0    0  0.00000000000E+00  0.00000000000E+00  0.99999998245E-14  0.12509000000E+03  0.12509000000E+03 0.  0.
        -11    1    3    3    0    0 -0.21531140607E+01 -0.25263706796E+02 -0.23424015396E+02  0.34519201596E+02  0.51100000000E-03 0.  1.
         23    2    1    0    0    0 -0.13739407944E+02  0.27166794068E+02  0.32472481857E+01  0.94473817166E+02  0.89375340438E+02 0.  0.
         11    1    3    3    0    0 -0.11586293883E+02  0.52430500864E+02  0.26671263582E+02  0.59954615570E+02  0.51100000000E-03 0. -1.
         22    1    1    0    0    0  0.13739407944E+02 -0.27166794068E+02 -0.32472481857E+01  0.30616182834E+02  0.00000000000E+00 0. -1.
</event>
<event>
 5    1  0.1043455E-009  0.9118800E+02  0.7561462E-02  0.1125453E+00
         25   -1    0    0    0    0  0.00000000000E+00  0.00000000000E+00  0.99999998245E-14  0.12509000000E+03  0.12509000000E+03 0.  0.
        -11    1    3    3    0    0  0.25182417505E+02 -0.23775905311E+02  0.43342563827E+02  0.55479957319E+02  0.51100000000E-03 0.  1.
         23    2    1    0    0    0  0.21022591777E+02 -0.19724549416E+02  0.31484046638E+01  0.96091385092E+02  0.91611323657E+02 0.  0.
         11    1    3    3    0    0 -0.41598257287E+01  0.40513558948E+01 -0.40194159163E+02  0.40611427773E+02  0.51100000000E-03 0. -1.
         22    1    1    0    0    0 -0.21022591777E+02  0.19724549416E+02 -0.31484046638E+01  0.28998614908E+02  0.00000000000E+00 0.  1.
</event>
<event>
 5    1  0.1043455E-009  0.9118800E+02  0.7561462E-02  0.1125453E+00
         25   -1    0    0    0    0  0.00000000000E+00  0.00000000000E+00  0.99999998245E-14  0.12509000000E+03  0.12509000000E+03 0.  0.
        -11    1    3    3    0    0  0.37401056440E+02  0.13309375732E+02  0.41351248897E+02  0.57322807772E+02  0.51100000000E-03 0.  1.
         23    2    1    0    0    0  0.21599124920E+02  0.20503780791E+02  0.91022417741E+01  0.93948740723E+02  0.88637395348E+02 0.  0.
         11    1    3    3    0    0 -0.15801931520E+02  0.71944050584E+01 -0.32249007123E+02  0.36625932952E+02  0.51100000000E-03 0. -1.
         22    1    1    0    0    0 -0.21599124920E+02 -0.20503780791E+02 -0.91022417741E+01  0.31141259277E+02  0.00000000000E+00 0.  1.
</event>
<event>
 5    1  0.1043455E-009  0.9118800E+02  0.7561462E-02  0.1125453E+00
         25   -1    0    0    0    0  0.00000000000E+00  0.00000000000E+00  0.99999998245E-14  0.12509000000E+03  0.12509000000E+03 0.  0.
        -11    1    3    3    0    0  0.33100473781E+02  0.36610112283E+01 -0.48255718125E+02  0.58631550379E+02  0.51100000000E-03 0. -1.
         23    2    1    0    0    0  0.29549698422E+02  0.55385474722E+01 -0.16198200695E+02  0.90939716097E+02  0.84283984678E+02 0.  0.
         11    1    3    3    0    0 -0.35507753599E+01  0.18775362439E+01  0.32057517431E+02  0.32308165718E+02  0.51100000000E-03 0.  1.
         22    1    1    0    0    0 -0.29549698422E+02 -0.55385474722E+01  0.16198200695E+02  0.34150283903E+02  0.00000000000E+00 0. -1.
</event>
<event>
 5    1  0.1043455E-009  0.9118800E+02  0.7561462E-02  0.1125453E+00
         25   -1    0    0    0    0  0.00000000000E+00  0.00000000000E+00  0.99999998245E-14  0.12509000000E+03  0.12509000000E+03 0.  0.
        -11    1    3    3    0    0 -0.41461618542E+02 -0.18960438674E+02  0.30244490237E+02  0.54710997403E+02  0.51100000000E-03 0.  1.
         23    2    1    0    0    0 -0.16163708698E+02  0.12669138805E+02  0.19855123169E+02  0.96524313014E+02  0.92200566863E+02 0.  0.
         11    1    3    3    0    0  0.25297909845E+02  0.31629577479E+02 -0.10389367069E+02  0.41813315611E+02  0.51100000000E-03 0. -1.
         22    1    1    0    0    0  0.16163708698E+02 -0.12669138805E+02 -0.19855123169E+02  0.28565686986E+02  0.00000000000E+00 0.  1.
</event>
<event>
 5    1  0.1043455E-009  0.9118800E+02  0.7561462E-02  0.1125453E+00
         25   -1    0    0    0    0  0.00000000000E+00  0.00000000000E+00  0.99999998245E-14  0.12509000000E+03  0.12509000000E+03 0.  0.
        -11    1    3    3    0    0  0.20440472906E+02  0.32258036077E+02  0.25170942182E+01  0.38271785792E+02  0.51100000000E-03 0. -1.
         23    2    1    0    0    0 -0.20154226197E+01 -0.83534348293E+01 -0.29311734101E+02  0.94544631157E+02  0.89474397024E+02 0.  0.
         11    1    3    3    0    0 -0.22455895526E+02 -0.40611470906E+02 -0.31828828319E+02  0.56272845365E+02  0.51100000000E-03 0.  1.
         22    1    1    0    0    0  0.20154226197E+01  0.83534348293E+01  0.29311734101E+02  0.30545368843E+02  0.00000000000E+00 0.  1.
</event>
<event>
 5    1  0.1043455E-009  0.9118800E+02  0.7561462E-02  0.1125453E+00
         25   -1    0    0    0    0  0.00000000000E+00  0.00000000000E+00  0.99999998245E-14  0.12509000000E+03  0.12509000000E+03 0.  0.
        -11    1    3    3    0    0 -0.38983452605E+02 -0.27778124065E+02  0.30444205283E+02  0.56729034798E+02  0.51100000000E-03 0.  1.
         23    2    1    0    0    0 -0.27946846538E+02 -0.47314165690E+01 -0.34842516340E+00  0.96743325870E+02  0.92497227883E+02 0.  0.
         11    1    3    3    0    0  0.11036606068E+02  0.23046707496E+02 -0.30792630446E+02  0.40014291071E+02  0.51100000000E-03 0. -1.
         22    1    1    0    0    0  0.27946846538E+02  0.47314165690E+01  0.34842516340E+00  0.28346674130E+02  0.00000000000E+00 0.  1.
</event>
<event>
 5    1  0.1043455E-009  0.9118800E+02  0.7561462E-02  0.1125453E+00
         25   -1    0    0    0    0  0.00000000000E+00  0.00000000000E+00  0.99999998245E-14  0.12509000000E+03  0.12509000000E+03 0.  0.
        -11    1    3    3    0    0  0.59292415400E+01 -0.24723200865E+02  0.41905002239E+02  0.49014505804E+02  0.51100000000E-03 0.  1.
         23    2    1    0    0    0 -0.13776889102E+02 -0.27796264815E+02  0.15509431047E+01  0.94028119254E+02  0.88749348025E+02 0.  0.
         11    1    3    3    0    0 -0.19706130642E+02 -0.30730639498E+01 -0.40354059134E+02  0.45013613450E+02  0.51100000000E-03 0. -1.
         22    1    1    0    0    0  0.13776889102E+02  0.27796264815E+02 -0.15509431047E+01  0.31061880746E+02  0.00000000000E+00 0.  1.
</event>
<event>
 5    1  0.1043455E-009  0.9118800E+02  0.7561462E-02  0.1125453E+00
         25   -1    0    0    0    0  0.00000000000E+00  0.00000000000E+00  0.99999998245E-14  0.12509000000E+03  0.12509000000E+03 0.  0.
        -11    1    3    3    0    0 -0.12775212948E+02 -0.47611158970E+02 -0.40199016876E+01  0.49458954035E+02  0.51100000000E-03 0. -1.
         23    2    1    0    0    0 -0.15187212916E+02 -0.59181034609E+01 -0.24256056742E+02  0.95866179692E+02  0.91303300791E+02 0.  0.
         11    1    3    3    0    0 -0.24119999671E+01  0.41693055509E+02 -0.20236155054E+02  0.46407225657E+02  0.51100000000E-03 0.  1.
         22    1    1    0    0    0  0.15187212916E+02  0.59181034609E+01  0.24256056742E+02  0.29223820308E+02  0.00000000000E+00 0.  1.
</event>
<event>
 5    1  0.1043455E-009  0.9118800E+02  0.7561462E-02  0.1125453E+00
         25   -1    0    0    0    0  0.00000000000E+00  0.00000000000E+00  0.99999998245E-14  0.12509000000E+03  0.12509000000E+03 0.  0.
        -11    1    3    3    0    0  0.70586939823E+01 -0.48413049931E+02 -0.13839729956E+02  0.50844731191E+02  0.51100000000E-03 0.  1.
         23    2    1    0    0    0  0.27436588505E+02 -0.97011653780E+01 -0.36768503679E+01  0.95757454472E+02  0.91154220198E+02 0.  0.
         11    1    3    3    0    0  0.20377894523E+02  0.38711884553E+02  0.10162879588E+02  0.44912723282E+02  0.51100000000E-03 0. -1.
         22    1    1    0    0    0 -0.27436588505E+02  0.97011653780E+01  0.36768503679E+01  0.29332545528E+02  0.00000000000E+00 0. -1.
</event>
<event>
 5    1  0.1043455E-009  0.9118800E+02  0.7561462E-02  0.1125453E+00
         25   -1    0    0    0    0  0.00000000000E+00  0.00000000000E+00  0.99999998245E-14  0.12509000000E+03  0.12509000000E+03 0.  0.
        -11    1    3    3    0    0  0.40205810596E+02 -0.31274825301E+01  0.44620190197E+02  0.60143575934E+02  0.51100000000E-03 0.  1.
         23    2    1    0    0    0  0.23644403818E+02 -0.12141230315E+02  0.17165700269E+02  0.93449384153E+02  0.87929851741E+02 0.  0.
         11    1    3    3    0    0 -0.16561406777E+02 -0.90137477852E+01 -0.27454489929E+02  0.33305808218E+02  0.51100000000E-03 0. -1.
         22    1    1    0    0    0 -0.23644403818E+02  0.12141230315E+02 -0.17165700269E+02  0.31640615847E+02  0.00000000000E+00 0.  1.
</event>
<event>
 5    1  0.1043455E-009  0.9118800E+02  0.7561462E-02  0.1125453E+00
         25   -1    0    0    0    0  0.00000000000E+00  0.00000000000E+00  0.99999998245E-14  0.12509000000E+03  0.12509000000E+03 0.  0.
        -11    1    3    3    0    0 -0.44488622264E+02  0.21474890487E+02  0.65861434691E+01  0.49837593426E+02  0.51100000000E-03 0. -1.
         23    2    1    0    0    0 -0.24920345401E+02 -0.15052921285E+02 -0.97594798148E+01  0.94383950101E+02  0.89249473591E+02 0.  0.
         11    1    3    3    0    0  0.19568276863E+02 -0.36527811772E+02 -0.16345623284E+02  0.44546356676E+02  0.51100000000E-03 0.  1.
         22    1    1    0    0    0  0.24920345401E+02  0.15052921285E+02  0.97594798148E+01  0.30706049899E+02  0.00000000000E+00 0. -1.
</event>
<event>
 5    1  0.1043455E-009  0.9118800E+02  0.7561462E-02  0.1125453E+00
         25   -1    0    0    0    0  0.00000000000E+00  0.00000000000E+00  0.99999998245E-14  0.12509000000E+03  0.12509000000E+03 0.  0.
        -11    1    3    3    0    0 -0.34910030806E+02  0.96145665856E+01  0.37233274124E+02  0.51937143200E+02  0.51100000000E-03 0.  1.
         23    2    1    0    0    0 -0.10742537086E+02  0.27175428569E+02  0.58068168507E+01  0.95296961503E+02  0.90520084671E+02 0.  0.
         11    1    3    3    0    0  0.24167493720E+02  0.17560861983E+02 -0.31426457274E+02  0.43359818304E+02  0.51100000000E-03 0. -1.
         22    1    1    0    0    0  0.10742537086E+02 -0.27175428569E+02 -0.58068168507E+01  0.29793038497E+02  0.00000000000E+00 0. -1.
</event>
<event>
 5    1  0.1043455E-009  0.9118800E+02  0.7561462E-02  0.1125453E+00
         25   -1    0    0    0    0  0.00000000000E+00  0.00000000000E+00  0.99999998245E-14  0.12509000000E+03  0.12509000000E+03 0.  0.
        -11    1    3    3    0    0  0.22104126032E+02  0.33940786424E+02  0.11304166463E+02  0.42051796043E+02  0.51100000000E-03 0. -1.
         23    2    1    0    0    0  0.46301317183E+01  0.21476044592E+01 -0.28632435483E+02  0.96006212655E+02  0.91494951675E+02 0.  0.
         11    1    3    3    0    0 -0.17473994314E+02 -0.31793181965E+02 -0.39936601946E+02  0.53954416612E+02  0.51100000000E-03 0.  1.
         22    1    1    0    0    0 -0.46301317183E+01 -0.21476044592E+01  0.28632435483E+02  0.29083787345E+02  0.00000000000E+00 0.  1.
</event>
<event>
 5    1  0.1043455E-009  0.9118800E+02  0.7561462E-02  0.1125453E+00
         25   -1    0    0    0    0  0.00000000000E+00  0.00000000000E+00  0.99999998245E-14  0.12509000000E+03  0.12509000000E+03 0.  0.
        -11    1    3    3    0    0 -0.38610501845E+02  0.24388877061E+02 -0.24341900384E+02  0.51750519723E+02  0.51100000000E-03 0.  1.
         23    2    1    0    0    0 -0.20122332213E+02 -0.14419832608E+02 -0.16207090914E+02  0.95500988154E+02  0.90801592036E+02 0.  0.
         11    1    3    3    0    0  0.18488169632E+02 -0.38808709670E+02  0.81348094707E+01  0.43750468431E+02  0.51100000000E-03 0. -1.
         22    1    1    0    0    0  0.20122332213E+02  0.14419832608E+02  0.16207090914E+02  0.29589011846E+02  0.00000000000E+00 0.  1.
</event>
<event>
 5    1  0.1043455E-009  0.9118800E+02  0.7561462E-02  0.1125453E+00
         25   -1    0    0    0    0  0.00000000000E+00  0.00000000000E+00  0.99999998245E-14  0.12509000000E+03  0.12509000000E+03 0.  0.
        -11    1    3    3    0    0  0.31391199215E+02 -0.18299755331E+02  0.37567058161E+02  0.52264445778E+02  0.51100000000E-03 0. -1.
         23    2    1    0    0    0  0.27185483077E+02 -0.42496370965E+01 -0.48542843346E+01  0.97149456305E+02  0.93044843373E+02 0.  0.
         11    1    3    3    0    0 -0.42057161382E+01  0.14050118235E+02 -0.42421342495E+02  0.44885010527E+02  0.51100000000E-03 0.  1.
         22    1    1    0    0    0 -0.27185483077E+02  0.42496370965E+01  0.48542843346E+01  0.27940543695E+02  0.00000000000E+00 0. -1.
</event>
<event>
 5    1  0.1043455E-009  0.9118800E+02  0.7561462E-02  0.1125453E+00
         25   -1    0    0    0    0  0.00000000000E+00  0.00000000000E+00  0.99999998245E-14  0.12509000000E+03  0.12509000000E+03 0.  0.
        -11    1    3    3    0    0  0.19144686702E+02 -0.32685496676E+02  0.19448685113E+02  0.42580653761E+02  0.51100000000E-03 0. -1.
         23    2    1    0    0    0  0.54403872149E+01  0.18325923386E+02  0.22593439781E+02  0.95494378666E+02  0.90792486224E+02 0.  0.
         11    1    3    3    0    0 -0.13704299487E+02  0.51011420061E+02  0.31447546679E+01  0.52913724905E+02  0.51100000000E-03 0.  1.
         22    1    1    0    0    0 -0.54403872149E+01 -0.18325923386E+02 -0.22593439781E+02  0.29595621334E+02  0.00000000000E+00 0. -1.
</event>
<event>
 5    1  0.1043455E-009  0.9118800E+02  0.7561462E-02  0.1125453E+00
         25   -1    0    0    0    0  0.00000000000E+00  0.00000000000E+00  0.99999998245E-14  0.12509000000E+03  0.12509000000E+03 0.  0.
        -11    1    3    3    0    0 -0.45444332937E+02  0.35945632486E+01 -0.20150452147E+02  0.49841237976E+02  0.51100000000E-03 0.  1.
         23    2    1    0    0    0 -0.65572974063E+01  0.26351558941E+02 -0.10849548669E+02  0.95847641781E+02  0.91277899410E+02 0.  0.
         11    1    3    3    0    0  0.38887035530E+02  0.22756995692E+02  0.93009034783E+01  0.46006403805E+02  0.51100000000E-03 0. -1.
         22    1    1    0    0    0  0.65572974063E+01 -0.26351558941E+02  0.10849548669E+02  0.29242358219E+02  0.00000000000E+00 0.  1.
</event>
<event>
 5    1  0.1043455E-009  0.9118800E+02  0.7561462E-02  0.1125453E+00
         25   -1    0    0    0    0  0.00000000000E+00  0.00000000000E+00  0.99999998245E-14  0.12509000000E+03  0.12509000000E+03 0.  0.
        -11    1    3    3    0    0 -0.37832478944E+02  0.33024524859E+02 -0.25910328182E+02  0.56508944531E+02  0.51100000000E-03 0.  1.
         23    2    1    0    0    0 -0.25993446009E+02 -0.10605808618E+01 -0.18017826535E+02  0.93444682176E+02  0.87923162402E+02 0.  0.
         11    1    3    3    0    0  0.11839032936E+02 -0.34085105721E+02  0.78925016474E+01  0.36935737645E+02  0.51100000000E-03 0. -1.
         22    1    1    0    0    0  0.25993446009E+02  0.10605808618E+01  0.18017826535E+02  0.31645317824E+02  0.00000000000E+00 0.  1.
</event>
<event>
 5    1  0.1043455E-009  0.9118800E+02  0.7561462E-02  0.1125453E+00
         25   -1    0    0    0    0  0.00000000000E+00  0.00000000000E+00  0.99999998245E-14  0.12509000000E+03  0.12509000000E+03 0.  0.
        -11    1    3    3    0    0  0.53710383044E+01  0.20688708831E+02 -0.29162447384E+02  0.36156867443E+02  0.51100000000E-03 0.  1.
         23    2    1    0    0    0 -0.18497573712E+01 -0.20545320653E+02  0.16916991982E+02  0.98411986191E+02  0.94726989846E+02 0.  0.
         11    1    3    3    0    0 -0.72207956755E+01 -0.41234029484E+02  0.46079439367E+02  0.62255118748E+02  0.51100000000E-03 0. -1.
         22    1    1    0    0    0  0.18497573712E+01  0.20545320653E+02 -0.16916991982E+02  0.26678013809E+02  0.00000000000E+00 0. -1.
</event>
<event>
 5    1  0.1043455E-009  0.9118800E+02  0.7561462E-02  0.1125453E+00
         25   -1    0    0    0    0  0.00000000000E+00  0.00000000000E+00  0.99999998245E-14  0.12509000000E+03  0.12509000000E+03 0.  0.
        -11    1    3    3    0    0  0.11805199053E+02  0.42006867563E+01 -0.50651936824E+02  0.52178800276E+02  0.51100000000E-03 0.  1.
         23    2    1    0    0    0 -0.62698807577E+01 -0.20724888329E+02 -0.21261433050E+02  0.94743979893E+02  0.89752664527E+02 0.  0.
         11    1    3    3    0    0 -0.18075079811E+02 -0.24925575086E+02  0.29390503774E+02  0.42565179618E+02  0.51100000000E-03 0. -1.
         22    1    1    0    0    0  0.62698807577E+01  0.20724888329E+02  0.21261433050E+02  0.30346020107E+02  0.00000000000E+00 0.  1.
</event>
<event>
 5    1  0.1043455E-009  0.9118800E+02  0.7561462E-02  0.1125453E+00
         25   -1    0    0    0    0  0.00000000000E+00  0.00000000000E+00  0.99999998245E-14  0.12509000000E+03  0.12509000000E+03 0.  0.
        -11    1    3    3    0    0 -0.31230158958E+02  0.37650303870E+02  0.37509041521E+02  0.61642488643E+02  0.51100000000E-03 0. -1.
         23    2    1    0    0    0 -0.20912616429E+02  0.14140501847E+02  0.15440868727E+02  0.95497572837E+02  0.90796886908E+02 0.  0.
         11    1    3    3    0    0  0.10317542529E+02 -0.23509802023E+02 -0.22068172794E+02  0.33855084193E+02  0.51100000000E-03 0.  1.
         22    1    1    0    0    0  0.20912616429E+02 -0.14140501847E+02 -0.15440868727E+02  0.29592427163E+02  0.00000000000E+00 0. -1.
</event>
<event>
 5    1  0.1043455E-009  0.9118800E+02  0.7561462E-02  0.1125453E+00
         25   -1    0    0    0    0  0.00000000000E+00  0.00000000000E+00  0.99999998245E-14  0.12509000000E+03  0.12509000000E+03 0.  0.
        -11    1    3    3    0    0 -0.43321295051E+00 -0.29174304172E+02 -0.98136970001E+01  0.30783702612E+02  0.51100000000E-03 0. -1.
         23    2    1    0    0    0 -0.32310602409E+01  0.29617891861E+02  0.11170430694E+02  0.93271172390E+02  0.87675959125E+02 0.  0.
         11    1    3    3    0    0 -0.27978472904E+01  0.58792196034E+02  0.20984127694E+02  0.62487469778E+02  0.51100000000E-03 0.  1.
         22    1    1    0    0    0  0.32310602409E+01 -0.29617891861E+02 -0.11170430694E+02  0.31818827610E+02  0.00000000000E+00 0.  1.
</event>
<event>
 5    1  0.1043455E-009  0.9118800E+02  0.7561462E-02  0.1125453E+00
         25   -1    0    0    0    0  0.00000000000E+00  0.00000000000E+00  0.99999998245E-14  0.12509000000E+03  0.12509000000E+03 0.  0.
        -11    1    3    3    0    0  0.95630271316E+01  0.37304987507E+02 -0.46157587781E+02  0.60113530015E+02  0.51100000000E-03 0.  1.
         23    2    1    0    0    0  0.15414187315E+02  0.21000539150E+02 -0.17145483856E+02  0.93903665945E+02  0.88573760483E+02 0.  0.
         11    1    3    3    0    0  0.58511601829E+01 -0.16304448357E+02  0.29012103925E+02  0.33790135930E+02  0.51100000000E-03 0. -1.
         22    1    1    0    0    0 -0.15414187315E+02 -0.21000539150E+02  0.17145483856E+02  0.31186334055E+02  0.00000000000E+00 0.  1.
</event>
<event>
 5    1  0.1043455E-009  0.9118800E+02  0.7561462E-02  0.1125453E+00
         25   -1    0    0    0    0  0.00000000000E+00  0.00000000000E+00  0.99999998245E-14  0.12509000000E+03  0.12509000000E+03 0.  0.
        -11    1    3    3    0    0 -0.14050273425E+02 -0.26655598362E+02 -0.20692788031E+02  0.36553010603E+02  0.51100000000E-03 0.  1.
         23    2    1    0    0    0  0.20499741160E+02 -0.31015400325E+01  0.20984238895E+02  0.95590894587E+02  0.90925364490E+02 0.  0.
         11    1    3    3    0    0  0.34550014585E+02  0.23554058330E+02  0.41677026926E+02  0.59037883984E+02  0.51100000000E-03 0. -1.
         22    1    1    0    0    0 -0.20499741160E+02  0.31015400325E+01 -0.20984238895E+02  0.29499105413E+02  0.00000000000E+00 0. -1.
</event>
<event>
 5    1  0.1043455E-009  0.9118800E+02  0.7561462E-02  0.1125453E+00
         25   -1    0    0    0    0  0.00000000000E+00  0.00000000000E+00  0.99999998245E-14  0.12509000000E+03  0.12509000000E+03 0.  0.
        -11    1    3    3    0    0  0.47454366689E+01  0.11380693875E+02 -0.42721328955E+02  0.44465169630E+02  0.51100000000E-03 0.  1.
         23    2    1    0    0    0  0.29630126909E+02  0.42117768795E+01  0.84829036532E+00  0.95150008657E+02  0.90316781750E+02 0.  0.
         11    1    3    3    0    0  0.24884690240E+02 -0.71689169954E+01  0.43569619320E+02  0.50684839027E+02  0.51100000000E-03 0. -1.
         22    1    1    0    0    0 -0.29630126909E+02 -0.42117768795E+01 -0.84829036532E+00  0.29939991343E+02  0.00000000000E+00 0.  1.
</event>
<event>
 5    1  0.1043455E-009  0.9118800E+02  0.7561462E-02  0.1125453E+00
         25   -1    0    0    0    0  0.00000000000E+00  0.00000000000E+00  0.99999998245E-14  0.12509000000E+03  0.12509000000E+03 0.  0.
        -11    1    3    3    0    0 -0.34935065245E+02  0.25504852453E+02 -0.36055120413E+02  0.56310993514E+02  0.51100000000E-03 0.  1.
         23    2    1    0    0    0 -0.30930861227E+00  0.23858675406E+02 -0.16038306519E+02  0.96340054958E+02  0.91950241159E+02 0.  0.
         11    1    3    3    0    0  0.34625756633E+02 -0.16461770467E+01  0.20016813894E+02  0.40029061443E+02  0.51100000000E-03 0. -1.
         22    1    1    0    0    0  0.30930861227E+00 -0.23858675406E+02  0.16038306519E+02  0.28749945042E+02  0.00000000000E+00 0.  1.
</event>
<event>
 5    1  0.1043455E-009  0.9118800E+02  0.7561462E-02  0.1125453E+00
         25   -1    0    0    0    0  0.00000000000E+00  0.00000000000E+00  0.99999998245E-14  0.12509000000E+03  0.12509000000E+03 0.  0.
        -11    1    3    3    0    0  0.20670171292E+01  0.15580633492E+02 -0.58788965553E+02  0.60853686584E+02  0.51100000000E-03 0. -1.
         23    2    1    0    0    0 -0.91626927262E+01  0.88657081819E+01 -0.26951220824E+02  0.95275171081E+02  0.90489967405E+02 0.  0.
         11    1    3    3    0    0 -0.11229709855E+02 -0.67149253098E+01  0.31837744728E+02  0.34421484497E+02  0.51100000000E-03 0.  1.
         22    1    1    0    0    0  0.91626927262E+01 -0.88657081819E+01  0.26951220824E+02  0.29814828919E+02  0.00000000000E+00 0. -1.
</event>
<event>
 5    1  0.1043455E-009  0.9118800E+02  0.7561462E-02  0.1125453E+00
         25   -1    0    0    0    0  0.00000000000E+00  0.00000000000E+00  0.99999998245E-14  0.12509000000E+03  0.12509000000E+03 0.  0.
        -11    1    3    3    0    0 -0.13274226368E+01  0.30409269422E+02  0.89766208780E+01  0.31734294388E+02  0.51100000000E-03 0. -1.
         23    2    1    0    0    0 -0.45971306531E+01 -0.29471247723E+02 -0.82744073039E+01  0.94135939380E+02  0.88901187923E+02 0.  0.
         11    1    3    3    0    0 -0.32697080163E+01 -0.59880517146E+02 -0.17251028182E+02  0.62401644992E+02  0.51100000000E-03 0.  1.
         22    1    1    0    0    0  0.45971306531E+01  0.29471247723E+02  0.82744073039E+01  0.30954060620E+02  0.00000000000E+00 0.  1.
</event>
<event>
 5    1  0.1043455E-009  0.9118800E+02  0.7561462E-02  0.1125453E+00
         25   -1    0    0    0    0  0.00000000000E+00  0.00000000000E+00  0.99999998245E-14  0.12509000000E+03  0.12509000000E+03 0.  0.
        -11    1    3    3    0    0 -0.31595059000E+02  0.30616425007E+02 -0.19067763567E+02  0.47949899282E+02  0.51100000000E-03 0. -1.
         23    2    1    0    0    0  0.91087359597E+01  0.65449977905E+01 -0.26957322741E+02  0.95892340570E+02  0.91339135444E+02 0.  0.
         11    1    3    3    0    0  0.40703794960E+02 -0.24071427217E+02 -0.78895591737E+01  0.47942441288E+02  0.51100000000E-03 0.  1.
         22    1    1    0    0    0 -0.91087359597E+01 -0.65449977905E+01  0.26957322741E+02  0.29197659430E+02  0.00000000000E+00 0.  1.
</event>
<event>
 5    1  0.1043455E-009  0.9118800E+02  0.7561462E-02  0.1125453E+00
         25   -1    0    0    0    0  0.00000000000E+00  0.00000000000E+00  0.99999998245E-14  0.12509000000E+03  0.12509000000E+03 0.  0.
        -11    1    3    3    0    0 -0.39592076279E+02 -0.24058076799E+02 -0.28873598647E+02  0.54589451934E+02  0.51100000000E-03 0.  1.
         23    2    1    0    0    0 -0.34696862170E+02  0.46079194066E+01 -0.12767744784E+02  0.87832511188E+02  0.79538855592E+02 0.  0.
         11    1    3    3    0    0  0.48952141086E+01  0.28665996206E+02  0.16105853863E+02  0.33243059254E+02  0.51100000000E-03 0. -1.
         22    1    1    0    0    0  0.34696862170E+02 -0.46079194066E+01  0.12767744784E+02  0.37257488812E+02  0.00000000000E+00 0.  1.
</event>
<event>
 5    1  0.1043455E-009  0.9118800E+02  0.7561462E-02  0.1125453E+00
         25   -1    0    0    0    0  0.00000000000E+00  0.00000000000E+00  0.99999998245E-14  0.12509000000E+03  0.12509000000E+03 0.  0.
        -11    1    3    3    0    0 -0.37275853304E+02  0.34833471365E+02 -0.29637074057E+02  0.59001831547E+02  0.51100000000E-03 0.  1.
         23    2    1    0    0    0 -0.17314323577E+02  0.50137162436E+01 -0.23604927360E+02  0.95389566549E+02  0.90647965555E+02 0.  0.
         11    1    3    3    0    0  0.19961529727E+02 -0.29819755122E+02  0.60321466973E+01  0.36387735002E+02  0.51100000000E-03 0. -1.
         22    1    1    0    0    0  0.17314323577E+02 -0.50137162436E+01  0.23604927360E+02  0.29700433451E+02  0.00000000000E+00 0.  1.
</event>
<event>
 5    1  0.1043455E-009  0.9118800E+02  0.7561462E-02  0.1125453E+00
         25   -1    0    0    0    0  0.00000000000E+00  0.00000000000E+00  0.99999998245E-14  0.12509000000E+03  0.12509000000E+03 0.  0.
        -11    1    3    3    0    0  0.28438112886E+02  0.28023556914E+02 -0.17479589715E+02  0.43584195111E+02  0.51100000000E-03 0. -1.
         23    2    1    0    0    0  0.34148970912E+02 -0.91268668007E+01  0.78139166388E+01  0.88889044140E+02  0.81183452519E+02 0.  0.
         11    1    3    3    0    0  0.57108580264E+01 -0.37150423715E+02  0.25293506354E+02  0.45304849029E+02  0.51100000000E-03 0.  1.
         22    1    1    0    0    0 -0.34148970912E+02  0.91268668007E+01 -0.78139166388E+01  0.36200955860E+02  0.00000000000E+00 0.  1.
</event>
<event>
 5    1  0.1043455E-009  0.9118800E+02  0.7561462E-02  0.1125453E+00
         25   -1    0    0    0    0  0.00000000000E+00  0.00000000000E+00  0.99999998245E-14  0.12509000000E+03  0.12509000000E+03 0.  0.
        -11    1    3    3    0    0  0.43077932731E+02 -0.31710397054E+01 -0.18727911581E+01  0.43235068268E+02  0.51100000000E-03 0. -1.
         23    2    1    0    0    0 -0.31764426406E+01  0.26556660616E+02  0.13212938281E+01  0.98311429681E+02  0.94594108578E+02 0.  0.
         11    1    3    3    0    0 -0.46254375371E+02  0.29727700321E+02  0.31940849862E+01  0.55076361413E+02  0.51100000000E-03 0.  1.
         22    1    1    0    0    0  0.31764426406E+01 -0.26556660616E+02 -0.13212938281E+01  0.26778570319E+02  0.00000000000E+00 0.  1.
</event>
<event>
 5    1  0.1043455E-009  0.9118800E+02  0.7561462E-02  0.1125453E+00
         25   -1    0    0    0    0  0.00000000000E+00  0.00000000000E+00  0.99999998245E-14  0.12509000000E+03  0.12509000000E+03 0.  0.
        -11    1    3    3    0    0  0.40828104594E+02 -0.31726713744E+02  0.29906419588E+02  0.59732005010E+02  0.51100000000E-03 0.  1.
         23    2    1    0    0    0  0.14455954688E+02 -0.14699519537E+02  0.26801091292E+02  0.91276556002E+02  0.84782431438E+02 0.  0.
         11    1    3    3    0    0 -0.26372149905E+02  0.17027194207E+02 -0.31053282959E+01  0.31544550992E+02  0.51100000000E-03 0. -1.
         22    1    1    0    0    0 -0.14455954688E+02  0.14699519537E+02 -0.26801091292E+02  0.33813443998E+02  0.00000000000E+00 0.  1.
</event>
<event>
 5    1  0.1043455E-009  0.9118800E+02  0.7561462E-02  0.1125453E+00
         25   -1    0    0    0    0  0.00000000000E+00  0.00000000000E+00  0.99999998245E-14  0.12509000000E+03  0.12509000000E+03 0.  0.
        -11    1    3    3    0    0 -0.76235465400E+01 -0.21767543466E+02  0.28312957148E+02  0.36518049689E+02  0.51100000000E-03 0.  1.
         23    2    1    0    0    0  0.18954636102E+02  0.19282853511E+02 -0.73804154928E+01  0.97061849827E+02  0.92926990104E+02 0.  0.
         11    1    3    3    0    0  0.26578182642E+02  0.41050396976E+02 -0.35693372641E+02  0.60543800138E+02  0.51100000000E-03 0. -1.
         22    1    1    0    0    0 -0.18954636102E+02 -0.19282853511E+02  0.73804154928E+01  0.28028150173E+02  0.00000000000E+00 0. -1.
</event>
<event>
 5    1  0.1043455E-009  0.9118800E+02  0.7561462E-02  0.1125453E+00
         25   -1    0    0    0    0  0.00000000000E+00  0.00000000000E+00  0.99999998245E-14  0.12509000000E+03  0.12509000000E+03 0.  0.
        -11    1    3    3    0    0  0.50235781092E+02  0.26499490725E+02 -0.15819976927E+02  0.58958700637E+02  0.51100000000E-03 0.  1.
         23    2    1    0    0    0  0.24290751476E+02  0.17087102807E+02  0.67759074881E+01  0.94628177797E+02  0.89591123563E+02 0.  0.
         11    1    3    3    0    0 -0.25945029616E+02 -0.94123879177E+01  0.22595884415E+02  0.35669477160E+02  0.51100000000E-03 0. -1.
         22    1    1    0    0    0 -0.24290751476E+02 -0.17087102807E+02 -0.67759074881E+01  0.30461822203E+02  0.00000000000E+00 0.  1.
</event>
<event>
 5    1  0.1043455E-009  0.9118800E+02  0.7561462E-02  0.1125453E+00
         25   -1    0    0    0    0  0.00000000000E+00  0.00000000000E+00  0.99999998245E-14  0.12509000000E+03  0.12509000000E+03 0.  0.
        -11    1    3    3    0    0 -0.18522552030E+02 -0.30005028930E+01 -0.51478413331E+02  0.54791559484E+02  0.51100000000E-03 0.  1.
         23    2    1    0    0    0 -0.16137142191E+02  0.17972273553E+02 -0.15860578693E+02  0.96194188344E+02  0.91751588215E+02 0.  0.
         11    1    3    3    0    0  0.23854098386E+01  0.20972776446E+02  0.35617834638E+02  0.41402628860E+02  0.51100000000E-03 0. -1.
         22    1    1    0    0    0  0.16137142191E+02 -0.17972273553E+02  0.15860578693E+02  0.28895811656E+02  0.00000000000E+00 0.  1.
</event>
<event>
 5    1  0.1043455E-009  0.9118800E+02  0.7561462E-02  0.1125453E+00
         25   -1    0    0    0    0  0.00000000000E+00  0.00000000000E+00  0.99999998245E-14  0.12509000000E+03  0.12509000000E+03 0.  0.
        -11    1    3    3    0    0  0.27563735742E+02  0.24961318698E+02 -0.28941619756E+02  0.47121590737E+02  0.51100000000E-03 0.  1.
         23    2    1    0    0    0 -0.14919976733E+02  0.25884527454E+02 -0.10891912489E+02  0.93289870678E+02  0.87702632493E+02 0.  0.
         11    1    3    3    0    0 -0.42483712475E+02  0.92320875627E+00  0.18049707267E+02  0.46168279941E+02  0.51100000000E-03 0. -1.
         22    1    1    0    0    0  0.14919976733E+02 -0.25884527454E+02  0.10891912489E+02  0.31800129322E+02  0.00000000000E+00 0.  1.
</event>
<event>
 5    1  0.1043455E-009  0.9118800E+02  0.7561462E-02  0.1125453E+00
         25   -1    0    0    0    0  0.00000000000E+00  0.00000000000E+00  0.99999998245E-14  0.12509000000E+03  0.12509000000E+03 0.  0.
        -11    1    3    3    0    0 -0.53312417912E+02 -0.90893792416E+01 -0.31371125799E+02  0.62521822212E+02  0.51100000000E-03 0.  1.
         23    2    1    0    0    0 -0.28490877680E+02 -0.42248597700E+01 -0.15514529539E+02  0.92374863169E+02  0.86387702641E+02 0.  0.
         11    1    3    3    0    0  0.24821540232E+02  0.48645194716E+01  0.15856596260E+02  0.29853040957E+02  0.51100000000E-03 0. -1.
         22    1    1    0    0    0  0.28490877680E+02  0.42248597700E+01  0.15514529539E+02  0.32715136831E+02  0.00000000000E+00 0.  1.
</event>
<event>
 5    1  0.1043455E-009  0.9118800E+02  0.7561462E-02  0.1125453E+00
         25   -1    0    0    0    0  0.00000000000E+00  0.00000000000E+00  0.99999998245E-14  0.12509000000E+03  0.12509000000E+03 0.  0.
        -11    1    3    3    0    0  0.10498609419E+02  0.36292798307E+02 -0.24824057286E+01  0.37862254914E+02  0.51100000000E-03 0. -1.
         23    2    1    0    0    0  0.34446707250E+01 -0.20097892556E+02  0.17617790571E+02  0.98142317610E+02  0.94370212036E+02 0.  0.
         11    1    3    3    0    0 -0.70539386938E+01 -0.56390690863E+02  0.20100196299E+02  0.60280062696E+02  0.51100000000E-03 0.  1.
         22    1    1    0    0    0 -0.34446707250E+01  0.20097892556E+02 -0.17617790571E+02  0.26947682390E+02  0.00000000000E+00 0.  1.
</event>
<event>
 5    1  0.1043455E-009  0.9118800E+02  0.7561462E-02  0.1125453E+00
         25   -1    0    0    0    0  0.00000000000E+00  0.00000000000E+00  0.99999998245E-14  0.12509000000E+03  0.12509000000E+03 0.  0.
        -11    1    3    3    0    0 -0.28203469447E+02  0.24538751924E+01  0.52481154839E+02  0.59629932129E+02  0.51100000000E-03 0.  1.
         23    2    1    0    0    0 -0.20504003069E+02  0.11036169906E+02  0.19013450198E+02  0.95028022745E+02  0.90147671242E+02 0.  0.
         11    1    3    3    0    0  0.76994663780E+01  0.85822947139E+01 -0.33467704641E+02  0.35398090616E+02  0.51100000000E-03 0. -1.
         22    1    1    0    0    0  0.20504003069E+02 -0.11036169906E+02 -0.19013450198E+02  0.30061977255E+02  0.00000000000E+00 0.  1.
</event>
<event>
 5    1  0.1043455E-009  0.9118800E+02  0.7561462E-02  0.1125453E+00
         25   -1    0    0    0    0  0.00000000000E+00  0.00000000000E+00  0.99999998245E-14  0.12509000000E+03  0.12509000000E+03 0.  0.
        -11    1    3    3    0    0 -0.41258657493E+02  0.21224079241E+02 -0.23008133935E+02  0.51789116475E+02  0.51100000000E-03 0.  1.
         23    2    1    0    0    0  0.23658111597E+01  0.22231074829E+02 -0.19251856062E+02  0.95586581345E+02  0.90919430382E+02 0.  0.
         11    1    3    3    0    0  0.43624468653E+02  0.10069955874E+01  0.37562778733E+01  0.43797464871E+02  0.51100000000E-03 0. -1.
         22    1    1    0    0    0 -0.23658111597E+01 -0.22231074829E+02  0.19251856062E+02  0.29503418655E+02  0.00000000000E+00 0.  1.
</event>
<event>
 5    1  0.1043455E-009  0.9118800E+02  0.7561462E-02  0.1125453E+00
         25   -1    0    0    0    0  0.00000000000E+00  0.00000000000E+00  0.99999998245E-14  0.12509000000E+03  0.12509000000E+03 0.  0.
        -11    1    3    3    0    0 -0.17165772644E+02  0.37733354717E+02 -0.45856376620E+02  0.61816479079E+02  0.51100000000E-03 0. -1.
         23    2    1    0    0    0 -0.39228903553E+01  0.13509329888E+02 -0.24952850788E+02  0.96445003487E+02  0.92092903485E+02 0.  0.
         11    1    3    3    0    0  0.13242882289E+02 -0.24224024829E+02  0.20903525832E+02  0.34628524408E+02  0.51100000000E-03 0.  1.
         22    1    1    0    0    0  0.39228903553E+01 -0.13509329888E+02  0.24952850788E+02  0.28644996513E+02  0.00000000000E+00 0. -1.
</event>
<event>
 5    1  0.1043455E-009  0.9118800E+02  0.7561462E-02  0.1125453E+00
         25   -1    0    0    0    0  0.00000000000E+00  0.00000000000E+00  0.99999998245E-14  0.12509000000E+03  0.12509000000E+03 0.  0.
        -11    1    3    3    0    0 -0.25383233960E+01 -0.26233747224E+02  0.24091883827E+02  0.35708142568E+02  0.51100000000E-03 0.  1.
         23    2    1    0    0    0  0.80017973597E+01  0.71876796052E+01 -0.26063956104E+02  0.96893877804E+02  0.92700605440E+02 0.  0.
         11    1    3    3    0    0  0.10540120756E+02  0.33421426829E+02 -0.50155839931E+02  0.61185735236E+02  0.51100000000E-03 0. -1.
         22    1    1    0    0    0 -0.80017973597E+01 -0.71876796052E+01  0.26063956104E+02  0.28196122196E+02  0.00000000000E+00 0. -1.
</event>
<event>
 5    1  0.1043455E-009  0.9118800E+02  0.7561462E-02  0.1125453E+00
         25   -1    0    0    0    0  0.00000000000E+00  0.00000000000E+00  0.99999998245E-14  0.12509000000E+03  0.12509000000E+03 0.  0.
        -11    1    3    3    0    0  0.55400887761E+00  0.24528500741E+02  0.51893640373E+02  0.57401255961E+02  0.51100000000E-03 0.  1.
         23    2    1    0    0    0  0.15822790496E+02  0.16449928145E+02  0.16059269221E+02  0.97181919396E+02  0.93088476701E+02 0.  0.
         11    1    3    3    0    0  0.15268781619E+02 -0.80785725966E+01 -0.35834371151E+02  0.39780663436E+02  0.51100000000E-03 0. -1.
         22    1    1    0    0    0 -0.15822790496E+02 -0.16449928145E+02 -0.16059269221E+02  0.27908080604E+02  0.00000000000E+00 0.  1.
</event>
<event>
 5    1  0.1043455E-009  0.9118800E+02  0.7561462E-02  0.1125453E+00
         25   -1    0    0    0    0  0.00000000000E+00  0.00000000000E+00  0.99999998245E-14  0.12509000000E+03  0.12509000000E+03 0.  0.
        -11    1    3    3    0    0  0.12605222907E+02 -0.33566734244E+02  0.10080074721E+02  0.37245472194E+02  0.51100000000E-03 0.  1.
         23    2    1    0    0    0  0.13034909975E+01  0.19529136924E+02  0.24805453016E+02  0.93492582746E+02  0.87991285088E+02 0.  0.
         11    1    3    3    0    0 -0.11301731909E+02  0.53095871168E+02  0.14725378295E+02  0.56247110552E+02  0.51100000000E-03 0. -1.
         22    1    1    0    0    0 -0.13034909975E+01 -0.19529136924E+02 -0.24805453016E+02  0.31597417254E+02  0.00000000000E+00 0. -1.
</event>
<event>
 5    1  0.1043455E-009  0.9118800E+02  0.7561462E-02  0.1125453E+00
         25   -1    0    0    0    0  0.00000000000E+00  0.00000000000E+00  0.99999998245E-14  0.12509000000E+03  0.12509000000E+03 0.  0.
        -11    1    3    3    0    0 -0.40776558128E+02 -0.25662475381E+02  0.14179788811E+02  0.50223069863E+02  0.51100000000E-03 0. -1.
         23    2    1    0    0    0  0.29696769225E+01 -0.28182732957E+02 -0.13674998108E+01  0.96718262766E+02  0.92463327210E+02 0.  0.
         11    1    3    3    0    0  0.43746235050E+02 -0.25202575761E+01 -0.15547288622E+02  0.46495192903E+02  0.51100000000E-03 0.  1.
         22    1    1    0    0    0 -0.29696769225E+01  0.28182732957E+02  0.13674998108E+01  0.28371737234E+02  0.00000000000E+00 0.  1.
</event>
<event>
 5    1  0.1043455E-009  0.9118800E+02  0.7561462E-02  0.1125453E+00
         25   -1    0    0    0    0  0.00000000000E+00  0.00000000000E+00  0.99999998245E-14  0.12509000000E+03  0.12509000000E+03 0.  0.
        -11    1    3    3    0    0 -0.18691265517E+02 -0.51051808721E+02  0.10927021176E+02  0.55453136722E+02  0.51100000000E-03 0.  1.
         23    2    1    0    0    0 -0.14504615501E+02 -0.13304590796E+02  0.22538402221E+02  0.95167172899E+02  0.90340551337E+02 0.  0.
         11    1    3    3    0    0  0.41866500159E+01  0.37747217925E+02  0.11611381045E+02  0.39714036177E+02  0.51100000000E-03 0. -1.
         22    1    1    0    0    0  0.14504615501E+02  0.13304590796E+02 -0.22538402221E+02  0.29922827101E+02  0.00000000000E+00 0. -1.
</event>
<event>
 5    1  0.1043455E-009  0.9118800E+02  0.7561462E-02  0.1125453E+00
         25   -1    0    0    0    0  0.00000000000E+00  0.00000000000E+00  0.99999998245E-14  0.12509000000E+03  0.12509000000E+03 0.  0.
        -11    1    3    3    0    0 -0.17139992217E+02 -0.85143517999E+01 -0.38046068087E+02  0.42588458729E+02  0.51100000000E-03 0.  1.
         23    2    1    0    0    0 -0.13522202546E+02 -0.15581461344E+02  0.17094223180E+02  0.98297382258E+02  0.94575530627E+02 0.  0.
         11    1    3    3    0    0  0.36177896711E+01 -0.70671095439E+01  0.55140291268E+02  0.55708923529E+02  0.51100000000E-03 0. -1.
         22    1    1    0    0    0  0.13522202546E+02  0.15581461344E+02 -0.17094223180E+02  0.26792617742E+02  0.00000000000E+00 0.  1.
</event>
<event>
 5    1  0.1043455E-009  0.9118800E+02  0.7561462E-02  0.1125453E+00
         25   -1    0    0    0    0  0.00000000000E+00  0.00000000000E+00  0.99999998245E-14  0.12509000000E+03  0.12509000000E+03 0.  0.
        -11    1    3    3    0    0 -0.25485007660E+02 -0.11175341801E+02 -0.19155162073E+02  0.33783044773E+02  0.51100000000E-03 0. -1.
         23    2    1    0    0    0  0.14174978084E+02 -0.64106570233E+01  0.26447219476E+02  0.94406422223E+02  0.89280964443E+02 0.  0.
         11    1    3    3    0    0  0.39659985745E+02  0.47646847776E+01  0.45602381549E+02  0.60623377451E+02  0.51100000000E-03 0.  1.
         22    1    1    0    0    0 -0.14174978084E+02  0.64106570233E+01 -0.26447219476E+02  0.30683577777E+02  0.00000000000E+00 0.  1.
</event>
<event>
 5    1  0.1043455E-009  0.9118800E+02  0.7561462E-02  0.1125453E+00
         25   -1    0    0    0    0  0.00000000000E+00  0.00000000000E+00  0.99999998245E-14  0.12509000000E+03  0.12509000000E+03 0.  0.
        -11    1    3    3    0    0 -0.46857266540E+02  0.58440173581E+01 -0.68149262575E+00  0.47225209359E+02  0.51100000000E-03 0.  1.
         23    2    1    0    0    0 -0.39475697186E+01 -0.18421014744E+02  0.17117615403E+02  0.99635533830E+02  0.96329173949E+02 0.  0.
         11    1    3    3    0    0  0.42909696822E+02 -0.24265032103E+02  0.17799108029E+02  0.52410324471E+02  0.51100000000E-03 0. -1.
         22    1    1    0    0    0  0.39475697186E+01  0.18421014744E+02 -0.17117615403E+02  0.25454466170E+02  0.00000000000E+00 0. -1.
</event>
<event>
 5    1  0.1043455E-009  0.9118800E+02  0.7561462E-02  0.1125453E+00
         25   -1    0    0    0    0  0.00000000000E+00  0.00000000000E+00  0.99999998245E-14  0.12509000000E+03  0.12509000000E+03 0.  0.
        -11    1    3    3    0    0  0.60210464991E+01  0.28947135626E+02 -0.22900383596E+02  0.37398091275E+02  0.51100000000E-03 0. -1.
         23    2    1    0    0    0 -0.57094937690E+01  0.56281720389E+01  0.28735581611E+02  0.95256993277E+02  0.90464835589E+02 0.  0.
         11    1    3    3    0    0 -0.11730540268E+02 -0.23318963588E+02  0.51635965207E+02  0.57858902002E+02  0.51100000000E-03 0.  1.
         22    1    1    0    0    0  0.57094937690E+01 -0.56281720389E+01 -0.28735581611E+02  0.29833006723E+02  0.00000000000E+00 0.  1.
</event>
<event>
 5    1  0.1043455E-009  0.9118800E+02  0.7561462E-02  0.1125453E+00
         25   -1    0    0    0    0  0.00000000000E+00  0.00000000000E+00  0.99999998245E-14  0.12509000000E+03  0.12509000000E+03 0.  0.
        -11    1    3    3    0    0 -0.27336178302E+02 -0.20479792529E+02 -0.24827898319E+02  0.42226923656E+02  0.51100000000E-03 0. -1.
         23    2    1    0    0    0  0.15974868455E+02 -0.24952672803E+02  0.50512238800E+01  0.95034265691E+02  0.90156333613E+02 0.  0.
         11    1    3    3    0    0  0.43311046758E+02 -0.44728802736E+01  0.29879122199E+02  0.52807342035E+02  0.51100000000E-03 0.  1.
         22    1    1    0    0    0 -0.15974868455E+02  0.24952672803E+02 -0.50512238800E+01  0.30055734309E+02  0.00000000000E+00 0.  1.
</event>
<event>
 5    1  0.1043455E-009  0.9118800E+02  0.7561462E-02  0.1125453E+00
         25   -1    0    0    0    0  0.00000000000E+00  0.00000000000E+00  0.99999998245E-14  0.12509000000E+03  0.12509000000E+03 0.  0.
        -11    1    3    3    0    0  0.23033600725E+02 -0.42076232387E+02  0.18695073616E+02  0.51482636607E+02  0.51100000000E-03 0.  1.
         23    2    1    0    0    0 -0.85320316944E+01 -0.10383059863E+02  0.25050165351E+02  0.96662649067E+02  0.92388058988E+02 0.  0.
         11    1    3    3    0    0 -0.31565632420E+02  0.31693172524E+02  0.63550917356E+01  0.45180012460E+02  0.51100000000E-03 0. -1.
         22    1    1    0    0    0  0.85320316944E+01  0.10383059863E+02 -0.25050165351E+02  0.28427350933E+02  0.00000000000E+00 0.  1.
</event>
<event>
 5    1  0.1043455E-009  0.9118800E+02  0.7561462E-02  0.1125453E+00
         25   -1    0    0    0    0  0.00000000000E+00  0.00000000000E+00  0.99999998245E-14  0.12509000000E+03  0.12509000000E+03 0.  0.
        -11    1    3    3    0    0  0.12796112413E+02  0.34363167654E+02 -0.41499416706E+01  0.36902436237E+02  0.51100000000E-03 0.  1.
         23    2    1    0    0    0 -0.23913184925E+02 -0.79666441223E+01  0.14569272101E+02  0.95976918381E+02  0.91454892381E+02 0.  0.
         11    1    3    3    0    0 -0.36709297337E+02 -0.42329811776E+02  0.18719213772E+02  0.59074482144E+02  0.51100000000E-03 0. -1.
         22    1    1    0    0    0  0.23913184925E+02  0.79666441223E+01 -0.14569272101E+02  0.29113081619E+02  0.00000000000E+00 0. -1.
</event>
<event>
 5    1  0.1043455E-009  0.9118800E+02  0.7561462E-02  0.1125453E+00
         25   -1    0    0    0    0  0.00000000000E+00  0.00000000000E+00  0.99999998245E-14  0.12509000000E+03  0.12509000000E+03 0.  0.
        -11    1    3    3    0    0  0.34044632596E+02  0.21421513511E+02 -0.38055295739E+02  0.55372590546E+02  0.51100000000E-03 0.  1.
         23    2    1    0    0    0  0.31102355194E+02  0.19265088144E+02 -0.55452921724E+01  0.88086616572E+02  0.79937485787E+02 0.  0.
         11    1    3    3    0    0 -0.29422774015E+01 -0.21564253671E+01  0.32510003567E+02  0.32714026026E+02  0.51100000000E-03 0. -1.
         22    1    1    0    0    0 -0.31102355194E+02 -0.19265088144E+02  0.55452921724E+01  0.37003383428E+02  0.00000000000E+00 0.  1.
</event>
<event>
 5    1  0.1043455E-009  0.9118800E+02  0.7561462E-02  0.1125453E+00
         25   -1    0    0    0    0  0.00000000000E+00  0.00000000000E+00  0.99999998245E-14  0.12509000000E+03  0.12509000000E+03 0.  0.
        -11    1    3    3    0    0  0.48802021374E+02  0.15642477665E+02  0.15133039353E+02  0.53435318638E+02  0.51100000000E-03 0. -1.
         23    2    1    0    0    0  0.21798594557E+02  0.72680769799E+01 -0.17201150253E+02  0.96386633687E+02  0.92013585496E+02 0.  0.
         11    1    3    3    0    0 -0.27003426817E+02 -0.83744006847E+01 -0.32334189606E+02  0.42951315049E+02  0.51100000000E-03 0.  1.
         22    1    1    0    0    0 -0.21798594557E+02 -0.72680769799E+01  0.17201150253E+02  0.28703366313E+02  0.00000000000E+00 0. -1.
</event>
<event>
 5    1  0.1043455E-009  0.9118800E+02  0.7561462E-02  0.1125453E+00
         25   -1    0    0    0    0  0.00000000000E+00  0.00000000000E+00  0.99999998245E-14  0.12509000000E+03  0.12509000000E+03 0.  0.
        -11    1    3    3    0    0 -0.48416639683E+02 -0.21512199989E+02  0.17849279585E+02  0.55906551749E+02  0.51100000000E-03 0. -1.
         23    2    1    0    0    0 -0.86543994538E+01 -0.23999724990E+02  0.14145778596E+02  0.95918293132E+02  0.91374670866E+02 0.  0.
         11    1    3    3    0    0  0.39762240229E+02 -0.24875250008E+01 -0.37035009889E+01  0.40011741383E+02  0.51100000000E-03 0.  1.
         22    1    1    0    0    0  0.86543994538E+01  0.23999724990E+02 -0.14145778596E+02  0.29171706868E+02  0.00000000000E+00 0. -1.
</event>
<event>
 5    1  0.1043455E-009  0.9118800E+02  0.7561462E-02  0.1125453E+00
         25   -1    0    0    0    0  0.00000000000E+00  0.00000000000E+00  0.99999998245E-14  0.12509000000E+03  0.12509000000E+03 0.  0.
        -11    1    3    3    0    0 -0.10835687805E+02 -0.25360474248E+02 -0.42216234608E+02  0.50425948172E+02  0.51100000000E-03 0. -1.
         23    2    1    0    0    0  0.63058932038E+01 -0.29518499942E+02 -0.14199594908E+01  0.94872084571E+02  0.89931029228E+02 0.  0.
         11    1    3    3    0    0  0.17141581009E+02 -0.41580256935E+01  0.40796275117E+02  0.44446136399E+02  0.51100000000E-03 0.  1.
         22    1    1    0    0    0 -0.63058932038E+01  0.29518499942E+02  0.14199594908E+01  0.30217915429E+02  0.00000000000E+00 0. -1.
</event>
<event>
 5    1  0.1043455E-009  0.9118800E+02  0.7561462E-02  0.1125453E+00
         25   -1    0    0    0    0  0.00000000000E+00  0.00000000000E+00  0.99999998245E-14  0.12509000000E+03  0.12509000000E+03 0.  0.
        -11    1    3    3    0    0  0.35054037347E+02  0.18703891328E+02  0.41453104712E+02  0.57419343219E+02  0.51100000000E-03 0.  1.
         23    2    1    0    0    0  0.18755867321E+02  0.19878533183E+02  0.50835658380E+01  0.97291056097E+02  0.93235016568E+02 0.  0.
         11    1    3    3    0    0 -0.16298170026E+02  0.11746418557E+01 -0.36369538874E+02  0.39871712878E+02  0.51100000000E-03 0. -1.
         22    1    1    0    0    0 -0.18755867321E+02 -0.19878533183E+02 -0.50835658380E+01  0.27798943903E+02  0.00000000000E+00 0.  1.
</event>
<event>
 5    1  0.1043455E-009  0.9118800E+02  0.7561462E-02  0.1125453E+00
         25   -1    0    0    0    0  0.00000000000E+00  0.00000000000E+00  0.99999998245E-14  0.12509000000E+03  0.12509000000E+03 0.  0.
        -11    1    3    3    0    0  0.81653779515E+01  0.33994035114E+02  0.57121824060E+01  0.35424523265E+02  0.51100000000E-03 0.  1.
         23    2    1    0    0    0 -0.19742706031E+02 -0.19445881620E+02  0.94058260095E+01  0.95825921058E+02  0.91248127819E+02 0.  0.
         11    1    3    3    0    0 -0.27908083982E+02 -0.53439916734E+02  0.36936436034E+01  0.60401397794E+02  0.51100000000E-03 0. -1.
         22    1    1    0    0    0  0.19742706031E+02  0.19445881620E+02 -0.94058260095E+01  0.29264078942E+02  0.00000000000E+00 0. -1.
</event>
<event>
 5    1  0.1043455E-009  0.9118800E+02  0.7561462E-02  0.1125453E+00
         25   -1    0    0    0    0  0.00000000000E+00  0.00000000000E+00  0.99999998245E-14  0.12509000000E+03  0.12509000000E+03 0.  0.
        -11    1    3    3    0    0  0.92396542695E+01  0.25738451970E+02 -0.47708374368E+02  0.54990254645E+02  0.51100000000E-03 0.  1.
         23    2    1    0    0    0  0.21189589112E+02  0.18061158623E+02 -0.96337043266E+01  0.95627949891E+02  0.90976328810E+02 0.  0.
         11    1    3    3    0    0  0.11949934843E+02 -0.76772933466E+01  0.38074670041E+02  0.40637695246E+02  0.51100000000E-03 0. -1.
         22    1    1    0    0    0 -0.21189589112E+02 -0.18061158623E+02  0.96337043266E+01  0.29462050109E+02  0.00000000000E+00 0.  1.
</event>
<event>
 5    1  0.1043455E-009  0.9118800E+02  0.7561462E-02  0.1125453E+00
         25   -1    0    0    0    0  0.00000000000E+00  0.00000000000E+00  0.99999998245E-14  0.12509000000E+03  0.12509000000E+03 0.  0.
        -11    1    3    3    0    0 -0.27064241879E+02 -0.19182338354E+02  0.55197290144E+01  0.33628896828E+02  0.51100000000E-03 0.  1.
         23    2    1    0    0    0  0.20445307178E+02  0.19679946693E+02 -0.60118839199E+01  0.96082179750E+02  0.91598753429E+02 0.  0.
         11    1    3    3    0    0  0.47509549057E+02  0.38862285046E+02 -0.11531612934E+02  0.62453282922E+02  0.51100000000E-03 0. -1.
         22    1    1    0    0    0 -0.20445307178E+02 -0.19679946693E+02  0.60118839199E+01  0.29007820250E+02  0.00000000000E+00 0. -1.
</event>
<event>
 5    1  0.1043455E-009  0.9118800E+02  0.7561462E-02  0.1125453E+00
         25   -1    0    0    0    0  0.00000000000E+00  0.00000000000E+00  0.99999998245E-14  0.12509000000E+03  0.12509000000E+03 0.  0.
        -11    1    3    3    0    0 -0.57316147477E+02  0.11206870048E+00  0.15211033879E+00  0.57316458883E+02  0.51100000000E-03 0. -1.
         23    2    1    0    0    0 -0.23415476450E+02 -0.47158007951E+01 -0.17152883127E+02  0.95683457971E+02  0.91052618936E+02 0.  0.
         11    1    3    3    0    0  0.33900671027E+02 -0.48278694956E+01 -0.17304993466E+02  0.38366999088E+02  0.51100000000E-03 0.  1.
         22    1    1    0    0    0  0.23415476450E+02  0.47158007951E+01  0.17152883127E+02  0.29406542029E+02  0.00000000000E+00 0. -1.
</event>
<event>
 5    1  0.1043455E-009  0.9118800E+02  0.7561462E-02  0.1125453E+00
         25   -1    0    0    0    0  0.00000000000E+00  0.00000000000E+00  0.99999998245E-14  0.12509000000E+03  0.12509000000E+03 0.  0.
        -11    1    3    3    0    0  0.10775690034E+02 -0.10573954695E+02  0.29524328229E+02  0.33160367477E+02  0.51100000000E-03 0. -1.
         23    2    1    0    0    0  0.85442371491E+00 -0.33765822888E+01 -0.30483993612E+02  0.94407672605E+02  0.89282716313E+02 0.  0.
         11    1    3    3    0    0 -0.99212663190E+01  0.71973724064E+01 -0.60008321841E+02  0.61247305127E+02  0.51100000000E-03 0.  1.
         22    1    1    0    0    0 -0.85442371491E+00  0.33765822888E+01  0.30483993612E+02  0.30682327395E+02  0.00000000000E+00 0.  1.
</event>
<event>
 5    1  0.1043455E-009  0.9118800E+02  0.7561462E-02  0.1125453E+00
         25   -1    0    0    0    0  0.00000000000E+00  0.00000000000E+00  0.99999998245E-14  0.12509000000E+03  0.12509000000E+03 0.  0.
        -11    1    3    3    0    0 -0.47041831653E+02  0.31912966474E+02 -0.23410925272E+02  0.61477172811E+02  0.51100000000E-03 0. -1.
         23    2    1    0    0    0 -0.29288140804E+02  0.14142964284E+02 -0.60601569573E+01  0.92006104630E+02  0.85852077181E+02 0.  0.
         11    1    3    3    0    0  0.17753690849E+02 -0.17770002190E+02  0.17350768315E+02  0.30528931819E+02  0.51100000000E-03 0.  1.
         22    1    1    0    0    0  0.29288140804E+02 -0.14142964284E+02  0.60601569573E+01  0.33083895370E+02  0.00000000000E+00 0. -1.
</event>
<event>
 5    1  0.1043455E-009  0.9118800E+02  0.7561462E-02  0.1125453E+00
         25   -1    0    0    0    0  0.00000000000E+00  0.00000000000E+00  0.99999998245E-14  0.12509000000E+03  0.12509000000E+03 0.  0.
        -11    1    3    3    0    0  0.45332616494E+02 -0.96651405137E+01 -0.40643422895E+01  0.46529344911E+02  0.51100000000E-03 0.  1.
         23    2    1    0    0    0  0.15317661945E+01 -0.17736820811E+02 -0.23902543664E+02  0.95286095663E+02  0.90505067885E+02 0.  0.
         11    1    3    3    0    0 -0.43800850300E+02 -0.80716802974E+01 -0.19838201374E+02  0.48756750751E+02  0.51100000000E-03 0. -1.
         22    1    1    0    0    0 -0.15317661945E+01  0.17736820811E+02  0.23902543664E+02  0.29803904337E+02  0.00000000000E+00 0. -1.
</event>
<event>
 5    1  0.1043455E-009  0.9118800E+02  0.7561462E-02  0.1125453E+00
         25   -1    0    0    0    0  0.00000000000E+00  0.00000000000E+00  0.99999998245E-14  0.12509000000E+03  0.12509000000E+03 0.  0.
        -11    1    3    3    0    0  0.24728499975E+02 -0.99305929929E+01 -0.12725471827E+02  0.29530543878E+02  0.51100000000E-03 0. -1.
         23    2    1    0    0    0 -0.19157639586E+02 -0.35354634364E+01  0.28822305489E+02  0.90301496872E+02  0.83331388968E+02 0.  0.
         11    1    3    3    0    0 -0.43886139562E+02  0.63951295565E+01  0.41547777316E+02  0.60770952994E+02  0.51100000000E-03 0.  1.
         22    1    1    0    0    0  0.19157639586E+02  0.35354634364E+01 -0.28822305489E+02  0.34788503128E+02  0.00000000000E+00 0.  1.
</event>
<event>
 5    1  0.1043455E-009  0.9118800E+02  0.7561462E-02  0.1125453E+00
         25   -1    0    0    0    0  0.00000000000E+00  0.00000000000E+00  0.99999998245E-14  0.12509000000E+03  0.12509000000E+03 0.  0.
        -11    1    3    3    0    0 -0.41090298084E+02 -0.30952832631E+02 -0.18446200324E+02  0.54651191672E+02  0.51100000000E-03 0.  1.
         23    2    1    0    0    0 -0.16697882907E+02  0.22133888564E+01 -0.23549631156E+02  0.96136528509E+02  0.91672943677E+02 0.  0.
         11    1    3    3    0    0  0.24392415178E+02  0.33166221487E+02 -0.51034308322E+01  0.41485336837E+02  0.51100000000E-03 0. -1.
         22    1    1    0    0    0  0.16697882907E+02 -0.22133888564E+01  0.23549631156E+02  0.28953471491E+02  0.00000000000E+00 0.  1.
</event>
<event>
 5    1  0.1043455E-009  0.9118800E+02  0.7561462E-02  0.1125453E+00
         25   -1    0    0    0    0  0.00000000000E+00  0.00000000000E+00  0.99999998245E-14  0.12509000000E+03  0.12509000000E+03 0.  0.
        -11    1    3    3    0    0  0.55670939370E+02 -0.50525156205E+01  0.27961363619E+02  0.62502954012E+02  0.51100000000E-03 0. -1.
         23    2    1    0    0    0  0.23865331386E+02 -0.24989516944E+01  0.13764038343E+02  0.97426891837E+02  0.93417084625E+02 0.  0.
         11    1    3    3    0    0 -0.31805607985E+02  0.25535639260E+01 -0.14197325276E+02  0.34923937826E+02  0.51100000000E-03 0.  1.
         22    1    1    0    0    0 -0.23865331386E+02  0.24989516944E+01 -0.13764038343E+02  0.27663108163E+02  0.00000000000E+00 0. -1.
</event>
<event>
 5    1  0.1043455E-009  0.9118800E+02  0.7561462E-02  0.1125453E+00
         25   -1    0    0    0    0  0.00000000000E+00  0.00000000000E+00  0.99999998245E-14  0.12509000000E+03  0.12509000000E+03 0.  0.
        -11    1    3    3    0    0  0.35427850513E+02 -0.49997694790E+01  0.72324549875E+01  0.36502584734E+02  0.51100000000E-03 0.  1.
         23    2    1    0    0    0 -0.21352164365E+02 -0.20298823102E+02  0.14098285921E+01  0.95595174030E+02  0.90931251717E+02 0.  0.
         11    1    3    3    0    0 -0.56780014878E+02 -0.15299053623E+02 -0.58226263954E+01  0.59092589296E+02  0.51100000000E-03 0. -1.
         22    1    1    0    0    0  0.21352164365E+02  0.20298823102E+02 -0.14098285921E+01  0.29494825970E+02  0.00000000000E+00 0. -1.
</event>
<event>
 5    1  0.1043455E-009  0.9118800E+02  0.7561462E-02  0.1125453E+00
         25   -1    0    0    0    0  0.00000000000E+00  0.00000000000E+00  0.99999998245E-14  0.12509000000E+03  0.12509000000E+03 0.  0.
        -11    1    3    3    0    0  0.17940532346E+02  0.28056153756E+02 -0.18791132852E+02  0.38237640337E+02  0.51100000000E-03 0. -1.
         23    2    1    0    0    0 -0.18292293356E+02  0.13841993735E+02  0.21065388501E+02  0.93945829126E+02  0.88633286245E+02 0.  0.
         11    1    3    3    0    0 -0.36232825701E+02 -0.14214160022E+02  0.39856521353E+02  0.55708188788E+02  0.51100000000E-03 0.  1.
         22    1    1    0    0    0  0.18292293356E+02 -0.13841993735E+02 -0.21065388501E+02  0.31144170874E+02  0.00000000000E+00 0.  1.
</event>
<event>
 5    1  0.1043455E-009  0.9118800E+02  0.7561462E-02  0.1125453E+00
         25   -1    0    0    0    0  0.00000000000E+00  0.00000000000E+00  0.99999998245E-14  0.12509000000E+03  0.12509000000E+03 0.  0.
        -11    1    3    3    0    0 -0.15275456801E+02  0.29587373809E+02 -0.47698542610E+01  0.33637832560E+02  0.51100000000E-03 0. -1.
         23    2    1    0    0    0  0.14244761911E+02 -0.25198719125E+02 -0.39425428976E+01  0.95876435822E+02  0.91317351112E+02 0.  0.
         11    1    3    3    0    0  0.29520218713E+02 -0.54786092934E+02  0.82731136334E+00  0.62238603263E+02  0.51100000000E-03 0.  1.
         22    1    1    0    0    0 -0.14244761911E+02  0.25198719125E+02  0.39425428976E+01  0.29213564178E+02  0.00000000000E+00 0.  1.
</event>
<event>
 5    1  0.1043455E-009  0.9118800E+02  0.7561462E-02  0.1125453E+00
         25   -1    0    0    0    0  0.00000000000E+00  0.00000000000E+00  0.99999998245E-14  0.12509000000E+03  0.12509000000E+03 0.  0.
        -11    1    3    3    0    0 -0.52829150388E+02  0.11149813197E+02 -0.14090261554E+02  0.55801191169E+02  0.51100000000E-03 0. -1.
         23    2    1    0    0    0 -0.23460153524E+02 -0.13866133771E+02 -0.14157795492E+02  0.94380202829E+02  0.89244221346E+02 0.  0.
         11    1    3    3    0    0  0.29368996864E+02 -0.25015946968E+02 -0.67533937499E-01  0.38579011659E+02  0.51100000000E-03 0.  1.
         22    1    1    0    0    0  0.23460153524E+02  0.13866133771E+02  0.14157795492E+02  0.30709797171E+02  0.00000000000E+00 0. -1.
</event>
<event>
 5    1  0.1043455E-009  0.9118800E+02  0.7561462E-02  0.1125453E+00
         25   -1    0    0    0    0  0.00000000000E+00  0.00000000000E+00  0.99999998245E-14  0.12509000000E+03  0.12509000000E+03 0.  0.
        -11    1    3    3    0    0  0.32501816614E+02 -0.92159850267E+01 -0.96988777775E+01  0.35147840526E+02  0.51100000000E-03 0. -1.
         23    2    1    0    0    0 -0.26188328384E+02 -0.13201578282E+02  0.38427385427E+01  0.95511682735E+02  0.90816323900E+02 0.  0.
         11    1    3    3    0    0 -0.58690144998E+02 -0.39855932552E+01  0.13541616320E+02  0.60363842210E+02  0.51100000000E-03 0.  1.
         22    1    1    0    0    0  0.26188328384E+02  0.13201578282E+02 -0.38427385427E+01  0.29578317265E+02  0.00000000000E+00 0.  1.
</event>
<event>
 5    1  0.1043455E-009  0.9118800E+02  0.7561462E-02  0.1125453E+00
         25   -1    0    0    0    0  0.00000000000E+00  0.00000000000E+00  0.99999998245E-14  0.12509000000E+03  0.12509000000E+03 0.  0.
        -11    1    3    3    0    0 -0.22854245839E+02  0.22743439091E+02 -0.18837013744E+01  0.32297506184E+02  0.51100000000E-03 0. -1.
         23    2    1    0    0    0  0.15126416355E+02 -0.26538816866E+02 -0.11506967717E+01  0.94521366150E+02  0.89441865384E+02 0.  0.
         11    1    3    3    0    0  0.37980662195E+02 -0.49282255958E+02  0.73300460266E+00  0.62223859966E+02  0.51100000000E-03 0.  1.
         22    1    1    0    0    0 -0.15126416355E+02  0.26538816866E+02  0.11506967717E+01  0.30568633850E+02  0.00000000000E+00 0.  1.
</event>
<event>
 5    1  0.1043455E-009  0.9118800E+02  0.7561462E-02  0.1125453E+00
         25   -1    0    0    0    0  0.00000000000E+00  0.00000000000E+00  0.99999998245E-14  0.12509000000E+03  0.12509000000E+03 0.  0.
        -11    1    3    3    0    0 -0.38386908351E+02  0.15369407440E+02  0.44306275757E+02  0.60603791049E+02  0.51100000000E-03 0.  1.
         23    2    1    0    0    0 -0.24384302492E+02 -0.85849200320E+00  0.16840707066E+02  0.95443067089E+02  0.90721763786E+02 0.  0.
         11    1    3    3    0    0  0.14002605859E+02 -0.16227899444E+02 -0.27465568691E+02  0.34839276040E+02  0.51100000000E-03 0. -1.
         22    1    1    0    0    0  0.24384302492E+02  0.85849200320E+00 -0.16840707066E+02  0.29646932911E+02  0.00000000000E+00 0.  1.
</event>
<event>
 5    1  0.1043455E-009  0.9118800E+02  0.7561462E-02  0.1125453E+00
         25   -1    0    0    0    0  0.00000000000E+00  0.00000000000E+00  0.99999998245E-14  0.12509000000E+03  0.12509000000E+03 0.  0.
        -11    1    3    3    0    0 -0.26478244217E+02  0.25503714509E+02 -0.11067957383E+02  0.38393183659E+02  0.51100000000E-03 0.  1.
         23    2    1    0    0    0 -0.31510981842E+01 -0.83444327588E+01  0.28364522328E+02  0.95356095031E+02  0.90601764634E+02 0.  0.
         11    1    3    3    0    0  0.23327146033E+02 -0.33848147268E+02  0.39432479711E+02  0.56962911372E+02  0.51100000000E-03 0. -1.
         22    1    1    0    0    0  0.31510981842E+01  0.83444327588E+01 -0.28364522328E+02  0.29733904969E+02  0.00000000000E+00 0. -1.
</event>
<event>
 5    1  0.1043455E-009  0.9118800E+02  0.7561462E-02  0.1125453E+00
         25   -1    0    0    0    0  0.00000000000E+00  0.00000000000E+00  0.99999998245E-14  0.12509000000E+03  0.12509000000E+03 0.  0.
        -11    1    3    3    0    0  0.88418418741E+01  0.47960438683E+02 -0.17854709547E+02  0.51934309465E+02  0.51100000000E-03 0.  1.
         23    2    1    0    0    0  0.18920558313E+02  0.51385272052E+01 -0.21397257976E+02  0.96068720952E+02  0.91580371847E+02 0.  0.
         11    1    3    3    0    0  0.10078716439E+02 -0.42821911477E+02 -0.35425484283E+01  0.44134411487E+02  0.51100000000E-03 0. -1.
         22    1    1    0    0    0 -0.18920558313E+02 -0.51385272052E+01  0.21397257976E+02  0.29021279048E+02  0.00000000000E+00 0. -1.
</event>
<event>
 5    1  0.1043455E-009  0.9118800E+02  0.7561462E-02  0.1125453E+00
         25   -1    0    0    0    0  0.00000000000E+00  0.00000000000E+00  0.99999998245E-14  0.12509000000E+03  0.12509000000E+03 0.  0.
        -11    1    3    3    0    0  0.55246345011E+02 -0.22146725959E+02 -0.18791061956E+02  0.62415864309E+02  0.51100000000E-03 0.  1.
         23    2    1    0    0    0  0.25115193474E+02 -0.11716783273E+02 -0.11243681031E+02  0.95182203079E+02  0.90361360472E+02 0.  0.
         11    1    3    3    0    0 -0.30131151536E+02  0.10429942686E+02  0.75473809251E+01  0.32766338771E+02  0.51100000000E-03 0. -1.
         22    1    1    0    0    0 -0.25115193474E+02  0.11716783273E+02  0.11243681031E+02  0.29907796921E+02  0.00000000000E+00 0.  1.
</event>
<event>
 5    1  0.1043455E-009  0.9118800E+02  0.7561462E-02  0.1125453E+00
         25   -1    0    0    0    0  0.00000000000E+00  0.00000000000E+00  0.99999998245E-14  0.12509000000E+03  0.12509000000E+03 0.  0.
        -11    1    3    3    0    0 -0.52453239890E+02 -0.15534681762E+02  0.27599288489E+02  0.61273072698E+02  0.51100000000E-03 0.  1.
         23    2    1    0    0    0 -0.26909245050E+02  0.12499336961E+01  0.11788786371E+02  0.95685148572E+02  0.91054941489E+02 0.  0.
         11    1    3    3    0    0  0.25543994840E+02  0.16784615458E+02 -0.15810502118E+02  0.34412075874E+02  0.51100000000E-03 0. -1.
         22    1    1    0    0    0  0.26909245050E+02 -0.12499336961E+01 -0.11788786371E+02  0.29404851428E+02  0.00000000000E+00 0.  1.
</event>
<event>
 5    1  0.1043455E-009  0.9118800E+02  0.7561462E-02  0.1125453E+00
         25   -1    0    0    0    0  0.00000000000E+00  0.00000000000E+00  0.99999998245E-14  0.12509000000E+03  0.12509000000E+03 0.  0.
        -11    1    3    3    0    0  0.40169058572E+00  0.44103380419E+02  0.20415784949E+02  0.48601170717E+02  0.51100000000E-03 0. -1.
         23    2    1    0    0    0 -0.11203183691E+02  0.88623100657E+00  0.28842130956E+02  0.94135755569E+02  0.88900929288E+02 0.  0.
         11    1    3    3    0    0 -0.11604874277E+02 -0.43217149413E+02  0.84263460066E+01  0.45534584852E+02  0.51100000000E-03 0.  1.
         22    1    1    0    0    0  0.11203183691E+02 -0.88623100657E+00 -0.28842130956E+02  0.30954244431E+02  0.00000000000E+00 0.  1.
</event>
<event>
 5    1  0.1043455E-009  0.9118800E+02  0.7561462E-02  0.1125453E+00
         25   -1    0    0    0    0  0.00000000000E+00  0.00000000000E+00  0.99999998245E-14  0.12509000000E+03  0.12509000000E+03 0.  0.
        -11    1    3    3    0    0 -0.20973391889E+02  0.30877362332E+02  0.47744675414E+02  0.60604032065E+02  0.51100000000E-03 0.  1.
         23    2    1    0    0    0 -0.12450541744E+02  0.21753475712E+02  0.14459663411E+02  0.96153663652E+02  0.91696322023E+02 0.  0.
         11    1    3    3    0    0  0.85228501452E+01 -0.91238866198E+01 -0.33285012003E+02  0.35549631587E+02  0.51100000000E-03 0. -1.
         22    1    1    0    0    0  0.12450541744E+02 -0.21753475712E+02 -0.14459663411E+02  0.28936336348E+02  0.00000000000E+00 0.  1.
</event>
<event>
 5    1  0.1043455E-009  0.9118800E+02  0.7561462E-02  0.1125453E+00
         25   -1    0    0    0    0  0.00000000000E+00  0.00000000000E+00  0.99999998245E-14  0.12509000000E+03  0.12509000000E+03 0.  0.
        -11    1    3    3    0    0  0.73068915934E+01 -0.25063955082E+02 -0.46114114702E+02  0.52991547290E+02  0.51100000000E-03 0.  1.
         23    2    1    0    0    0  0.27034200015E+02 -0.54306949438E+01 -0.22077666960E+02  0.89766299791E+02  0.82524086070E+02 0.  0.
         11    1    3    3    0    0  0.19727308422E+02  0.19633260138E+02  0.24036447742E+02  0.36774752501E+02  0.51100000000E-03 0. -1.
         22    1    1    0    0    0 -0.27034200015E+02  0.54306949438E+01  0.22077666960E+02  0.35323700209E+02  0.00000000000E+00 0.  1.
</event>
<event>
 5    1  0.1043455E-009  0.9118800E+02  0.7561462E-02  0.1125453E+00
         25   -1    0    0    0    0  0.00000000000E+00  0.00000000000E+00  0.99999998245E-14  0.12509000000E+03  0.12509000000E+03 0.  0.
        -11    1    3    3    0    0 -0.32563676292E+02  0.42921594538E+01 -0.13198533789E+02  0.35397979333E+02  0.51100000000E-03 0. -1.
         23    2    1    0    0    0  0.10133093435E+02 -0.15718507084E+02  0.23433620740E+02  0.95108578611E+02  0.90259382321E+02 0.  0.
         11    1    3    3    0    0  0.42696769728E+02 -0.20010666538E+02  0.36632154528E+02  0.59710599278E+02  0.51100000000E-03 0.  1.
         22    1    1    0    0    0 -0.10133093435E+02  0.15718507084E+02 -0.23433620740E+02  0.29981421389E+02  0.00000000000E+00 0.  1.
</event>
<event>
 5    1  0.1043455E-009  0.9118800E+02  0.7561462E-02  0.1125453E+00
         25   -1    0    0    0    0  0.00000000000E+00  0.00000000000E+00  0.99999998245E-14  0.12509000000E+03  0.12509000000E+03 0.  0.
        -11    1    3    3    0    0  0.13248621433E+02  0.18429334701E+02 -0.32028105192E+02  0.39255138133E+02  0.51100000000E-03 0.  1.
         23    2    1    0    0    0  0.21860379538E+02 -0.98302402917E+01  0.16445435843E+02  0.96021766861E+02  0.91516214592E+02 0.  0.
         11    1    3    3    0    0  0.86117581054E+01 -0.28259574992E+02  0.48473541035E+02  0.56766628728E+02  0.51100000000E-03 0. -1.
         22    1    1    0    0    0 -0.21860379538E+02  0.98302402917E+01 -0.16445435843E+02  0.29068233139E+02  0.00000000000E+00 0. -1.
</event>
<event>
 5    1  0.1043455E-009  0.9118800E+02  0.7561462E-02  0.1125453E+00
         25   -1    0    0    0    0  0.00000000000E+00  0.00000000000E+00  0.99999998245E-14  0.12509000000E+03  0.12509000000E+03 0.  0.
        -11    1    3    3    0    0  0.45402294354E+02 -0.38000256622E+02  0.60568642581E+01  0.59515321060E+02  0.51100000000E-03 0.  1.
         23    2    1    0    0    0  0.10547220134E+02 -0.25152452700E+02  0.78570913058E+01  0.96706490471E+02  0.92447399563E+02 0.  0.
         11    1    3    3    0    0 -0.34855074220E+02  0.12847803922E+02  0.18002270477E+01  0.37191169411E+02  0.51100000000E-03 0. -1.
         22    1    1    0    0    0 -0.10547220134E+02  0.25152452700E+02 -0.78570913058E+01  0.28383509529E+02  0.00000000000E+00 0.  1.
</event>
<event>
 5    1  0.1043455E-009  0.9118800E+02  0.7561462E-02  0.1125453E+00
         25   -1    0    0    0    0  0.00000000000E+00  0.00000000000E+00  0.99999998245E-14  0.12509000000E+03  0.12509000000E+03 0.  0.
        -11    1    3    3    0    0  0.38819440078E+02  0.59940288269E+01 -0.28209435604E+02  0.48359586091E+02  0.51100000000E-03 0.  1.
         23    2    1    0    0    0 -0.60065665217E+01  0.19127340538E+02 -0.21742030449E+02  0.95515519692E+02  0.90821608754E+02 0.  0.
         11    1    3    3    0    0 -0.44826006599E+02  0.13133311711E+02  0.64674051551E+01  0.47155933602E+02  0.51100000000E-03 0. -1.
         22    1    1    0    0    0  0.60065665217E+01 -0.19127340538E+02  0.21742030449E+02  0.29574480308E+02  0.00000000000E+00 0. -1.
</event>
<event>
 5    1  0.1043455E-009  0.9118800E+02  0.7561462E-02  0.1125453E+00
         25   -1    0    0    0    0  0.00000000000E+00  0.00000000000E+00  0.99999998245E-14  0.12509000000E+03  0.12509000000E+03 0.  0.
        -11    1    3    3    0    0  0.25891034753E+02  0.62723433415E+01  0.34774865045E+02  0.43806154941E+02  0.51100000000E-03 0.  1.
         23    2    1    0    0    0  0.30095964068E+02 -0.18382747910E+01 -0.12860620637E+02  0.92309794531E+02  0.86293431360E+02 0.  0.
         11    1    3    3    0    0  0.42049293148E+01 -0.81106181326E+01 -0.47635485682E+02  0.48503639590E+02  0.51100000000E-03 0. -1.
         22    1    1    0    0    0 -0.30095964068E+02  0.18382747910E+01  0.12860620637E+02  0.32780205469E+02  0.00000000000E+00 0. -1.
</event>
<event>
 5    1  0.1043455E-009  0.9118800E+02  0.7561462E-02  0.1125453E+00
         25   -1    0    0    0    0  0.00000000000E+00  0.00000000000E+00  0.99999998245E-14  0.12509000000E+03  0.12509000000E+03 0.  0.
        -11    1    3    3    0    0 -0.26572935244E+02 -0.21262464058E+02 -0.16258281804E+02  0.37716640794E+02  0.51100000000E-03 0.  1.
         23    2    1    0    0    0 -0.20419110198E+02  0.11956412199E+02  0.24749912303E+02  0.90848884175E+02  0.84149068580E+02 0.  0.
         11    1    3    3    0    0  0.61538250465E+01  0.33218876257E+02  0.41008194107E+02  0.53132243381E+02  0.51100000000E-03 0. -1.
         22    1    1    0    0    0  0.20419110198E+02 -0.11956412199E+02 -0.24749912303E+02  0.34241115825E+02  0.00000000000E+00 0. -1.
</event>
<event>
 5    1  0.1043455E-009  0.9118800E+02  0.7561462E-02  0.1125453E+00
         25   -1    0    0    0    0  0.00000000000E+00  0.00000000000E+00  0.99999998245E-14  0.12509000000E+03  0.12509000000E+03 0.  0.
        -11    1    3    3    0    0 -0.47072560618E+02 -0.32186455372E+02  0.33643645465E+01  0.57123662536E+02  0.51100000000E-03 0. -1.
         23    2    1    0    0    0 -0.13030438870E+02 -0.24401822801E+02  0.14603963187E+02  0.93808743090E+02  0.88439602250E+02 0.  0.
         11    1    3    3    0    0  0.34042121748E+02  0.77846325713E+01  0.11239598640E+02  0.36685080553E+02  0.51100000000E-03 0.  1.
         22    1    1    0    0    0  0.13030438870E+02  0.24401822801E+02 -0.14603963187E+02  0.31281256910E+02  0.00000000000E+00 0. -1.
</event>
<event>
 5    1  0.1043455E-009  0.9118800E+02  0.7561462E-02  0.1125453E+00
         25   -1    0    0    0    0  0.00000000000E+00  0.00000000000E+00  0.99999998245E-14  0.12509000000E+03  0.12509000000E+03 0.  0.
        -11    1    3    3    0    0 -0.79261096299E+01 -0.45092457741E+02 -0.18904540787E+02  0.49533166885E+02  0.51100000000E-03 0.  1.
         23    2    1    0    0    0 -0.90198030797E+01 -0.31259499202E+00 -0.28372983465E+02  0.95316173341E+02  0.90546629680E+02 0.  0.
         11    1    3    3    0    0 -0.10936934498E+01  0.44779862749E+02 -0.94684426779E+01  0.45783006456E+02  0.51100000000E-03 0. -1.
         22    1    1    0    0    0  0.90198030797E+01  0.31259499202E+00  0.28372983465E+02  0.29773826659E+02  0.00000000000E+00 0.  1.
</event>
<event>
 5    1  0.1043455E-009  0.9118800E+02  0.7561462E-02  0.1125453E+00
         25   -1    0    0    0    0  0.00000000000E+00  0.00000000000E+00  0.99999998245E-14  0.12509000000E+03  0.12509000000E+03 0.  0.
        -11    1    3    3    0    0  0.87898868971E+01  0.63476530252E+01 -0.37325836591E+02  0.38868662031E+02  0.51100000000E-03 0. -1.
         23    2    1    0    0    0  0.54606173411E+01  0.21091288525E+02  0.18378264743E+02  0.96586992994E+02  0.92285566625E+02 0.  0.
         11    1    3    3    0    0 -0.33292695559E+01  0.14743635500E+02  0.55704101334E+02  0.57718330964E+02  0.51100000000E-03 0.  1.
         22    1    1    0    0    0 -0.54606173411E+01 -0.21091288525E+02 -0.18378264743E+02  0.28503007006E+02  0.00000000000E+00 0.  1.
</event>
<event>
 5    1  0.1043455E-009  0.9118800E+02  0.7561462E-02  0.1125453E+00
         25   -1    0    0    0    0  0.00000000000E+00  0.00000000000E+00  0.99999998245E-14  0.12509000000E+03  0.12509000000E+03 0.  0.
        -11    1    3    3    0    0  0.29914353564E+02  0.46339864933E+01  0.38698039174E+02  0.49131259053E+02  0.51100000000E-03 0.  1.
         23    2    1    0    0    0  0.35238865006E+02  0.13627255657E+01 -0.14813374852E+01  0.89793697238E+02  0.82565604673E+02 0.  0.
         11    1    3    3    0    0  0.53245114422E+01 -0.32712609276E+01 -0.40179376659E+02  0.40662438185E+02  0.51100000000E-03 0. -1.
         22    1    1    0    0    0 -0.35238865006E+02 -0.13627255657E+01  0.14813374852E+01  0.35296302762E+02  0.00000000000E+00 0.  1.
</event>
<event>
 5    1  0.1043455E-009  0.9118800E+02  0.7561462E-02  0.1125453E+00
         25   -1    0    0    0    0  0.00000000000E+00  0.00000000000E+00  0.99999998245E-14  0.12509000000E+03  0.12509000000E+03 0.  0.
        -11    1    3    3    0    0  0.33622439640E+02 -0.46364432562E+02 -0.12661743052E+02  0.58655338986E+02  0.51100000000E-03 0. -1.
         23    2    1    0    0    0  0.69097108767E+01 -0.24370503784E+02 -0.18468352585E+02  0.93741226399E+02  0.88344054246E+02 0.  0.
         11    1    3    3    0    0 -0.26712728763E+02  0.21993928779E+02 -0.58066095326E+01  0.35085887414E+02  0.51100000000E-03 0.  1.
         22    1    1    0    0    0 -0.69097108767E+01  0.24370503784E+02  0.18468352585E+02  0.31348773601E+02  0.00000000000E+00 0. -1.
</event>
<event>
 5    1  0.1043455E-009  0.9118800E+02  0.7561462E-02  0.1125453E+00
         25   -1    0    0    0    0  0.00000000000E+00  0.00000000000E+00  0.99999998245E-14  0.12509000000E+03  0.12509000000E+03 0.  0.
        -11    1    3    3    0    0  0.27279790360E+02 -0.84023869762E+01 -0.24654148708E+02  0.37717557156E+02  0.51100000000E-03 0.  1.
         23    2    1    0    0    0 -0.24785089231E+02 -0.90552958970E+01  0.58471440483E+01  0.98062456170E+02  0.94264294325E+02 0.  0.
         11    1    3    3    0    0 -0.52064879591E+02 -0.65290892081E+00  0.30501292757E+02  0.60344899014E+02  0.51100000000E-03 0. -1.
         22    1    1    0    0    0  0.24785089231E+02  0.90552958970E+01 -0.58471440483E+01  0.27027543830E+02  0.00000000000E+00 0. -1.
</event>
<event>
 5    1  0.1043455E-009  0.9118800E+02  0.7561462E-02  0.1125453E+00
         25   -1    0    0    0    0  0.00000000000E+00  0.00000000000E+00  0.99999998245E-14  0.12509000000E+03  0.12509000000E+03 0.  0.
        -11    1    3    3    0    0  0.21531992547E+02 -0.35836687015E+02  0.45022094100E+02  0.61440082981E+02  0.51100000000E-03 0.  1.
         23    2    1    0    0    0  0.10692177517E+02 -0.22472741375E+02  0.15032850499E+02  0.96015382907E+02  0.91507488195E+02 0.  0.
         11    1    3    3    0    0 -0.10839815030E+02  0.13363945640E+02 -0.29989243601E+02  0.34575299926E+02  0.51100000000E-03 0. -1.
         22    1    1    0    0    0 -0.10692177517E+02  0.22472741375E+02 -0.15032850499E+02  0.29074617093E+02  0.00000000000E+00 0.  1.
</event>
<event>
 5    1  0.1043455E-009  0.9118800E+02  0.7561462E-02  0.1125453E+00
         25   -1    0    0    0    0  0.00000000000E+00  0.00000000000E+00  0.99999998245E-14  0.12509000000E+03  0.12509000000E+03 0.  0.
        -11    1    3    3    0    0 -0.29312497750E+01 -0.30614912519E+02 -0.37537053721E+02  0.48527265492E+02  0.51100000000E-03 0.  1.
         23    2    1    0    0    0 -0.15837501670E+02  0.73333430809E+01 -0.31521835275E+02  0.89059034443E+02  0.81444957713E+02 0.  0.
         11    1    3    3    0    0 -0.12906251895E+02  0.37948255600E+02  0.60152184466E+01  0.40531768951E+02  0.51100000000E-03 0. -1.
         22    1    1    0    0    0  0.15837501670E+02 -0.73333430809E+01  0.31521835275E+02  0.36030965557E+02  0.00000000000E+00 0.  1.
</event>
<event>
 5    1  0.1043455E-009  0.9118800E+02  0.7561462E-02  0.1125453E+00
         25   -1    0    0    0    0  0.00000000000E+00  0.00000000000E+00  0.99999998245E-14  0.12509000000E+03  0.12509000000E+03 0.  0.
        -11    1    3    3    0    0 -0.52336223640E+02  0.14750651012E+02 -0.65274737235E+01  0.54765590690E+02  0.51100000000E-03 0.  1.
         23    2    1    0    0    0 -0.18542006460E+02  0.14283561124E+02  0.17186009745E+02  0.96052351113E+02  0.91558009488E+02 0.  0.
         11    1    3    3    0    0  0.33794217180E+02 -0.46708988733E+00  0.23713483468E+02  0.41286760423E+02  0.51100000000E-03 0. -1.
         22    1    1    0    0    0  0.18542006460E+02 -0.14283561124E+02 -0.17186009745E+02  0.29037648887E+02  0.00000000000E+00 0.  1.
</event>
<event>
 5    1  0.1043455E-009  0.9118800E+02  0.7561462E-02  0.1125453E+00
         25   -1    0    0    0    0  0.00000000000E+00  0.00000000000E+00  0.99999998245E-14  0.12509000000E+03  0.12509000000E+03 0.  0.
        -11    1    3    3    0    0  0.24675100338E+02  0.23164035040E+02 -0.44014598138E+01  0.34129253504E+02  0.51100000000E-03 0. -1.
         23    2    1    0    0    0 -0.15509214033E+02 -0.23005164372E+02  0.71989328372E+01  0.96426470181E+02  0.92067726212E+02 0.  0.
         11    1    3    3    0    0 -0.40184314371E+02 -0.46169199412E+02  0.11600392651E+02  0.62297216677E+02  0.51100000000E-03 0.  1.
         22    1    1    0    0    0  0.15509214033E+02  0.23005164372E+02 -0.71989328372E+01  0.28663529819E+02  0.00000000000E+00 0.  1.
</event>
<event>
 5    1  0.1043455E-009  0.9118800E+02  0.7561462E-02  0.1125453E+00
         25   -1    0    0    0    0  0.00000000000E+00  0.00000000000E+00  0.99999998245E-14  0.12509000000E+03  0.12509000000E+03 0.  0.
        -11    1    3    3    0    0 -0.18930405873E+02  0.30184453690E+02  0.83989226667E+00  0.35639401374E+02  0.51100000000E-03 0.  1.
         23    2    1    0    0    0  0.24554262977E+02 -0.92613829015E+01 -0.12767945457E+02  0.95906006531E+02  0.91357849219E+02 0.  0.
         11    1    3    3    0    0  0.43484668849E+02 -0.39445836591E+02 -0.13607837724E+02  0.60266605157E+02  0.51100000000E-03 0. -1.
         22    1    1    0    0    0 -0.24554262977E+02  0.92613829015E+01  0.12767945457E+02  0.29183993469E+02  0.00000000000E+00 0. -1.
</event>
<event>
 5    1  0.1043455E-009  0.9118800E+02  0.7561462E-02  0.1125453E+00
         25   -1    0    0    0    0  0.00000000000E+00  0.00000000000E+00  0.99999998245E-14  0.12509000000E+03  0.12509000000E+03 0.  0.
        -11    1    3    3    0    0 -0.18530191095E+02 -0.53795405878E+02 -0.25223231363E+02  0.62237649990E+02  0.51100000000E-03 0.  1.
         23    2    1    0    0    0 -0.50120224044E+01 -0.27742050136E+02 -0.13308050701E+02  0.93915556496E+02  0.88590551551E+02 0.  0.
         11    1    3    3    0    0  0.13518168690E+02  0.26053355742E+02  0.11915180662E+02  0.31677906506E+02  0.51100000000E-03 0. -1.
         22    1    1    0    0    0  0.50120224044E+01  0.27742050136E+02  0.13308050701E+02  0.31174443504E+02  0.00000000000E+00 0.  1.
</event>
<event>
 5    1  0.1043455E-009  0.9118800E+02  0.7561462E-02  0.1125453E+00
         25   -1    0    0    0    0  0.00000000000E+00  0.00000000000E+00  0.99999998245E-14  0.12509000000E+03  0.12509000000E+03 0.  0.
        -11    1    3    3    0    0 -0.33395807122E+02  0.29610647499E+00 -0.34292351240E+02  0.47867869873E+02  0.51100000000E-03 0.  1.
         23    2    1    0    0    0 -0.68678530184E+01 -0.28148061876E+02 -0.73014169253E+01  0.95210383511E+02  0.90400363089E+02 0.  0.
         11    1    3    3    0    0  0.26527954104E+02 -0.28444168351E+02  0.26990934315E+02  0.47342513637E+02  0.51100000000E-03 0. -1.
         22    1    1    0    0    0  0.68678530184E+01  0.28148061876E+02  0.73014169253E+01  0.29879616489E+02  0.00000000000E+00 0.  1.
</event>
<event>
 5    1  0.1043455E-009  0.9118800E+02  0.7561462E-02  0.1125453E+00
         25   -1    0    0    0    0  0.00000000000E+00  0.00000000000E+00  0.99999998245E-14  0.12509000000E+03  0.12509000000E+03 0.  0.
        -11    1    3    3    0    0 -0.31716060350E+02 -0.26657992208E+02  0.27557670138E+02  0.49759242522E+02  0.51100000000E-03 0.  1.
         23    2    1    0    0    0 -0.25776045934E+02 -0.85345809930E+01 -0.13304683350E+02  0.94853296877E+02  0.89904892596E+02 0.  0.
         11    1    3    3    0    0  0.59400144160E+01  0.18123411215E+02 -0.40862353487E+02  0.45094054355E+02  0.51100000000E-03 0. -1.
         22    1    1    0    0    0  0.25776045934E+02  0.85345809930E+01  0.13304683350E+02  0.30236703123E+02  0.00000000000E+00 0.  1.
</event>
<event>
 5    1  0.1043455E-009  0.9118800E+02  0.7561462E-02  0.1125453E+00
         25   -1    0    0    0    0  0.00000000000E+00  0.00000000000E+00  0.99999998245E-14  0.12509000000E+03  0.12509000000E+03 0.  0.
        -11    1    3    3    0    0  0.39482898351E+02  0.20005432629E+02 -0.76314414440E+01  0.44914980748E+02  0.51100000000E-03 0.  1.
         23    2    1    0    0    0  0.20638458969E+02 -0.14046444735E+02  0.20377500566E+02  0.92864371572E+02  0.87093629961E+02 0.  0.
         11    1    3    3    0    0 -0.18844439382E+02 -0.34051877363E+02  0.28008942009E+02  0.47949390823E+02  0.51100000000E-03 0. -1.
         22    1    1    0    0    0 -0.20638458969E+02  0.14046444735E+02 -0.20377500566E+02  0.32225628428E+02  0.00000000000E+00 0.  1.
</event>
<event>
 5    1  0.1043455E-009  0.9118800E+02  0.7561462E-02  0.1125453E+00
         25   -1    0    0    0    0  0.00000000000E+00  0.00000000000E+00  0.99999998245E-14  0.12509000000E+03  0.12509000000E+03 0.  0.
        -11    1    3    3    0    0 -0.47178366694E+02 -0.21822341551E+02 -0.25666721671E+02  0.57972350964E+02  0.51100000000E-03 0.  1.
         23    2    1    0    0    0 -0.10746583703E+02 -0.22729090059E+02 -0.14396369202E+02  0.96118357961E+02  0.91648146161E+02 0.  0.
         11    1    3    3    0    0  0.36431782991E+02 -0.90674850850E+00  0.11270352469E+02  0.38146006997E+02  0.51100000000E-03 0. -1.
         22    1    1    0    0    0  0.10746583703E+02  0.22729090059E+02  0.14396369202E+02  0.28971642039E+02  0.00000000000E+00 0.  1.
</event>
<event>
 5    1  0.1043455E-009  0.9118800E+02  0.7561462E-02  0.1125453E+00
         25   -1    0    0    0    0  0.00000000000E+00  0.00000000000E+00  0.99999998245E-14  0.12509000000E+03  0.12509000000E+03 0.  0.
        -11    1    3    3    0    0 -0.16418830065E+02 -0.55505051078E+02 -0.21546458642E+02  0.61762760270E+02  0.51100000000E-03 0.  1.
         23    2    1    0    0    0 -0.10965229423E+01 -0.28231100439E+02 -0.95537872532E+01  0.95265978717E+02  0.90477259328E+02 0.  0.
         11    1    3    3    0    0  0.15322307123E+02  0.27273950639E+02  0.11992671389E+02  0.33503218447E+02  0.51100000000E-03 0. -1.
         22    1    1    0    0    0  0.10965229423E+01  0.28231100439E+02  0.95537872532E+01  0.29824021283E+02  0.00000000000E+00 0.  1.
</event>
<event>
 5    1  0.1043455E-009  0.9118800E+02  0.7561462E-02  0.1125453E+00
         25   -1    0    0    0    0  0.00000000000E+00  0.00000000000E+00  0.99999998245E-14  0.12509000000E+03  0.12509000000E+03 0.  0.
        -11    1    3    3    0    0  0.34693241609E+01  0.13503405543E+02  0.34637865499E+02  0.37338450664E+02  0.51100000000E-03 0. -1.
         23    2    1    0    0    0 -0.21864169863E+02 -0.15272594823E+02 -0.10381685067E+02  0.96470540514E+02  0.92127583957E+02 0.  0.
         11    1    3    3    0    0 -0.25333494024E+02 -0.28776000367E+02 -0.45019550566E+02  0.59132089850E+02  0.51100000000E-03 0.  1.
         22    1    1    0    0    0  0.21864169863E+02  0.15272594823E+02  0.10381685067E+02  0.28619459486E+02  0.00000000000E+00 0.  1.
</event>
<event>
 5    1  0.1043455E-009  0.9118800E+02  0.7561462E-02  0.1125453E+00
         25   -1    0    0    0    0  0.00000000000E+00  0.00000000000E+00  0.99999998245E-14  0.12509000000E+03  0.12509000000E+03 0.  0.
        -11    1    3    3    0    0  0.59343479657E+02  0.59931141077E-01 -0.12243619213E+02  0.60593385623E+02  0.51100000000E-03 0.  1.
         23    2    1    0    0    0  0.24859621304E+02  0.71962255435E+00 -0.16349657937E+02  0.95327104599E+02  0.90561729933E+02 0.  0.
         11    1    3    3    0    0 -0.34483858353E+02  0.65969141327E+00 -0.41060387240E+01  0.34733718976E+02  0.51100000000E-03 0. -1.
         22    1    1    0    0    0 -0.24859621304E+02 -0.71962255435E+00  0.16349657937E+02  0.29762895401E+02  0.00000000000E+00 0.  1.
</event>
<event>
 5    1  0.1043455E-009  0.9118800E+02  0.7561462E-02  0.1125453E+00
         25   -1    0    0    0    0  0.00000000000E+00  0.00000000000E+00  0.99999998245E-14  0.12509000000E+03  0.12509000000E+03 0.  0.
        -11    1    3    3    0    0 -0.14399114531E+02 -0.64353999994E+01 -0.39308367370E+02  0.42354416747E+02  0.51100000000E-03 0. -1.
         23    2    1    0    0    0  0.27739948208E+02  0.20198887687E+01 -0.62336107303E+01  0.96586621605E+02  0.92285063217E+02 0.  0.
         11    1    3    3    0    0  0.42139062739E+02  0.84552887680E+01  0.33074756640E+02  0.54232204857E+02  0.51100000000E-03 0.  1.
         22    1    1    0    0    0 -0.27739948208E+02 -0.20198887687E+01  0.62336107303E+01  0.28503378395E+02  0.00000000000E+00 0. -1.
</event>
<event>
 5    1  0.1043455E-009  0.9118800E+02  0.7561462E-02  0.1125453E+00
         25   -1    0    0    0    0  0.00000000000E+00  0.00000000000E+00  0.99999998245E-14  0.12509000000E+03  0.12509000000E+03 0.  0.
        -11    1    3    3    0    0 -0.33542375992E+02  0.91607234673E+01 -0.82862364108E+01  0.35744531830E+02  0.51100000000E-03 0. -1.
         23    2    1    0    0    0  0.24080318845E+02 -0.11378135582E+02 -0.91635823071E+01  0.96924507537E+02  0.92741927927E+02 0.  0.
         11    1    3    3    0    0  0.57622694837E+02 -0.20538859050E+02 -0.87734589625E+00  0.61179975706E+02  0.51100000000E-03 0.  1.
         22    1    1    0    0    0 -0.24080318845E+02  0.11378135582E+02  0.91635823071E+01  0.28165492463E+02  0.00000000000E+00 0.  1.
</event>
<event>
 5    1  0.1043455E-009  0.9118800E+02  0.7561462E-02  0.1125453E+00
         25   -1    0    0    0    0  0.00000000000E+00  0.00000000000E+00  0.99999998245E-14  0.12509000000E+03  0.12509000000E+03 0.  0.
        -11    1    3    3    0    0 -0.39691431965E+02 -0.51267047849E+01  0.69030543329E+01  0.40612129134E+02  0.51100000000E-03 0.  1.
         23    2    1    0    0    0  0.10233741673E+01 -0.58333666401E+01 -0.29359634803E+02  0.95138979703E+02  0.90301505205E+02 0.  0.
         11    1    3    3    0    0  0.40714806133E+02 -0.70666185524E+00 -0.36262689136E+02  0.54526850569E+02  0.51100000000E-03 0. -1.
         22    1    1    0    0    0 -0.10233741673E+01  0.58333666401E+01  0.29359634803E+02  0.29951020297E+02  0.00000000000E+00 0. -1.
</event>
<event>
 5    1  0.1043455E-009  0.9118800E+02  0.7561462E-02  0.1125453E+00
         25   -1    0    0    0    0  0.00000000000E+00  0.00000000000E+00  0.99999998245E-14  0.12509000000E+03  0.12509000000E+03 0.  0.
        -11    1    3    3    0    0 -0.28967635698E+02 -0.27349085047E+02  0.20753617151E+02  0.44920028895E+02  0.51100000000E-03 0.  1.
         23    2    1    0    0    0  0.39803709819E+01 -0.35855049086E+02 -0.63962266099E+01  0.88452046824E+02  0.80507297647E+02 0.  0.
         11    1    3    3    0    0  0.32948006680E+02 -0.85059640388E+01 -0.27149843761E+02  0.43532017928E+02  0.51100000000E-03 0. -1.
         22    1    1    0    0    0 -0.39803709819E+01  0.35855049086E+02  0.63962266099E+01  0.36637953176E+02  0.00000000000E+00 0.  1.
</event>
<event>
 5    1  0.1043455E-009  0.9118800E+02  0.7561462E-02  0.1125453E+00
         25   -1    0    0    0    0  0.00000000000E+00  0.00000000000E+00  0.99999998245E-14  0.12509000000E+03  0.12509000000E+03 0.  0.
        -11    1    3    3    0    0  0.30857512529E+02  0.32719093010E+02  0.36623087832E+02  0.57999790426E+02  0.51100000000E-03 0. -1.
         23    2    1    0    0    0  0.13667388110E+02  0.27866064908E+02  0.59606868948E+01  0.93485493051E+02  0.87981205672E+02 0.  0.
         11    1    3    3    0    0 -0.17190124419E+02 -0.48530281011E+01 -0.30662400937E+02  0.35485702625E+02  0.51100000000E-03 0.  1.
         22    1    1    0    0    0 -0.13667388110E+02 -0.27866064908E+02 -0.59606868948E+01  0.31604506949E+02  0.00000000000E+00 0. -1.
</event>
<event>
 5    1  0.1043455E-009  0.9118800E+02  0.7561462E-02  0.1125453E+00
         25   -1    0    0    0    0  0.00000000000E+00  0.00000000000E+00  0.99999998245E-14  0.12509000000E+03  0.12509000000E+03 0.  0.
        -11    1    3    3    0    0  0.41093910603E+02 -0.16321659254E+01  0.33865602620E+02  0.53275252185E+02  0.51100000000E-03 0. -1.
         23    2    1    0    0    0  0.27419266633E+02 -0.58320329279E+01 -0.66817653641E+01  0.96272040684E+02  0.91857667282E+02 0.  0.
         11    1    3    3    0    0 -0.13674643970E+02 -0.41998670025E+01 -0.40547367984E+02  0.42996788500E+02  0.51100000000E-03 0.  1.
         22    1    1    0    0    0 -0.27419266633E+02  0.58320329279E+01  0.66817653641E+01  0.28817959316E+02  0.00000000000E+00 0. -1.
</event>
<event>
 5    1  0.1043455E-009  0.9118800E+02  0.7561462E-02  0.1125453E+00
         25   -1    0    0    0    0  0.00000000000E+00  0.00000000000E+00  0.99999998245E-14  0.12509000000E+03  0.12509000000E+03 0.  0.
        -11    1    3    3    0    0 -0.80537161885E+01 -0.25317207149E+02  0.36685589070E+02  0.45295206898E+02  0.51100000000E-03 0.  1.
         23    2    1    0    0    0  0.86986533322E+01 -0.24750262700E+02 -0.11598534552E+02  0.96406065869E+02  0.92039999235E+02 0.  0.
         11    1    3    3    0    0  0.16752369521E+02  0.56694444941E+00 -0.48284123622E+02  0.51110858971E+02  0.51100000000E-03 0. -1.
         22    1    1    0    0    0 -0.86986533322E+01  0.24750262700E+02  0.11598534552E+02  0.28683934131E+02  0.00000000000E+00 0. -1.
</event>
<event>
 5    1  0.1043455E-009  0.9118800E+02  0.7561462E-02  0.1125453E+00
         25   -1    0    0    0    0  0.00000000000E+00  0.00000000000E+00  0.99999998245E-14  0.12509000000E+03  0.12509000000E+03 0.  0.
        -11    1    3    3    0    0 -0.39949301715E+02 -0.39199639965E+01 -0.40468410848E+02  0.57000044755E+02  0.51100000000E-03 0.  1.
         23    2    1    0    0    0 -0.32392204823E+01 -0.80294015339E+01 -0.27675237906E+02  0.96092023665E+02  0.91612195589E+02 0.  0.
         11    1    3    3    0    0  0.36710081232E+02 -0.41094375374E+01  0.12793172942E+02  0.39091978910E+02  0.51100000000E-03 0. -1.
         22    1    1    0    0    0  0.32392204823E+01  0.80294015339E+01  0.27675237906E+02  0.28997976335E+02  0.00000000000E+00 0.  1.
</event>
<event>
 5    1  0.1043455E-009  0.9118800E+02  0.7561462E-02  0.1125453E+00
         25   -1    0    0    0    0  0.00000000000E+00  0.00000000000E+00  0.99999998245E-14  0.12509000000E+03  0.12509000000E+03 0.  0.
        -11    1    3    3    0    0 -0.33260388137E+02 -0.80473524564E+01 -0.11223978203E+02  0.36013761086E+02  0.51100000000E-03 0.  1.
         23    2    1    0    0    0  0.34361564873E+01  0.13437838848E+02  0.27985920258E+02  0.93855493169E+02  0.88505701404E+02 0.  0.
         11    1    3    3    0    0  0.36696544625E+02  0.21485191304E+02  0.39209898461E+02  0.57841732083E+02  0.51100000000E-03 0. -1.
         22    1    1    0    0    0 -0.34361564873E+01 -0.13437838848E+02 -0.27985920258E+02  0.31234506831E+02  0.00000000000E+00 0. -1.
</event>
<event>
 5    1  0.1043455E-009  0.9118800E+02  0.7561462E-02  0.1125453E+00
         25   -1    0    0    0    0  0.00000000000E+00  0.00000000000E+00  0.99999998245E-14  0.12509000000E+03  0.12509000000E+03 0.  0.
        -11    1    3    3    0    0  0.27166893481E+02  0.18753003595E+02 -0.12195568909E+02  0.35191577778E+02  0.51100000000E-03 0.  1.
         23    2    1    0    0    0 -0.24072484136E+02 -0.14258957216E+02 -0.15388734485E+01  0.97069106281E+02  0.92936757579E+02 0.  0.
         11    1    3    3    0    0 -0.51239377617E+02 -0.33011960811E+02  0.10656695461E+02  0.61877528502E+02  0.51100000000E-03 0. -1.
         22    1    1    0    0    0  0.24072484136E+02  0.14258957216E+02  0.15388734485E+01  0.28020893719E+02  0.00000000000E+00 0. -1.
</event>
<event>
 5    1  0.1043455E-009  0.9118800E+02  0.7561462E-02  0.1125453E+00
         25   -1    0    0    0    0  0.00000000000E+00  0.00000000000E+00  0.99999998245E-14  0.12509000000E+03  0.12509000000E+03 0.  0.
        -11    1    3    3    0    0  0.28013671989E+02  0.21863598395E+02  0.65457750854E+01  0.36133501419E+02  0.51100000000E-03 0.  1.
         23    2    1    0    0    0 -0.24116776693E+02  0.56663939883E+01 -0.16433224946E+02  0.95361599084E+02  0.90609363528E+02 0.  0.
         11    1    3    3    0    0 -0.52130448681E+02 -0.16197204407E+02 -0.22979000031E+02  0.59228097665E+02  0.51100000000E-03 0. -1.
         22    1    1    0    0    0  0.24116776693E+02 -0.56663939883E+01  0.16433224946E+02  0.29728400916E+02  0.00000000000E+00 0. -1.
</event>
<event>
 5    1  0.1043455E-009  0.9118800E+02  0.7561462E-02  0.1125453E+00
         25   -1    0    0    0    0  0.00000000000E+00  0.00000000000E+00  0.99999998245E-14  0.12509000000E+03  0.12509000000E+03 0.  0.
        -11    1    3    3    0    0  0.47100342925E+02  0.24759930444E+02 -0.10356844965E+02  0.54210337549E+02  0.51100000000E-03 0.  1.
         23    2    1    0    0    0  0.96242154918E+01  0.27645607042E+02  0.60104512835E+01  0.95206381792E+02  0.90394825608E+02 0.  0.
         11    1    3    3    0    0 -0.37476127433E+02  0.28856765984E+01  0.16367296248E+02  0.40996044243E+02  0.51100000000E-03 0. -1.
         22    1    1    0    0    0 -0.96242154918E+01 -0.27645607042E+02 -0.60104512835E+01  0.29883618208E+02  0.00000000000E+00 0.  1.
</event>
<event>
 5    1  0.1043455E-009  0.9118800E+02  0.7561462E-02  0.1125453E+00
         25   -1    0    0    0    0  0.00000000000E+00  0.00000000000E+00  0.99999998245E-14  0.12509000000E+03  0.12509000000E+03 0.  0.
        -11    1    3    3    0    0  0.12775494989E+02 -0.48561171121E+02  0.22436028869E+02  0.54997963640E+02  0.51100000000E-03 0.  1.
         23    2    1    0    0    0  0.24165479705E+02 -0.10497061018E+02  0.55727461690E+01  0.98160198678E+02  0.94393910849E+02 0.  0.
         11    1    3    3    0    0  0.11389984715E+02  0.38064110103E+02 -0.16863282700E+02  0.43162235038E+02  0.51100000000E-03 0. -1.
         22    1    1    0    0    0 -0.24165479705E+02  0.10497061018E+02 -0.55727461690E+01  0.26929801322E+02  0.00000000000E+00 0.  1.
</event>
<event>
 5    1  0.1043455E-009  0.9118800E+02  0.7561462E-02  0.1125453E+00
         25   -1    0    0    0    0  0.00000000000E+00  0.00000000000E+00  0.99999998245E-14  0.12509000000E+03  0.12509000000E+03 0.  0.
        -11    1    3    3    0    0 -0.29251687770E+02  0.17018977790E+02 -0.18377838604E+01  0.33892245310E+02  0.51100000000E-03 0. -1.
         23    2    1    0    0    0  0.79330683514E+01 -0.97569068083E+01  0.31904069170E+02  0.90797137280E+02  0.84072110147E+02 0.  0.
         11    1    3    3    0    0  0.37184756121E+02 -0.26775884599E+02  0.33741853031E+02  0.56904891969E+02  0.51100000000E-03 0.  1.
         22    1    1    0    0    0 -0.79330683514E+01  0.97569068083E+01 -0.31904069170E+02  0.34292862720E+02  0.00000000000E+00 0.  1.
</event>
<event>
 5    1  0.1043455E-009  0.9118800E+02  0.7561462E-02  0.1125453E+00
         25   -1    0    0    0    0  0.00000000000E+00  0.00000000000E+00  0.99999998245E-14  0.12509000000E+03  0.12509000000E+03 0.  0.
        -11    1    3    3    0    0 -0.40787756106E+02  0.37694517191E+02 -0.65841364788E+01  0.55927350445E+02  0.51100000000E-03 0.  1.
         23    2    1    0    0    0 -0.14224442052E+02  0.10449475866E+02 -0.21915177673E+02  0.96951035733E+02  0.92777702169E+02 0.  0.
         11    1    3    3    0    0  0.26563314054E+02 -0.27245041324E+02 -0.15331041194E+02  0.41023685288E+02  0.51100000000E-03 0. -1.
         22    1    1    0    0    0  0.14224442052E+02 -0.10449475866E+02  0.21915177673E+02  0.28138964267E+02  0.00000000000E+00 0.  1.
</event>
<event>
 5    1  0.1043455E-009  0.9118800E+02  0.7561462E-02  0.1125453E+00
         25   -1    0    0    0    0  0.00000000000E+00  0.00000000000E+00  0.99999998245E-14  0.12509000000E+03  0.12509000000E+03 0.  0.
        -11    1    3    3    0    0 -0.31068971138E+02 -0.40321132245E+02  0.35502052454E+02  0.62060215934E+02  0.51100000000E-03 0. -1.
         23    2    1    0    0    0 -0.73717341534E+01 -0.38185023378E+01  0.34979722660E+01  0.11608115798E+03  0.11573105030E+03 0.  0.
         11    1    3    3    0    0  0.23697236985E+02  0.36502629907E+02 -0.32004080188E+02  0.54020942048E+02  0.51100000000E-03 0.  1.
         22    1    1    0    0    0  0.73717341534E+01  0.38185023378E+01 -0.34979722660E+01  0.90088420180E+01  0.00000000000E+00 0. -1.
</event>
<event>
 5    1  0.1043455E-009  0.9118800E+02  0.7561462E-02  0.1125453E+00
         25   -1    0    0    0    0  0.00000000000E+00  0.00000000000E+00  0.99999998245E-14  0.12509000000E+03  0.12509000000E+03 0.  0.
        -11    1    3    3    0    0  0.32615150465E+02 -0.14664948428E+02  0.97032053327E+01  0.37053487639E+02  0.51100000000E-03 0. -1.
         23    2    1    0    0    0 -0.12832057257E+02  0.27526858756E+00 -0.25562021600E+02  0.96486601347E+02  0.92149388631E+02 0.  0.
         11    1    3    3    0    0 -0.45447207722E+02  0.14940217015E+02 -0.35265226932E+02  0.59433113708E+02  0.51100000000E-03 0.  1.
         22    1    1    0    0    0  0.12832057257E+02 -0.27526858756E+00  0.25562021600E+02  0.28603398653E+02  0.00000000000E+00 0.  1.
</event>
<event>
 5    1  0.1043455E-009  0.9118800E+02  0.7561462E-02  0.1125453E+00
         25   -1    0    0    0    0  0.00000000000E+00  0.00000000000E+00  0.99999998245E-14  0.12509000000E+03  0.12509000000E+03 0.  0.
        -11    1    3    3    0    0 -0.21779855584E+02 -0.49785999383E+02  0.57764091169E+01  0.54647733223E+02  0.51100000000E-03 0.  1.
         23    2    1    0    0    0 -0.17440226194E+02 -0.15805214222E+02 -0.17236850822E+02  0.95916804896E+02  0.91372633479E+02 0.  0.
         11    1    3    3    0    0  0.43396293901E+01  0.33980785162E+02 -0.23013259939E+02  0.41269071673E+02  0.51100000000E-03 0. -1.
         22    1    1    0    0    0  0.17440226194E+02  0.15805214222E+02  0.17236850822E+02  0.29173195104E+02  0.00000000000E+00 0.  1.
</event>
<event>
 5    1  0.1043455E-009  0.9118800E+02  0.7561462E-02  0.1125453E+00
         25   -1    0    0    0    0  0.00000000000E+00  0.00000000000E+00  0.99999998245E-14  0.12509000000E+03  0.12509000000E+03 0.  0.
        -11    1    3    3    0    0  0.28912588948E+02  0.12824855613E+01  0.39230233539E+02  0.48750320949E+02  0.51100000000E-03 0.  1.
         23    2    1    0    0    0  0.11072473125E+02  0.27865518517E+02  0.67526630924E+01  0.94354267665E+02  0.89207861674E+02 0.  0.
         11    1    3    3    0    0 -0.17840115823E+02  0.26583032956E+02 -0.32477570446E+02  0.45603946716E+02  0.51100000000E-03 0. -1.
         22    1    1    0    0    0 -0.11072473125E+02 -0.27865518517E+02 -0.67526630924E+01  0.30735732335E+02  0.00000000000E+00 0.  1.
</event>
<event>
 5    1  0.1043455E-009  0.9118800E+02  0.7561462E-02  0.1125453E+00
         25   -1    0    0    0    0  0.00000000000E+00  0.00000000000E+00  0.99999998245E-14  0.12509000000E+03  0.12509000000E+03 0.  0.
        -11    1    3    3    0    0  0.42199161897E+02 -0.11787325876E+02  0.18812857454E+02  0.47682637532E+02  0.51100000000E-03 0.  1.
         23    2    1    0    0    0  0.61284055659E+01 -0.32011174109E+02  0.16512331293E+01  0.92455674613E+02  0.86504639035E+02 0.  0.
         11    1    3    3    0    0 -0.36070756332E+02 -0.20223848233E+02 -0.17161624325E+02  0.44773037081E+02  0.51100000000E-03 0. -1.
         22    1    1    0    0    0 -0.61284055659E+01  0.32011174109E+02 -0.16512331293E+01  0.32634325387E+02  0.00000000000E+00 0. -1.
</event>
<event>
 5    1  0.1043455E-009  0.9118800E+02  0.7561462E-02  0.1125453E+00
         25   -1    0    0    0    0  0.00000000000E+00  0.00000000000E+00  0.99999998245E-14  0.12509000000E+03  0.12509000000E+03 0.  0.
        -11    1    3    3    0    0 -0.11452514754E+02  0.17616724315E+02 -0.33292787113E+02  0.39369007402E+02  0.51100000000E-03 0.  1.
         23    2    1    0    0    0  0.38731633082E+01  0.18362903759E+02  0.21664074346E+02  0.96427659800E+02  0.92069342502E+02 0.  0.
         11    1    3    3    0    0  0.15325678062E+02  0.74617944363E+00  0.54956861459E+02  0.57058652398E+02  0.51100000000E-03 0. -1.
         22    1    1    0    0    0 -0.38731633082E+01 -0.18362903759E+02 -0.21664074346E+02  0.28662340200E+02  0.00000000000E+00 0. -1.
</event>
<event>
 5    1  0.1043455E-009  0.9118800E+02  0.7561462E-02  0.1125453E+00
         25   -1    0    0    0    0  0.00000000000E+00  0.00000000000E+00  0.99999998245E-14  0.12509000000E+03  0.12509000000E+03 0.  0.
        -11    1    3    3    0    0  0.40125650316E+02  0.27145029653E+02  0.27738692742E+01  0.48524373249E+02  0.51100000000E-03 0.  1.
         23    2    1    0    0    0 -0.21123214546E+01  0.24375445295E+02 -0.17053255483E+02  0.95266556908E+02  0.90478058706E+02 0.  0.
         11    1    3    3    0    0 -0.42237971771E+02 -0.27695843582E+01 -0.19827124758E+02  0.46742183659E+02  0.51100000000E-03 0. -1.
         22    1    1    0    0    0  0.21123214546E+01 -0.24375445295E+02  0.17053255483E+02  0.29823443092E+02  0.00000000000E+00 0. -1.
</event>
<event>
 5    1  0.1043455E-009  0.9118800E+02  0.7561462E-02  0.1125453E+00
         25   -1    0    0    0    0  0.00000000000E+00  0.00000000000E+00  0.99999998245E-14  0.12509000000E+03  0.12509000000E+03 0.  0.
        -11    1    3    3    0    0  0.32588869010E+02 -0.90963389750E+01  0.18209650820E+02  0.38423549411E+02  0.51100000000E-03 0. -1.
         23    2    1    0    0    0 -0.59210674936E+01 -0.12980958125E+02 -0.24920315977E+02  0.96374386434E+02  0.91996934178E+02 0.  0.
         11    1    3    3    0    0 -0.38509936504E+02 -0.38846191496E+01 -0.43129966797E+02  0.57950837023E+02  0.51100000000E-03 0.  1.
         22    1    1    0    0    0  0.59210674936E+01  0.12980958125E+02  0.24920315977E+02  0.28715613566E+02  0.00000000000E+00 0.  1.
</event>
<event>
 5    1  0.1043455E-009  0.9118800E+02  0.7561462E-02  0.1125453E+00
         25   -1    0    0    0    0  0.00000000000E+00  0.00000000000E+00  0.99999998245E-14  0.12509000000E+03  0.12509000000E+03 0.  0.
        -11    1    3    3    0    0  0.20937370597E+02 -0.19693556742E+02  0.33655335312E+02  0.44259363528E+02  0.51100000000E-03 0. -1.
         23    2    1    0    0    0 -0.24702875303E+02 -0.10037554493E+02  0.14952876656E+02  0.94519212167E+02  0.89438852855E+02 0.  0.
         11    1    3    3    0    0 -0.45640245900E+02  0.96560022490E+01 -0.18702458655E+02  0.50259848639E+02  0.51100000000E-03 0.  1.
         22    1    1    0    0    0  0.24702875303E+02  0.10037554493E+02 -0.14952876656E+02  0.30570787833E+02  0.00000000000E+00 0.  1.
</event>
<event>
 5    1  0.1043455E-009  0.9118800E+02  0.7561462E-02  0.1125453E+00
         25   -1    0    0    0    0  0.00000000000E+00  0.00000000000E+00  0.99999998245E-14  0.12509000000E+03  0.12509000000E+03 0.  0.
        -11    1    3    3    0    0 -0.82947093680E+01  0.46463380338E+02  0.91138480068E+01  0.48069846491E+02  0.51100000000E-03 0.  1.
         23    2    1    0    0    0 -0.26721954495E+02  0.12075332786E+01 -0.22783720368E+01  0.98243920811E+02  0.94504793574E+02 0.  0.
         11    1    3    3    0    0 -0.18427245127E+02 -0.45255847060E+02 -0.11392220044E+02  0.50174074320E+02  0.51100000000E-03 0. -1.
         22    1    1    0    0    0  0.26721954495E+02 -0.12075332786E+01  0.22783720368E+01  0.26846079189E+02  0.00000000000E+00 0.  1.
</event>
<event>
 5    1  0.1043455E-009  0.9118800E+02  0.7561462E-02  0.1125453E+00
         25   -1    0    0    0    0  0.00000000000E+00  0.00000000000E+00  0.99999998245E-14  0.12509000000E+03  0.12509000000E+03 0.  0.
        -11    1    3    3    0    0 -0.82795943525E+00  0.31132051503E+02  0.38771605350E+02  0.49730549255E+02  0.51100000000E-03 0.  1.
         23    2    1    0    0    0 -0.23123172474E+02  0.17979441590E+02  0.67229858685E+00  0.95791648331E+02  0.91201132007E+02 0.  0.
         11    1    3    3    0    0 -0.22295213039E+02 -0.13152609913E+02 -0.38099306763E+02  0.46061099075E+02  0.51100000000E-03 0. -1.
         22    1    1    0    0    0  0.23123172474E+02 -0.17979441590E+02 -0.67229858685E+00  0.29298351669E+02  0.00000000000E+00 0. -1.
</event>
<event>
 5    1  0.1043455E-009  0.9118800E+02  0.7561462E-02  0.1125453E+00
         25   -1    0    0    0    0  0.00000000000E+00  0.00000000000E+00  0.99999998245E-14  0.12509000000E+03  0.12509000000E+03 0.  0.
        -11    1    3    3    0    0 -0.11502389534E+02  0.67289245559E+00 -0.34878413146E+02  0.36732294417E+02  0.51100000000E-03 0.  1.
         23    2    1    0    0    0 -0.42126005167E+01 -0.24567944158E+02  0.17023638472E+02  0.94905001241E+02  0.89976803180E+02 0.  0.
         11    1    3    3    0    0  0.72897890171E+01 -0.25240836613E+02  0.51902051618E+02  0.58172706825E+02  0.51100000000E-03 0. -1.
         22    1    1    0    0    0  0.42126005167E+01  0.24567944158E+02 -0.17023638472E+02  0.30184998759E+02  0.00000000000E+00 0. -1.
</event>
<event>
 5    1  0.1043455E-009  0.9118800E+02  0.7561462E-02  0.1125453E+00
         25   -1    0    0    0    0  0.00000000000E+00  0.00000000000E+00  0.99999998245E-14  0.12509000000E+03  0.12509000000E+03 0.  0.
        -11    1    3    3    0    0  0.44122939585E+02 -0.23361563439E+02 -0.25928270763E+02  0.56257192153E+02  0.51100000000E-03 0. -1.
         23    2    1    0    0    0  0.18101197954E+02  0.61918132375E+01 -0.22160842238E+02  0.95813817748E+02  0.91231534155E+02 0.  0.
         11    1    3    3    0    0 -0.26021741632E+02  0.29553376676E+02  0.37674285247E+01  0.39556625595E+02  0.51100000000E-03 0.  1.
         22    1    1    0    0    0 -0.18101197954E+02 -0.61918132375E+01  0.22160842238E+02  0.29276182252E+02  0.00000000000E+00 0. -1.
</event>
<event>
 5    1  0.1043455E-009  0.9118800E+02  0.7561462E-02  0.1125453E+00
         25   -1    0    0    0    0  0.00000000000E+00  0.00000000000E+00  0.99999998245E-14  0.12509000000E+03  0.12509000000E+03 0.  0.
        -11    1    3    3    0    0  0.14447698394E+02 -0.14097562187E+02  0.26770222966E+02  0.33527929946E+02  0.51100000000E-03 0. -1.
         23    2    1    0    0    0 -0.14513346695E+02  0.21463834155E+02 -0.14649210234E+02  0.95325377218E+02  0.90559343926E+02 0.  0.
         11    1    3    3    0    0 -0.28961045090E+02  0.35561396342E+02 -0.41419433200E+02  0.61797447272E+02  0.51100000000E-03 0.  1.
         22    1    1    0    0    0  0.14513346695E+02 -0.21463834155E+02  0.14649210234E+02  0.29764622782E+02  0.00000000000E+00 0.  1.
</event>
<event>
 5    1  0.1043455E-009  0.9118800E+02  0.7561462E-02  0.1125453E+00
         25   -1    0    0    0    0  0.00000000000E+00  0.00000000000E+00  0.99999998245E-14  0.12509000000E+03  0.12509000000E+03 0.  0.
        -11    1    3    3    0    0 -0.35064138226E+02 -0.20249664788E+02  0.39580610578E+02  0.56623029304E+02  0.51100000000E-03 0. -1.
         23    2    1    0    0    0 -0.29711726707E+02 -0.21604858985E+01  0.66616820344E+01  0.94564069863E+02  0.89501569251E+02 0.  0.
         11    1    3    3    0    0  0.53524115193E+01  0.18089178890E+02 -0.32918928544E+02  0.37941040559E+02  0.51100000000E-03 0.  1.
         22    1    1    0    0    0  0.29711726707E+02  0.21604858985E+01 -0.66616820344E+01  0.30525930137E+02  0.00000000000E+00 0. -1.
</event>
<event>
 5    1  0.1043455E-009  0.9118800E+02  0.7561462E-02  0.1125453E+00
         25   -1    0    0    0    0  0.00000000000E+00  0.00000000000E+00  0.99999998245E-14  0.12509000000E+03  0.12509000000E+03 0.  0.
        -11    1    3    3    0    0  0.32392678957E+02  0.18776660305E+02 -0.85765700842E+00  0.37451090746E+02  0.51100000000E-03 0.  1.
         23    2    1    0    0    0 -0.12234337890E+02 -0.95210300029E+01  0.24526908393E+02  0.96074516698E+02  0.91588287938E+02 0.  0.
         11    1    3    3    0    0 -0.44627016848E+02 -0.28297690308E+02  0.25384565401E+02  0.58623425952E+02  0.51100000000E-03 0. -1.
         22    1    1    0    0    0  0.12234337890E+02  0.95210300029E+01 -0.24526908393E+02  0.29015483302E+02  0.00000000000E+00 0. -1.
</event>
<event>
 5    1  0.1043455E-009  0.9118800E+02  0.7561462E-02  0.1125453E+00
         25   -1    0    0    0    0  0.00000000000E+00  0.00000000000E+00  0.99999998245E-14  0.12509000000E+03  0.12509000000E+03 0.  0.
        -11    1    3    3    0    0  0.11826313844E+02 -0.34242985003E+02 -0.23249548751E+02  0.43046315039E+02  0.51100000000E-03 0.  1.
         23    2    1    0    0    0  0.12807700216E+02 -0.13954640532E+02  0.24022980189E+02  0.94497962566E+02  0.89409128029E+02 0.  0.
         11    1    3    3    0    0  0.98138637159E+00  0.20288344471E+02  0.47272528940E+02  0.51451647527E+02  0.51100000000E-03 0. -1.
         22    1    1    0    0    0 -0.12807700216E+02  0.13954640532E+02 -0.24022980189E+02  0.30592037434E+02  0.00000000000E+00 0. -1.
</event>
<event>
 5    1  0.1043455E-009  0.9118800E+02  0.7561462E-02  0.1125453E+00
         25   -1    0    0    0    0  0.00000000000E+00  0.00000000000E+00  0.99999998245E-14  0.12509000000E+03  0.12509000000E+03 0.  0.
        -11    1    3    3    0    0 -0.18113803385E+02  0.34473825911E+02 -0.69871788318E+01  0.39564822941E+02  0.51100000000E-03 0.  1.
         23    2    1    0    0    0 -0.23342174838E+02 -0.17067155780E+02  0.10626984139E+02  0.94282894903E+02  0.89107724394E+02 0.  0.
         11    1    3    3    0    0 -0.52283714523E+01 -0.51540981692E+02  0.17614162971E+02  0.54718071962E+02  0.51100000000E-03 0. -1.
         22    1    1    0    0    0  0.23342174838E+02  0.17067155780E+02 -0.10626984139E+02  0.30807105097E+02  0.00000000000E+00 0. -1.
</event>
<event>
 5    1  0.1043455E-009  0.9118800E+02  0.7561462E-02  0.1125453E+00
         25   -1    0    0    0    0  0.00000000000E+00  0.00000000000E+00  0.99999998245E-14  0.12509000000E+03  0.12509000000E+03 0.  0.
        -11    1    3    3    0    0  0.49270063205E+02 -0.56694777797E+01 -0.12526127820E+02  0.51152575546E+02  0.51100000000E-03 0. -1.
         23    2    1    0    0    0  0.85759759621E+01 -0.23977651650E+02 -0.14438487121E+02  0.95816376161E+02  0.91235041995E+02 0.  0.
         11    1    3    3    0    0 -0.40694087243E+02 -0.18308173870E+02 -0.19123593012E+01  0.44663800615E+02  0.51100000000E-03 0.  1.
         22    1    1    0    0    0 -0.85759759621E+01  0.23977651650E+02  0.14438487121E+02  0.29273623839E+02  0.00000000000E+00 0. -1.
</event>
<event>
 5    1  0.1043455E-009  0.9118800E+02  0.7561462E-02  0.1125453E+00
         25   -1    0    0    0    0  0.00000000000E+00  0.00000000000E+00  0.99999998245E-14  0.12509000000E+03  0.12509000000E+03 0.  0.
        -11    1    3    3    0    0  0.16573976700E+02  0.23347257641E+01  0.23839093446E+02  0.29128165487E+02  0.51100000000E-03 0. -1.
         23    2    1    0    0    0 -0.25374030274E+02 -0.11127945699E+02 -0.19719946929E+02  0.91081928977E+02  0.84494786179E+02 0.  0.
         11    1    3    3    0    0 -0.41948006974E+02 -0.13462671463E+02 -0.43559040374E+02  0.61953763490E+02  0.51100000000E-03 0.  1.
         22    1    1    0    0    0  0.25374030274E+02  0.11127945699E+02  0.19719946929E+02  0.34008071023E+02  0.00000000000E+00 0.  1.
</event>
<event>
 5    1  0.1043455E-009  0.9118800E+02  0.7561462E-02  0.1125453E+00
         25   -1    0    0    0    0  0.00000000000E+00  0.00000000000E+00  0.99999998245E-14  0.12509000000E+03  0.12509000000E+03 0.  0.
        -11    1    3    3    0    0  0.29069084263E+02 -0.19004238684E+02  0.12359669919E+02  0.36863724563E+02  0.51100000000E-03 0.  1.
         23    2    1    0    0    0 -0.89522688468E+01  0.26120055713E+02 -0.13608257270E+01  0.97444886967E+02  0.93441177868E+02 0.  0.
         11    1    3    3    0    0 -0.38021353110E+02  0.45124294397E+02 -0.13720495646E+02  0.60581162404E+02  0.51100000000E-03 0. -1.
         22    1    1    0    0    0  0.89522688468E+01 -0.26120055713E+02  0.13608257270E+01  0.27645113033E+02  0.00000000000E+00 0. -1.
</event>
<event>
 5    1  0.1043455E-009  0.9118800E+02  0.7561462E-02  0.1125453E+00
         25   -1    0    0    0    0  0.00000000000E+00  0.00000000000E+00  0.99999998245E-14  0.12509000000E+03  0.12509000000E+03 0.  0.
        -11    1    3    3    0    0 -0.37460475921E+02  0.47099589023E+02  0.44888160723E+01  0.60347394412E+02  0.51100000000E-03 0.  1.
         23    2    1    0    0    0 -0.19006993694E+02  0.19451091233E+02 -0.93185412246E+01  0.96342026681E+02  0.91952923472E+02 0.  0.
         11    1    3    3    0    0  0.18453482227E+02 -0.27648497790E+02 -0.13807357297E+02  0.35994632269E+02  0.51100000000E-03 0. -1.
         22    1    1    0    0    0  0.19006993694E+02 -0.19451091233E+02  0.93185412246E+01  0.28747973319E+02  0.00000000000E+00 0.  1.
</event>
<event>
 5    1  0.1043455E-009  0.9118800E+02  0.7561462E-02  0.1125453E+00
         25   -1    0    0    0    0  0.00000000000E+00  0.00000000000E+00  0.99999998245E-14  0.12509000000E+03  0.12509000000E+03 0.  0.
        -11    1    3    3    0    0  0.15426248015E+02  0.26928035909E+02  0.41048347963E+02  0.51459256859E+02  0.51100000000E-03 0.  1.
         23    2    1    0    0    0 -0.10818899430E+02 -0.63278769271E+01  0.25660791320E+02  0.96531869416E+02  0.92210818186E+02 0.  0.
         11    1    3    3    0    0 -0.26245147445E+02 -0.33255912837E+02 -0.15387556643E+02  0.45072612557E+02  0.51100000000E-03 0. -1.
         22    1    1    0    0    0  0.10818899430E+02  0.63278769271E+01 -0.25660791320E+02  0.28558130584E+02  0.00000000000E+00 0.  1.
</event>
<event>
 5    1  0.1043455E-009  0.9118800E+02  0.7561462E-02  0.1125453E+00
         25   -1    0    0    0    0  0.00000000000E+00  0.00000000000E+00  0.99999998245E-14  0.12509000000E+03  0.12509000000E+03 0.  0.
        -11    1    3    3    0    0  0.39880348831E+02 -0.58782427878E+01 -0.40972384005E+02  0.57478102026E+02  0.51100000000E-03 0.  1.
         23    2    1    0    0    0  0.13081483157E+02 -0.18380784500E+02 -0.26138074241E+02  0.90562078466E+02  0.83721638127E+02 0.  0.
         11    1    3    3    0    0 -0.26798865674E+02 -0.12502541712E+02  0.14834309764E+02  0.33083976441E+02  0.51100000000E-03 0. -1.
         22    1    1    0    0    0 -0.13081483157E+02  0.18380784500E+02  0.26138074241E+02  0.34527921534E+02  0.00000000000E+00 0.  1.
</event>
<event>
 5    1  0.1043455E-009  0.9118800E+02  0.7561462E-02  0.1125453E+00
         25   -1    0    0    0    0  0.00000000000E+00  0.00000000000E+00  0.99999998245E-14  0.12509000000E+03  0.12509000000E+03 0.  0.
        -11    1    3    3    0    0 -0.10382202679E+02 -0.32894945906E+02  0.13612354453E+02  0.37083200949E+02  0.51100000000E-03 0. -1.
         23    2    1    0    0    0  0.19208132140E+02  0.18862352898E+02  0.31408047439E+00  0.98167159442E+02  0.94403134743E+02 0.  0.
         11    1    3    3    0    0  0.29590334819E+02  0.51757298804E+02 -0.13298273979E+02  0.61083958493E+02  0.51100000000E-03 0.  1.
         22    1    1    0    0    0 -0.19208132140E+02 -0.18862352898E+02 -0.31408047439E+00  0.26922840558E+02  0.00000000000E+00 0.  1.
</event>
<event>
 5    1  0.1043455E-009  0.9118800E+02  0.7561462E-02  0.1125453E+00
         25   -1    0    0    0    0  0.00000000000E+00  0.00000000000E+00  0.99999998245E-14  0.12509000000E+03  0.12509000000E+03 0.  0.
        -11    1    3    3    0    0 -0.36076174374E+01  0.22798007518E+02 -0.50496342237E+02  0.55521569051E+02  0.51100000000E-03 0. -1.
         23    2    1    0    0    0 -0.17895310138E+02 -0.23445359838E+01 -0.26106956195E+02  0.93351818961E+02  0.87790944679E+02 0.  0.
         11    1    3    3    0    0 -0.14287692701E+02 -0.25142543502E+02  0.24389386042E+02  0.37830249909E+02  0.51100000000E-03 0.  1.
         22    1    1    0    0    0  0.17895310138E+02  0.23445359838E+01  0.26106956195E+02  0.31738181039E+02  0.00000000000E+00 0. -1.
</event>
<event>
 5    1  0.1043455E-009  0.9118800E+02  0.7561462E-02  0.1125453E+00
         25   -1    0    0    0    0  0.00000000000E+00  0.00000000000E+00  0.99999998245E-14  0.12509000000E+03  0.12509000000E+03 0.  0.
        -11    1    3    3    0    0 -0.77837282982E+01  0.29217404199E+02  0.45208345739E+02  0.54387844773E+02  0.51100000000E-03 0. -1.
         23    2    1    0    0    0  0.61237624413E+01 -0.70348979907E+01  0.25512615492E+02  0.97925983261E+02  0.94083018617E+02 0.  0.
         11    1    3    3    0    0  0.13907490740E+02 -0.36252302190E+02 -0.19695730247E+02  0.43538138488E+02  0.51100000000E-03 0.  1.
         22    1    1    0    0    0 -0.61237624413E+01  0.70348979907E+01 -0.25512615492E+02  0.27164016739E+02  0.00000000000E+00 0.  1.
</event>
<event>
 5    1  0.1043455E-009  0.9118800E+02  0.7561462E-02  0.1125453E+00
         25   -1    0    0    0    0  0.00000000000E+00  0.00000000000E+00  0.99999998245E-14  0.12509000000E+03  0.12509000000E+03 0.  0.
        -11    1    3    3    0    0  0.24491670214E+02 -0.29360859768E+01  0.31814583054E+02  0.40257051629E+02  0.51100000000E-03 0.  1.
         23    2    1    0    0    0  0.10346452138E+01  0.23466534948E+02 -0.13723460194E+02  0.97885549759E+02  0.94029244062E+02 0.  0.
         11    1    3    3    0    0 -0.23457025000E+02  0.26402620925E+02 -0.45538043248E+02  0.57628498130E+02  0.51100000000E-03 0. -1.
         22    1    1    0    0    0 -0.10346452138E+01 -0.23466534948E+02  0.13723460194E+02  0.27204450241E+02  0.00000000000E+00 0. -1.
</event>
<event>
 5    1  0.1043455E-009  0.9118800E+02  0.7561462E-02  0.1125453E+00
         25   -1    0    0    0    0  0.00000000000E+00  0.00000000000E+00  0.99999998245E-14  0.12509000000E+03  0.12509000000E+03 0.  0.
        -11    1    3    3    0    0  0.11244329320E+02 -0.56533300522E+02  0.12074495208E+02  0.58891785884E+02  0.51100000000E-03 0.  1.
         23    2    1    0    0    0  0.11346492310E+02 -0.18856209727E+02  0.17520434840E+02  0.96960563994E+02  0.92790548011E+02 0.  0.
         11    1    3    3    0    0  0.10216299036E+00  0.37677090795E+02  0.54459396318E+01  0.38068778110E+02  0.51100000000E-03 0. -1.
         22    1    1    0    0    0 -0.11346492310E+02  0.18856209727E+02 -0.17520434840E+02  0.28129436006E+02  0.00000000000E+00 0.  1.
</event>
<event>
 5    1  0.1043455E-009  0.9118800E+02  0.7561462E-02  0.1125453E+00
         25   -1    0    0    0    0  0.00000000000E+00  0.00000000000E+00  0.99999998245E-14  0.12509000000E+03  0.12509000000E+03 0.  0.
        -11    1    3    3    0    0 -0.35176450587E+02 -0.12391181033E+02  0.33513292755E+02  0.50140451084E+02  0.51100000000E-03 0.  1.
         23    2    1    0    0    0  0.96179965343E+01 -0.26206599903E+01  0.26824063722E+02  0.96473499329E+02  0.92131601322E+02 0.  0.
         11    1    3    3    0    0  0.44794447122E+02  0.97705210428E+01 -0.66892290333E+01  0.46333048245E+02  0.51100000000E-03 0. -1.
         22    1    1    0    0    0 -0.96179965343E+01  0.26206599903E+01 -0.26824063722E+02  0.28616500671E+02  0.00000000000E+00 0.  1.
</event>
<event>
 5    1  0.1043455E-009  0.9118800E+02  0.7561462E-02  0.1125453E+00
         25   -1    0    0    0    0  0.00000000000E+00  0.00000000000E+00  0.99999998245E-14  0.12509000000E+03  0.12509000000E+03 0.  0.
        -11    1    3    3    0    0  0.31772910255E+02 -0.20772371882E+02 -0.47466319963E+02  0.60778785697E+02  0.51100000000E-03 0.  1.
         23    2    1    0    0    0  0.13575076536E+02 -0.19718685373E+02 -0.19250798010E+02  0.94370259119E+02  0.89230282563E+02 0.  0.
         11    1    3    3    0    0 -0.18197833719E+02  0.10536865093E+01  0.28215521953E+02  0.33591473422E+02  0.51100000000E-03 0. -1.
         22    1    1    0    0    0 -0.13575076536E+02  0.19718685373E+02  0.19250798010E+02  0.30719740881E+02  0.00000000000E+00 0.  1.
</event>
<event>
 5    1  0.1043455E-009  0.9118800E+02  0.7561462E-02  0.1125453E+00
         25   -1    0    0    0    0  0.00000000000E+00  0.00000000000E+00  0.99999998245E-14  0.12509000000E+03  0.12509000000E+03 0.  0.
        -11    1    3    3    0    0 -0.37075190823E+02 -0.31282019720E+01  0.14247960542E+02  0.39841684226E+02  0.51100000000E-03 0. -1.
         23    2    1    0    0    0  0.35802161758E+01 -0.20697945831E+02 -0.20197857002E+02  0.95949369654E+02  0.91417204070E+02 0.  0.
         11    1    3    3    0    0  0.40655406998E+02 -0.17569743859E+02 -0.34445817544E+02  0.56107685428E+02  0.51100000000E-03 0.  1.
         22    1    1    0    0    0 -0.35802161758E+01  0.20697945831E+02  0.20197857002E+02  0.29140630346E+02  0.00000000000E+00 0.  1.
</event>
<event>
 5    1  0.1043455E-009  0.9118800E+02  0.7561462E-02  0.1125453E+00
         25   -1    0    0    0    0  0.00000000000E+00  0.00000000000E+00  0.99999998245E-14  0.12509000000E+03  0.12509000000E+03 0.  0.
        -11    1    3    3    0    0 -0.20099731430E+02  0.27287180856E+02 -0.65262486617E+01  0.34513495397E+02  0.51100000000E-03 0. -1.
         23    2    1    0    0    0  0.30737243371E+02  0.20573422295E+02 -0.12289375747E+02  0.86114718202E+02  0.76789791638E+02 0.  0.
         11    1    3    3    0    0  0.50836974801E+02 -0.67137585613E+01 -0.57631270850E+01  0.51601222806E+02  0.51100000000E-03 0.  1.
         22    1    1    0    0    0 -0.30737243371E+02 -0.20573422295E+02  0.12289375747E+02  0.38975281798E+02  0.00000000000E+00 0.  1.
</event>
<event>
 5    1  0.1043455E-009  0.9118800E+02  0.7561462E-02  0.1125453E+00
         25   -1    0    0    0    0  0.00000000000E+00  0.00000000000E+00  0.99999998245E-14  0.12509000000E+03  0.12509000000E+03 0.  0.
        -11    1    3    3    0    0 -0.80607301654E+01  0.51314230457E+01  0.35832567381E+02  0.37084764508E+02  0.51100000000E-03 0.  1.
         23    2    1    0    0    0  0.53122139075E+01  0.24214272097E+02 -0.17136934549E+02  0.94953226524E+02  0.90043823286E+02 0.  0.
         11    1    3    3    0    0  0.13372944073E+02  0.19082849051E+02 -0.52969501930E+02  0.57868462016E+02  0.51100000000E-03 0. -1.
         22    1    1    0    0    0 -0.53122139075E+01 -0.24214272097E+02  0.17136934549E+02  0.30136773476E+02  0.00000000000E+00 0. -1.
</event>
<event>
 5    1  0.1043455E-009  0.9118800E+02  0.7561462E-02  0.1125453E+00
         25   -1    0    0    0    0  0.00000000000E+00  0.00000000000E+00  0.99999998245E-14  0.12509000000E+03  0.12509000000E+03 0.  0.
        -11    1    3    3    0    0 -0.43357116315E+02 -0.17402910293E+02 -0.35227239054E+02  0.58512043149E+02  0.51100000000E-03 0.  1.
         23    2    1    0    0    0 -0.77063016598E+01 -0.16151982235E+02 -0.22395358087E+02  0.96422497855E+02  0.92062328959E+02 0.  0.
         11    1    3    3    0    0  0.35650814655E+02  0.12509280574E+01  0.12831880967E+02  0.37910454706E+02  0.51100000000E-03 0. -1.
         22    1    1    0    0    0  0.77063016598E+01  0.16151982235E+02  0.22395358087E+02  0.28667502145E+02  0.00000000000E+00 0.  1.
</event>
<event>
 5    1  0.1043455E-009  0.9118800E+02  0.7561462E-02  0.1125453E+00
         25   -1    0    0    0    0  0.00000000000E+00  0.00000000000E+00  0.99999998245E-14  0.12509000000E+03  0.12509000000E+03 0.  0.
        -11    1    3    3    0    0 -0.14727646482E+02 -0.41782336970E+02  0.42552944006E+02  0.61428171855E+02  0.51100000000E-03 0.  1.
         23    2    1    0    0    0  0.53863342700E-01 -0.23198293496E+02  0.16871091653E+02  0.96405553763E+02  0.92039303237E+02 0.  0.
         11    1    3    3    0    0  0.14781509825E+02  0.18584043474E+02 -0.25681852353E+02  0.34977381908E+02  0.51100000000E-03 0. -1.
         22    1    1    0    0    0 -0.53863342700E-01  0.23198293496E+02 -0.16871091653E+02  0.28684446237E+02  0.00000000000E+00 0.  1.
</event>
<event>
 5    1  0.1043455E-009  0.9118800E+02  0.7561462E-02  0.1125453E+00
         25   -1    0    0    0    0  0.00000000000E+00  0.00000000000E+00  0.99999998245E-14  0.12509000000E+03  0.12509000000E+03 0.  0.
        -11    1    3    3    0    0  0.19424854594E+02 -0.44646669648E+02 -0.37636362963E+02  0.61539791225E+02  0.51100000000E-03 0. -1.
         23    2    1    0    0    0  0.14935579420E+02 -0.25733204025E+02 -0.13815945430E+02  0.92285279759E+02  0.86257887697E+02 0.  0.
         11    1    3    3    0    0 -0.44892751740E+01  0.18913465624E+02  0.23820417532E+02  0.30745488534E+02  0.51100000000E-03 0.  1.
         22    1    1    0    0    0 -0.14935579420E+02  0.25733204025E+02  0.13815945430E+02  0.32804720241E+02  0.00000000000E+00 0. -1.
</event>
<event>
 5    1  0.1043455E-009  0.9118800E+02  0.7561462E-02  0.1125453E+00
         25   -1    0    0    0    0  0.00000000000E+00  0.00000000000E+00  0.99999998245E-14  0.12509000000E+03  0.12509000000E+03 0.  0.
        -11    1    3    3    0    0 -0.48486672125E+02  0.69512107510E+01 -0.38761869535E+02  0.62464063547E+02  0.51100000000E-03 0.  1.
         23    2    1    0    0    0 -0.25309997837E+02  0.30978827831E+01 -0.17384479670E+02  0.94228810755E+02  0.89031768345E+02 0.  0.
         11    1    3    3    0    0  0.23176674288E+02 -0.38533279679E+01  0.21377389865E+02  0.31764747208E+02  0.51100000000E-03 0. -1.
         22    1    1    0    0    0  0.25309997837E+02 -0.30978827831E+01  0.17384479670E+02  0.30861189245E+02  0.00000000000E+00 0.  1.
</event>
<event>
 5    1  0.1043455E-009  0.9118800E+02  0.7561462E-02  0.1125453E+00
         25   -1    0    0    0    0  0.00000000000E+00  0.00000000000E+00  0.99999998245E-14  0.12509000000E+03  0.12509000000E+03 0.  0.
        -11    1    3    3    0    0  0.32637805619E+02 -0.23796081855E+01 -0.28469486834E+02  0.43375114658E+02  0.51100000000E-03 0.  1.
         23    2    1    0    0    0 -0.16101104489E+01  0.17224236401E+01 -0.43874939894E+02  0.81151752999E+02  0.68227834974E+02 0.  0.
         11    1    3    3    0    0 -0.34247916068E+02  0.41020318257E+01 -0.15405453060E+02  0.37776638341E+02  0.51100000000E-03 0. -1.
         22    1    1    0    0    0  0.16101104489E+01 -0.17224236401E+01  0.43874939894E+02  0.43938247001E+02  0.00000000000E+00 0.  1.
</event>
<event>
 5    1  0.1043455E-009  0.9118800E+02  0.7561462E-02  0.1125453E+00
         25   -1    0    0    0    0  0.00000000000E+00  0.00000000000E+00  0.99999998245E-14  0.12509000000E+03  0.12509000000E+03 0.  0.
        -11    1    3    3    0    0  0.89155663703E+01 -0.48297856090E+01  0.60840380547E+02  0.61679543270E+02  0.51100000000E-03 0. -1.
         23    2    1    0    0    0  0.29364044221E+01  0.49804899701E+01  0.28747625396E+02  0.95766737611E+02  0.91166958463E+02 0.  0.
         11    1    3    3    0    0 -0.59791619482E+01  0.98102755791E+01 -0.32092755151E+02  0.34087194340E+02  0.51100000000E-03 0.  1.
         22    1    1    0    0    0 -0.29364044221E+01 -0.49804899701E+01 -0.28747625396E+02  0.29323262389E+02  0.00000000000E+00 0. -1.
</event>
<event>
 5    1  0.1043455E-009  0.9118800E+02  0.7561462E-02  0.1125453E+00
         25   -1    0    0    0    0  0.00000000000E+00  0.00000000000E+00  0.99999998245E-14  0.12509000000E+03  0.12509000000E+03 0.  0.
        -11    1    3    3    0    0  0.13575585928E+02 -0.30965534683E+02 -0.41762921645E+01  0.34067613477E+02  0.51100000000E-03 0.  1.
         23    2    1    0    0    0 -0.36240341435E+01  0.28642738088E+02 -0.21049122886E+01  0.96142276007E+02  0.91680785944E+02 0.  0.
         11    1    3    3    0    0 -0.17199620071E+02  0.59608272771E+02  0.20713798759E+01  0.62074662530E+02  0.51100000000E-03 0. -1.
         22    1    1    0    0    0  0.36240341435E+01 -0.28642738088E+02  0.21049122886E+01  0.28947723993E+02  0.00000000000E+00 0. -1.
</event>
<event>
 5    1  0.1043455E-009  0.9118800E+02  0.7561462E-02  0.1125453E+00
         25   -1    0    0    0    0  0.00000000000E+00  0.00000000000E+00  0.99999998245E-14  0.12509000000E+03  0.12509000000E+03 0.  0.
        -11    1    3    3    0    0 -0.40889443631E+02 -0.28738453478E+02 -0.24716579289E+02  0.55756206836E+02  0.51100000000E-03 0. -1.
         23    2    1    0    0    0 -0.92143306510E+01 -0.28285391173E+02 -0.10071666930E+01  0.95324556481E+02  0.90558210232E+02 0.  0.
         11    1    3    3    0    0  0.31675112980E+02  0.45306230563E+00  0.23709412596E+02  0.39568349645E+02  0.51100000000E-03 0.  1.
         22    1    1    0    0    0  0.92143306510E+01  0.28285391173E+02  0.10071666930E+01  0.29765443519E+02  0.00000000000E+00 0. -1.
</event>
<event>
 5    1  0.1043455E-009  0.9118800E+02  0.7561462E-02  0.1125453E+00
         25   -1    0    0    0    0  0.00000000000E+00  0.00000000000E+00  0.99999998245E-14  0.12509000000E+03  0.12509000000E+03 0.  0.
        -11    1    3    3    0    0  0.18659105456E+01  0.33833226346E+02  0.44607147165E+02  0.56017554442E+02  0.51100000000E-03 0.  1.
         23    2    1    0    0    0  0.20649094927E+02  0.13948426417E+02  0.16712172246E+02  0.95085993234E+02  0.90228075937E+02 0.  0.
         11    1    3    3    0    0  0.18783184381E+02 -0.19884799928E+02 -0.27894974919E+02  0.39068438793E+02  0.51100000000E-03 0. -1.
         22    1    1    0    0    0 -0.20649094927E+02 -0.13948426417E+02 -0.16712172246E+02  0.30004006766E+02  0.00000000000E+00 0.  1.
</event>
<event>
 5    1  0.1043455E-009  0.9118800E+02  0.7561462E-02  0.1125453E+00
         25   -1    0    0    0    0  0.00000000000E+00  0.00000000000E+00  0.99999998245E-14  0.12509000000E+03  0.12509000000E+03 0.  0.
        -11    1    3    3    0    0 -0.11033290293E+01  0.34461720753E+02 -0.36411070826E+02  0.50145723757E+02  0.51100000000E-03 0.  1.
         23    2    1    0    0    0  0.19040206880E+02  0.20093387770E+02  0.35856566830E+01  0.97177088221E+02  0.93081984461E+02 0.  0.
         11    1    3    3    0    0  0.20143535910E+02 -0.14368332983E+02  0.39996727509E+02  0.47031364464E+02  0.51100000000E-03 0. -1.
         22    1    1    0    0    0 -0.19040206880E+02 -0.20093387770E+02 -0.35856566830E+01  0.27912911779E+02  0.00000000000E+00 0.  1.
</event>
<event>
 5    1  0.1043455E-009  0.9118800E+02  0.7561462E-02  0.1125453E+00
         25   -1    0    0    0    0  0.00000000000E+00  0.00000000000E+00  0.99999998245E-14  0.12509000000E+03  0.12509000000E+03 0.  0.
        -11    1    3    3    0    0  0.44964397934E+02 -0.74976787196E+01 -0.10979203599E+02  0.46888753232E+02  0.51100000000E-03 0.  1.
         23    2    1    0    0    0  0.16787076058E+02 -0.23752968554E+02 -0.28949620451E+02  0.84052334838E+02  0.73353289154E+02 0.  0.
         11    1    3    3    0    0 -0.28177321875E+02 -0.16255289835E+02 -0.17970416852E+02  0.37163581606E+02  0.51100000000E-03 0. -1.
         22    1    1    0    0    0 -0.16787076058E+02  0.23752968554E+02  0.28949620451E+02  0.41037665162E+02  0.00000000000E+00 0.  1.
</event>
<event>
 5    1  0.1043455E-009  0.9118800E+02  0.7561462E-02  0.1125453E+00
         25   -1    0    0    0    0  0.00000000000E+00  0.00000000000E+00  0.99999998245E-14  0.12509000000E+03  0.12509000000E+03 0.  0.
        -11    1    3    3    0    0  0.52753720301E+01 -0.37416703343E+02 -0.49531912993E+02  0.62299676116E+02  0.51100000000E-03 0.  1.
         23    2    1    0    0    0 -0.22279595677E+00 -0.15828573378E+02 -0.15798542889E+02  0.10272513178E+03  0.10026098627E+03 0.  0.
         11    1    3    3    0    0 -0.54981679869E+01  0.21588129966E+02  0.33733370104E+02  0.40425455662E+02  0.51100000000E-03 0. -1.
         22    1    1    0    0    0  0.22279595677E+00  0.15828573378E+02  0.15798542889E+02  0.22364868223E+02  0.00000000000E+00 0.  1.
</event>
<event>
 5    1  0.1043455E-009  0.9118800E+02  0.7561462E-02  0.1125453E+00
         25   -1    0    0    0    0  0.00000000000E+00  0.00000000000E+00  0.99999998245E-14  0.12509000000E+03  0.12509000000E+03 0.  0.
        -11    1    3    3    0    0 -0.34116299407E+02 -0.28073568480E+02  0.34031822410E+02  0.55769275315E+02  0.51100000000E-03 0.  1.
         23    2    1    0    0    0 -0.29952412665E+02 -0.13454301649E+01  0.64114589945E+01  0.94429536644E+02  0.89313343783E+02 0.  0.
         11    1    3    3    0    0  0.41638867420E+01  0.26728138315E+02 -0.27620363415E+02  0.38660261329E+02  0.51100000000E-03 0. -1.
         22    1    1    0    0    0  0.29952412665E+02  0.13454301649E+01 -0.64114589945E+01  0.30660463356E+02  0.00000000000E+00 0.  1.
</event>
<event>
 5    1  0.1043455E-009  0.9118800E+02  0.7561462E-02  0.1125453E+00
         25   -1    0    0    0    0  0.00000000000E+00  0.00000000000E+00  0.99999998245E-14  0.12509000000E+03  0.12509000000E+03 0.  0.
        -11    1    3    3    0    0  0.10701472629E+02 -0.54140006934E+02 -0.21574366887E+02  0.59254663733E+02  0.51100000000E-03 0.  1.
         23    2    1    0    0    0  0.92158744885E+01 -0.17364919899E+02 -0.21359930573E+02  0.96060369969E+02  0.91568964496E+02 0.  0.
         11    1    3    3    0    0 -0.14855981403E+01  0.36775087036E+02  0.21443631419E+00  0.36805706236E+02  0.51100000000E-03 0. -1.
         22    1    1    0    0    0 -0.92158744885E+01  0.17364919899E+02  0.21359930573E+02  0.29029630031E+02  0.00000000000E+00 0.  1.
</event>
<event>
 5    1  0.1043455E-009  0.9118800E+02  0.7561462E-02  0.1125453E+00
         25   -1    0    0    0    0  0.00000000000E+00  0.00000000000E+00  0.99999998245E-14  0.12509000000E+03  0.12509000000E+03 0.  0.
        -11    1    3    3    0    0 -0.21692923538E+02 -0.25082556724E+02  0.41132874030E+02  0.52835886570E+02  0.51100000000E-03 0. -1.
         23    2    1    0    0    0 -0.24553460372E+02 -0.11017198665E+02 -0.18132394089E+01  0.98117070611E+02  0.94336740591E+02 0.  0.
         11    1    3    3    0    0 -0.28605368345E+01  0.14065358059E+02 -0.42946113439E+02  0.45281184040E+02  0.51100000000E-03 0.  1.
         22    1    1    0    0    0  0.24553460372E+02  0.11017198665E+02  0.18132394089E+01  0.26972929389E+02  0.00000000000E+00 0.  1.
</event>
<event>
 5    1  0.1043455E-009  0.9118800E+02  0.7561462E-02  0.1125453E+00
         25   -1    0    0    0    0  0.00000000000E+00  0.00000000000E+00  0.99999998245E-14  0.12509000000E+03  0.12509000000E+03 0.  0.
        -11    1    3    3    0    0 -0.19533253954E+02 -0.74382679582E+01  0.31887130315E+02  0.38126957920E+02  0.51100000000E-03 0.  1.
         23    2    1    0    0    0 -0.11211294998E+01  0.15846767819E+02 -0.20989475632E+02  0.98766340129E+02  0.95193775393E+02 0.  0.
         11    1    3    3    0    0  0.18412124454E+02  0.23285035777E+02 -0.52876605947E+02  0.60639382210E+02  0.51100000000E-03 0. -1.
         22    1    1    0    0    0  0.11211294998E+01 -0.15846767819E+02  0.20989475632E+02  0.26323659871E+02  0.00000000000E+00 0. -1.
</event>
<event>
 5    1  0.1043455E-009  0.9118800E+02  0.7561462E-02  0.1125453E+00
         25   -1    0    0    0    0  0.00000000000E+00  0.00000000000E+00  0.99999998245E-14  0.12509000000E+03  0.12509000000E+03 0.  0.
        -11    1    3    3    0    0 -0.32715199123E+02  0.19211855174E+01  0.23413859777E+02  0.40276345879E+02  0.51100000000E-03 0.  1.
         23    2    1    0    0    0  0.75683953370E+01 -0.28359754987E+02  0.25929873581E+00  0.95736575213E+02  0.91125563300E+02 0.  0.
         11    1    3    3    0    0  0.40283594460E+02 -0.30280940504E+02 -0.23154561041E+02  0.55460229334E+02  0.51100000000E-03 0. -1.
         22    1    1    0    0    0 -0.75683953370E+01  0.28359754987E+02 -0.25929873581E+00  0.29353424787E+02  0.00000000000E+00 0. -1.
</event>
<event>
 5    1  0.1043455E-009  0.9118800E+02  0.7561462E-02  0.1125453E+00
         25   -1    0    0    0    0  0.00000000000E+00  0.00000000000E+00  0.99999998245E-14  0.12509000000E+03  0.12509000000E+03 0.  0.
        -11    1    3    3    0    0  0.52712954316E+01 -0.52688011781E+02  0.40359225875E+01  0.53104630800E+02  0.51100000000E-03 0. -1.
         23    2    1    0    0    0  0.25702869315E+02 -0.17216368156E+02  0.15576195475E+01  0.94114735640E+02  0.88871347815E+02 0.  0.
         11    1    3    3    0    0  0.20431573883E+02  0.35471643625E+02 -0.24783030400E+01  0.41010104840E+02  0.51100000000E-03 0.  1.
         22    1    1    0    0    0 -0.25702869315E+02  0.17216368156E+02 -0.15576195475E+01  0.30975264360E+02  0.00000000000E+00 0. -1.
</event>
<event>
 5    1  0.1043455E-009  0.9118800E+02  0.7561462E-02  0.1125453E+00
         25   -1    0    0    0    0  0.00000000000E+00  0.00000000000E+00  0.99999998245E-14  0.12509000000E+03  0.12509000000E+03 0.  0.
        -11    1    3    3    0    0 -0.31217503587E+02 -0.24515011571E+02 -0.64338705658E+01  0.40210856908E+02  0.51100000000E-03 0.  1.
         23    2    1    0    0    0 -0.20469845569E+01  0.10804600382E+02 -0.31004769197E+02  0.92192807899E+02  0.86123681878E+02 0.  0.
         11    1    3    3    0    0  0.29170519030E+02  0.35319611953E+02 -0.24570898631E+02  0.51981950991E+02  0.51100000000E-03 0. -1.
         22    1    1    0    0    0  0.20469845569E+01 -0.10804600382E+02  0.31004769197E+02  0.32897192101E+02  0.00000000000E+00 0. -1.
</event>
<event>
 5    1  0.1043455E-009  0.9118800E+02  0.7561462E-02  0.1125453E+00
         25   -1    0    0    0    0  0.00000000000E+00  0.00000000000E+00  0.99999998245E-14  0.12509000000E+03  0.12509000000E+03 0.  0.
        -11    1    3    3    0    0  0.32895357277E+02  0.32114180847E+02 -0.41336054217E+02  0.61823090511E+02  0.51100000000E-03 0.  1.
         23    2    1    0    0    0  0.20927795050E+02  0.15461975304E+02 -0.15518899818E+02  0.94793440170E+02  0.89821571807E+02 0.  0.
         11    1    3    3    0    0 -0.11967562227E+02 -0.16652205542E+02  0.25817154400E+02  0.32970349659E+02  0.51100000000E-03 0. -1.
         22    1    1    0    0    0 -0.20927795050E+02 -0.15461975304E+02  0.15518899818E+02  0.30296559830E+02  0.00000000000E+00 0.  1.
</event>
<event>
 5    1  0.1043455E-009  0.9118800E+02  0.7561462E-02  0.1125453E+00
         25   -1    0    0    0    0  0.00000000000E+00  0.00000000000E+00  0.99999998245E-14  0.12509000000E+03  0.12509000000E+03 0.  0.
        -11    1    3    3    0    0 -0.36037056503E+02  0.23828791207E+02  0.35558288498E+02  0.55954201030E+02  0.51100000000E-03 0. -1.
         23    2    1    0    0    0 -0.92029531232E+01 -0.42557939974E+01  0.27710855753E+02  0.95582413597E+02  0.90913696073E+02 0.  0.
         11    1    3    3    0    0  0.26834103380E+02 -0.28084585205E+02 -0.78474327441E+01  0.39628212567E+02  0.51100000000E-03 0.  1.
         22    1    1    0    0    0  0.92029531232E+01  0.42557939974E+01 -0.27710855753E+02  0.29507586403E+02  0.00000000000E+00 0. -1.
</event>
<event>
 5    1  0.1043455E-009  0.9118800E+02  0.7561462E-02  0.1125453E+00
         25   -1    0    0    0    0  0.00000000000E+00  0.00000000000E+00  0.99999998245E-14  0.12509000000E+03  0.12509000000E+03 0.  0.
        -11    1    3    3    0    0 -0.77921617091E+01  0.43499984512E+02 -0.26693104481E+01  0.44272922370E+02  0.51100000000E-03 0.  1.
         23    2    1    0    0    0  0.69743247236E+00  0.48816934146E+01  0.29459272158E+02  0.95220851054E+02  0.90414846219E+02 0.  0.
         11    1    3    3    0    0  0.84895941815E+01 -0.38618291098E+02  0.32128582606E+02  0.50947928684E+02  0.51100000000E-03 0. -1.
         22    1    1    0    0    0 -0.69743247236E+00 -0.48816934146E+01 -0.29459272158E+02  0.29869148946E+02  0.00000000000E+00 0. -1.
</event>
<event>
 5    1  0.1043455E-009  0.9118800E+02  0.7561462E-02  0.1125453E+00
         25   -1    0    0    0    0  0.00000000000E+00  0.00000000000E+00  0.99999998245E-14  0.12509000000E+03  0.12509000000E+03 0.  0.
        -11    1    3    3    0    0 -0.20379889613E+02 -0.49748444046E+01 -0.25858394631E+02  0.33297831020E+02  0.51100000000E-03 0.  1.
         23    2    1    0    0    0  0.27449607922E+02  0.78781534337E+00  0.12537581729E+02  0.94902376978E+02  0.89973154732E+02 0.  0.
         11    1    3    3    0    0  0.47829497535E+02  0.57626597480E+01  0.38395976359E+02  0.61604545958E+02  0.51100000000E-03 0. -1.
         22    1    1    0    0    0 -0.27449607922E+02 -0.78781534337E+00 -0.12537581729E+02  0.30187623022E+02  0.00000000000E+00 0. -1.
</event>
<event>
 5    1  0.1043455E-009  0.9118800E+02  0.7561462E-02  0.1125453E+00
         25   -1    0    0    0    0  0.00000000000E+00  0.00000000000E+00  0.99999998245E-14  0.12509000000E+03  0.12509000000E+03 0.  0.
        -11    1    3    3    0    0 -0.20227342477E+02 -0.19098639111E+02  0.26382328845E+02  0.38339674948E+02  0.51100000000E-03 0.  1.
         23    2    1    0    0    0 -0.11236644996E+02  0.95358310961E+01 -0.23966336209E+02  0.96954976689E+02  0.92783015515E+02 0.  0.
         11    1    3    3    0    0  0.89906974818E+01  0.28634470207E+02 -0.50348665054E+02  0.58615301741E+02  0.51100000000E-03 0. -1.
         22    1    1    0    0    0  0.11236644996E+02 -0.95358310961E+01  0.23966336209E+02  0.28135023311E+02  0.00000000000E+00 0. -1.
</event>
<event>
 4    1  0.1043455E-009  0.9118800E+02  0.7561462E-02  0.1125453E+00
         25   -1    0    0    0    0  0.00000000000E+00  0.00000000000E+00  0.99999998245E-14  0.12509000000E+03  0.12509000000E+03 0.  0.
        -11    1    1    0    0    0  0.29919005245E+01 -0.59279097403E+02  0.19368727100E+02  0.62434849623E+02  0.51100000000E-03 0. -1.
         11    1    1    0    0    0 -0.80132631537E+00  0.75718515513E+01 -0.43373107098E+01  0.87628376816E+01  0.51100000000E-03 0.  1.
         22    1    1    0    0    0 -0.21905742092E+01  0.51707245852E+02 -0.15031416391E+02  0.53892312695E+02  0.00000000000E+00 0. -1.
</event>
<event>
 5    1  0.1043455E-009  0.9118800E+02  0.7561462E-02  0.1125453E+00
         25   -1    0    0    0    0  0.00000000000E+00  0.00000000000E+00  0.99999998245E-14  0.12509000000E+03  0.12509000000E+03 0.  0.
        -11    1    3    3    0    0  0.11847017351E+02  0.30577146749E+02  0.10682392772E+02  0.34488073866E+02  0.51100000000E-03 0.  1.
         23    2    1    0    0    0  0.12762249647E+02 -0.14865190025E+02 -0.25746520297E+02  0.92736759081E+02  0.86910150656E+02 0.  0.
         11    1    3    3    0    0  0.91523229573E+00 -0.45442336773E+02 -0.36428913070E+02  0.58248685215E+02  0.51100000000E-03 0. -1.
         22    1    1    0    0    0 -0.12762249647E+02  0.14865190025E+02  0.25746520297E+02  0.32353240919E+02  0.00000000000E+00 0. -1.
</event>
<event>
 5    1  0.1043455E-009  0.9118800E+02  0.7561462E-02  0.1125453E+00
         25   -1    0    0    0    0  0.00000000000E+00  0.00000000000E+00  0.99999998245E-14  0.12509000000E+03  0.12509000000E+03 0.  0.
        -11    1    3    3    0    0  0.44251358177E+02 -0.30374722676E+02  0.10492179518E+02  0.54689051093E+02  0.51100000000E-03 0. -1.
         23    2    1    0    0    0  0.26487950875E+02 -0.12258738573E+01 -0.12428634034E+02  0.95805443452E+02  0.91220051210E+02 0.  0.
         11    1    3    3    0    0 -0.17763407302E+02  0.29148848818E+02 -0.22920813553E+02  0.41116392359E+02  0.51100000000E-03 0.  1.
         22    1    1    0    0    0 -0.26487950875E+02  0.12258738573E+01  0.12428634034E+02  0.29284556548E+02  0.00000000000E+00 0. -1.
</event>
<event>
 5    1  0.1043455E-009  0.9118800E+02  0.7561462E-02  0.1125453E+00
         25   -1    0    0    0    0  0.00000000000E+00  0.00000000000E+00  0.99999998245E-14  0.12509000000E+03  0.12509000000E+03 0.  0.
        -11    1    3    3    0    0  0.15510107583E+02  0.12784152025E+02  0.31124113878E+02  0.37050080232E+02  0.51100000000E-03 0.  1.
         23    2    1    0    0    0 -0.14285186693E+02  0.18260200361E+02 -0.18661546920E+02  0.95328366820E+02  0.90563473383E+02 0.  0.
         11    1    3    3    0    0 -0.29795294276E+02  0.54760483369E+01 -0.49785660798E+02  0.58278286589E+02  0.51100000000E-03 0. -1.
         22    1    1    0    0    0  0.14285186693E+02 -0.18260200361E+02  0.18661546920E+02  0.29761633180E+02  0.00000000000E+00 0. -1.
</event>
<event>
 5    1  0.1043455E-009  0.9118800E+02  0.7561462E-02  0.1125453E+00
         25   -1    0    0    0    0  0.00000000000E+00  0.00000000000E+00  0.99999998245E-14  0.12509000000E+03  0.12509000000E+03 0.  0.
        -11    1    3    3    0    0 -0.44617455092E+02  0.14609359077E+02  0.21394611608E+02  0.51593411185E+02  0.51100000000E-03 0.  1.
         23    2    1    0    0    0 -0.19768007850E+02  0.18210052956E+02 -0.13839596177E+02  0.94858979750E+02  0.89912799166E+02 0.  0.
         11    1    3    3    0    0  0.24849447243E+02  0.36006938790E+01 -0.35234207786E+02  0.43265568565E+02  0.51100000000E-03 0. -1.
         22    1    1    0    0    0  0.19768007850E+02 -0.18210052956E+02  0.13839596177E+02  0.30231020250E+02  0.00000000000E+00 0.  1.
</event>
<event>
 5    1  0.1043455E-009  0.9118800E+02  0.7561462E-02  0.1125453E+00
         25   -1    0    0    0    0  0.00000000000E+00  0.00000000000E+00  0.99999998245E-14  0.12509000000E+03  0.12509000000E+03 0.  0.
        -11    1    3    3    0    0  0.12384429090E+01 -0.20420638636E+02 -0.29994903582E+02  0.36307443649E+02  0.51100000000E-03 0.  1.
         23    2    1    0    0    0 -0.12393364287E+01 -0.74964867676E+01  0.28154980955E+02  0.95927760353E+02  0.91387630372E+02 0.  0.
         11    1    3    3    0    0 -0.24777793377E+01  0.12924151869E+02  0.58149884537E+02  0.59620316704E+02  0.51100000000E-03 0. -1.
         22    1    1    0    0    0  0.12393364287E+01  0.74964867676E+01 -0.28154980955E+02  0.29162239647E+02  0.00000000000E+00 0. -1.
</event>
<event>
 5    1  0.1043455E-009  0.9118800E+02  0.7561462E-02  0.1125453E+00
         25   -1    0    0    0    0  0.00000000000E+00  0.00000000000E+00  0.99999998245E-14  0.12509000000E+03  0.12509000000E+03 0.  0.
        -11    1    3    3    0    0  0.16697435751E+02 -0.19323829648E+02  0.96102555474E+01  0.27286842340E+02  0.51100000000E-03 0. -1.
         23    2    1    0    0    0 -0.11655755309E+02  0.33002644790E+02 -0.76696485329E+01  0.89259081737E+02  0.81751629763E+02 0.  0.
         11    1    3    3    0    0 -0.28353191060E+02  0.52326474439E+02 -0.17279904080E+02  0.61972239396E+02  0.51100000000E-03 0.  1.
         22    1    1    0    0    0  0.11655755309E+02 -0.33002644790E+02  0.76696485329E+01  0.35830918263E+02  0.00000000000E+00 0.  1.
</event>
<event>
 5    1  0.1043455E-009  0.9118800E+02  0.7561462E-02  0.1125453E+00
         25   -1    0    0    0    0  0.00000000000E+00  0.00000000000E+00  0.99999998245E-14  0.12509000000E+03  0.12509000000E+03 0.  0.
        -11    1    3    3    0    0 -0.22642568003E+02 -0.55330847592E+02 -0.18362905649E+02  0.62541065590E+02  0.51100000000E-03 0.  1.
         23    2    1    0    0    0 -0.92117656183E+01 -0.22864133779E+02 -0.80629301481E+01  0.99154771413E+02  0.95702834922E+02 0.  0.
         11    1    3    3    0    0  0.13430802384E+02  0.32466713813E+02  0.10299975501E+02  0.36613705823E+02  0.51100000000E-03 0. -1.
         22    1    1    0    0    0  0.92117656183E+01  0.22864133779E+02  0.80629301481E+01  0.25935228587E+02  0.00000000000E+00 0.  1.
</event>
<event>
 5    1  0.1043455E-009  0.9118800E+02  0.7561462E-02  0.1125453E+00
         25   -1    0    0    0    0  0.00000000000E+00  0.00000000000E+00  0.99999998245E-14  0.12509000000E+03  0.12509000000E+03 0.  0.
        -11    1    3    3    0    0  0.23332762953E+02 -0.25493497298E+02  0.51105709543E+01  0.34934999173E+02  0.51100000000E-03 0. -1.
         23    2    1    0    0    0 -0.17206881376E+02  0.19638988270E+02  0.12664957739E+02  0.96069872821E+02  0.91581945176E+02 0.  0.
         11    1    3    3    0    0 -0.40539644330E+02  0.45132485568E+02  0.75543867847E+01  0.61134873647E+02  0.51100000000E-03 0.  1.
         22    1    1    0    0    0  0.17206881376E+02 -0.19638988270E+02 -0.12664957739E+02  0.29020127179E+02  0.00000000000E+00 0.  1.
</event>
<event>
 5    1  0.1043455E-009  0.9118800E+02  0.7561462E-02  0.1125453E+00
         25   -1    0    0    0    0  0.00000000000E+00  0.00000000000E+00  0.99999998245E-14  0.12509000000E+03  0.12509000000E+03 0.  0.
        -11    1    3    3    0    0  0.69389509623E+00  0.21386622695E+02 -0.52943910734E+02  0.57104525256E+02  0.51100000000E-03 0. -1.
         23    2    1    0    0    0 -0.68397711948E+01  0.24208073922E+02 -0.15194813881E+02  0.95701300099E+02  0.91077127528E+02 0.  0.
         11    1    3    3    0    0 -0.75336662910E+01  0.28214512267E+01  0.37749096853E+02  0.38596774843E+02  0.51100000000E-03 0.  1.
         22    1    1    0    0    0  0.68397711948E+01 -0.24208073922E+02  0.15194813881E+02  0.29388699901E+02  0.00000000000E+00 0. -1.
</event>
<event>
 5    1  0.1043455E-009  0.9118800E+02  0.7561462E-02  0.1125453E+00
         25   -1    0    0    0    0  0.00000000000E+00  0.00000000000E+00  0.99999998245E-14  0.12509000000E+03  0.12509000000E+03 0.  0.
        -11    1    3    3    0    0 -0.39223777284E+02 -0.30594757447E+02  0.36167333292E+02  0.61503007125E+02  0.51100000000E-03 0.  1.
         23    2    1    0    0    0 -0.20144682404E+02 -0.64801712812E+01  0.18596610524E+02  0.96918475867E+02  0.92733792074E+02 0.  0.
         11    1    3    3    0    0  0.19079094880E+02  0.24114586165E+02 -0.17570722768E+02  0.35415468742E+02  0.51100000000E-03 0. -1.
         22    1    1    0    0    0  0.20144682404E+02  0.64801712812E+01 -0.18596610524E+02  0.28171524133E+02  0.00000000000E+00 0.  1.
</event>
<event>
 5    1  0.1043455E-009  0.9118800E+02  0.7561462E-02  0.1125453E+00
         25   -1    0    0    0    0  0.00000000000E+00  0.00000000000E+00  0.99999998245E-14  0.12509000000E+03  0.12509000000E+03 0.  0.
        -11    1    3    3    0    0 -0.30919859383E+01  0.88605145165E+01  0.38615621145E+02  0.39739593496E+02  0.51100000000E-03 0.  1.
         23    2    1    0    0    0 -0.42516398417E+01  0.24175122198E+02 -0.15544892584E+02  0.96035625801E+02  0.91535155885E+02 0.  0.
         11    1    3    3    0    0 -0.11596539033E+01  0.15314607682E+02 -0.54160513729E+02  0.56296032305E+02  0.51100000000E-03 0. -1.
         22    1    1    0    0    0  0.42516398417E+01 -0.24175122198E+02  0.15544892584E+02  0.29054374199E+02  0.00000000000E+00 0.  1.
</event>
<event>
 5    1  0.1043455E-009  0.9118800E+02  0.7561462E-02  0.1125453E+00
         25   -1    0    0    0    0  0.00000000000E+00  0.00000000000E+00  0.99999998245E-14  0.12509000000E+03  0.12509000000E+03 0.  0.
        -11    1    3    3    0    0  0.16928293539E+02  0.32206970797E+02  0.18402202556E+02  0.40773731117E+02  0.51100000000E-03 0.  1.
         23    2    1    0    0    0 -0.54954146384E+00 -0.23521703264E+02  0.88375561799E+01  0.99956856156E+02  0.96745533092E+02 0.  0.
         11    1    3    3    0    0 -0.17477835003E+02 -0.55728674060E+02 -0.95646463757E+01  0.59183125039E+02  0.51100000000E-03 0. -1.
         22    1    1    0    0    0  0.54954146384E+00  0.23521703264E+02 -0.88375561799E+01  0.25133143844E+02  0.00000000000E+00 0. -1.
</event>
<event>
 5    1  0.1043455E-009  0.9118800E+02  0.7561462E-02  0.1125453E+00
         25   -1    0    0    0    0  0.00000000000E+00  0.00000000000E+00  0.99999998245E-14  0.12509000000E+03  0.12509000000E+03 0.  0.
        -11    1    3    3    0    0 -0.15774774599E+01 -0.97854467525E+01  0.32423797533E+02  0.33904956128E+02  0.51100000000E-03 0.  1.
         23    2    1    0    0    0  0.81738695812E+01  0.96249183589E+01 -0.25972543185E+02  0.96210522913E+02  0.91773855331E+02 0.  0.
         11    1    3    3    0    0  0.97513470411E+01  0.19410365111E+02 -0.58396340718E+02  0.62305566785E+02  0.51100000000E-03 0. -1.
         22    1    1    0    0    0 -0.81738695812E+01 -0.96249183589E+01  0.25972543185E+02  0.28879477087E+02  0.00000000000E+00 0. -1.
</event>
<event>
 5    1  0.1043455E-009  0.9118800E+02  0.7561462E-02  0.1125453E+00
         25   -1    0    0    0    0  0.00000000000E+00  0.00000000000E+00  0.99999998245E-14  0.12509000000E+03  0.12509000000E+03 0.  0.
        -11    1    3    3    0    0  0.10585991215E+02  0.23008313408E+02  0.29043497976E+02  0.38535314594E+02  0.51100000000E-03 0.  1.
         23    2    1    0    0    0 -0.17892501437E+02  0.10461227509E+02 -0.19784251211E+02  0.96436981230E+02  0.92082006190E+02 0.  0.
         11    1    3    3    0    0 -0.28478492653E+02 -0.12547085899E+02 -0.48827749187E+02  0.57901666636E+02  0.51100000000E-03 0. -1.
         22    1    1    0    0    0  0.17892501437E+02 -0.10461227509E+02  0.19784251211E+02  0.28653018770E+02  0.00000000000E+00 0. -1.
</event>
<event>
 5    1  0.1043455E-009  0.9118800E+02  0.7561462E-02  0.1125453E+00
         25   -1    0    0    0    0  0.00000000000E+00  0.00000000000E+00  0.99999998245E-14  0.12509000000E+03  0.12509000000E+03 0.  0.
        -11    1    3    3    0    0  0.20488604801E+02 -0.22707791881E+02 -0.29450854137E+02  0.42459151528E+02  0.51100000000E-03 0. -1.
         23    2    1    0    0    0 -0.14608183192E+01  0.24302542434E+02 -0.15657325063E+02  0.96143508209E+02  0.91682467155E+02 0.  0.
         11    1    3    3    0    0 -0.21949423120E+02  0.47010334315E+02  0.13793529074E+02  0.53684356681E+02  0.51100000000E-03 0.  1.
         22    1    1    0    0    0  0.14608183192E+01 -0.24302542434E+02  0.15657325063E+02  0.28946491791E+02  0.00000000000E+00 0.  1.
</event>
<event>
 5    1  0.1043455E-009  0.9118800E+02  0.7561462E-02  0.1125453E+00
         25   -1    0    0    0    0  0.00000000000E+00  0.00000000000E+00  0.99999998245E-14  0.12509000000E+03  0.12509000000E+03 0.  0.
        -11    1    3    3    0    0  0.42016006318E+02 -0.10831636714E+02 -0.28774092779E+02  0.52063591466E+02  0.51100000000E-03 0.  1.
         23    2    1    0    0    0 -0.12093123441E+01 -0.14073766542E+01 -0.28725753112E+02  0.96304377942E+02  0.91901692986E+02 0.  0.
         11    1    3    3    0    0 -0.43225318662E+02  0.94242600594E+01  0.48339667331E-01  0.44240786477E+02  0.51100000000E-03 0. -1.
         22    1    1    0    0    0  0.12093123441E+01  0.14073766542E+01  0.28725753112E+02  0.28785622058E+02  0.00000000000E+00 0. -1.
</event>
<event>
 5    1  0.1043455E-009  0.9118800E+02  0.7561462E-02  0.1125453E+00
         25   -1    0    0    0    0  0.00000000000E+00  0.00000000000E+00  0.99999998245E-14  0.12509000000E+03  0.12509000000E+03 0.  0.
        -11    1    3    3    0    0  0.39551820153E+02 -0.21289721712E+02  0.26352415714E+02  0.52077332326E+02  0.51100000000E-03 0.  1.
         23    2    1    0    0    0  0.23544652957E+02 -0.75041892461E+01 -0.13315201594E+02  0.97019408047E+02  0.92869841204E+02 0.  0.
         11    1    3    3    0    0 -0.16007167196E+02  0.13785532466E+02 -0.39667617307E+02  0.44942075721E+02  0.51100000000E-03 0. -1.
         22    1    1    0    0    0 -0.23544652957E+02  0.75041892461E+01  0.13315201594E+02  0.28070591953E+02  0.00000000000E+00 0.  1.
</event>
<event>
 5    1  0.1043455E-009  0.9118800E+02  0.7561462E-02  0.1125453E+00
         25   -1    0    0    0    0  0.00000000000E+00  0.00000000000E+00  0.99999998245E-14  0.12509000000E+03  0.12509000000E+03 0.  0.
        -11    1    3    3    0    0 -0.36558290697E+02 -0.36407473457E+02 -0.15369584269E+01  0.51617584055E+02  0.51100000000E-03 0.  1.
         23    2    1    0    0    0  0.74039404666E+01 -0.24095835627E+02  0.87336068085E+01  0.98412228038E+02  0.94727309212E+02 0.  0.
         11    1    3    3    0    0  0.43962231164E+02  0.12311637831E+02  0.10270565235E+02  0.46794643983E+02  0.51100000000E-03 0. -1.
         22    1    1    0    0    0 -0.74039404666E+01  0.24095835627E+02 -0.87336068085E+01  0.26677771962E+02  0.00000000000E+00 0.  1.
</event>
<event>
 5    1  0.1043455E-009  0.9118800E+02  0.7561462E-02  0.1125453E+00
         25   -1    0    0    0    0  0.00000000000E+00  0.00000000000E+00  0.99999998245E-14  0.12509000000E+03  0.12509000000E+03 0.  0.
        -11    1    3    3    0    0 -0.14840528356E+02  0.13867209579E+02 -0.54389940301E+02  0.58058646123E+02  0.51100000000E-03 0. -1.
         23    2    1    0    0    0 -0.10017847410E+02  0.20165025177E+02 -0.15487676991E+02  0.97761376806E+02  0.93863907597E+02 0.  0.
         11    1    3    3    0    0  0.48226809455E+01  0.62978155976E+01  0.38902263310E+02  0.39702730684E+02  0.51100000000E-03 0.  1.
         22    1    1    0    0    0  0.10017847410E+02 -0.20165025177E+02  0.15487676991E+02  0.27328623194E+02  0.00000000000E+00 0. -1.
</event>
<event>
 5    1  0.1043455E-009  0.9118800E+02  0.7561462E-02  0.1125453E+00
         25   -1    0    0    0    0  0.00000000000E+00  0.00000000000E+00  0.99999998245E-14  0.12509000000E+03  0.12509000000E+03 0.  0.
        -11    1    3    3    0    0 -0.25834996043E+02  0.46662194412E+02 -0.21593245187E+02  0.57541946838E+02  0.51100000000E-03 0. -1.
         23    2    1    0    0    0 -0.15004240311E+02  0.90975328635E+01 -0.22388196279E+02  0.96644900876E+02  0.92364025471E+02 0.  0.
         11    1    3    3    0    0  0.10830755733E+02 -0.37564661549E+02 -0.79495109205E+00  0.39102954038E+02  0.51100000000E-03 0.  1.
         22    1    1    0    0    0  0.15004240311E+02 -0.90975328635E+01  0.22388196279E+02  0.28445099124E+02  0.00000000000E+00 0. -1.
</event>
<event>
 5    1  0.1043455E-009  0.9118800E+02  0.7561462E-02  0.1125453E+00
         25   -1    0    0    0    0  0.00000000000E+00  0.00000000000E+00  0.99999998245E-14  0.12509000000E+03  0.12509000000E+03 0.  0.
        -11    1    3    3    0    0 -0.18747951961E+02 -0.33577364132E+02  0.38861131082E+02  0.54672777449E+02  0.51100000000E-03 0. -1.
         23    2    1    0    0    0 -0.16758328801E+02 -0.24344223845E+02 -0.88128174984E+00  0.95522120869E+02  0.90830700200E+02 0.  0.
         11    1    3    3    0    0  0.19896231593E+01  0.92331402878E+01 -0.39742412831E+02  0.40849343420E+02  0.51100000000E-03 0.  1.
         22    1    1    0    0    0  0.16758328801E+02  0.24344223845E+02  0.88128174984E+00  0.29567879131E+02  0.00000000000E+00 0. -1.
</event>
<event>
 5    1  0.1043455E-009  0.9118800E+02  0.7561462E-02  0.1125453E+00
         25   -1    0    0    0    0  0.00000000000E+00  0.00000000000E+00  0.99999998245E-14  0.12509000000E+03  0.12509000000E+03 0.  0.
        -11    1    3    3    0    0 -0.15322148544E+02 -0.35283168733E+01 -0.47407717365E+02  0.49947061195E+02  0.51100000000E-03 0.  1.
         23    2    1    0    0    0  0.29536245424E+01  0.24492629683E+02 -0.23031204855E+02  0.91340196981E+02  0.84876276902E+02 0.  0.
         11    1    3    3    0    0  0.18275773086E+02  0.28020946557E+02  0.24376512510E+02  0.41393135787E+02  0.51100000000E-03 0. -1.
         22    1    1    0    0    0 -0.29536245424E+01 -0.24492629683E+02  0.23031204855E+02  0.33749803019E+02  0.00000000000E+00 0.  1.
</event>
<event>
 5    1  0.1043455E-009  0.9118800E+02  0.7561462E-02  0.1125453E+00
         25   -1    0    0    0    0  0.00000000000E+00  0.00000000000E+00  0.99999998245E-14  0.12509000000E+03  0.12509000000E+03 0.  0.
        -11    1    3    3    0    0 -0.26400641024E+02  0.27726616477E+02 -0.11761899688E+02  0.40051234591E+02  0.51100000000E-03 0. -1.
         23    2    1    0    0    0 -0.10759978535E+02 -0.25441564210E+02 -0.10653950345E+02  0.95483294923E+02  0.90777214233E+02 0.  0.
         11    1    3    3    0    0  0.15640662488E+02 -0.53168180687E+02  0.11079493424E+01  0.55432060332E+02  0.51100000000E-03 0.  1.
         22    1    1    0    0    0  0.10759978535E+02  0.25441564210E+02  0.10653950345E+02  0.29606705077E+02  0.00000000000E+00 0.  1.
</event>
<event>
 5    1  0.1043455E-009  0.9118800E+02  0.7561462E-02  0.1125453E+00
         25   -1    0    0    0    0  0.00000000000E+00  0.00000000000E+00  0.99999998245E-14  0.12509000000E+03  0.12509000000E+03 0.  0.
        -11    1    3    3    0    0 -0.19565725586E+01  0.14445398860E+02  0.27864690152E+02  0.31447395471E+02  0.51100000000E-03 0. -1.
         23    2    1    0    0    0 -0.74995227290E+01 -0.32914766164E+02 -0.71209661806E+01  0.90588799555E+02  0.83761553070E+02 0.  0.
         11    1    3    3    0    0 -0.55429501704E+01 -0.47360165024E+02 -0.34985656333E+02  0.59141404084E+02  0.51100000000E-03 0.  1.
         22    1    1    0    0    0  0.74995227290E+01  0.32914766164E+02  0.71209661806E+01  0.34501200445E+02  0.00000000000E+00 0.  1.
</event>
<event>
 5    1  0.1043455E-009  0.9118800E+02  0.7561462E-02  0.1125453E+00
         25   -1    0    0    0    0  0.00000000000E+00  0.00000000000E+00  0.99999998245E-14  0.12509000000E+03  0.12509000000E+03 0.  0.
        -11    1    3    3    0    0 -0.25657353472E+02 -0.31936381847E+01  0.24820240151E+02  0.35840527806E+02  0.51100000000E-03 0. -1.
         23    2    1    0    0    0  0.18441460534E+02 -0.21871978561E+02 -0.97055068982E+01  0.94879608130E+02  0.89941493550E+02 0.  0.
         11    1    3    3    0    0  0.44098814005E+02 -0.18678340376E+02 -0.34525747049E+02  0.59039080324E+02  0.51100000000E-03 0.  1.
         22    1    1    0    0    0 -0.18441460534E+02  0.21871978561E+02  0.97055068982E+01  0.30210391870E+02  0.00000000000E+00 0. -1.
</event>
<event>
 5    1  0.1043455E-009  0.9118800E+02  0.7561462E-02  0.1125453E+00
         25   -1    0    0    0    0  0.00000000000E+00  0.00000000000E+00  0.99999998245E-14  0.12509000000E+03  0.12509000000E+03 0.  0.
        -11    1    3    3    0    0  0.24308819850E+02 -0.15063278481E+02 -0.42662094950E+02  0.51360251430E+02  0.51100000000E-03 0.  1.
         23    2    1    0    0    0  0.27234391361E+02 -0.88095004813E+01  0.18518056603E+01  0.96406406158E+02  0.92040461714E+02 0.  0.
         11    1    3    3    0    0  0.29255715112E+01  0.62537779999E+01  0.44513900611E+02  0.45046154728E+02  0.51100000000E-03 0. -1.
         22    1    1    0    0    0 -0.27234391361E+02  0.88095004813E+01 -0.18518056603E+01  0.28683593842E+02  0.00000000000E+00 0.  1.
</event>
<event>
 5    1  0.1043455E-009  0.9118800E+02  0.7561462E-02  0.1125453E+00
         25   -1    0    0    0    0  0.00000000000E+00  0.00000000000E+00  0.99999998245E-14  0.12509000000E+03  0.12509000000E+03 0.  0.
        -11    1    3    3    0    0 -0.37811829168E+01 -0.18056427528E+02  0.56546890899E+02  0.59480104152E+02  0.51100000000E-03 0. -1.
         23    2    1    0    0    0 -0.11876178052E+02  0.10250174223E+01  0.27034819676E+02  0.95543837122E+02  0.90860602415E+02 0.  0.
         11    1    3    3    0    0 -0.80949951357E+01  0.19081444950E+02 -0.29512071223E+02  0.36063732970E+02  0.51100000000E-03 0.  1.
         22    1    1    0    0    0  0.11876178052E+02 -0.10250174223E+01 -0.27034819676E+02  0.29546162878E+02  0.00000000000E+00 0. -1.
</event>
<event>
 5    1  0.1043455E-009  0.9118800E+02  0.7561462E-02  0.1125453E+00
         25   -1    0    0    0    0  0.00000000000E+00  0.00000000000E+00  0.99999998245E-14  0.12509000000E+03  0.12509000000E+03 0.  0.
        -11    1    3    3    0    0  0.13374067127E+02 -0.20544963568E+02 -0.28580518088E+02  0.37653780873E+02  0.51100000000E-03 0.  1.
         23    2    1    0    0    0 -0.27716393712E+02 -0.18685645763E+01  0.84692960323E+01  0.96048323237E+02  0.91552506286E+02 0.  0.
         11    1    3    3    0    0 -0.41090460839E+02  0.18676398992E+02  0.37049814121E+02  0.58394542364E+02  0.51100000000E-03 0. -1.
         22    1    1    0    0    0  0.27716393712E+02  0.18685645763E+01 -0.84692960323E+01  0.29041676763E+02  0.00000000000E+00 0. -1.
</event>
<event>
 5    1  0.1043455E-009  0.9118800E+02  0.7561462E-02  0.1125453E+00
         25   -1    0    0    0    0  0.00000000000E+00  0.00000000000E+00  0.99999998245E-14  0.12509000000E+03  0.12509000000E+03 0.  0.
        -11    1    3    3    0    0  0.11161137575E+02 -0.22054348156E+02  0.26421222579E+02  0.36180744429E+02  0.51100000000E-03 0.  1.
         23    2    1    0    0    0  0.63042393856E+01  0.30518172494E+02  0.35226655837E+01  0.93729013737E+02  0.88326760139E+02 0.  0.
         11    1    3    3    0    0 -0.48568981894E+01  0.52572520650E+02 -0.22898556996E+02  0.57548269308E+02  0.51100000000E-03 0. -1.
         22    1    1    0    0    0 -0.63042393856E+01 -0.30518172494E+02 -0.35226655837E+01  0.31360986263E+02  0.00000000000E+00 0. -1.
</event>
<event>
 5    1  0.1043455E-009  0.9118800E+02  0.7561462E-02  0.1125453E+00
         25   -1    0    0    0    0  0.00000000000E+00  0.00000000000E+00  0.99999998245E-14  0.12509000000E+03  0.12509000000E+03 0.  0.
        -11    1    3    3    0    0 -0.43179830969E+02  0.89691181420E+01  0.30727055606E+01  0.44208420040E+02  0.51100000000E-03 0.  1.
         23    2    1    0    0    0 -0.30225018587E+01 -0.19490707286E+02  0.20707986347E+02  0.96492030028E+02  0.92156757605E+02 0.  0.
         11    1    3    3    0    0  0.40157329110E+02 -0.28459825428E+02  0.17635280786E+02  0.52283609987E+02  0.51100000000E-03 0. -1.
         22    1    1    0    0    0  0.30225018587E+01  0.19490707286E+02 -0.20707986347E+02  0.28597969972E+02  0.00000000000E+00 0.  1.
</event>
<event>
 5    1  0.1043455E-009  0.9118800E+02  0.7561462E-02  0.1125453E+00
         25   -1    0    0    0    0  0.00000000000E+00  0.00000000000E+00  0.99999998245E-14  0.12509000000E+03  0.12509000000E+03 0.  0.
        -11    1    3    3    0    0 -0.15209551298E+02 -0.16989557110E+02  0.43165578555E+02  0.48818466524E+02  0.51100000000E-03 0.  1.
         23    2    1    0    0    0 -0.16269477081E+02 -0.22923004284E+02 -0.42895218739E+01  0.96654810396E+02  0.92377445110E+02 0.  0.
         11    1    3    3    0    0 -0.10599257826E+01 -0.59334471739E+01 -0.47455100429E+02  0.47836343872E+02  0.51100000000E-03 0. -1.
         22    1    1    0    0    0  0.16269477081E+02  0.22923004284E+02  0.42895218739E+01  0.28435189604E+02  0.00000000000E+00 0. -1.
</event>
<event>
 5    1  0.1043455E-009  0.9118800E+02  0.7561462E-02  0.1125453E+00
         25   -1    0    0    0    0  0.00000000000E+00  0.00000000000E+00  0.99999998245E-14  0.12509000000E+03  0.12509000000E+03 0.  0.
        -11    1    3    3    0    0  0.19549555547E+02 -0.81168588319E+01 -0.39928273328E+02  0.45192206525E+02  0.51100000000E-03 0. -1.
         23    2    1    0    0    0  0.44906088465E+00  0.27983566999E+02 -0.20363581680E+02  0.90478482604E+02  0.83596642742E+02 0.  0.
         11    1    3    3    0    0 -0.19100494663E+02  0.36100425831E+02  0.19564691648E+02  0.45286276079E+02  0.51100000000E-03 0.  1.
         22    1    1    0    0    0 -0.44906088465E+00 -0.27983566999E+02  0.20363581680E+02  0.34611517396E+02  0.00000000000E+00 0.  1.
</event>
<event>
 5    1  0.1043455E-009  0.9118800E+02  0.7561462E-02  0.1125453E+00
         25   -1    0    0    0    0  0.00000000000E+00  0.00000000000E+00  0.99999998245E-14  0.12509000000E+03  0.12509000000E+03 0.  0.
        -11    1    3    3    0    0  0.26874463265E+02 -0.31299489769E+02  0.84071328301E+01  0.42101956228E+02  0.51100000000E-03 0.  1.
         23    2    1    0    0    0 -0.67490884355E+01  0.16639672229E+00 -0.25129178062E+02  0.99069748797E+02  0.95591640085E+02 0.  0.
         11    1    3    3    0    0 -0.33623551700E+02  0.31465886491E+02 -0.33536310892E+02  0.56967792569E+02  0.51100000000E-03 0. -1.
         22    1    1    0    0    0  0.67490884355E+01 -0.16639672229E+00  0.25129178062E+02  0.26020251203E+02  0.00000000000E+00 0.  1.
</event>
<event>
 5    1  0.1043455E-009  0.9118800E+02  0.7561462E-02  0.1125453E+00
         25   -1    0    0    0    0  0.00000000000E+00  0.00000000000E+00  0.99999998245E-14  0.12509000000E+03  0.12509000000E+03 0.  0.
        -11    1    3    3    0    0  0.35448055102E+02 -0.20210123479E+02 -0.14197745171E+02  0.43204046915E+02  0.51100000000E-03 0.  1.
         23    2    1    0    0    0 -0.40997510108E+01  0.12496918842E+02 -0.26079379633E+02  0.95881867898E+02  0.91324791873E+02 0.  0.
         11    1    3    3    0    0 -0.39547806113E+02  0.32707042321E+02 -0.11881634461E+02  0.52677820983E+02  0.51100000000E-03 0. -1.
         22    1    1    0    0    0  0.40997510108E+01 -0.12496918842E+02  0.26079379633E+02  0.29208132102E+02  0.00000000000E+00 0. -1.
</event>
<event>
 5    1  0.1043455E-009  0.9118800E+02  0.7561462E-02  0.1125453E+00
         25   -1    0    0    0    0  0.00000000000E+00  0.00000000000E+00  0.99999998245E-14  0.12509000000E+03  0.12509000000E+03 0.  0.
        -11    1    3    3    0    0  0.29511197577E+02  0.23563500212E+02  0.69134537791E+01  0.38391993542E+02  0.51100000000E-03 0.  1.
         23    2    1    0    0    0 -0.25582143574E+02  0.12776726952E+02  0.10455941378E+02  0.94643037401E+02  0.89611868616E+02 0.  0.
         11    1    3    3    0    0 -0.55093341151E+02 -0.10786773260E+02  0.35424875984E+01  0.56251043859E+02  0.51100000000E-03 0. -1.
         22    1    1    0    0    0  0.25582143574E+02 -0.12776726952E+02 -0.10455941378E+02  0.30446962599E+02  0.00000000000E+00 0. -1.
</event>
<event>
 5    1  0.1043455E-009  0.9118800E+02  0.7561462E-02  0.1125453E+00
         25   -1    0    0    0    0  0.00000000000E+00  0.00000000000E+00  0.99999998245E-14  0.12509000000E+03  0.12509000000E+03 0.  0.
        -11    1    3    3    0    0 -0.11098012058E+02 -0.51352383427E+02 -0.21322820290E+02  0.56700051328E+02  0.51100000000E-03 0. -1.
         23    2    1    0    0    0 -0.50768717824E+01 -0.14253051993E+02 -0.26435388529E+02  0.94630947407E+02  0.89594990498E+02 0.  0.
         11    1    3    3    0    0  0.60211402758E+01  0.37099331434E+02 -0.51125682389E+01  0.37930896079E+02  0.51100000000E-03 0.  1.
         22    1    1    0    0    0  0.50768717824E+01  0.14253051993E+02  0.26435388529E+02  0.30459052593E+02  0.00000000000E+00 0. -1.
</event>
<event>
 5    1  0.1043455E-009  0.9118800E+02  0.7561462E-02  0.1125453E+00
         25   -1    0    0    0    0  0.00000000000E+00  0.00000000000E+00  0.99999998245E-14  0.12509000000E+03  0.12509000000E+03 0.  0.
        -11    1    3    3    0    0  0.25515298281E+02  0.44973270488E+01  0.33190014901E+02  0.42105029229E+02  0.51100000000E-03 0. -1.
         23    2    1    0    0    0 -0.14888608713E+02  0.52401618265E+01 -0.13830013964E+02  0.10410430841E+03  0.10196718971E+03 0.  0.
         11    1    3    3    0    0 -0.40403906994E+02  0.74283477777E+00 -0.47020028865E+02  0.61999279178E+02  0.51100000000E-03 0.  1.
         22    1    1    0    0    0  0.14888608713E+02 -0.52401618265E+01  0.13830013964E+02  0.20985691593E+02  0.00000000000E+00 0.  1.
</event>
<event>
 5    1  0.1043455E-009  0.9118800E+02  0.7561462E-02  0.1125453E+00
         25   -1    0    0    0    0  0.00000000000E+00  0.00000000000E+00  0.99999998245E-14  0.12509000000E+03  0.12509000000E+03 0.  0.
        -11    1    3    3    0    0  0.33887773976E+02 -0.14282124443E+02  0.45105292490E+02  0.58196629752E+02  0.51100000000E-03 0.  1.
         23    2    1    0    0    0  0.48337746051E+01 -0.19173383512E+02  0.20802192255E+02  0.96389560721E+02  0.92017564634E+02 0.  0.
         11    1    3    3    0    0 -0.29053999371E+02 -0.48912590693E+01 -0.24303100235E+02  0.38192930969E+02  0.51100000000E-03 0. -1.
         22    1    1    0    0    0 -0.48337746051E+01  0.19173383512E+02 -0.20802192255E+02  0.28700439279E+02  0.00000000000E+00 0.  1.
</event>
<event>
 5    1  0.1043455E-009  0.9118800E+02  0.7561462E-02  0.1125453E+00
         25   -1    0    0    0    0  0.00000000000E+00  0.00000000000E+00  0.99999998245E-14  0.12509000000E+03  0.12509000000E+03 0.  0.
        -11    1    3    3    0    0 -0.12573976960E+02 -0.56691765494E+02  0.60653370501E+01  0.58385353345E+02  0.51100000000E-03 0.  1.
         23    2    1    0    0    0  0.83356712213E+01 -0.27164444721E+02 -0.50386937190E+01  0.96232091100E+02  0.91803248588E+02 0.  0.
         11    1    3    3    0    0  0.20909648181E+02  0.29527320773E+02 -0.11104030769E+02  0.37846737755E+02  0.51100000000E-03 0. -1.
         22    1    1    0    0    0 -0.83356712213E+01  0.27164444721E+02  0.50386937190E+01  0.28857908900E+02  0.00000000000E+00 0.  1.
</event>
<event>
 5    1  0.1043455E-009  0.9118800E+02  0.7561462E-02  0.1125453E+00
         25   -1    0    0    0    0  0.00000000000E+00  0.00000000000E+00  0.99999998245E-14  0.12509000000E+03  0.12509000000E+03 0.  0.
        -11    1    3    3    0    0 -0.20464236840E+02  0.49916437047E+02  0.20716413037E+02  0.57789319483E+02  0.51100000000E-03 0.  1.
         23    2    1    0    0    0 -0.55910395600E+01  0.14593713803E+02  0.24209452641E+02  0.96274486763E+02  0.91860998244E+02 0.  0.
         11    1    3    3    0    0  0.14873197280E+02 -0.35322723244E+02  0.34930396040E+01  0.38485167281E+02  0.51100000000E-03 0. -1.
         22    1    1    0    0    0  0.55910395600E+01 -0.14593713803E+02 -0.24209452641E+02  0.28815513237E+02  0.00000000000E+00 0.  1.
</event>
<event>
 5    1  0.1043455E-009  0.9118800E+02  0.7561462E-02  0.1125453E+00
         25   -1    0    0    0    0  0.00000000000E+00  0.00000000000E+00  0.99999998245E-14  0.12509000000E+03  0.12509000000E+03 0.  0.
        -11    1    3    3    0    0 -0.26339528246E+02  0.19988127932E+02  0.38623342500E+02  0.50843471484E+02  0.51100000000E-03 0. -1.
         23    2    1    0    0    0 -0.99532613249E+01 -0.17270658236E+02  0.23522618674E+02  0.94257279779E+02  0.89071758460E+02 0.  0.
         11    1    3    3    0    0  0.16386266921E+02 -0.37258786168E+02 -0.15100723826E+02  0.43413808295E+02  0.51100000000E-03 0.  1.
         22    1    1    0    0    0  0.99532613249E+01  0.17270658236E+02 -0.23522618674E+02  0.30832720221E+02  0.00000000000E+00 0. -1.
</event>
<event>
 5    1  0.1043455E-009  0.9118800E+02  0.7561462E-02  0.1125453E+00
         25   -1    0    0    0    0  0.00000000000E+00  0.00000000000E+00  0.99999998245E-14  0.12509000000E+03  0.12509000000E+03 0.  0.
        -11    1    3    3    0    0  0.10646797094E+01 -0.24506169155E+02  0.15492792178E+02  0.29012281525E+02  0.51100000000E-03 0.  1.
         23    2    1    0    0    0 -0.22006226443E+02  0.25419916831E+02 -0.10530877076E+02  0.89857265988E+02  0.82661857618E+02 0.  0.
         11    1    3    3    0    0 -0.23070906152E+02  0.49926085986E+02 -0.26023669254E+02  0.60844984463E+02  0.51100000000E-03 0. -1.
         22    1    1    0    0    0  0.22006226443E+02 -0.25419916831E+02  0.10530877076E+02  0.35232734012E+02  0.00000000000E+00 0. -1.
</event>
<event>
 5    1  0.1043455E-009  0.9118800E+02  0.7561462E-02  0.1125453E+00
         25   -1    0    0    0    0  0.00000000000E+00  0.00000000000E+00  0.99999998245E-14  0.12509000000E+03  0.12509000000E+03 0.  0.
        -11    1    3    3    0    0 -0.28458446658E+02  0.34063557167E+02 -0.24585446828E+02  0.50741041663E+02  0.51100000000E-03 0.  1.
         23    2    1    0    0    0 -0.60123685775E+01 -0.39637286594E+01 -0.29084404795E+02  0.95127317825E+02  0.90285349163E+02 0.  0.
         11    1    3    3    0    0  0.22446078080E+02 -0.38027285827E+02 -0.44989579676E+01  0.44386276163E+02  0.51100000000E-03 0. -1.
         22    1    1    0    0    0  0.60123685775E+01  0.39637286594E+01  0.29084404795E+02  0.29962682175E+02  0.00000000000E+00 0.  1.
</event>
<event>
 5    1  0.1043455E-009  0.9118800E+02  0.7561462E-02  0.1125453E+00
         25   -1    0    0    0    0  0.00000000000E+00  0.00000000000E+00  0.99999998245E-14  0.12509000000E+03  0.12509000000E+03 0.  0.
        -11    1    3    3    0    0  0.36010770929E+02 -0.23035362380E+02 -0.31974833924E+02  0.53383457621E+02  0.51100000000E-03 0. -1.
         23    2    1    0    0    0  0.19107391905E+02 -0.21801175847E+02  0.64603145849E+01  0.95389505757E+02  0.90647881665E+02 0.  0.
         11    1    3    3    0    0 -0.16903379024E+02  0.12341865331E+01  0.38435148509E+02  0.42006048136E+02  0.51100000000E-03 0.  1.
         22    1    1    0    0    0 -0.19107391905E+02  0.21801175847E+02 -0.64603145849E+01  0.29700494243E+02  0.00000000000E+00 0. -1.
</event>
<event>
 5    1  0.1043455E-009  0.9118800E+02  0.7561462E-02  0.1125453E+00
         25   -1    0    0    0    0  0.00000000000E+00  0.00000000000E+00  0.99999998245E-14  0.12509000000E+03  0.12509000000E+03 0.  0.
        -11    1    3    3    0    0  0.33084034929E+02  0.30217240547E+02  0.67929407365E+01  0.45318638964E+02  0.51100000000E-03 0.  1.
         23    2    1    0    0    0  0.21535405414E+02 -0.15116415478E+02 -0.12547057654E+02  0.95940242556E+02  0.91404714226E+02 0.  0.
         11    1    3    3    0    0 -0.11548629515E+02 -0.45333656025E+02 -0.19339998391E+02  0.50621603592E+02  0.51100000000E-03 0. -1.
         22    1    1    0    0    0 -0.21535405414E+02  0.15116415478E+02  0.12547057654E+02  0.29149757444E+02  0.00000000000E+00 0.  1.
</event>
<event>
 5    1  0.1043455E-009  0.9118800E+02  0.7561462E-02  0.1125453E+00
         25   -1    0    0    0    0  0.00000000000E+00  0.00000000000E+00  0.99999998245E-14  0.12509000000E+03  0.12509000000E+03 0.  0.
        -11    1    3    3    0    0  0.16903350119E+02  0.18468811831E+02 -0.37916529341E+02  0.45436587165E+02  0.51100000000E-03 0. -1.
         23    2    1    0    0    0  0.41782396775E+01  0.25799075509E+02  0.11166339260E+02  0.96669283675E+02  0.92397041564E+02 0.  0.
         11    1    3    3    0    0 -0.12725110442E+02  0.73302636787E+01  0.49082868601E+02  0.51232696510E+02  0.51100000000E-03 0.  1.
         22    1    1    0    0    0 -0.41782396775E+01 -0.25799075509E+02 -0.11166339260E+02  0.28420716325E+02  0.00000000000E+00 0. -1.
</event>
<event>
 5    1  0.1043455E-009  0.9118800E+02  0.7561462E-02  0.1125453E+00
         25   -1    0    0    0    0  0.00000000000E+00  0.00000000000E+00  0.99999998245E-14  0.12509000000E+03  0.12509000000E+03 0.  0.
        -11    1    3    3    0    0 -0.15460136786E+02  0.53828381673E+02  0.10067803761E+02  0.56902294996E+02  0.51100000000E-03 0.  1.
         23    2    1    0    0    0 -0.12615586362E+02  0.16007700896E+02  0.20442494333E+02  0.96223149084E+02  0.91791063497E+02 0.  0.
         11    1    3    3    0    0  0.28445504243E+01 -0.37820680777E+02  0.10374690572E+02  0.39320854088E+02  0.51100000000E-03 0. -1.
         22    1    1    0    0    0  0.12615586362E+02 -0.16007700896E+02 -0.20442494333E+02  0.28866850916E+02  0.00000000000E+00 0.  1.
</event>
<event>
 5    1  0.1043455E-009  0.9118800E+02  0.7561462E-02  0.1125453E+00
         25   -1    0    0    0    0  0.00000000000E+00  0.00000000000E+00  0.99999998245E-14  0.12509000000E+03  0.12509000000E+03 0.  0.
        -11    1    3    3    0    0  0.41408044826E+02 -0.14507060025E+02  0.39207718467E+02  0.58841534263E+02  0.51100000000E-03 0. -1.
         23    2    1    0    0    0  0.27964669716E+01 -0.13219534445E+02  0.16899288647E+02  0.10345294208E+03  0.10116495911E+03 0.  0.
         11    1    3    3    0    0 -0.38611577854E+02  0.12875255803E+01 -0.22308429820E+02  0.44611407821E+02  0.51100000000E-03 0.  1.
         22    1    1    0    0    0 -0.27964669716E+01  0.13219534445E+02 -0.16899288647E+02  0.21637057915E+02  0.00000000000E+00 0. -1.
</event>
<event>
 5    1  0.1043455E-009  0.9118800E+02  0.7561462E-02  0.1125453E+00
         25   -1    0    0    0    0  0.00000000000E+00  0.00000000000E+00  0.99999998245E-14  0.12509000000E+03  0.12509000000E+03 0.  0.
        -11    1    3    3    0    0  0.69481334344E+01 -0.29256992712E+02 -0.27405668484E+02  0.40685609816E+02  0.51100000000E-03 0.  1.
         23    2    1    0    0    0 -0.12653635929E+02 -0.12171349680E+02  0.22255653598E+02  0.96742683154E+02  0.92496358693E+02 0.  0.
         11    1    3    3    0    0 -0.19601769364E+02  0.17085643032E+02  0.49661322082E+02  0.56057073338E+02  0.51100000000E-03 0. -1.
         22    1    1    0    0    0  0.12653635929E+02  0.12171349680E+02 -0.22255653598E+02  0.28347316846E+02  0.00000000000E+00 0. -1.
</event>
<event>
 5    1  0.1043455E-009  0.9118800E+02  0.7561462E-02  0.1125453E+00
         25   -1    0    0    0    0  0.00000000000E+00  0.00000000000E+00  0.99999998245E-14  0.12509000000E+03  0.12509000000E+03 0.  0.
        -11    1    3    3    0    0  0.27323893536E+01  0.30197471014E+02 -0.15366459413E+02  0.33992370944E+02  0.51100000000E-03 0.  1.
         23    2    1    0    0    0  0.23563344242E+01 -0.27806790627E+02  0.72599831622E+01  0.96254652380E+02  0.91833985171E+02 0.  0.
         11    1    3    3    0    0 -0.37605492943E+00 -0.58004261641E+02  0.22626442575E+02  0.62262281436E+02  0.51100000000E-03 0. -1.
         22    1    1    0    0    0 -0.23563344242E+01  0.27806790627E+02 -0.72599831622E+01  0.28835347620E+02  0.00000000000E+00 0. -1.
</event>
<event>
 5    1  0.1043455E-009  0.9118800E+02  0.7561462E-02  0.1125453E+00
         25   -1    0    0    0    0  0.00000000000E+00  0.00000000000E+00  0.99999998245E-14  0.12509000000E+03  0.12509000000E+03 0.  0.
        -11    1    3    3    0    0  0.10188297181E+01 -0.50104278255E+02  0.25018037126E+02  0.56012310213E+02  0.51100000000E-03 0.  1.
         23    2    1    0    0    0  0.20338505756E+02 -0.19689646312E+02  0.12336887775E+02  0.94210625196E+02  0.89006213893E+02 0.  0.
         11    1    3    3    0    0  0.19319676038E+02  0.30414631943E+02 -0.12681149351E+02  0.38198314984E+02  0.51100000000E-03 0. -1.
         22    1    1    0    0    0 -0.20338505756E+02  0.19689646312E+02 -0.12336887775E+02  0.30879374804E+02  0.00000000000E+00 0.  1.
</event>
<event>
 5    1  0.1043455E-009  0.9118800E+02  0.7561462E-02  0.1125453E+00
         25   -1    0    0    0    0  0.00000000000E+00  0.00000000000E+00  0.99999998245E-14  0.12509000000E+03  0.12509000000E+03 0.  0.
        -11    1    3    3    0    0  0.46363893480E+02  0.61582100375E+01  0.95345855047E+01  0.47733033535E+02  0.51100000000E-03 0.  1.
         23    2    1    0    0    0  0.10429499750E+02  0.17138736885E+02 -0.20923577993E+02  0.96101952755E+02  0.91625752058E+02 0.  0.
         11    1    3    3    0    0 -0.35934393730E+02  0.10980526847E+02 -0.30458163498E+02  0.48368919220E+02  0.51100000000E-03 0. -1.
         22    1    1    0    0    0 -0.10429499750E+02 -0.17138736885E+02  0.20923577993E+02  0.28988047245E+02  0.00000000000E+00 0. -1.
</event>
<event>
 5    1  0.1043455E-009  0.9118800E+02  0.7561462E-02  0.1125453E+00
         25   -1    0    0    0    0  0.00000000000E+00  0.00000000000E+00  0.99999998245E-14  0.12509000000E+03  0.12509000000E+03 0.  0.
        -11    1    3    3    0    0 -0.32745871611E+02 -0.83955728002E+00  0.24755982255E+02  0.41059172199E+02  0.51100000000E-03 0. -1.
         23    2    1    0    0    0 -0.37156332151E+01 -0.33325296415E+02 -0.76261105804E+00  0.91549533590E+02  0.85184236884E+02 0.  0.
         11    1    3    3    0    0  0.29030238396E+02 -0.32485739135E+02 -0.25518593313E+02  0.50490361391E+02  0.51100000000E-03 0.  1.
         22    1    1    0    0    0  0.37156332151E+01  0.33325296415E+02  0.76261105804E+00  0.33540466410E+02  0.00000000000E+00 0.  1.
</event>
<event>
 5    1  0.1043455E-009  0.9118800E+02  0.7561462E-02  0.1125453E+00
         25   -1    0    0    0    0  0.00000000000E+00  0.00000000000E+00  0.99999998245E-14  0.12509000000E+03  0.12509000000E+03 0.  0.
        -11    1    3    3    0    0  0.14488539708E+02  0.47349049509E+02  0.11301669779E+02  0.50789546290E+02  0.51100000000E-03 0.  1.
         23    2    1    0    0    0 -0.16935901390E+02  0.22363393019E+02 -0.88023137302E+01  0.95688863454E+02  0.91060044800E+02 0.  0.
         11    1    3    3    0    0 -0.31424441098E+02 -0.24985656490E+02 -0.20103983509E+02  0.44899317164E+02  0.51100000000E-03 0. -1.
         22    1    1    0    0    0  0.16935901390E+02 -0.22363393019E+02  0.88023137302E+01  0.29401136546E+02  0.00000000000E+00 0. -1.
</event>
<event>
 5    1  0.1043455E-009  0.9118800E+02  0.7561462E-02  0.1125453E+00
         25   -1    0    0    0    0  0.00000000000E+00  0.00000000000E+00  0.99999998245E-14  0.12509000000E+03  0.12509000000E+03 0.  0.
        -11    1    3    3    0    0  0.24715808578E+02 -0.45326401278E+02  0.12049844289E+02  0.53014645091E+02  0.51100000000E-03 0.  1.
         23    2    1    0    0    0  0.44389598853E+01 -0.14634032532E+02  0.28060186271E+02  0.93133258511E+02  0.87478971841E+02 0.  0.
         11    1    3    3    0    0 -0.20276848693E+02  0.30692368746E+02  0.16010341982E+02  0.40118613420E+02  0.51100000000E-03 0. -1.
         22    1    1    0    0    0 -0.44389598853E+01  0.14634032532E+02 -0.28060186271E+02  0.31956741489E+02  0.00000000000E+00 0.  1.
</event>
<event>
 5    1  0.1043455E-009  0.9118800E+02  0.7561462E-02  0.1125453E+00
         25   -1    0    0    0    0  0.00000000000E+00  0.00000000000E+00  0.99999998245E-14  0.12509000000E+03  0.12509000000E+03 0.  0.
        -11    1    3    3    0    0 -0.27056161948E+02  0.17713727996E+02  0.27770363759E+02  0.42626343526E+02  0.51100000000E-03 0. -1.
         23    2    1    0    0    0 -0.21158886573E+02 -0.15142780519E+02 -0.13556379373E+02  0.95750986647E+02  0.91145344036E+02 0.  0.
         11    1    3    3    0    0  0.58972753751E+01 -0.32856508515E+02 -0.41326743131E+02  0.53124643121E+02  0.51100000000E-03 0.  1.
         22    1    1    0    0    0  0.21158886573E+02  0.15142780519E+02  0.13556379373E+02  0.29339013353E+02  0.00000000000E+00 0.  1.
</event>
<event>
 5    1  0.1043455E-009  0.9118800E+02  0.7561462E-02  0.1125453E+00
         25   -1    0    0    0    0  0.00000000000E+00  0.00000000000E+00  0.99999998245E-14  0.12509000000E+03  0.12509000000E+03 0.  0.
        -11    1    3    3    0    0 -0.14206536898E+02 -0.32598258761E+02 -0.87770154455E+01  0.36626604611E+02  0.51100000000E-03 0.  1.
         23    2    1    0    0    0  0.94525004884E+01  0.19659005338E+02 -0.20477095524E+02  0.95171148125E+02  0.90346055464E+02 0.  0.
         11    1    3    3    0    0  0.23659037387E+02  0.52257264100E+02 -0.11700080079E+02  0.58544543515E+02  0.51100000000E-03 0. -1.
         22    1    1    0    0    0 -0.94525004884E+01 -0.19659005338E+02  0.20477095524E+02  0.29918851875E+02  0.00000000000E+00 0. -1.
</event>
<event>
 5    1  0.1043455E-009  0.9118800E+02  0.7561462E-02  0.1125453E+00
         25   -1    0    0    0    0  0.00000000000E+00  0.00000000000E+00  0.99999998245E-14  0.12509000000E+03  0.12509000000E+03 0.  0.
        -11    1    3    3    0    0  0.49154906239E+01  0.16212217281E+02  0.31340691021E+02  0.35626351920E+02  0.51100000000E-03 0.  1.
         23    2    1    0    0    0  0.10984703615E+02 -0.36541101881E+01 -0.26008349806E+02  0.96621587779E+02  0.92332446791E+02 0.  0.
         11    1    3    3    0    0  0.60692129911E+01 -0.19866327469E+02 -0.57349040827E+02  0.60995235858E+02  0.51100000000E-03 0. -1.
         22    1    1    0    0    0 -0.10984703615E+02  0.36541101881E+01  0.26008349806E+02  0.28468412221E+02  0.00000000000E+00 0. -1.
</event>
<event>
 5    1  0.1043455E-009  0.9118800E+02  0.7561462E-02  0.1125453E+00
         25   -1    0    0    0    0  0.00000000000E+00  0.00000000000E+00  0.99999998245E-14  0.12509000000E+03  0.12509000000E+03 0.  0.
        -11    1    3    3    0    0  0.44314465640E+02  0.17589880633E+02 -0.22270035382E+02  0.52622525993E+02  0.51100000000E-03 0. -1.
         23    2    1    0    0    0  0.25736242589E+02  0.37792619452E+01  0.13923348813E+02  0.95585819862E+02  0.90918382702E+02 0.  0.
         11    1    3    3    0    0 -0.18578223052E+02 -0.13810618688E+02  0.36193384195E+02  0.42963293869E+02  0.51100000000E-03 0.  1.
         22    1    1    0    0    0 -0.25736242589E+02 -0.37792619452E+01 -0.13923348813E+02  0.29504180138E+02  0.00000000000E+00 0. -1.
</event>
<event>
 5    1  0.1043455E-009  0.9118800E+02  0.7561462E-02  0.1125453E+00
         25   -1    0    0    0    0  0.00000000000E+00  0.00000000000E+00  0.99999998245E-14  0.12509000000E+03  0.12509000000E+03 0.  0.
        -11    1    3    3    0    0 -0.15478632639E+02  0.13736299183E+02 -0.25721248762E+02  0.33012976566E+02  0.51100000000E-03 0. -1.
         23    2    1    0    0    0  0.21584911111E+02 -0.22647561517E+02  0.50760187319E+01  0.93394789060E+02  0.87852149815E+02 0.  0.
         11    1    3    3    0    0  0.37063543750E+02 -0.36383860699E+02  0.30797267494E+02  0.60381812494E+02  0.51100000000E-03 0.  1.
         22    1    1    0    0    0 -0.21584911111E+02  0.22647561517E+02 -0.50760187319E+01  0.31695210940E+02  0.00000000000E+00 0.  1.
</event>
<event>
 5    1  0.1043455E-009  0.9118800E+02  0.7561462E-02  0.1125453E+00
         25   -1    0    0    0    0  0.00000000000E+00  0.00000000000E+00  0.99999998245E-14  0.12509000000E+03  0.12509000000E+03 0.  0.
        -11    1    3    3    0    0  0.20719083186E+02 -0.13378059400E+02 -0.24187626298E+02  0.34544089908E+02  0.51100000000E-03 0.  1.
         23    2    1    0    0    0 -0.53072416309E+01  0.28487430133E+02  0.98888942404E+01  0.94471529780E+02  0.89372138949E+02 0.  0.
         11    1    3    3    0    0 -0.26026324817E+02  0.41865489533E+02  0.34076520538E+02  0.59927439872E+02  0.51100000000E-03 0. -1.
         22    1    1    0    0    0  0.53072416309E+01 -0.28487430133E+02 -0.98888942404E+01  0.30618470220E+02  0.00000000000E+00 0. -1.
</event>
<event>
 5    1  0.1043455E-009  0.9118800E+02  0.7561462E-02  0.1125453E+00
         25   -1    0    0    0    0  0.00000000000E+00  0.00000000000E+00  0.99999998245E-14  0.12509000000E+03  0.12509000000E+03 0.  0.
        -11    1    3    3    0    0  0.28424442045E+02 -0.64072607831E+00  0.19317021048E+02  0.34373052497E+02  0.51100000000E-03 0. -1.
         23    2    1    0    0    0 -0.18958772917E+02 -0.25469832922E+02 -0.46660671803E+01  0.92997638876E+02  0.87284827971E+02 0.  0.
         11    1    3    3    0    0 -0.47383214963E+02 -0.24829106843E+02 -0.23983088229E+02  0.58624586379E+02  0.51100000000E-03 0.  1.
         22    1    1    0    0    0  0.18958772917E+02  0.25469832922E+02  0.46660671803E+01  0.32092361124E+02  0.00000000000E+00 0. -1.
</event>
<event>
 5    1  0.1043455E-009  0.9118800E+02  0.7561462E-02  0.1125453E+00
         25   -1    0    0    0    0  0.00000000000E+00  0.00000000000E+00  0.99999998245E-14  0.12509000000E+03  0.12509000000E+03 0.  0.
        -11    1    3    3    0    0 -0.37812831896E+02 -0.46573611790E+01 -0.23272423902E+02  0.44644226768E+02  0.51100000000E-03 0.  1.
         23    2    1    0    0    0 -0.31720655428E+01 -0.27118222949E+02  0.82275239780E+01  0.96574176909E+02  0.92268193215E+02 0.  0.
         11    1    3    3    0    0  0.34640766353E+02 -0.22460861770E+02  0.31499947880E+02  0.51929950142E+02  0.51100000000E-03 0. -1.
         22    1    1    0    0    0  0.31720655428E+01  0.27118222949E+02 -0.82275239780E+01  0.28515823091E+02  0.00000000000E+00 0. -1.
</event>
<event>
 5    1  0.1043455E-009  0.9118800E+02  0.7561462E-02  0.1125453E+00
         25   -1    0    0    0    0  0.00000000000E+00  0.00000000000E+00  0.99999998245E-14  0.12509000000E+03  0.12509000000E+03 0.  0.
        -11    1    3    3    0    0 -0.68091166773E+01 -0.24993017276E+02 -0.31248409134E+02  0.40589137169E+02  0.51100000000E-03 0.  1.
         23    2    1    0    0    0  0.13175099464E+02  0.20590841412E+02 -0.23903445812E+02  0.90900224955E+02  0.84225353541E+02 0.  0.
         11    1    3    3    0    0  0.19984216142E+02  0.45583858688E+02  0.73449633222E+01  0.50311087785E+02  0.51100000000E-03 0. -1.
         22    1    1    0    0    0 -0.13175099464E+02 -0.20590841412E+02  0.23903445812E+02  0.34189775045E+02  0.00000000000E+00 0. -1.
</event>
<event>
 5    1  0.1043455E-009  0.9118800E+02  0.7561462E-02  0.1125453E+00
         25   -1    0    0    0    0  0.00000000000E+00  0.00000000000E+00  0.99999998245E-14  0.12509000000E+03  0.12509000000E+03 0.  0.
        -11    1    3    3    0    0 -0.40864183310E+01  0.18622860638E+02  0.33833696990E+02  0.38835921585E+02  0.51100000000E-03 0. -1.
         23    2    1    0    0    0 -0.66544345462E+01  0.10661350362E+02 -0.24387318056E+02  0.97654855156E+02  0.93721841440E+02 0.  0.
         11    1    3    3    0    0 -0.25680162152E+01 -0.79615102761E+01 -0.58221015045E+02  0.58818933570E+02  0.51100000000E-03 0.  1.
         22    1    1    0    0    0  0.66544345462E+01 -0.10661350362E+02  0.24387318056E+02  0.27435144844E+02  0.00000000000E+00 0.  1.
</event>
<event>
 5    1  0.1043455E-009  0.9118800E+02  0.7561462E-02  0.1125453E+00
         25   -1    0    0    0    0  0.00000000000E+00  0.00000000000E+00  0.99999998245E-14  0.12509000000E+03  0.12509000000E+03 0.  0.
        -11    1    3    3    0    0 -0.26108398298E+02  0.42192051566E+02 -0.24707232321E+02  0.55428016438E+02  0.51100000000E-03 0.  1.
         23    2    1    0    0    0 -0.20667629136E+02  0.25911421793E+01 -0.20901573948E+02  0.95581684131E+02  0.90912692381E+02 0.  0.
         11    1    3    3    0    0  0.54407691623E+01 -0.39600909386E+02  0.38056583728E+01  0.40153667693E+02  0.51100000000E-03 0. -1.
         22    1    1    0    0    0  0.20667629136E+02 -0.25911421793E+01  0.20901573948E+02  0.29508315869E+02  0.00000000000E+00 0.  1.
</event>
<event>
 5    1  0.1043455E-009  0.9118800E+02  0.7561462E-02  0.1125453E+00
         25   -1    0    0    0    0  0.00000000000E+00  0.00000000000E+00  0.99999998245E-14  0.12509000000E+03  0.12509000000E+03 0.  0.
        -11    1    3    3    0    0 -0.36197301099E+02 -0.32938813904E+02  0.27172207832E+01  0.49016256051E+02  0.51100000000E-03 0. -1.
         23    2    1    0    0    0  0.92487773865E+01 -0.25947574259E+02 -0.83415159253E+01  0.96308106716E+02  0.91906768185E+02 0.  0.
         11    1    3    3    0    0  0.45446078486E+02  0.69912396446E+01 -0.11058736708E+02  0.47291850665E+02  0.51100000000E-03 0.  1.
         22    1    1    0    0    0 -0.92487773865E+01  0.25947574259E+02  0.83415159253E+01  0.28781893284E+02  0.00000000000E+00 0.  1.
</event>
<event>
 5    1  0.1043455E-009  0.9118800E+02  0.7561462E-02  0.1125453E+00
         25   -1    0    0    0    0  0.00000000000E+00  0.00000000000E+00  0.99999998245E-14  0.12509000000E+03  0.12509000000E+03 0.  0.
        -11    1    3    3    0    0 -0.11693633856E+02  0.47600358793E+02  0.20824163151E+02  0.53255807206E+02  0.51100000000E-03 0.  1.
         23    2    1    0    0    0 -0.29698907749E+01  0.66018702624E+01  0.28339474808E+02  0.95840542320E+02  0.91268169575E+02 0.  0.
         11    1    3    3    0    0  0.87237430813E+01 -0.40998488531E+02  0.75153116570E+01  0.42584735114E+02  0.51100000000E-03 0. -1.
         22    1    1    0    0    0  0.29698907749E+01 -0.66018702624E+01 -0.28339474808E+02  0.29249457680E+02  0.00000000000E+00 0.  1.
</event>
<event>
 5    1  0.1043455E-009  0.9118800E+02  0.7561462E-02  0.1125453E+00
         25   -1    0    0    0    0  0.00000000000E+00  0.00000000000E+00  0.99999998245E-14  0.12509000000E+03  0.12509000000E+03 0.  0.
        -11    1    3    3    0    0 -0.56271756664E+02 -0.15009490502E+02  0.69479581427E+01  0.58652105894E+02  0.51100000000E-03 0.  1.
         23    2    1    0    0    0 -0.16062504276E+02 -0.19490445102E+02 -0.68685872711E+00  0.99824346064E+02  0.96574048265E+02 0.  0.
         11    1    3    3    0    0  0.40209252388E+02 -0.44809546004E+01 -0.76348168698E+01  0.41172240170E+02  0.51100000000E-03 0. -1.
         22    1    1    0    0    0  0.16062504276E+02  0.19490445102E+02  0.68685872711E+00  0.25265653936E+02  0.00000000000E+00 0.  1.
</event>
<event>
 5    1  0.1043455E-009  0.9118800E+02  0.7561462E-02  0.1125453E+00
         25   -1    0    0    0    0  0.00000000000E+00  0.00000000000E+00  0.99999998245E-14  0.12509000000E+03  0.12509000000E+03 0.  0.
        -11    1    3    3    0    0  0.10425474334E+02  0.26783113252E+02  0.53606616930E+02  0.60825118574E+02  0.51100000000E-03 0. -1.
         23    2    1    0    0    0  0.12556301050E+02  0.56003735528E+01  0.25905333213E+02  0.95762348051E+02  0.91160935358E+02 0.  0.
         11    1    3    3    0    0  0.21308267159E+01 -0.21182739699E+02 -0.27701283718E+02  0.34937229477E+02  0.51100000000E-03 0.  1.
         22    1    1    0    0    0 -0.12556301050E+02 -0.56003735528E+01 -0.25905333213E+02  0.29327651949E+02  0.00000000000E+00 0. -1.
</event>
<event>
 5    1  0.1043455E-009  0.9118800E+02  0.7561462E-02  0.1125453E+00
         25   -1    0    0    0    0  0.00000000000E+00  0.00000000000E+00  0.99999998245E-14  0.12509000000E+03  0.12509000000E+03 0.  0.
        -11    1    3    3    0    0  0.16167548385E+02 -0.32862602430E+02  0.42273869149E+02  0.55932282918E+02  0.51100000000E-03 0.  1.
         23    2    1    0    0    0 -0.12297998939E+02 -0.97247268288E+01  0.22674395211E+02  0.97523003646E+02  0.93545694461E+02 0.  0.
         11    1    3    3    0    0 -0.28465547324E+02  0.23137875602E+02 -0.19599473938E+02  0.41590720728E+02  0.51100000000E-03 0. -1.
         22    1    1    0    0    0  0.12297998939E+02  0.97247268288E+01 -0.22674395211E+02  0.27566996354E+02  0.00000000000E+00 0.  1.
</event>
<event>
 5    1  0.1043455E-009  0.9118800E+02  0.7561462E-02  0.1125453E+00
         25   -1    0    0    0    0  0.00000000000E+00  0.00000000000E+00  0.99999998245E-14  0.12509000000E+03  0.12509000000E+03 0.  0.
        -11    1    3    3    0    0 -0.30075603969E+02 -0.32356860526E+02 -0.19641228569E+02  0.48345488282E+02  0.51100000000E-03 0.  1.
         23    2    1    0    0    0 -0.89085628632E+01 -0.18190526771E+02  0.20747682067E+02  0.96094757845E+02  0.91615928842E+02 0.  0.
         11    1    3    3    0    0  0.21167041106E+02  0.14166333756E+02  0.40388910635E+02  0.47749269563E+02  0.51100000000E-03 0. -1.
         22    1    1    0    0    0  0.89085628632E+01  0.18190526771E+02 -0.20747682067E+02  0.28995242155E+02  0.00000000000E+00 0. -1.
</event>
<event>
 5    1  0.1043455E-009  0.9118800E+02  0.7561462E-02  0.1125453E+00
         25   -1    0    0    0    0  0.00000000000E+00  0.00000000000E+00  0.99999998245E-14  0.12509000000E+03  0.12509000000E+03 0.  0.
        -11    1    3    3    0    0 -0.28416335209E+02  0.23129294623E+02 -0.28285856628E+00  0.36640583861E+02  0.51100000000E-03 0.  1.
         23    2    1    0    0    0  0.22553134540E+02 -0.16012885908E+01 -0.18206831994E+02  0.96060760706E+02  0.91569498270E+02 0.  0.
         11    1    3    3    0    0  0.50969469749E+02 -0.24730583214E+02 -0.17923973427E+02  0.59420176845E+02  0.51100000000E-03 0. -1.
         22    1    1    0    0    0 -0.22553134540E+02  0.16012885908E+01  0.18206831994E+02  0.29029239294E+02  0.00000000000E+00 0. -1.
</event>
<event>
 5    1  0.1043455E-009  0.9118800E+02  0.7561462E-02  0.1125453E+00
         25   -1    0    0    0    0  0.00000000000E+00  0.00000000000E+00  0.99999998245E-14  0.12509000000E+03  0.12509000000E+03 0.  0.
        -11    1    3    3    0    0 -0.16565438786E+02 -0.21769400481E+02  0.20458351075E+02  0.34159401173E+02  0.51100000000E-03 0. -1.
         23    2    1    0    0    0  0.20669066376E+02  0.49710713712E+01 -0.20444165571E+02  0.95596174183E+02  0.90932627571E+02 0.  0.
         11    1    3    3    0    0  0.37234505162E+02  0.26740471852E+02 -0.40902516647E+02  0.61436773010E+02  0.51100000000E-03 0.  1.
         22    1    1    0    0    0 -0.20669066376E+02 -0.49710713712E+01  0.20444165571E+02  0.29493825817E+02  0.00000000000E+00 0.  1.
</event>
<event>
 5    1  0.1043455E-009  0.9118800E+02  0.7561462E-02  0.1125453E+00
         25   -1    0    0    0    0  0.00000000000E+00  0.00000000000E+00  0.99999998245E-14  0.12509000000E+03  0.12509000000E+03 0.  0.
        -11    1    3    3    0    0 -0.25048869348E+02  0.26095402322E+02 -0.35213525871E+02  0.50481761880E+02  0.51100000000E-03 0. -1.
         23    2    1    0    0    0 -0.21923724720E+02  0.18778379799E+02  0.85667053492E+01  0.94979110043E+02  0.90079773815E+02 0.  0.
         11    1    3    3    0    0  0.31251446283E+01 -0.73170225233E+01  0.43780231221E+02  0.44497348163E+02  0.51100000000E-03 0.  1.
         22    1    1    0    0    0  0.21923724720E+02 -0.18778379799E+02 -0.85667053492E+01  0.30110889957E+02  0.00000000000E+00 0. -1.
</event>
<event>
 5    1  0.1043455E-009  0.9118800E+02  0.7561462E-02  0.1125453E+00
         25   -1    0    0    0    0  0.00000000000E+00  0.00000000000E+00  0.99999998245E-14  0.12509000000E+03  0.12509000000E+03 0.  0.
        -11    1    3    3    0    0 -0.75713296372E+01  0.48900866925E+02  0.37007910994E+02  0.61791628032E+02  0.51100000000E-03 0. -1.
         23    2    1    0    0    0 -0.31249293779E+01  0.26351063839E+02  0.11377733331E+02  0.96217927598E+02  0.91783947542E+02 0.  0.
         11    1    3    3    0    0  0.44464002593E+01 -0.22549803086E+02 -0.25630177662E+02  0.34426299565E+02  0.51100000000E-03 0.  1.
         22    1    1    0    0    0  0.31249293779E+01 -0.26351063839E+02 -0.11377733331E+02  0.28872072402E+02  0.00000000000E+00 0. -1.
</event>
<event>
 5    1  0.1043455E-009  0.9118800E+02  0.7561462E-02  0.1125453E+00
         25   -1    0    0    0    0  0.00000000000E+00  0.00000000000E+00  0.99999998245E-14  0.12509000000E+03  0.12509000000E+03 0.  0.
        -11    1    3    3    0    0 -0.28030214646E+02 -0.41530176089E+02 -0.27630916447E+01  0.50180505525E+02  0.51100000000E-03 0.  1.
         23    2    1    0    0    0 -0.23693805137E+02  0.20559826882E+01 -0.16567237323E+02  0.96105576266E+02  0.91630698842E+02 0.  0.
         11    1    3    3    0    0  0.43364095085E+01  0.43586158777E+02 -0.13804145678E+02  0.45925070741E+02  0.51100000000E-03 0. -1.
         22    1    1    0    0    0  0.23693805137E+02 -0.20559826882E+01  0.16567237323E+02  0.28984423734E+02  0.00000000000E+00 0. -1.
</event>
<event>
 5    1  0.1043455E-009  0.9118800E+02  0.7561462E-02  0.1125453E+00
         25   -1    0    0    0    0  0.00000000000E+00  0.00000000000E+00  0.99999998245E-14  0.12509000000E+03  0.12509000000E+03 0.  0.
        -11    1    3    3    0    0  0.51503838358E+01  0.15242422747E+02 -0.34543091247E+02  0.38106207605E+02  0.51100000000E-03 0. -1.
         23    2    1    0    0    0  0.97411851126E+01 -0.27353709895E+02  0.40549719750E+01  0.95771764546E+02  0.91173855650E+02 0.  0.
         11    1    3    3    0    0  0.45908012767E+01 -0.42596132643E+02  0.38598063222E+02  0.57665556940E+02  0.51100000000E-03 0.  1.
         22    1    1    0    0    0 -0.97411851126E+01  0.27353709895E+02 -0.40549719750E+01  0.29318235454E+02  0.00000000000E+00 0.  1.
</event>
<event>
 5    1  0.1043455E-009  0.9118800E+02  0.7561462E-02  0.1125453E+00
         25   -1    0    0    0    0  0.00000000000E+00  0.00000000000E+00  0.99999998245E-14  0.12509000000E+03  0.12509000000E+03 0.  0.
        -11    1    3    3    0    0  0.33826040961E+01 -0.21515329765E+02 -0.46526562550E+02  0.51371903297E+02  0.51100000000E-03 0. -1.
         23    2    1    0    0    0  0.88338515340E+01  0.15489314775E+02 -0.24528112892E+02  0.94765354460E+02  0.89782449725E+02 0.  0.
         11    1    3    3    0    0  0.54512474380E+01  0.37004644540E+02  0.21998449659E+02  0.43393451162E+02  0.51100000000E-03 0.  1.
         22    1    1    0    0    0 -0.88338515340E+01 -0.15489314775E+02  0.24528112892E+02  0.30324645540E+02  0.00000000000E+00 0. -1.
</event>
<event>
 5    1  0.1043455E-009  0.9118800E+02  0.7561462E-02  0.1125453E+00
         25   -1    0    0    0    0  0.00000000000E+00  0.00000000000E+00  0.99999998245E-14  0.12509000000E+03  0.12509000000E+03 0.  0.
        -11    1    3    3    0    0  0.29632106959E+02  0.40188838222E+02  0.10401715911E+02  0.51003923130E+02  0.51100000000E-03 0. -1.
         23    2    1    0    0    0 -0.69288892479E+00  0.12332800571E+02  0.26998436314E+02  0.95400041624E+02  0.90662419522E+02 0.  0.
         11    1    3    3    0    0 -0.30324995884E+02 -0.27856037651E+02  0.16596720402E+02  0.44396118494E+02  0.51100000000E-03 0.  1.
         22    1    1    0    0    0  0.69288892479E+00 -0.12332800571E+02 -0.26998436314E+02  0.29689958376E+02  0.00000000000E+00 0. -1.
</event>
<event>
 5    1  0.1043455E-009  0.9118800E+02  0.7561462E-02  0.1125453E+00
         25   -1    0    0    0    0  0.00000000000E+00  0.00000000000E+00  0.99999998245E-14  0.12509000000E+03  0.12509000000E+03 0.  0.
        -11    1    3    3    0    0  0.15094206240E+02 -0.25486727054E+02  0.45881093133E+02  0.54612114272E+02  0.51100000000E-03 0.  1.
         23    2    1    0    0    0 -0.98634092896E+01 -0.22185500112E+02  0.91472334312E+01  0.99144766575E+02  0.95689757036E+02 0.  0.
         11    1    3    3    0    0 -0.24957615530E+02  0.33012269421E+01 -0.36733859702E+02  0.44532652303E+02  0.51100000000E-03 0. -1.
         22    1    1    0    0    0  0.98634092896E+01  0.22185500112E+02 -0.91472334312E+01  0.25945233425E+02  0.00000000000E+00 0.  1.
</event>
<event>
 5    1  0.1043455E-009  0.9118800E+02  0.7561462E-02  0.1125453E+00
         25   -1    0    0    0    0  0.00000000000E+00  0.00000000000E+00  0.99999998245E-14  0.12509000000E+03  0.12509000000E+03 0.  0.
        -11    1    3    3    0    0 -0.44830060400E+02  0.21324709272E+02 -0.32090681913E+02  0.59112514808E+02  0.51100000000E-03 0.  1.
         23    2    1    0    0    0 -0.17864022339E+02  0.89060417385E+01  0.28099427862E+01  0.10493220617E+03  0.10297781916E+03 0.  0.
         11    1    3    3    0    0  0.26966038061E+02 -0.12418667533E+02  0.34900624699E+02  0.45819691364E+02  0.51100000000E-03 0. -1.
         22    1    1    0    0    0  0.17864022339E+02 -0.89060417385E+01 -0.28099427862E+01  0.20157793829E+02  0.00000000000E+00 0.  1.
</event>
<event>
 5    1  0.1043455E-009  0.9118800E+02  0.7561462E-02  0.1125453E+00
         25   -1    0    0    0    0  0.00000000000E+00  0.00000000000E+00  0.99999998245E-14  0.12509000000E+03  0.12509000000E+03 0.  0.
        -11    1    3    3    0    0  0.32165416095E+01  0.29880007311E+02 -0.38975781706E+02  0.49216588024E+02  0.51100000000E-03 0.  1.
         23    2    1    0    0    0 -0.16361764710E+02 -0.93506359905E+01 -0.21718559346E+02  0.96335216782E+02  0.91943659023E+02 0.  0.
         11    1    3    3    0    0 -0.19578306320E+02 -0.39230643302E+02  0.17257222360E+02  0.47118628758E+02  0.51100000000E-03 0. -1.
         22    1    1    0    0    0  0.16361764710E+02  0.93506359905E+01  0.21718559346E+02  0.28754783218E+02  0.00000000000E+00 0.  1.
</event>
<event>
 5    1  0.1043455E-009  0.9118800E+02  0.7561462E-02  0.1125453E+00
         25   -1    0    0    0    0  0.00000000000E+00  0.00000000000E+00  0.99999998245E-14  0.12509000000E+03  0.12509000000E+03 0.  0.
        -11    1    3    3    0    0  0.30583056847E+02 -0.33431295510E+02 -0.41232670622E+02  0.61262615129E+02  0.51100000000E-03 0. -1.
         23    2    1    0    0    0  0.17074743490E+01 -0.10619429457E+02 -0.15727155139E+02  0.10603662341E+03  0.10431075853E+03 0.  0.
         11    1    3    3    0    0 -0.28875582498E+02  0.22811866053E+02  0.25505515483E+02  0.44774008283E+02  0.51100000000E-03 0.  1.
         22    1    1    0    0    0 -0.17074743490E+01  0.10619429457E+02  0.15727155139E+02  0.19053376588E+02  0.00000000000E+00 0. -1.
</event>
<event>
 5    1  0.1043455E-009  0.9118800E+02  0.7561462E-02  0.1125453E+00
         25   -1    0    0    0    0  0.00000000000E+00  0.00000000000E+00  0.99999998245E-14  0.12509000000E+03  0.12509000000E+03 0.  0.
        -11    1    3    3    0    0 -0.57121615169E+02  0.11507288775E+02 -0.19675183317E+02  0.61501296355E+02  0.51100000000E-03 0. -1.
         23    2    1    0    0    0 -0.69201513704E+01 -0.38611847765E+01 -0.33965597847E+01  0.11646829128E+03  0.11614873660E+03 0.  0.
         11    1    3    3    0    0  0.50201463799E+02 -0.15368473551E+02  0.16278623533E+02  0.54966994926E+02  0.51100000000E-03 0.  1.
         22    1    1    0    0    0  0.69201513704E+01  0.38611847765E+01  0.33965597847E+01  0.86217087192E+01  0.00000000000E+00 0. -1.
</event>
<event>
 5    1  0.1043455E-009  0.9118800E+02  0.7561462E-02  0.1125453E+00
         25   -1    0    0    0    0  0.00000000000E+00  0.00000000000E+00  0.99999998245E-14  0.12509000000E+03  0.12509000000E+03 0.  0.
        -11    1    3    3    0    0 -0.89927503763E+01 -0.13394576005E+02 -0.47324516299E+02  0.49998940678E+02  0.51100000000E-03 0.  1.
         23    2    1    0    0    0  0.71981580576E+01  0.19957565424E+02 -0.17930791908E+02  0.97311749596E+02  0.93262776143E+02 0.  0.
         11    1    3    3    0    0  0.16190908434E+02  0.33352141429E+02  0.29393724391E+02  0.47312808918E+02  0.51100000000E-03 0. -1.
         22    1    1    0    0    0 -0.71981580576E+01 -0.19957565424E+02  0.17930791908E+02  0.27778250404E+02  0.00000000000E+00 0. -1.
</event>
<event>
 5    1  0.1043455E-009  0.9118800E+02  0.7561462E-02  0.1125453E+00
         25   -1    0    0    0    0  0.00000000000E+00  0.00000000000E+00  0.99999998245E-14  0.12509000000E+03  0.12509000000E+03 0.  0.
        -11    1    3    3    0    0  0.28162240937E+02 -0.41645866028E+02 -0.35984495516E+02  0.61825349895E+02  0.51100000000E-03 0.  1.
         23    2    1    0    0    0  0.10914993655E+02 -0.24005323143E+02 -0.12422570313E+02  0.95940165028E+02  0.91404608126E+02 0.  0.
         11    1    3    3    0    0 -0.17247247282E+02  0.17640542885E+02  0.23561925203E+02  0.34114815133E+02  0.51100000000E-03 0. -1.
         22    1    1    0    0    0 -0.10914993655E+02  0.24005323143E+02  0.12422570313E+02  0.29149834972E+02  0.00000000000E+00 0.  1.
</event>
<event>
 5    1  0.1043455E-009  0.9118800E+02  0.7561462E-02  0.1125453E+00
         25   -1    0    0    0    0  0.00000000000E+00  0.00000000000E+00  0.99999998245E-14  0.12509000000E+03  0.12509000000E+03 0.  0.
        -11    1    3    3    0    0 -0.19804468142E+02 -0.20763834482E+02 -0.45535176354E+02  0.53821984974E+02  0.51100000000E-03 0. -1.
         23    2    1    0    0    0  0.90610050463E+00  0.61427328565E+01 -0.35246405708E+02  0.89300849404E+02  0.81815514445E+02 0.  0.
         11    1    3    3    0    0  0.20710568646E+02  0.26906567338E+02  0.10288770646E+02  0.35478864430E+02  0.51100000000E-03 0.  1.
         22    1    1    0    0    0 -0.90610050463E+00 -0.61427328565E+01  0.35246405708E+02  0.35789150596E+02  0.00000000000E+00 0. -1.
</event>
<event>
 5    1  0.1043455E-009  0.9118800E+02  0.7561462E-02  0.1125453E+00
         25   -1    0    0    0    0  0.00000000000E+00  0.00000000000E+00  0.99999998245E-14  0.12509000000E+03  0.12509000000E+03 0.  0.
        -11    1    3    3    0    0 -0.10111407023E+02 -0.51586492717E+02  0.30442486380E+02  0.60746619331E+02  0.51100000000E-03 0.  1.
         23    2    1    0    0    0 -0.65195684695E+01 -0.26649164878E+02  0.38378997005E+01  0.97387793665E+02  0.93364715600E+02 0.  0.
         11    1    3    3    0    0  0.35918385536E+01  0.24937327839E+02 -0.26604586680E+02  0.36641174335E+02  0.51100000000E-03 0. -1.
         22    1    1    0    0    0  0.65195684695E+01  0.26649164878E+02 -0.38378997005E+01  0.27702206335E+02  0.00000000000E+00 0.  1.
</event>
<event>
 5    1  0.1043455E-009  0.9118800E+02  0.7561462E-02  0.1125453E+00
         25   -1    0    0    0    0  0.00000000000E+00  0.00000000000E+00  0.99999998245E-14  0.12509000000E+03  0.12509000000E+03 0.  0.
        -11    1    3    3    0    0  0.41721787209E+02  0.23662138320E+02  0.19346474230E+02  0.51719342447E+02  0.51100000000E-03 0.  1.
         23    2    1    0    0    0  0.16860946973E+02 -0.16251649048E+02  0.98123973625E+01  0.99699238459E+02  0.96411863263E+02 0.  0.
         11    1    3    3    0    0 -0.24860840237E+02 -0.39913787368E+02 -0.95340768677E+01  0.47979896012E+02  0.51100000000E-03 0. -1.
         22    1    1    0    0    0 -0.16860946973E+02  0.16251649048E+02 -0.98123973625E+01  0.25390761541E+02  0.00000000000E+00 0. -1.
</event>
<event>
 5    1  0.1043455E-009  0.9118800E+02  0.7561462E-02  0.1125453E+00
         25   -1    0    0    0    0  0.00000000000E+00  0.00000000000E+00  0.99999998245E-14  0.12509000000E+03  0.12509000000E+03 0.  0.
        -11    1    3    3    0    0 -0.69899604224E+00 -0.42115320630E+01  0.61634166317E+02  0.61781842443E+02  0.51100000000E-03 0.  1.
         23    2    1    0    0    0 -0.44376675232E+01  0.35841704378E+01  0.28446213185E+02  0.96077481747E+02  0.91592337472E+02 0.  0.
         11    1    3    3    0    0 -0.37386714810E+01  0.77957025008E+01 -0.33187953132E+02  0.34295639304E+02  0.51100000000E-03 0. -1.
         22    1    1    0    0    0  0.44376675232E+01 -0.35841704378E+01 -0.28446213185E+02  0.29012518253E+02  0.00000000000E+00 0.  1.
</event>
<event>
 5    1  0.1043455E-009  0.9118800E+02  0.7561462E-02  0.1125453E+00
         25   -1    0    0    0    0  0.00000000000E+00  0.00000000000E+00  0.99999998245E-14  0.12509000000E+03  0.12509000000E+03 0.  0.
        -11    1    3    3    0    0 -0.25794199020E+02 -0.27581334259E+02  0.24109452069E+02  0.44803307711E+02  0.51100000000E-03 0. -1.
         23    2    1    0    0    0 -0.55502654164E+01  0.18443672589E+02  0.22992590506E+02  0.95096105239E+02  0.90242093884E+02 0.  0.
         11    1    3    3    0    0  0.20243933603E+02  0.46025006848E+02 -0.11168615627E+01  0.50292797527E+02  0.51100000000E-03 0.  1.
         22    1    1    0    0    0  0.55502654164E+01 -0.18443672589E+02 -0.22992590506E+02  0.29993894761E+02  0.00000000000E+00 0. -1.
</event>
<event>
 5    1  0.1043455E-009  0.9118800E+02  0.7561462E-02  0.1125453E+00
         25   -1    0    0    0    0  0.00000000000E+00  0.00000000000E+00  0.99999998245E-14  0.12509000000E+03  0.12509000000E+03 0.  0.
        -11    1    3    3    0    0  0.45036922171E+02 -0.29342653628E+02 -0.14105059021E+02  0.55572190624E+02  0.51100000000E-03 0. -1.
         23    2    1    0    0    0  0.29631236234E+02 -0.55382263515E+01  0.10555994640E+02  0.93150821321E+02  0.87504082065E+02 0.  0.
         11    1    3    3    0    0 -0.15405685937E+02  0.23804427277E+02  0.24661053660E+02  0.37578630697E+02  0.51100000000E-03 0.  1.
         22    1    1    0    0    0 -0.29631236234E+02  0.55382263515E+01 -0.10555994640E+02  0.31939178679E+02  0.00000000000E+00 0. -1.
</event>
<event>
 5    1  0.1043455E-009  0.9118800E+02  0.7561462E-02  0.1125453E+00
         25   -1    0    0    0    0  0.00000000000E+00  0.00000000000E+00  0.99999998245E-14  0.12509000000E+03  0.12509000000E+03 0.  0.
        -11    1    3    3    0    0 -0.21827737462E+02 -0.30619363896E+02 -0.19766279157E+01  0.37655047820E+02  0.51100000000E-03 0. -1.
         23    2    1    0    0    0  0.26278922769E+02  0.58864121113E+01  0.12493994823E+01  0.98130908240E+02  0.94355087428E+02 0.  0.
         11    1    3    3    0    0  0.48106660231E+02  0.36505776008E+02  0.32260273980E+01  0.60475860420E+02  0.51100000000E-03 0.  1.
         22    1    1    0    0    0 -0.26278922769E+02 -0.58864121113E+01 -0.12493994823E+01  0.26959091760E+02  0.00000000000E+00 0.  1.
</event>
<event>
 5    1  0.1043455E-009  0.9118800E+02  0.7561462E-02  0.1125453E+00
         25   -1    0    0    0    0  0.00000000000E+00  0.00000000000E+00  0.99999998245E-14  0.12509000000E+03  0.12509000000E+03 0.  0.
        -11    1    3    3    0    0  0.15628789820E+01  0.22141865801E+02  0.26448408767E+02  0.34528584368E+02  0.51100000000E-03 0.  1.
         23    2    1    0    0    0 -0.81681410533E+01 -0.21793331075E+02 -0.16362926193E+02  0.96639812634E+02  0.92357134130E+02 0.  0.
         11    1    3    3    0    0 -0.97310200353E+01 -0.43935196875E+02 -0.42811334960E+02  0.62111228266E+02  0.51100000000E-03 0. -1.
         22    1    1    0    0    0  0.81681410533E+01  0.21793331075E+02  0.16362926193E+02  0.28450187366E+02  0.00000000000E+00 0. -1.
</event>
<event>
 5    1  0.1043455E-009  0.9118800E+02  0.7561462E-02  0.1125453E+00
         25   -1    0    0    0    0  0.00000000000E+00  0.00000000000E+00  0.99999998245E-14  0.12509000000E+03  0.12509000000E+03 0.  0.
        -11    1    3    3    0    0  0.14079600805E+02 -0.62546154824E+01  0.27225347723E+02  0.31282182350E+02  0.51100000000E-03 0. -1.
         23    2    1    0    0    0 -0.23041409653E+02 -0.88176457686E+01 -0.21344733731E+02  0.92467077173E+02  0.86521126132E+02 0.  0.
         11    1    3    3    0    0 -0.37121010459E+02 -0.25630302862E+01 -0.48570081455E+02  0.61184894823E+02  0.51100000000E-03 0.  1.
         22    1    1    0    0    0  0.23041409653E+02  0.88176457686E+01  0.21344733731E+02  0.32622922827E+02  0.00000000000E+00 0.  1.
</event>
<event>
 5    1  0.1043455E-009  0.9118800E+02  0.7561462E-02  0.1125453E+00
         25   -1    0    0    0    0  0.00000000000E+00  0.00000000000E+00  0.99999998245E-14  0.12509000000E+03  0.12509000000E+03 0.  0.
        -11    1    3    3    0    0 -0.16610445061E+02 -0.27653858430E+02 -0.50181264605E+02  0.59655696197E+02  0.51100000000E-03 0.  1.
         23    2    1    0    0    0  0.48591250778E+01 -0.17529401749E+02 -0.23605741330E+02  0.95288623423E+02  0.90508561517E+02 0.  0.
         11    1    3    3    0    0  0.21469570139E+02  0.10124456681E+02  0.26575523275E+02  0.35632927225E+02  0.51100000000E-03 0. -1.
         22    1    1    0    0    0 -0.48591250778E+01  0.17529401749E+02  0.23605741330E+02  0.29801376577E+02  0.00000000000E+00 0.  1.
</event>
<event>
 5    1  0.1043455E-009  0.9118800E+02  0.7561462E-02  0.1125453E+00
         25   -1    0    0    0    0  0.00000000000E+00  0.00000000000E+00  0.99999998245E-14  0.12509000000E+03  0.12509000000E+03 0.  0.
        -11    1    3    3    0    0 -0.25504933986E+02 -0.23515254035E+02  0.43678350929E+02  0.55778734031E+02  0.51100000000E-03 0. -1.
         23    2    1    0    0    0 -0.26213420912E+02 -0.83064880632E+01  0.52742849055E+01  0.97090727490E+02  0.92965854502E+02 0.  0.
         11    1    3    3    0    0 -0.70848692630E+00  0.15208765972E+02 -0.38404066024E+02  0.41311993459E+02  0.51100000000E-03 0.  1.
         22    1    1    0    0    0  0.26213420912E+02  0.83064880632E+01 -0.52742849055E+01  0.27999272510E+02  0.00000000000E+00 0. -1.
</event>
<event>
 5    1  0.1043455E-009  0.9118800E+02  0.7561462E-02  0.1125453E+00
         25   -1    0    0    0    0  0.00000000000E+00  0.00000000000E+00  0.99999998245E-14  0.12509000000E+03  0.12509000000E+03 0.  0.
        -11    1    3    3    0    0  0.21003597248E+02  0.27656961197E+02  0.36337828944E+02  0.50264265763E+02  0.51100000000E-03 0.  1.
         23    2    1    0    0    0 -0.14185288924E+01 -0.10159809887E+02  0.28340502591E+02  0.94950025742E+02  0.90039376609E+02 0.  0.
         11    1    3    3    0    0 -0.22422126140E+02 -0.37816771084E+02 -0.79973263533E+01  0.44685759979E+02  0.51100000000E-03 0. -1.
         22    1    1    0    0    0  0.14185288924E+01  0.10159809887E+02 -0.28340502591E+02  0.30139974258E+02  0.00000000000E+00 0.  1.
</event>
<event>
 5    1  0.1043455E-009  0.9118800E+02  0.7561462E-02  0.1125453E+00
         25   -1    0    0    0    0  0.00000000000E+00  0.00000000000E+00  0.99999998245E-14  0.12509000000E+03  0.12509000000E+03 0.  0.
        -11    1    3    3    0    0 -0.54565705922E+01 -0.32190863799E+02 -0.47340728866E+02  0.57508003657E+02  0.51100000000E-03 0. -1.
         23    2    1    0    0    0  0.18185379785E+01  0.49768285821E+00 -0.29646683413E+02  0.95383424870E+02  0.90639489925E+02 0.  0.
         11    1    3    3    0    0  0.72751085708E+01  0.32688546657E+02  0.17694045453E+02  0.37875421213E+02  0.51100000000E-03 0.  1.
         22    1    1    0    0    0 -0.18185379785E+01 -0.49768285821E+00  0.29646683413E+02  0.29706575130E+02  0.00000000000E+00 0. -1.
</event>
<event>
 5    1  0.1043455E-009  0.9118800E+02  0.7561462E-02  0.1125453E+00
         25   -1    0    0    0    0  0.00000000000E+00  0.00000000000E+00  0.99999998245E-14  0.12509000000E+03  0.12509000000E+03 0.  0.
        -11    1    3    3    0    0  0.44099915250E+02  0.22064137125E+02  0.12008570917E+02  0.50752679219E+02  0.51100000000E-03 0.  1.
         23    2    1    0    0    0  0.24313128128E+02 -0.31665531630E+01 -0.18003851130E+02  0.94671355819E+02  0.89651389833E+02 0.  0.
         11    1    3    3    0    0 -0.19786787123E+02 -0.25230690288E+02 -0.30012422046E+02  0.43918676601E+02  0.51100000000E-03 0. -1.
         22    1    1    0    0    0 -0.24313128128E+02  0.31665531630E+01  0.18003851130E+02  0.30418644181E+02  0.00000000000E+00 0. -1.
</event>
<event>
 5    1  0.1043455E-009  0.9118800E+02  0.7561462E-02  0.1125453E+00
         25   -1    0    0    0    0  0.00000000000E+00  0.00000000000E+00  0.99999998245E-14  0.12509000000E+03  0.12509000000E+03 0.  0.
        -11    1    3    3    0    0 -0.48972932825E+02  0.74443338401E+01  0.21090700840E+02  0.53838498474E+02  0.51100000000E-03 0.  1.
         23    2    1    0    0    0 -0.71148921765E+01  0.22061478928E+02  0.11555236999E+02  0.99189149719E+02  0.95747759121E+02 0.  0.
         11    1    3    3    0    0  0.41858040648E+02  0.14617145088E+02 -0.95354638409E+01  0.45350651245E+02  0.51100000000E-03 0. -1.
         22    1    1    0    0    0  0.71148921765E+01 -0.22061478928E+02 -0.11555236999E+02  0.25900850281E+02  0.00000000000E+00 0.  1.
</event>
<event>
 5    1  0.1043455E-009  0.9118800E+02  0.7561462E-02  0.1125453E+00
         25   -1    0    0    0    0  0.00000000000E+00  0.00000000000E+00  0.99999998245E-14  0.12509000000E+03  0.12509000000E+03 0.  0.
        -11    1    3    3    0    0  0.32021636452E+01 -0.40051609420E+02  0.38589574734E+01  0.40364301334E+02  0.51100000000E-03 0. -1.
         23    2    1    0    0    0 -0.16146034836E+01  0.87167887427E+01  0.28519080561E+02  0.95224847959E+02  0.90420375814E+02 0.  0.
         11    1    3    3    0    0 -0.48167671288E+01  0.48768398163E+02  0.24660123088E+02  0.54860546624E+02  0.51100000000E-03 0.  1.
         22    1    1    0    0    0  0.16146034836E+01 -0.87167887427E+01 -0.28519080561E+02  0.29865152041E+02  0.00000000000E+00 0.  1.
</event>
<event>
 5    1  0.1043455E-009  0.9118800E+02  0.7561462E-02  0.1125453E+00
         25   -1    0    0    0    0  0.00000000000E+00  0.00000000000E+00  0.99999998245E-14  0.12509000000E+03  0.12509000000E+03 0.  0.
        -11    1    3    3    0    0 -0.47852167312E+02 -0.35126797653E+02  0.10527748226E+02  0.60287273224E+02  0.51100000000E-03 0. -1.
         23    2    1    0    0    0 -0.28010937596E+02 -0.80963879974E+01 -0.14582002312E+01  0.95895985690E+02  0.91344127342E+02 0.  0.
         11    1    3    3    0    0  0.19841229716E+02  0.27030409656E+02 -0.11985948457E+02  0.35608712466E+02  0.51100000000E-03 0.  1.
         22    1    1    0    0    0  0.28010937596E+02  0.80963879974E+01  0.14582002312E+01  0.29194014310E+02  0.00000000000E+00 0. -1.
</event>
<event>
 5    1  0.1043455E-009  0.9118800E+02  0.7561462E-02  0.1125453E+00
         25   -1    0    0    0    0  0.00000000000E+00  0.00000000000E+00  0.99999998245E-14  0.12509000000E+03  0.12509000000E+03 0.  0.
        -11    1    3    3    0    0 -0.18265526865E+02  0.15940116510E+02 -0.50228498723E+02  0.55772922375E+02  0.51100000000E-03 0.  1.
         23    2    1    0    0    0  0.57062106729E+01 -0.68551896864E+01 -0.28192271022E+02  0.95520444521E+02  0.90828391543E+02 0.  0.
         11    1    3    3    0    0  0.23971737538E+02 -0.22795306196E+02  0.22036227702E+02  0.39747522146E+02  0.51100000000E-03 0. -1.
         22    1    1    0    0    0 -0.57062106729E+01  0.68551896864E+01  0.28192271022E+02  0.29569555479E+02  0.00000000000E+00 0.  1.
</event>
<event>
 5    1  0.1043455E-009  0.9118800E+02  0.7561462E-02  0.1125453E+00
         25   -1    0    0    0    0  0.00000000000E+00  0.00000000000E+00  0.99999998245E-14  0.12509000000E+03  0.12509000000E+03 0.  0.
        -11    1    3    3    0    0 -0.11957771917E+02  0.23477928861E+02  0.50992258677E+02  0.57396967673E+02  0.51100000000E-03 0.  1.
         23    2    1    0    0    0 -0.15891425218E+02 -0.38242785855E+01  0.24468232280E+02  0.95664553647E+02  0.91026644075E+02 0.  0.
         11    1    3    3    0    0 -0.39336533012E+01 -0.27302207446E+02 -0.26524026397E+02  0.38267585974E+02  0.51100000000E-03 0. -1.
         22    1    1    0    0    0  0.15891425218E+02  0.38242785855E+01 -0.24468232280E+02  0.29425446353E+02  0.00000000000E+00 0.  1.
</event>
<event>
 5    1  0.1043455E-009  0.9118800E+02  0.7561462E-02  0.1125453E+00
         25   -1    0    0    0    0  0.00000000000E+00  0.00000000000E+00  0.99999998245E-14  0.12509000000E+03  0.12509000000E+03 0.  0.
        -11    1    3    3    0    0  0.19658777649E+02  0.32628147891E+02 -0.23637722848E+02  0.44830854500E+02  0.51100000000E-03 0.  1.
         23    2    1    0    0    0  0.22655741235E+02 -0.44491349082E+01  0.14275207079E+02  0.97944854034E+02  0.94108105295E+02 0.  0.
         11    1    3    3    0    0  0.29969635867E+01 -0.37077282800E+02  0.37912929928E+02  0.53113999534E+02  0.51100000000E-03 0. -1.
         22    1    1    0    0    0 -0.22655741235E+02  0.44491349082E+01 -0.14275207079E+02  0.27145145966E+02  0.00000000000E+00 0. -1.
</event>
<event>
 5    1  0.1043455E-009  0.9118800E+02  0.7561462E-02  0.1125453E+00
         25   -1    0    0    0    0  0.00000000000E+00  0.00000000000E+00  0.99999998245E-14  0.12509000000E+03  0.12509000000E+03 0.  0.
        -11    1    3    3    0    0  0.12398782549E+02  0.32036494598E+02  0.24062898669E+02  0.41941505545E+02  0.51100000000E-03 0. -1.
         23    2    1    0    0    0  0.99513387029E+01 -0.21095864100E+02  0.18302628267E+02  0.95441208699E+02  0.90719201343E+02 0.  0.
         11    1    3    3    0    0 -0.24474438461E+01 -0.53132358698E+02 -0.57602704019E+01  0.53499703154E+02  0.51100000000E-03 0.  1.
         22    1    1    0    0    0 -0.99513387029E+01  0.21095864100E+02 -0.18302628267E+02  0.29648791301E+02  0.00000000000E+00 0. -1.
</event>
<event>
 5    1  0.1043455E-009  0.9118800E+02  0.7561462E-02  0.1125453E+00
         25   -1    0    0    0    0  0.00000000000E+00  0.00000000000E+00  0.99999998245E-14  0.12509000000E+03  0.12509000000E+03 0.  0.
        -11    1    3    3    0    0 -0.28919671949E+02 -0.60749831279E+01  0.25065674207E+02  0.38749720894E+02  0.51100000000E-03 0.  1.
         23    2    1    0    0    0  0.17935705950E+02 -0.22130227475E+02 -0.42256391689E+01  0.96292560141E+02  0.91885606034E+02 0.  0.
         11    1    3    3    0    0  0.46855377899E+02 -0.16055244347E+02 -0.29291313376E+02  0.57542839247E+02  0.51100000000E-03 0. -1.
         22    1    1    0    0    0 -0.17935705950E+02  0.22130227475E+02  0.42256391689E+01  0.28797439859E+02  0.00000000000E+00 0. -1.
</event>
<event>
 5    1  0.1043455E-009  0.9118800E+02  0.7561462E-02  0.1125453E+00
         25   -1    0    0    0    0  0.00000000000E+00  0.00000000000E+00  0.99999998245E-14  0.12509000000E+03  0.12509000000E+03 0.  0.
        -11    1    3    3    0    0  0.17159176431E+02 -0.54405775057E+02  0.47197904331E+01  0.57242485248E+02  0.51100000000E-03 0.  1.
         23    2    1    0    0    0  0.20879554340E+02 -0.10998434739E+02  0.56696143628E+01  0.10081932050E+03  0.97854327977E+02 0.  0.
         11    1    3    3    0    0  0.37203779089E+01  0.43407340318E+02  0.94982392964E+00  0.43576835257E+02  0.51100000000E-03 0. -1.
         22    1    1    0    0    0 -0.20879554340E+02  0.10998434739E+02 -0.56696143628E+01  0.24270679495E+02  0.00000000000E+00 0.  1.
</event>
<event>
 5    1  0.1043455E-009  0.9118800E+02  0.7561462E-02  0.1125453E+00
         25   -1    0    0    0    0  0.00000000000E+00  0.00000000000E+00  0.99999998245E-14  0.12509000000E+03  0.12509000000E+03 0.  0.
        -11    1    3    3    0    0 -0.43395989255E+02 -0.92725491947E+01  0.15988031154E+02  0.47167883061E+02  0.51100000000E-03 0. -1.
         23    2    1    0    0    0 -0.88961767046E+01 -0.26896494883E+02 -0.11337581349E+02  0.94576000789E+02  0.89518242708E+02 0.  0.
         11    1    3    3    0    0  0.34499812550E+02 -0.17623945689E+02 -0.27325612504E+02  0.47408117729E+02  0.51100000000E-03 0.  1.
         22    1    1    0    0    0  0.88961767046E+01  0.26896494883E+02  0.11337581349E+02  0.30513999211E+02  0.00000000000E+00 0. -1.
</event>
<event>
 5    1  0.1043455E-009  0.9118800E+02  0.7561462E-02  0.1125453E+00
         25   -1    0    0    0    0  0.00000000000E+00  0.00000000000E+00  0.99999998245E-14  0.12509000000E+03  0.12509000000E+03 0.  0.
        -11    1    3    3    0    0 -0.55121138054E+01  0.23159737104E+01 -0.18967299657E+02  0.19887322328E+02  0.51100000000E-03 0.  1.
         23    2    1    0    0    0  0.92250798517E+01  0.40582581510E+01  0.41620834685E+02  0.82266344886E+02  0.70241626288E+02 0.  0.
         11    1    3    3    0    0  0.14737193657E+02  0.17422844406E+01  0.60588134342E+02  0.62379022558E+02  0.51100000000E-03 0. -1.
         22    1    1    0    0    0 -0.92250798517E+01 -0.40582581510E+01 -0.41620834685E+02  0.42823655114E+02  0.00000000000E+00 0. -1.
</event>
<event>
 5    1  0.1043455E-009  0.9118800E+02  0.7561462E-02  0.1125453E+00
         25   -1    0    0    0    0  0.00000000000E+00  0.00000000000E+00  0.99999998245E-14  0.12509000000E+03  0.12509000000E+03 0.  0.
        -11    1    3    3    0    0  0.22727670077E+02 -0.80423026317E+01  0.18628245777E+02  0.30466984750E+02  0.51100000000E-03 0. -1.
         23    2    1    0    0    0 -0.33956999831E+02 -0.83950341384E+01  0.14242785659E+02  0.87322138279E+02  0.78732105615E+02 0.  0.
         11    1    3    3    0    0 -0.56684669908E+02 -0.35273150668E+00 -0.43854601183E+01  0.56855153529E+02  0.51100000000E-03 0.  1.
         22    1    1    0    0    0  0.33956999831E+02  0.83950341384E+01 -0.14242785659E+02  0.37767861721E+02  0.00000000000E+00 0.  1.
</event>
<event>
 5    1  0.1043455E-009  0.9118800E+02  0.7561462E-02  0.1125453E+00
         25   -1    0    0    0    0  0.00000000000E+00  0.00000000000E+00  0.99999998245E-14  0.12509000000E+03  0.12509000000E+03 0.  0.
        -11    1    3    3    0    0  0.39757453281E+02 -0.28735069793E+02  0.29996347089E+02  0.57499044917E+02  0.51100000000E-03 0.  1.
         23    2    1    0    0    0  0.24288137128E+02  0.29816447851E+01  0.17780970984E+02  0.94841582853E+02  0.89888592703E+02 0.  0.
         11    1    3    3    0    0 -0.15469316154E+02  0.31716714578E+02 -0.12215376105E+02  0.37342537936E+02  0.51100000000E-03 0. -1.
         22    1    1    0    0    0 -0.24288137128E+02 -0.29816447851E+01 -0.17780970984E+02  0.30248417147E+02  0.00000000000E+00 0.  1.
</event>
<event>
 5    1  0.1043455E-009  0.9118800E+02  0.7561462E-02  0.1125453E+00
         25   -1    0    0    0    0  0.00000000000E+00  0.00000000000E+00  0.99999998245E-14  0.12509000000E+03  0.12509000000E+03 0.  0.
        -11    1    3    3    0    0  0.13218473048E+02  0.11841645843E+02 -0.49173065411E+02  0.52277557022E+02  0.51100000000E-03 0. -1.
         23    2    1    0    0    0  0.27338435261E+02 -0.25200308818E+01 -0.10852248358E+02  0.95568619738E+02  0.90894714841E+02 0.  0.
         11    1    3    3    0    0  0.14119962213E+02 -0.14361676725E+02  0.38320817053E+02  0.43291062716E+02  0.51100000000E-03 0.  1.
         22    1    1    0    0    0 -0.27338435261E+02  0.25200308818E+01  0.10852248358E+02  0.29521380262E+02  0.00000000000E+00 0.  1.
</event>
<event>
 5    1  0.1043455E-009  0.9118800E+02  0.7561462E-02  0.1125453E+00
         25   -1    0    0    0    0  0.00000000000E+00  0.00000000000E+00  0.99999998245E-14  0.12509000000E+03  0.12509000000E+03 0.  0.
        -11    1    3    3    0    0 -0.58621730240E+02 -0.55717059759E+01 -0.17020391521E+02  0.61296369318E+02  0.51100000000E-03 0. -1.
         23    2    1    0    0    0 -0.25274544540E+02 -0.22540392036E+01 -0.16519018764E+02  0.94811934088E+02  0.89847323668E+02 0.  0.
         11    1    3    3    0    0  0.33347185700E+02  0.33176667723E+01  0.50137275636E+00  0.33515564770E+02  0.51100000000E-03 0.  1.
         22    1    1    0    0    0  0.25274544540E+02  0.22540392036E+01  0.16519018764E+02  0.30278065912E+02  0.00000000000E+00 0. -1.
</event>
<event>
 5    1  0.1043455E-009  0.9118800E+02  0.7561462E-02  0.1125453E+00
         25   -1    0    0    0    0  0.00000000000E+00  0.00000000000E+00  0.99999998245E-14  0.12509000000E+03  0.12509000000E+03 0.  0.
        -11    1    3    3    0    0  0.64930680897E+01 -0.27549837563E+02 -0.19875705036E+02  0.34586082952E+02  0.51100000000E-03 0.  1.
         23    2    1    0    0    0  0.55982228871E+00  0.82486489690E+01  0.28702290844E+02  0.95220699531E+02  0.90414636585E+02 0.  0.
         11    1    3    3    0    0 -0.59332458010E+01  0.35798486532E+02  0.48577995880E+02  0.60634616580E+02  0.51100000000E-03 0. -1.
         22    1    1    0    0    0 -0.55982228871E+00 -0.82486489690E+01 -0.28702290844E+02  0.29869300469E+02  0.00000000000E+00 0. -1.
</event>
<event>
 5    1  0.1043455E-009  0.9118800E+02  0.7561462E-02  0.1125453E+00
         25   -1    0    0    0    0  0.00000000000E+00  0.00000000000E+00  0.99999998245E-14  0.12509000000E+03  0.12509000000E+03 0.  0.
        -11    1    3    3    0    0 -0.45523990455E+02  0.18639575872E+02 -0.22078489016E+02  0.53919636248E+02  0.51100000000E-03 0. -1.
         23    2    1    0    0    0 -0.21400748553E+02  0.18437495052E+02  0.10927782042E+02  0.94802218920E+02  0.89833796699E+02 0.  0.
         11    1    3    3    0    0  0.24123241902E+02 -0.20208082079E+00  0.33006271058E+02  0.40882582672E+02  0.51100000000E-03 0.  1.
         22    1    1    0    0    0  0.21400748553E+02 -0.18437495052E+02 -0.10927782042E+02  0.30287781080E+02  0.00000000000E+00 0. -1.
</event>
<event>
 5    1  0.1043455E-009  0.9118800E+02  0.7561462E-02  0.1125453E+00
         25   -1    0    0    0    0  0.00000000000E+00  0.00000000000E+00  0.99999998245E-14  0.12509000000E+03  0.12509000000E+03 0.  0.
        -11    1    3    3    0    0  0.26223479200E+01 -0.28150889500E+02  0.18625322020E+02  0.33856342225E+02  0.51100000000E-03 0. -1.
         23    2    1    0    0    0 -0.60329958095E+01  0.25792627668E+02 -0.11463070893E+02  0.96227244158E+02  0.91796643966E+02 0.  0.
         11    1    3    3    0    0 -0.86553437295E+01  0.53943517168E+02 -0.30088392914E+02  0.62370901933E+02  0.51100000000E-03 0.  1.
         22    1    1    0    0    0  0.60329958095E+01 -0.25792627668E+02  0.11463070893E+02  0.28862755842E+02  0.00000000000E+00 0.  1.
</event>
<event>
 5    1  0.1043455E-009  0.9118800E+02  0.7561462E-02  0.1125453E+00
         25   -1    0    0    0    0  0.00000000000E+00  0.00000000000E+00  0.99999998245E-14  0.12509000000E+03  0.12509000000E+03 0.  0.
        -11    1    3    3    0    0  0.22020774818E+02 -0.27621925073E+02  0.27768319934E+01  0.35434390985E+02  0.51100000000E-03 0.  1.
         23    2    1    0    0    0 -0.23211609238E+02  0.13604328323E+02  0.84290706622E+01  0.96895926425E+02  0.92703369804E+02 0.  0.
         11    1    3    3    0    0 -0.45232384056E+02  0.41226253395E+02  0.56522386688E+01  0.61461535440E+02  0.51100000000E-03 0. -1.
         22    1    1    0    0    0  0.23211609238E+02 -0.13604328323E+02 -0.84290706622E+01  0.28194073575E+02  0.00000000000E+00 0. -1.
</event>
<event>
 5    1  0.1043455E-009  0.9118800E+02  0.7561462E-02  0.1125453E+00
         25   -1    0    0    0    0  0.00000000000E+00  0.00000000000E+00  0.99999998245E-14  0.12509000000E+03  0.12509000000E+03 0.  0.
        -11    1    3    3    0    0 -0.26237322746E+01  0.58540614282E+02  0.13880994714E+01  0.58615819639E+02  0.51100000000E-03 0. -1.
         23    2    1    0    0    0  0.12608290474E+02  0.25306435414E+02 -0.66443862161E+01  0.96046368509E+02  0.91549835464E+02 0.  0.
         11    1    3    3    0    0  0.15232022749E+02 -0.33234178869E+02 -0.80324856874E+01  0.37430548869E+02  0.51100000000E-03 0.  1.
         22    1    1    0    0    0 -0.12608290474E+02 -0.25306435414E+02  0.66443862161E+01  0.29043631491E+02  0.00000000000E+00 0. -1.
</event>
<event>
 5    1  0.1043455E-009  0.9118800E+02  0.7561462E-02  0.1125453E+00
         25   -1    0    0    0    0  0.00000000000E+00  0.00000000000E+00  0.99999998245E-14  0.12509000000E+03  0.12509000000E+03 0.  0.
        -11    1    3    3    0    0 -0.18711485890E+02  0.31976237451E+02  0.10586821025E+02  0.38531548703E+02  0.51100000000E-03 0. -1.
         23    2    1    0    0    0  0.22113561808E+02  0.86548133273E+01 -0.19510149603E+02  0.94356283221E+02  0.89210687903E+02 0.  0.
         11    1    3    3    0    0  0.40825047698E+02 -0.23321424124E+02 -0.30096970628E+02  0.55824734518E+02  0.51100000000E-03 0.  1.
         22    1    1    0    0    0 -0.22113561808E+02 -0.86548133273E+01  0.19510149603E+02  0.30733716779E+02  0.00000000000E+00 0.  1.
</event>
<event>
 5    1  0.1043455E-009  0.9118800E+02  0.7561462E-02  0.1125453E+00
         25   -1    0    0    0    0  0.00000000000E+00  0.00000000000E+00  0.99999998245E-14  0.12509000000E+03  0.12509000000E+03 0.  0.
        -11    1    3    3    0    0  0.27954231090E+02  0.32220587163E+02  0.45647657584E+02  0.62476506914E+02  0.51100000000E-03 0.  1.
         23    2    1    0    0    0  0.13535003478E+02  0.15037363613E+02  0.18686185545E+02  0.97549263738E+02  0.93580803064E+02 0.  0.
         11    1    3    3    0    0 -0.14419227612E+02 -0.17183223549E+02 -0.26961472039E+02  0.35072756824E+02  0.51100000000E-03 0. -1.
         22    1    1    0    0    0 -0.13535003478E+02 -0.15037363613E+02 -0.18686185545E+02  0.27540736262E+02  0.00000000000E+00 0.  1.
</event>
<event>
 5    1  0.1043455E-009  0.9118800E+02  0.7561462E-02  0.1125453E+00
         25   -1    0    0    0    0  0.00000000000E+00  0.00000000000E+00  0.99999998245E-14  0.12509000000E+03  0.12509000000E+03 0.  0.
        -11    1    3    3    0    0  0.21000031218E+02  0.37823689081E+02  0.24013574032E+02  0.49480142531E+02  0.51100000000E-03 0. -1.
         23    2    1    0    0    0  0.28217240883E+02 -0.31244853213E+01  0.17461449023E+01  0.96646650802E+02  0.92366395391E+02 0.  0.
         11    1    3    3    0    0  0.72172096648E+01 -0.40948174402E+02 -0.22267429129E+02  0.47166508271E+02  0.51100000000E-03 0.  1.
         22    1    1    0    0    0 -0.28217240883E+02  0.31244853213E+01 -0.17461449023E+01  0.28443349198E+02  0.00000000000E+00 0.  1.
</event>
<event>
 5    1  0.1043455E-009  0.9118800E+02  0.7561462E-02  0.1125453E+00
         25   -1    0    0    0    0  0.00000000000E+00  0.00000000000E+00  0.99999998245E-14  0.12509000000E+03  0.12509000000E+03 0.  0.
        -11    1    3    3    0    0  0.17084083733E+02 -0.25065366695E+02  0.17570400818E+02  0.35055063967E+02  0.51100000000E-03 0.  1.
         23    2    1    0    0    0 -0.14734569535E+02  0.11425669263E+02 -0.21037370798E+02  0.96979069251E+02  0.92815491408E+02 0.  0.
         11    1    3    3    0    0 -0.31818653268E+02  0.36491035958E+02 -0.38607771616E+02  0.61924005284E+02  0.51100000000E-03 0. -1.
         22    1    1    0    0    0  0.14734569535E+02 -0.11425669263E+02  0.21037370798E+02  0.28110930749E+02  0.00000000000E+00 0. -1.
</event>
<event>
 5    1  0.1043455E-009  0.9118800E+02  0.7561462E-02  0.1125453E+00
         25   -1    0    0    0    0  0.00000000000E+00  0.00000000000E+00  0.99999998245E-14  0.12509000000E+03  0.12509000000E+03 0.  0.
        -11    1    3    3    0    0 -0.48080350740E+02  0.80978107541E+01 -0.33062090690E+02  0.58910071358E+02  0.51100000000E-03 0.  1.
         23    2    1    0    0    0 -0.28621208370E+02 -0.49524923486E+01 -0.47535438161E+01  0.95657077484E+02  0.91016369654E+02 0.  0.
         11    1    3    3    0    0  0.19459142370E+02 -0.13050303103E+02  0.28308546874E+02  0.36747006126E+02  0.51100000000E-03 0. -1.
         22    1    1    0    0    0  0.28621208370E+02  0.49524923486E+01  0.47535438161E+01  0.29432922516E+02  0.00000000000E+00 0.  1.
</event>
<event>
 5    1  0.1043455E-009  0.9118800E+02  0.7561462E-02  0.1125453E+00
         25   -1    0    0    0    0  0.00000000000E+00  0.00000000000E+00  0.99999998245E-14  0.12509000000E+03  0.12509000000E+03 0.  0.
        -11    1    3    3    0    0  0.13653697967E+02 -0.33420510694E+02 -0.18566085320E+01  0.36149702609E+02  0.51100000000E-03 0.  1.
         23    2    1    0    0    0  0.21347187464E+00  0.25161103027E+02 -0.12182647510E+02  0.97133899125E+02  0.93023925864E+02 0.  0.
         11    1    3    3    0    0 -0.13440226092E+02  0.58581613721E+02 -0.10326038978E+02  0.60984196517E+02  0.51100000000E-03 0. -1.
         22    1    1    0    0    0 -0.21347187464E+00 -0.25161103027E+02  0.12182647510E+02  0.27956100875E+02  0.00000000000E+00 0. -1.
</event>
<event>
 5    1  0.1043455E-009  0.9118800E+02  0.7561462E-02  0.1125453E+00
         25   -1    0    0    0    0  0.00000000000E+00  0.00000000000E+00  0.99999998245E-14  0.12509000000E+03  0.12509000000E+03 0.  0.
        -11    1    3    3    0    0  0.26021571628E+02  0.32187917889E+02  0.63217705963E+01  0.41870622538E+02  0.51100000000E-03 0.  1.
         23    2    1    0    0    0  0.20213478357E+02 -0.19161214963E+02 -0.90828313241E+01  0.95794357133E+02  0.91204847281E+02 0.  0.
         11    1    3    3    0    0 -0.58080932710E+01 -0.51349132852E+02 -0.15404601920E+02  0.53923734595E+02  0.51100000000E-03 0. -1.
         22    1    1    0    0    0 -0.20213478357E+02  0.19161214963E+02  0.90828313241E+01  0.29295642867E+02  0.00000000000E+00 0. -1.
</event>
<event>
 5    1  0.1043455E-009  0.9118800E+02  0.7561462E-02  0.1125453E+00
         25   -1    0    0    0    0  0.00000000000E+00  0.00000000000E+00  0.99999998245E-14  0.12509000000E+03  0.12509000000E+03 0.  0.
        -11    1    3    3    0    0 -0.49454849758E+02 -0.30516517122E+02  0.13105420689E+02  0.59571738547E+02  0.51100000000E-03 0. -1.
         23    2    1    0    0    0 -0.15829534528E+02 -0.23591054089E+02  0.12863688188E+02  0.93903681361E+02  0.88573782255E+02 0.  0.
         11    1    3    3    0    0  0.33625315230E+02  0.69254630326E+01 -0.24173250051E+00  0.34331942814E+02  0.51100000000E-03 0.  1.
         22    1    1    0    0    0  0.15829534528E+02  0.23591054089E+02 -0.12863688188E+02  0.31186318639E+02  0.00000000000E+00 0. -1.
</event>
<event>
 5    1  0.1043455E-009  0.9118800E+02  0.7561462E-02  0.1125453E+00
         25   -1    0    0    0    0  0.00000000000E+00  0.00000000000E+00  0.99999998245E-14  0.12509000000E+03  0.12509000000E+03 0.  0.
        -11    1    3    3    0    0 -0.20881467746E+01  0.48465084937E+02 -0.35998041866E+02  0.60407647143E+02  0.51100000000E-03 0.  1.
         23    2    1    0    0    0 -0.12443167477E+02  0.21382089055E+02 -0.16117580867E+02  0.95563697112E+02  0.90887940034E+02 0.  0.
         11    1    3    3    0    0 -0.10355020703E+02 -0.27082995882E+02  0.19880460999E+02  0.35156049970E+02  0.51100000000E-03 0. -1.
         22    1    1    0    0    0  0.12443167477E+02 -0.21382089055E+02  0.16117580867E+02  0.29526302888E+02  0.00000000000E+00 0.  1.
</event>
<event>
 5    1  0.1043455E-009  0.9118800E+02  0.7561462E-02  0.1125453E+00
         25   -1    0    0    0    0  0.00000000000E+00  0.00000000000E+00  0.99999998245E-14  0.12509000000E+03  0.12509000000E+03 0.  0.
        -11    1    3    3    0    0  0.33683911917E+02  0.95894030647E+01  0.48436756302E+02  0.59771915935E+02  0.51100000000E-03 0.  1.
         23    2    1    0    0    0  0.48008036587E+01  0.10097622985E+02  0.27367396756E+02  0.95526777731E+02  0.90837113300E+02 0.  0.
         11    1    3    3    0    0 -0.28883108258E+02  0.50821992072E+00 -0.21069359546E+02  0.35754861796E+02  0.51100000000E-03 0. -1.
         22    1    1    0    0    0 -0.48008036587E+01 -0.10097622985E+02 -0.27367396756E+02  0.29563222269E+02  0.00000000000E+00 0.  1.
</event>
<event>
 5    1  0.1043455E-009  0.9118800E+02  0.7561462E-02  0.1125453E+00
         25   -1    0    0    0    0  0.00000000000E+00  0.00000000000E+00  0.99999998245E-14  0.12509000000E+03  0.12509000000E+03 0.  0.
        -11    1    3    3    0    0 -0.18831573277E+02 -0.32168878716E+02 -0.37396740300E+02  0.52801336112E+02  0.51100000000E-03 0.  1.
         23    2    1    0    0    0 -0.14054502303E+01  0.54450372219E+01 -0.29572245639E+02  0.94987816809E+02  0.90091863724E+02 0.  0.
         11    1    3    3    0    0  0.17426123047E+02  0.37613915938E+02  0.78244946609E+01  0.42186480697E+02  0.51100000000E-03 0. -1.
         22    1    1    0    0    0  0.14054502303E+01 -0.54450372219E+01  0.29572245639E+02  0.30102183191E+02  0.00000000000E+00 0. -1.
</event>
<event>
 5    1  0.1043455E-009  0.9118800E+02  0.7561462E-02  0.1125453E+00
         25   -1    0    0    0    0  0.00000000000E+00  0.00000000000E+00  0.99999998245E-14  0.12509000000E+03  0.12509000000E+03 0.  0.
        -11    1    3    3    0    0  0.54774237651E+02  0.27474674680E+01  0.14265415869E+02  0.56668049004E+02  0.51100000000E-03 0. -1.
         23    2    1    0    0    0  0.26405283548E+02  0.18239931793E+02 -0.21585186231E+01  0.92924905352E+02  0.87180529483E+02 0.  0.
         11    1    3    3    0    0 -0.28368954103E+02  0.15492464325E+02 -0.16423934492E+02  0.36256856348E+02  0.51100000000E-03 0.  1.
         22    1    1    0    0    0 -0.26405283548E+02 -0.18239931793E+02  0.21585186231E+01  0.32165094648E+02  0.00000000000E+00 0. -1.
</event>
<event>
 5    1  0.1043455E-009  0.9118800E+02  0.7561462E-02  0.1125453E+00
         25   -1    0    0    0    0  0.00000000000E+00  0.00000000000E+00  0.99999998245E-14  0.12509000000E+03  0.12509000000E+03 0.  0.
        -11    1    3    3    0    0 -0.28239716709E+02 -0.51931347053E+02  0.32539394922E+01  0.59202487524E+02  0.51100000000E-03 0.  1.
         23    2    1    0    0    0  0.61964314755E+00 -0.27796002687E+02  0.48936443797E+01  0.96859706372E+02  0.92654483108E+02 0.  0.
         11    1    3    3    0    0  0.28859359856E+02  0.24135344366E+02  0.16397048876E+01  0.37657218848E+02  0.51100000000E-03 0. -1.
         22    1    1    0    0    0 -0.61964314755E+00  0.27796002687E+02 -0.48936443797E+01  0.28230293628E+02  0.00000000000E+00 0.  1.
</event>
<event>
 5    1  0.1043455E-009  0.9118800E+02  0.7561462E-02  0.1125453E+00
         25   -1    0    0    0    0  0.00000000000E+00  0.00000000000E+00  0.99999998245E-14  0.12509000000E+03  0.12509000000E+03 0.  0.
        -11    1    3    3    0    0 -0.95005649974E+01  0.37667431711E+02  0.37876929352E+01  0.39031304936E+02  0.51100000000E-03 0.  1.
         23    2    1    0    0    0  0.25312484698E+02 -0.67276065010E+01  0.12417097806E+02  0.96104367546E+02  0.91629048738E+02 0.  0.
         11    1    3    3    0    0  0.34813049696E+02 -0.44395038212E+02  0.86294048709E+01  0.57073062610E+02  0.51100000000E-03 0. -1.
         22    1    1    0    0    0 -0.25312484698E+02  0.67276065010E+01 -0.12417097806E+02  0.28985632454E+02  0.00000000000E+00 0. -1.
</event>
<event>
 5    1  0.1043455E-009  0.9118800E+02  0.7561462E-02  0.1125453E+00
         25   -1    0    0    0    0  0.00000000000E+00  0.00000000000E+00  0.99999998245E-14  0.12509000000E+03  0.12509000000E+03 0.  0.
        -11    1    3    3    0    0 -0.39143912301E+02  0.84114687393E+01  0.19520828471E+02  0.44542804369E+02  0.51100000000E-03 0.  1.
         23    2    1    0    0    0 -0.12823562298E+02 -0.13585329005E+01 -0.24875140440E+02  0.97071042604E+02  0.92939363774E+02 0.  0.
         11    1    3    3    0    0  0.26320350002E+02 -0.97700016398E+01 -0.44395968911E+02  0.52528238235E+02  0.51100000000E-03 0. -1.
         22    1    1    0    0    0  0.12823562298E+02  0.13585329005E+01  0.24875140440E+02  0.28018957396E+02  0.00000000000E+00 0. -1.
</event>
<event>
 5    1  0.1043455E-009  0.9118800E+02  0.7561462E-02  0.1125453E+00
         25   -1    0    0    0    0  0.00000000000E+00  0.00000000000E+00  0.99999998245E-14  0.12509000000E+03  0.12509000000E+03 0.  0.
        -11    1    3    3    0    0 -0.12949227375E+02 -0.43644683527E+02 -0.25521536702E+02  0.52190896961E+02  0.51100000000E-03 0. -1.
         23    2    1    0    0    0 -0.27022532050E+02 -0.57843959522E+01 -0.72664051005E+01  0.96515936271E+02  0.92189201299E+02 0.  0.
         11    1    3    3    0    0 -0.14073304675E+02  0.37860287575E+02  0.18255131601E+02  0.44325039309E+02  0.51100000000E-03 0.  1.
         22    1    1    0    0    0  0.27022532050E+02  0.57843959522E+01  0.72664051005E+01  0.28574063729E+02  0.00000000000E+00 0. -1.
</event>
<event>
 5    1  0.1043455E-009  0.9118800E+02  0.7561462E-02  0.1125453E+00
         25   -1    0    0    0    0  0.00000000000E+00  0.00000000000E+00  0.99999998245E-14  0.12509000000E+03  0.12509000000E+03 0.  0.
        -11    1    3    3    0    0  0.39871134926E+02  0.83362853476E+01 -0.24877559256E+02  0.47729383073E+02  0.51100000000E-03 0.  1.
         23    2    1    0    0    0  0.19063146580E+02 -0.21173382023E+02  0.68400932845E+01  0.95789786008E+02  0.91198577640E+02 0.  0.
         11    1    3    3    0    0 -0.20807988346E+02 -0.29509667370E+02  0.31717652541E+02  0.48060402935E+02  0.51100000000E-03 0. -1.
         22    1    1    0    0    0 -0.19063146580E+02  0.21173382023E+02 -0.68400932845E+01  0.29300213992E+02  0.00000000000E+00 0. -1.
</event>
<event>
 5    1  0.1043455E-009  0.9118800E+02  0.7561462E-02  0.1125453E+00
         25   -1    0    0    0    0  0.00000000000E+00  0.00000000000E+00  0.99999998245E-14  0.12509000000E+03  0.12509000000E+03 0.  0.
        -11    1    3    3    0    0 -0.22189996782E+02  0.28607362415E+02 -0.51846084767E+01  0.36573997688E+02  0.51100000000E-03 0.  1.
         23    2    1    0    0    0  0.21198879103E+01 -0.23597049586E+02  0.14358129704E+02  0.97386740941E+02  0.93363305151E+02 0.  0.
         11    1    3    3    0    0  0.24309884693E+02 -0.52204412001E+02  0.19542738180E+02  0.60812743253E+02  0.51100000000E-03 0. -1.
         22    1    1    0    0    0 -0.21198879103E+01  0.23597049586E+02 -0.14358129704E+02  0.27703259059E+02  0.00000000000E+00 0. -1.
</event>
<event>
 5    1  0.1043455E-009  0.9118800E+02  0.7561462E-02  0.1125453E+00
         25   -1    0    0    0    0  0.00000000000E+00  0.00000000000E+00  0.99999998245E-14  0.12509000000E+03  0.12509000000E+03 0.  0.
        -11    1    3    3    0    0  0.24088549169E+02 -0.52096525564E+02  0.21591118161E+01  0.57436642843E+02  0.51100000000E-03 0.  1.
         23    2    1    0    0    0  0.78090206564E+01 -0.22421724859E+02 -0.16586102134E+02  0.96127725689E+02  0.91660931224E+02 0.  0.
         11    1    3    3    0    0 -0.16279528513E+02  0.29674800705E+02 -0.18745213950E+02  0.38691082846E+02  0.51100000000E-03 0. -1.
         22    1    1    0    0    0 -0.78090206564E+01  0.22421724859E+02  0.16586102134E+02  0.28962274311E+02  0.00000000000E+00 0.  1.
</event>
<event>
 5    1  0.1043455E-009  0.9118800E+02  0.7561462E-02  0.1125453E+00
         25   -1    0    0    0    0  0.00000000000E+00  0.00000000000E+00  0.99999998245E-14  0.12509000000E+03  0.12509000000E+03 0.  0.
        -11    1    3    3    0    0  0.50088713690E+02 -0.48824635232E+01  0.29017395991E+02  0.58092400187E+02  0.51100000000E-03 0.  1.
         23    2    1    0    0    0  0.19879063828E+02 -0.14106316018E+02  0.25401078567E+02  0.89885169044E+02  0.82704071795E+02 0.  0.
         11    1    3    3    0    0 -0.30209649862E+02 -0.92238524943E+01 -0.36163174242E+01  0.31792768857E+02  0.51100000000E-03 0. -1.
         22    1    1    0    0    0 -0.19879063828E+02  0.14106316018E+02 -0.25401078567E+02  0.35204830956E+02  0.00000000000E+00 0.  1.
</event>
<event>
 5    1  0.1043455E-009  0.9118800E+02  0.7561462E-02  0.1125453E+00
         25   -1    0    0    0    0  0.00000000000E+00  0.00000000000E+00  0.99999998245E-14  0.12509000000E+03  0.12509000000E+03 0.  0.
        -11    1    3    3    0    0 -0.33550767115E+02 -0.12230611945E+02  0.48452496713E+02  0.60190416850E+02  0.51100000000E-03 0. -1.
         23    2    1    0    0    0 -0.70711608620E+01 -0.12081917323E+02  0.28471022834E+02  0.93363462475E+02  0.87807533515E+02 0.  0.
         11    1    3    3    0    0  0.26479606253E+02  0.14869462226E+00 -0.19981473878E+02  0.33173045625E+02  0.51100000000E-03 0.  1.
         22    1    1    0    0    0  0.70711608620E+01  0.12081917323E+02 -0.28471022834E+02  0.31726537525E+02  0.00000000000E+00 0. -1.
</event>
<event>
 5    1  0.1043455E-009  0.9118800E+02  0.7561462E-02  0.1125453E+00
         25   -1    0    0    0    0  0.00000000000E+00  0.00000000000E+00  0.99999998245E-14  0.12509000000E+03  0.12509000000E+03 0.  0.
        -11    1    3    3    0    0 -0.32966213684E+01  0.32869594922E+02 -0.13184426620E+02  0.35568343907E+02  0.51100000000E-03 0. -1.
         23    2    1    0    0    0 -0.10434181768E+01 -0.14632581586E+02  0.24695117007E+02  0.96366316926E+02  0.91985961258E+02 0.  0.
         11    1    3    3    0    0  0.22532031916E+01 -0.47502176507E+02  0.37879543627E+02  0.60797973019E+02  0.51100000000E-03 0.  1.
         22    1    1    0    0    0  0.10434181768E+01  0.14632581586E+02 -0.24695117007E+02  0.28723683074E+02  0.00000000000E+00 0.  1.
</event>
<event>
 5    1  0.1043455E-009  0.9118800E+02  0.7561462E-02  0.1125453E+00
         25   -1    0    0    0    0  0.00000000000E+00  0.00000000000E+00  0.99999998245E-14  0.12509000000E+03  0.12509000000E+03 0.  0.
        -11    1    3    3    0    0  0.46939239342E+02 -0.26363170786E+02 -0.18022738284E+02  0.56772599548E+02  0.51100000000E-03 0.  1.
         23    2    1    0    0    0  0.16151386169E+02 -0.46830861571E+01 -0.24892565645E+02  0.95049387564E+02  0.90177312450E+02 0.  0.
         11    1    3    3    0    0 -0.30787853174E+02  0.21680084629E+02 -0.68698273617E+01  0.38276788016E+02  0.51100000000E-03 0. -1.
         22    1    1    0    0    0 -0.16151386169E+02  0.46830861571E+01  0.24892565645E+02  0.30040612436E+02  0.00000000000E+00 0.  1.
</event>
<event>
 5    1  0.1043455E-009  0.9118800E+02  0.7561462E-02  0.1125453E+00
         25   -1    0    0    0    0  0.00000000000E+00  0.00000000000E+00  0.99999998245E-14  0.12509000000E+03  0.12509000000E+03 0.  0.
        -11    1    3    3    0    0 -0.29354288207E+02  0.32729998259E+02 -0.77300353833E+01  0.44639449699E+02  0.51100000000E-03 0.  1.
         23    2    1    0    0    0 -0.15155830262E+02 -0.76560189452E+01  0.22394923371E+02  0.96985793735E+02  0.92824553737E+02 0.  0.
         11    1    3    3    0    0  0.14198457946E+02 -0.40386017204E+02  0.30124958754E+02  0.52346344035E+02  0.51100000000E-03 0. -1.
         22    1    1    0    0    0  0.15155830262E+02  0.76560189452E+01 -0.22394923371E+02  0.28104206265E+02  0.00000000000E+00 0. -1.
</event>
<event>
 5    1  0.1043455E-009  0.9118800E+02  0.7561462E-02  0.1125453E+00
         25   -1    0    0    0    0  0.00000000000E+00  0.00000000000E+00  0.99999998245E-14  0.12509000000E+03  0.12509000000E+03 0.  0.
        -11    1    3    3    0    0  0.25112543899E+02  0.10233811331E+02  0.47821913091E+02  0.54975504794E+02  0.51100000000E-03 0. -1.
         23    2    1    0    0    0  0.22534845376E+02 -0.11320592663E+02  0.11314010074E+02  0.97449777527E+02  0.93447724647E+02 0.  0.
         11    1    3    3    0    0 -0.25776985224E+01 -0.21554403995E+02 -0.36507903017E+02  0.42474272733E+02  0.51100000000E-03 0.  1.
         22    1    1    0    0    0 -0.22534845376E+02  0.11320592663E+02 -0.11314010074E+02  0.27640222473E+02  0.00000000000E+00 0. -1.
</event>
<event>
 5    1  0.1043455E-009  0.9118800E+02  0.7561462E-02  0.1125453E+00
         25   -1    0    0    0    0  0.00000000000E+00  0.00000000000E+00  0.99999998245E-14  0.12509000000E+03  0.12509000000E+03 0.  0.
        -11    1    3    3    0    0  0.13927936883E+02  0.41724880844E+02  0.44454460639E+02  0.62539205129E+02  0.51100000000E-03 0. -1.
         23    2    1    0    0    0  0.61179868218E+01  0.20079263206E+02  0.20875515943E+02  0.95486051960E+02  0.90781013320E+02 0.  0.
         11    1    3    3    0    0 -0.78099500609E+01 -0.21645617638E+02 -0.23578944696E+02  0.32946846831E+02  0.51100000000E-03 0.  1.
         22    1    1    0    0    0 -0.61179868218E+01 -0.20079263206E+02 -0.20875515943E+02  0.29603948040E+02  0.00000000000E+00 0. -1.
</event>
<event>
 5    1  0.1043455E-009  0.9118800E+02  0.7561462E-02  0.1125453E+00
         25   -1    0    0    0    0  0.00000000000E+00  0.00000000000E+00  0.99999998245E-14  0.12509000000E+03  0.12509000000E+03 0.  0.
        -11    1    3    3    0    0 -0.30198569575E+02 -0.37082623770E+01  0.46684098117E+02  0.55723512376E+02  0.51100000000E-03 0. -1.
         23    2    1    0    0    0 -0.70743383515E+01 -0.21098988416E+02  0.17971452438E+02  0.96486037372E+02  0.92148623048E+02 0.  0.
         11    1    3    3    0    0  0.23124231224E+02 -0.17390726039E+02 -0.28712645679E+02  0.40762524996E+02  0.51100000000E-03 0.  1.
         22    1    1    0    0    0  0.70743383515E+01  0.21098988416E+02 -0.17971452438E+02  0.28603962628E+02  0.00000000000E+00 0. -1.
</event>
<event>
 5    1  0.1043455E-009  0.9118800E+02  0.7561462E-02  0.1125453E+00
         25   -1    0    0    0    0  0.00000000000E+00  0.00000000000E+00  0.99999998245E-14  0.12509000000E+03  0.12509000000E+03 0.  0.
        -11    1    3    3    0    0  0.28909005569E+01  0.20078400031E+02  0.29694153911E+02  0.35961677249E+02  0.51100000000E-03 0. -1.
         23    2    1    0    0    0 -0.20781735995E+02  0.89379283351E+01 -0.21769859594E+02  0.93694237536E+02  0.88277495699E+02 0.  0.
         11    1    3    3    0    0 -0.23672636552E+02 -0.11140471696E+02 -0.51464013505E+02  0.57732560287E+02  0.51100000000E-03 0.  1.
         22    1    1    0    0    0  0.20781735995E+02 -0.89379283351E+01  0.21769859594E+02  0.31395762464E+02  0.00000000000E+00 0.  1.
</event>
<event>
 5    1  0.1043455E-009  0.9118800E+02  0.7561462E-02  0.1125453E+00
         25   -1    0    0    0    0  0.00000000000E+00  0.00000000000E+00  0.99999998245E-14  0.12509000000E+03  0.12509000000E+03 0.  0.
        -11    1    3    3    0    0 -0.42990447443E+02 -0.24580450924E+02 -0.27888199079E+02  0.56834221971E+02  0.51100000000E-03 0.  1.
         23    2    1    0    0    0 -0.26050969808E+02 -0.20846320290E+02  0.22943438008E+01  0.91646224629E+02  0.85326106074E+02 0.  0.
         11    1    3    3    0    0  0.16939477634E+02  0.37341306345E+01  0.30182542880E+02  0.34812002658E+02  0.51100000000E-03 0. -1.
         22    1    1    0    0    0  0.26050969808E+02  0.20846320290E+02 -0.22943438008E+01  0.33443775371E+02  0.00000000000E+00 0.  1.
</event>
<event>
 5    1  0.1043455E-009  0.9118800E+02  0.7561462E-02  0.1125453E+00
         25   -1    0    0    0    0  0.00000000000E+00  0.00000000000E+00  0.99999998245E-14  0.12509000000E+03  0.12509000000E+03 0.  0.
        -11    1    3    3    0    0  0.34734946697E+02 -0.24892791140E+02 -0.25976478249E+01  0.42812560625E+02  0.51100000000E-03 0.  1.
         23    2    1    0    0    0  0.10916865882E+02  0.14286224731E+02  0.23445969358E+02  0.95543635471E+02  0.90860324797E+02 0.  0.
         11    1    3    3    0    0 -0.23818080814E+02  0.39179015870E+02  0.26043617183E+02  0.52731074846E+02  0.51100000000E-03 0. -1.
         22    1    1    0    0    0 -0.10916865882E+02 -0.14286224731E+02 -0.23445969358E+02  0.29546364529E+02  0.00000000000E+00 0. -1.
</event>
<event>
 5    1  0.1043455E-009  0.9118800E+02  0.7561462E-02  0.1125453E+00
         25   -1    0    0    0    0  0.00000000000E+00  0.00000000000E+00  0.99999998245E-14  0.12509000000E+03  0.12509000000E+03 0.  0.
        -11    1    3    3    0    0 -0.58793170020E+02 -0.14202211062E+02 -0.53457349019E+01  0.60719984535E+02  0.51100000000E-03 0.  1.
         23    2    1    0    0    0 -0.31541338376E+02 -0.12674373440E+02  0.65123779541E+01  0.90479209265E+02  0.83597730077E+02 0.  0.
         11    1    3    3    0    0  0.27251831644E+02  0.15278376216E+01  0.11858112856E+02  0.29759224730E+02  0.51100000000E-03 0. -1.
         22    1    1    0    0    0  0.31541338376E+02  0.12674373440E+02 -0.65123779541E+01  0.34610790735E+02  0.00000000000E+00 0.  1.
</event>
<event>
 5    1  0.1043455E-009  0.9118800E+02  0.7561462E-02  0.1125453E+00
         25   -1    0    0    0    0  0.00000000000E+00  0.00000000000E+00  0.99999998245E-14  0.12509000000E+03  0.12509000000E+03 0.  0.
        -11    1    3    3    0    0  0.14027752498E+02  0.20826980214E+02  0.33251226202E+02  0.41667553194E+02  0.51100000000E-03 0. -1.
         23    2    1    0    0    0 -0.50272247799E+01 -0.25572381037E+02  0.14838740244E+02  0.95099870409E+02  0.90247312863E+02 0.  0.
         11    1    3    3    0    0 -0.19054977278E+02 -0.46399361251E+02 -0.18412485958E+02  0.53432317215E+02  0.51100000000E-03 0.  1.
         22    1    1    0    0    0  0.50272247799E+01  0.25572381037E+02 -0.14838740244E+02  0.29990129591E+02  0.00000000000E+00 0.  1.
</event>
<event>
 5    1  0.1043455E-009  0.9118800E+02  0.7561462E-02  0.1125453E+00
         25   -1    0    0    0    0  0.00000000000E+00  0.00000000000E+00  0.99999998245E-14  0.12509000000E+03  0.12509000000E+03 0.  0.
        -11    1    3    3    0    0  0.32769932865E+02 -0.13061169647E+02  0.11804315439E+02  0.37199523059E+02  0.51100000000E-03 0. -1.
         23    2    1    0    0    0 -0.21601521819E+02 -0.18070433570E+02 -0.88375251293E+01  0.95572748015E+02  0.90900396031E+02 0.  0.
         11    1    3    3    0    0 -0.54371454685E+02 -0.50092639227E+01 -0.20641840568E+02  0.58373224957E+02  0.51100000000E-03 0.  1.
         22    1    1    0    0    0  0.21601521819E+02  0.18070433570E+02  0.88375251293E+01  0.29517251985E+02  0.00000000000E+00 0.  1.
</event>
<event>
 5    1  0.1043455E-009  0.9118800E+02  0.7561462E-02  0.1125453E+00
         25   -1    0    0    0    0  0.00000000000E+00  0.00000000000E+00  0.99999998245E-14  0.12509000000E+03  0.12509000000E+03 0.  0.
        -11    1    3    3    0    0  0.20228496185E+02  0.14135334952E+02 -0.53441083679E+02  0.58863818914E+02  0.51100000000E-03 0.  1.
         23    2    1    0    0    0  0.22928800494E+02  0.86075519534E+01 -0.18358002629E+02  0.94482221524E+02  0.89387102430E+02 0.  0.
         11    1    3    3    0    0  0.27003043086E+01 -0.55277829991E+01  0.35083081050E+02  0.35618402610E+02  0.51100000000E-03 0. -1.
         22    1    1    0    0    0 -0.22928800494E+02 -0.86075519534E+01  0.18358002629E+02  0.30607778476E+02  0.00000000000E+00 0.  1.
</event>
<event>
 5    1  0.1043455E-009  0.9118800E+02  0.7561462E-02  0.1125453E+00
         25   -1    0    0    0    0  0.00000000000E+00  0.00000000000E+00  0.99999998245E-14  0.12509000000E+03  0.12509000000E+03 0.  0.
        -11    1    3    3    0    0 -0.30832025441E+02 -0.22913676017E+02 -0.42481082910E+02  0.57273839987E+02  0.51100000000E-03 0.  1.
         23    2    1    0    0    0 -0.15869897554E+01 -0.23457373847E+02 -0.16857279461E+02  0.96160174644E+02  0.91705203737E+02 0.  0.
         11    1    3    3    0    0  0.29245035685E+02 -0.54369782993E+00  0.25623803450E+02  0.38886334657E+02  0.51100000000E-03 0. -1.
         22    1    1    0    0    0  0.15869897554E+01  0.23457373847E+02  0.16857279461E+02  0.28929825356E+02  0.00000000000E+00 0.  1.
</event>
<event>
 5    1  0.1043455E-009  0.9118800E+02  0.7561462E-02  0.1125453E+00
         25   -1    0    0    0    0  0.00000000000E+00  0.00000000000E+00  0.99999998245E-14  0.12509000000E+03  0.12509000000E+03 0.  0.
        -11    1    3    3    0    0 -0.28233928179E+00  0.12450988825E+02 -0.39358808886E+02  0.41282231957E+02  0.51100000000E-03 0.  1.
         23    2    1    0    0    0  0.14520496559E+02 -0.26483611600E+02 -0.68508118793E+01  0.94119689587E+02  0.88878320421E+02 0.  0.
         11    1    3    3    0    0  0.14802835840E+02 -0.38934600425E+02  0.32507997006E+02  0.52837457630E+02  0.51100000000E-03 0. -1.
         22    1    1    0    0    0 -0.14520496559E+02  0.26483611600E+02  0.68508118793E+01  0.30970310413E+02  0.00000000000E+00 0. -1.
</event>
<event>
 5    1  0.1043455E-009  0.9118800E+02  0.7561462E-02  0.1125453E+00
         25   -1    0    0    0    0  0.00000000000E+00  0.00000000000E+00  0.99999998245E-14  0.12509000000E+03  0.12509000000E+03 0.  0.
        -11    1    3    3    0    0 -0.21333795278E+02  0.38531464183E+02 -0.41740098377E+02  0.60679818440E+02  0.51100000000E-03 0.  1.
         23    2    1    0    0    0  0.13054469814E+00  0.21816600357E+02 -0.17395191946E+02  0.97187064745E+02  0.93095390637E+02 0.  0.
         11    1    3    3    0    0  0.21464339977E+02 -0.16714863826E+02  0.24344906431E+02  0.36507246305E+02  0.51100000000E-03 0. -1.
         22    1    1    0    0    0 -0.13054469814E+00 -0.21816600357E+02  0.17395191946E+02  0.27902935255E+02  0.00000000000E+00 0.  1.
</event>
<event>
 5    1  0.1043455E-009  0.9118800E+02  0.7561462E-02  0.1125453E+00
         25   -1    0    0    0    0  0.00000000000E+00  0.00000000000E+00  0.99999998245E-14  0.12509000000E+03  0.12509000000E+03 0.  0.
        -11    1    3    3    0    0 -0.31493788847E+01 -0.10429975171E+02 -0.42572032286E+02  0.43944065614E+02  0.51100000000E-03 0.  1.
         23    2    1    0    0    0  0.87574068915E+00  0.28091412789E+02 -0.79797495183E+01  0.95874066049E+02  0.91314104848E+02 0.  0.
         11    1    3    3    0    0  0.40251195739E+01  0.38521387960E+02  0.34592282768E+02  0.51930000436E+02  0.51100000000E-03 0. -1.
         22    1    1    0    0    0 -0.87574068915E+00 -0.28091412789E+02  0.79797495183E+01  0.29215933951E+02  0.00000000000E+00 0. -1.
</event>
<event>
 5    1  0.1043455E-009  0.9118800E+02  0.7561462E-02  0.1125453E+00
         25   -1    0    0    0    0  0.00000000000E+00  0.00000000000E+00  0.99999998245E-14  0.12509000000E+03  0.12509000000E+03 0.  0.
        -11    1    3    3    0    0  0.52047357430E+02  0.28745055064E+02  0.12174442439E+02  0.60691207395E+02  0.51100000000E-03 0. -1.
         23    2    1    0    0    0  0.27385655179E+02  0.46414049241E+01  0.11057207798E+02  0.95193869924E+02  0.90377509799E+02 0.  0.
         11    1    3    3    0    0 -0.24661702252E+02 -0.24103650140E+02 -0.11172346407E+01  0.34502662528E+02  0.51100000000E-03 0.  1.
         22    1    1    0    0    0 -0.27385655179E+02 -0.46414049241E+01 -0.11057207798E+02  0.29896130076E+02  0.00000000000E+00 0. -1.
</event>
<event>
 5    1  0.1043455E-009  0.9118800E+02  0.7561462E-02  0.1125453E+00
         25   -1    0    0    0    0  0.00000000000E+00  0.00000000000E+00  0.99999998245E-14  0.12509000000E+03  0.12509000000E+03 0.  0.
        -11    1    3    3    0    0 -0.57030513199E+01 -0.38426311278E+02  0.20035525638E+02  0.43709592547E+02  0.51100000000E-03 0.  1.
         23    2    1    0    0    0 -0.27018986620E+02  0.73310581224E+01  0.32496265749E+01  0.96906137170E+02  0.92717146727E+02 0.  0.
         11    1    3    3    0    0 -0.21315935300E+02  0.45757369400E+02 -0.16785899064E+02  0.53196544623E+02  0.51100000000E-03 0. -1.
         22    1    1    0    0    0  0.27018986620E+02 -0.73310581224E+01 -0.32496265749E+01  0.28183862830E+02  0.00000000000E+00 0. -1.
</event>
<event>
 5    1  0.1043455E-009  0.9118800E+02  0.7561462E-02  0.1125453E+00
         25   -1    0    0    0    0  0.00000000000E+00  0.00000000000E+00  0.99999998245E-14  0.12509000000E+03  0.12509000000E+03 0.  0.
        -11    1    3    3    0    0  0.31999526298E+02  0.41261442978E+02 -0.31399785759E+02  0.60929655390E+02  0.51100000000E-03 0.  1.
         23    2    1    0    0    0  0.83980605654E+01  0.24543797055E+02 -0.85913621813E+01  0.97763512863E+02  0.93866754221E+02 0.  0.
         11    1    3    3    0    0 -0.23601465733E+02 -0.16717645924E+02  0.22808423578E+02  0.36833857473E+02  0.51100000000E-03 0. -1.
         22    1    1    0    0    0 -0.83980605654E+01 -0.24543797055E+02  0.85913621813E+01  0.27326487137E+02  0.00000000000E+00 0.  1.
</event>
<event>
 5    1  0.1043455E-009  0.9118800E+02  0.7561462E-02  0.1125453E+00
         25   -1    0    0    0    0  0.00000000000E+00  0.00000000000E+00  0.99999998245E-14  0.12509000000E+03  0.12509000000E+03 0.  0.
        -11    1    3    3    0    0 -0.27694476017E+02 -0.12382872018E+02 -0.20809589286E+02  0.36788021526E+02  0.51100000000E-03 0.  1.
         23    2    1    0    0    0  0.26600397283E+02  0.75809906728E+01 -0.32676759718E+01  0.97238065391E+02  0.93163893755E+02 0.  0.
         11    1    3    3    0    0  0.54294873300E+02  0.19963862691E+02  0.17541913315E+02  0.60450043865E+02  0.51100000000E-03 0. -1.
         22    1    1    0    0    0 -0.26600397283E+02 -0.75809906728E+01  0.32676759718E+01  0.27851934609E+02  0.00000000000E+00 0. -1.
</event>
<event>
 5    1  0.1043455E-009  0.9118800E+02  0.7561462E-02  0.1125453E+00
         25   -1    0    0    0    0  0.00000000000E+00  0.00000000000E+00  0.99999998245E-14  0.12509000000E+03  0.12509000000E+03 0.  0.
        -11    1    3    3    0    0  0.52740521673E+02  0.37218853466E+00 -0.15184555444E+02  0.54884167798E+02  0.51100000000E-03 0.  1.
         23    2    1    0    0    0  0.13722370596E+02  0.56042060039E+01 -0.25512805170E+02  0.95583834418E+02  0.90915650989E+02 0.  0.
         11    1    3    3    0    0 -0.39018151077E+02  0.52320174692E+01 -0.10328249726E+02  0.40699666620E+02  0.51100000000E-03 0. -1.
         22    1    1    0    0    0 -0.13722370596E+02 -0.56042060039E+01  0.25512805170E+02  0.29506165582E+02  0.00000000000E+00 0.  1.
</event>
<event>
 5    1  0.1043455E-009  0.9118800E+02  0.7561462E-02  0.1125453E+00
         25   -1    0    0    0    0  0.00000000000E+00  0.00000000000E+00  0.99999998245E-14  0.12509000000E+03  0.12509000000E+03 0.  0.
        -11    1    3    3    0    0 -0.12155160457E+02  0.38250861757E+02  0.52150768414E+01  0.40473119198E+02  0.51100000000E-03 0.  1.
         23    2    1    0    0    0 -0.19363303631E+02 -0.76429668540E+01 -0.22394296196E+02  0.94514569145E+02  0.89432358846E+02 0.  0.
         11    1    3    3    0    0 -0.72081431740E+01 -0.45893828611E+02 -0.27609373038E+02  0.54041449947E+02  0.51100000000E-03 0. -1.
         22    1    1    0    0    0  0.19363303631E+02  0.76429668540E+01  0.22394296196E+02  0.30575430855E+02  0.00000000000E+00 0. -1.
</event>
<event>
 5    1  0.1043455E-009  0.9118800E+02  0.7561462E-02  0.1125453E+00
         25   -1    0    0    0    0  0.00000000000E+00  0.00000000000E+00  0.99999998245E-14  0.12509000000E+03  0.12509000000E+03 0.  0.
        -11    1    3    3    0    0 -0.26961786761E+02  0.24982978286E+02 -0.28093949693E+02  0.46263994197E+02  0.51100000000E-03 0.  1.
         23    2    1    0    0    0 -0.26410593196E+02 -0.84117875359E+01  0.87794455959E+01  0.96014988951E+02  0.91506949658E+02 0.  0.
         11    1    3    3    0    0  0.55119356487E+00 -0.33394765822E+02  0.36873395289E+02  0.49750994755E+02  0.51100000000E-03 0. -1.
         22    1    1    0    0    0  0.26410593196E+02  0.84117875359E+01 -0.87794455959E+01  0.29075011049E+02  0.00000000000E+00 0.  1.
</event>
<event>
 5    1  0.1043455E-009  0.9118800E+02  0.7561462E-02  0.1125453E+00
         25   -1    0    0    0    0  0.00000000000E+00  0.00000000000E+00  0.99999998245E-14  0.12509000000E+03  0.12509000000E+03 0.  0.
        -11    1    3    3    0    0  0.19807980876E+02 -0.17582830120E+02  0.22856026936E+02  0.34984424949E+02  0.51100000000E-03 0.  1.
         23    2    1    0    0    0 -0.15571814660E+02  0.25930252983E+02  0.21468697781E+01  0.94767261314E+02  0.89785106423E+02 0.  0.
         11    1    3    3    0    0 -0.35379795537E+02  0.43513083104E+02 -0.20709157158E+02  0.59782836365E+02  0.51100000000E-03 0. -1.
         22    1    1    0    0    0  0.15571814660E+02 -0.25930252983E+02 -0.21468697781E+01  0.30322738686E+02  0.00000000000E+00 0. -1.
</event>
<event>
 5    1  0.1043455E-009  0.9118800E+02  0.7561462E-02  0.1125453E+00
         25   -1    0    0    0    0  0.00000000000E+00  0.00000000000E+00  0.99999998245E-14  0.12509000000E+03  0.12509000000E+03 0.  0.
        -11    1    3    3    0    0  0.50415657297E+02  0.57223430949E+01  0.77417100130E+01  0.51326579716E+02  0.51100000000E-03 0.  1.
         23    2    1    0    0    0  0.14704183686E+02  0.11395495984E+02 -0.20647017054E+02  0.97298460643E+02  0.93244950447E+02 0.  0.
         11    1    3    3    0    0 -0.35711473612E+02  0.56731528888E+01 -0.28388727067E+02  0.45971880927E+02  0.51100000000E-03 0. -1.
         22    1    1    0    0    0 -0.14704183686E+02 -0.11395495984E+02  0.20647017054E+02  0.27791539357E+02  0.00000000000E+00 0.  1.
</event>
<event>
 5    1  0.1043455E-009  0.9118800E+02  0.7561462E-02  0.1125453E+00
         25   -1    0    0    0    0  0.00000000000E+00  0.00000000000E+00  0.99999998245E-14  0.12509000000E+03  0.12509000000E+03 0.  0.
        -11    1    3    3    0    0  0.69443424659E+01 -0.24955145623E+02 -0.20705660369E+02  0.33161838865E+02  0.51100000000E-03 0. -1.
         23    2    1    0    0    0  0.35737666936E+01  0.26868885346E+02  0.12952734962E+02  0.95048659299E+02  0.90176302228E+02 0.  0.
         11    1    3    3    0    0 -0.33705757722E+01  0.51824030969E+02  0.33658395331E+02  0.61886820434E+02  0.51100000000E-03 0.  1.
         22    1    1    0    0    0 -0.35737666936E+01 -0.26868885346E+02 -0.12952734962E+02  0.30041340701E+02  0.00000000000E+00 0.  1.
</event>
<event>
 5    1  0.1043455E-009  0.9118800E+02  0.7561462E-02  0.1125453E+00
         25   -1    0    0    0    0  0.00000000000E+00  0.00000000000E+00  0.99999998245E-14  0.12509000000E+03  0.12509000000E+03 0.  0.
        -11    1    3    3    0    0 -0.30015719483E+02  0.15333225176E+01 -0.20044352865E+02  0.36125760560E+02  0.51100000000E-03 0. -1.
         23    2    1    0    0    0  0.26016066785E+02  0.10950725077E+02  0.13324315113E+01  0.96831735998E+02  0.92616713459E+02 0.  0.
         11    1    3    3    0    0  0.56031786268E+02  0.94174025592E+01  0.21376784376E+02  0.60705975438E+02  0.51100000000E-03 0.  1.
         22    1    1    0    0    0 -0.26016066785E+02 -0.10950725077E+02 -0.13324315113E+01  0.28258264002E+02  0.00000000000E+00 0.  1.
</event>
<event>
 5    1  0.1043455E-009  0.9118800E+02  0.7561462E-02  0.1125453E+00
         25   -1    0    0    0    0  0.00000000000E+00  0.00000000000E+00  0.99999998245E-14  0.12509000000E+03  0.12509000000E+03 0.  0.
        -11    1    3    3    0    0  0.64059409345E+01 -0.43272694056E+02 -0.38236006407E+02  0.58099520793E+02  0.51100000000E-03 0. -1.
         23    2    1    0    0    0  0.25773351949E+01 -0.28478446580E+02 -0.32081118630E+01  0.96315765726E+02  0.91917191914E+02 0.  0.
         11    1    3    3    0    0 -0.38286057397E+01  0.14794247476E+02  0.35027894544E+02  0.38216244933E+02  0.51100000000E-03 0.  1.
         22    1    1    0    0    0 -0.25773351949E+01  0.28478446580E+02  0.32081118630E+01  0.28774234274E+02  0.00000000000E+00 0. -1.
</event>
<event>
 5    1  0.1043455E-009  0.9118800E+02  0.7561462E-02  0.1125453E+00
         25   -1    0    0    0    0  0.00000000000E+00  0.00000000000E+00  0.99999998245E-14  0.12509000000E+03  0.12509000000E+03 0.  0.
        -11    1    3    3    0    0  0.27224603543E+02  0.25439385788E+02 -0.20862726616E+02  0.42703568346E+02  0.51100000000E-03 0.  1.
         23    2    1    0    0    0 -0.22326570236E+02  0.96022603706E+01 -0.18080374208E+02  0.94798432292E+02  0.89828523815E+02 0.  0.
         11    1    3    3    0    0 -0.49551173779E+02 -0.15837125417E+02  0.27823524087E+01  0.52094863946E+02  0.51100000000E-03 0. -1.
         22    1    1    0    0    0  0.22326570236E+02 -0.96022603706E+01  0.18080374208E+02  0.30291567708E+02  0.00000000000E+00 0. -1.
</event>
<event>
 5    1  0.1043455E-009  0.9118800E+02  0.7561462E-02  0.1125453E+00
         25   -1    0    0    0    0  0.00000000000E+00  0.00000000000E+00  0.99999998245E-14  0.12509000000E+03  0.12509000000E+03 0.  0.
        -11    1    3    3    0    0 -0.21699840209E+02 -0.57378365431E+02  0.79455245238E+01  0.61857022599E+02  0.51100000000E-03 0. -1.
         23    2    1    0    0    0 -0.71231439560E+01 -0.23299153098E+02  0.94610821292E+01  0.98953783939E+02  0.95439769310E+02 0.  0.
         11    1    3    3    0    0  0.14576696253E+02  0.34079212333E+02  0.15155576054E+01  0.37096761341E+02  0.51100000000E-03 0.  1.
         22    1    1    0    0    0  0.71231439560E+01  0.23299153098E+02 -0.94610821292E+01  0.26136216061E+02  0.00000000000E+00 0. -1.
</event>
<event>
 5    1  0.1043455E-009  0.9118800E+02  0.7561462E-02  0.1125453E+00
         25   -1    0    0    0    0  0.00000000000E+00  0.00000000000E+00  0.99999998245E-14  0.12509000000E+03  0.12509000000E+03 0.  0.
        -11    1    3    3    0    0 -0.35310122289E+02  0.33061833985E+02  0.38073154178E+02  0.61558546701E+02  0.51100000000E-03 0.  1.
         23    2    1    0    0    0 -0.23244713149E+02  0.12208925575E+02  0.15348193971E+02  0.94677147269E+02  0.89659470240E+02 0.  0.
         11    1    3    3    0    0  0.12065409140E+02 -0.20852908411E+02 -0.22724960207E+02  0.33118600568E+02  0.51100000000E-03 0. -1.
         22    1    1    0    0    0  0.23244713149E+02 -0.12208925575E+02 -0.15348193971E+02  0.30412852731E+02  0.00000000000E+00 0.  1.
</event>
<event>
 5    1  0.1043455E-009  0.9118800E+02  0.7561462E-02  0.1125453E+00
         25   -1    0    0    0    0  0.00000000000E+00  0.00000000000E+00  0.99999998245E-14  0.12509000000E+03  0.12509000000E+03 0.  0.
        -11    1    3    3    0    0 -0.35590997188E+02  0.14676314171E+02 -0.14708183006E+01  0.38526310299E+02  0.51100000000E-03 0.  1.
         23    2    1    0    0    0  0.81446134609E+01 -0.13498741645E+02 -0.24927698660E+02  0.95595239196E+02  0.90931341363E+02 0.  0.
         11    1    3    3    0    0  0.43735610649E+02 -0.28175055816E+02 -0.23456880359E+02  0.57068928897E+02  0.51100000000E-03 0. -1.
         22    1    1    0    0    0 -0.81446134609E+01  0.13498741645E+02  0.24927698660E+02  0.29494760804E+02  0.00000000000E+00 0. -1.
</event>
<event>
 5    1  0.1043455E-009  0.9118800E+02  0.7561462E-02  0.1125453E+00
         25   -1    0    0    0    0  0.00000000000E+00  0.00000000000E+00  0.99999998245E-14  0.12509000000E+03  0.12509000000E+03 0.  0.
        -11    1    3    3    0    0  0.28636637455E+01  0.22145407743E+02 -0.25459121130E+01  0.22474459346E+02  0.51100000000E-03 0. -1.
         23    2    1    0    0    0  0.15958345056E+02 -0.37734976483E+02  0.29341399638E+01  0.84014381874E+02  0.73288539058E+02 0.  0.
         11    1    3    3    0    0  0.13094681311E+02 -0.59880384226E+02  0.54800520768E+01  0.61539922528E+02  0.51100000000E-03 0.  1.
         22    1    1    0    0    0 -0.15958345056E+02  0.37734976483E+02 -0.29341399638E+01  0.41075618126E+02  0.00000000000E+00 0.  1.
</event>
<event>
 5    1  0.1043455E-009  0.9118800E+02  0.7561462E-02  0.1125453E+00
         25   -1    0    0    0    0  0.00000000000E+00  0.00000000000E+00  0.99999998245E-14  0.12509000000E+03  0.12509000000E+03 0.  0.
        -11    1    3    3    0    0 -0.37461253374E+02 -0.34919310705E+01 -0.17268021173E+02  0.41397145342E+02  0.51100000000E-03 0.  1.
         23    2    1    0    0    0  0.67018632757E+01  0.22180461298E+02  0.10625109971E+02  0.99599201726E+02  0.96281982675E+02 0.  0.
         11    1    3    3    0    0  0.44163116649E+02  0.25672392369E+02  0.27893131144E+02  0.58202056384E+02  0.51100000000E-03 0. -1.
         22    1    1    0    0    0 -0.67018632757E+01 -0.22180461298E+02 -0.10625109971E+02  0.25490798274E+02  0.00000000000E+00 0. -1.
</event>
<event>
 5    1  0.1043455E-009  0.9118800E+02  0.7561462E-02  0.1125453E+00
         25   -1    0    0    0    0  0.00000000000E+00  0.00000000000E+00  0.99999998245E-14  0.12509000000E+03  0.12509000000E+03 0.  0.
        -11    1    3    3    0    0  0.50797363981E+02 -0.51794184862E+01 -0.13279809413E+02  0.52759377381E+02  0.51100000000E-03 0. -1.
         23    2    1    0    0    0  0.19353090626E+02 -0.17117433921E+02  0.13670812410E+02  0.95859198219E+02  0.91293735330E+02 0.  0.
         11    1    3    3    0    0 -0.31444273355E+02 -0.11938015435E+02  0.26950621823E+02  0.43099820838E+02  0.51100000000E-03 0.  1.
         22    1    1    0    0    0 -0.19353090626E+02  0.17117433921E+02 -0.13670812410E+02  0.29230801781E+02  0.00000000000E+00 0.  1.
</event>
<event>
 5    1  0.1043455E-009  0.9118800E+02  0.7561462E-02  0.1125453E+00
         25   -1    0    0    0    0  0.00000000000E+00  0.00000000000E+00  0.99999998245E-14  0.12509000000E+03  0.12509000000E+03 0.  0.
        -11    1    3    3    0    0 -0.39862464224E+01  0.16254808797E+02  0.54031154382E+02  0.56563898502E+02  0.51100000000E-03 0. -1.
         23    2    1    0    0    0 -0.20465447445E+02  0.51383079401E+01  0.19766171220E+02  0.96177402879E+02  0.91728700809E+02 0.  0.
         11    1    3    3    0    0 -0.16479201022E+02 -0.11116500857E+02 -0.34264983162E+02  0.39613504377E+02  0.51100000000E-03 0.  1.
         22    1    1    0    0    0  0.20465447445E+02 -0.51383079401E+01 -0.19766171220E+02  0.28912597121E+02  0.00000000000E+00 0. -1.
</event>
<event>
 5    1  0.1043455E-009  0.9118800E+02  0.7561462E-02  0.1125453E+00
         25   -1    0    0    0    0  0.00000000000E+00  0.00000000000E+00  0.99999998245E-14  0.12509000000E+03  0.12509000000E+03 0.  0.
        -11    1    3    3    0    0 -0.14845882298E+02  0.32790948884E+02  0.50644458806E+02  0.62132984460E+02  0.51100000000E-03 0. -1.
         23    2    1    0    0    0 -0.76245743664E+01  0.19492720371E+02  0.20869497997E+02  0.95532662022E+02  0.90845216080E+02 0.  0.
         11    1    3    3    0    0  0.72213079319E+01 -0.13298228513E+02 -0.29774960809E+02  0.33399677562E+02  0.51100000000E-03 0.  1.
         22    1    1    0    0    0  0.76245743664E+01 -0.19492720371E+02 -0.20869497997E+02  0.29557337978E+02  0.00000000000E+00 0. -1.
</event>
<event>
 5    1  0.1043455E-009  0.9118800E+02  0.7561462E-02  0.1125453E+00
         25   -1    0    0    0    0  0.00000000000E+00  0.00000000000E+00  0.99999998245E-14  0.12509000000E+03  0.12509000000E+03 0.  0.
        -11    1    3    3    0    0  0.29800546764E+02 -0.19144169745E+02  0.42800855593E+02  0.55556143336E+02  0.51100000000E-03 0.  1.
         23    2    1    0    0    0  0.22689592776E+02 -0.17328739929E+02  0.25995108265E+01  0.96421893951E+02  0.92061508399E+02 0.  0.
         11    1    3    3    0    0 -0.71109539880E+01  0.18154298161E+01 -0.40201344766E+02  0.40865750615E+02  0.51100000000E-03 0. -1.
         22    1    1    0    0    0 -0.22689592776E+02  0.17328739929E+02 -0.25995108265E+01  0.28668106049E+02  0.00000000000E+00 0.  1.
</event>
<event>
 5    1  0.1043455E-009  0.9118800E+02  0.7561462E-02  0.1125453E+00
         25   -1    0    0    0    0  0.00000000000E+00  0.00000000000E+00  0.99999998245E-14  0.12509000000E+03  0.12509000000E+03 0.  0.
        -11    1    3    3    0    0 -0.49800932714E+02 -0.22310654278E+02  0.69634731933E+01  0.55012618123E+02  0.51100000000E-03 0. -1.
         23    2    1    0    0    0 -0.26361839406E+02 -0.94909012749E+01  0.25238082250E+02  0.87380789195E+02  0.78825235432E+02 0.  0.
         11    1    3    3    0    0  0.23439093308E+02  0.12819753003E+02  0.18274609056E+02  0.32368171073E+02  0.51100000000E-03 0.  1.
         22    1    1    0    0    0  0.26361839406E+02  0.94909012749E+01 -0.25238082250E+02  0.37709210805E+02  0.00000000000E+00 0. -1.
</event>
<event>
 5    1  0.1043455E-009  0.9118800E+02  0.7561462E-02  0.1125453E+00
         25   -1    0    0    0    0  0.00000000000E+00  0.00000000000E+00  0.99999998245E-14  0.12509000000E+03  0.12509000000E+03 0.  0.
        -11    1    3    3    0    0 -0.27116726101E+02  0.16884030274E+02 -0.31027838257E+02  0.44532168821E+02  0.51100000000E-03 0.  1.
         23    2    1    0    0    0  0.21525479677E+02  0.11095499073E+02 -0.17050992967E+02  0.95472560270E+02  0.90762420794E+02 0.  0.
         11    1    3    3    0    0  0.48642205779E+02 -0.57885312011E+01  0.13976845290E+02  0.50940391449E+02  0.51100000000E-03 0. -1.
         22    1    1    0    0    0 -0.21525479677E+02 -0.11095499073E+02  0.17050992967E+02  0.29617439730E+02  0.00000000000E+00 0.  1.
</event>
<event>
 5    1  0.1043455E-009  0.9118800E+02  0.7561462E-02  0.1125453E+00
         25   -1    0    0    0    0  0.00000000000E+00  0.00000000000E+00  0.99999998245E-14  0.12509000000E+03  0.12509000000E+03 0.  0.
        -11    1    3    3    0    0  0.63705855083E+01  0.32265225160E+02 -0.46890238547E+02  0.57274109208E+02  0.51100000000E-03 0.  1.
         23    2    1    0    0    0  0.41212625422E+01 -0.12254350386E+01 -0.29876149694E+02  0.94906050349E+02  0.89978261688E+02 0.  0.
         11    1    3    3    0    0 -0.22493229661E+01 -0.33490660198E+02  0.17014088853E+02  0.37631941141E+02  0.51100000000E-03 0. -1.
         22    1    1    0    0    0 -0.41212625422E+01  0.12254350386E+01  0.29876149694E+02  0.30183949651E+02  0.00000000000E+00 0.  1.
</event>
<event>
 5    1  0.1043455E-009  0.9118800E+02  0.7561462E-02  0.1125453E+00
         25   -1    0    0    0    0  0.00000000000E+00  0.00000000000E+00  0.99999998245E-14  0.12509000000E+03  0.12509000000E+03 0.  0.
        -11    1    3    3    0    0 -0.21636055652E+02 -0.29341619644E+02  0.48589391340E+02  0.60745193214E+02  0.51100000000E-03 0. -1.
         23    2    1    0    0    0 -0.18211730314E+02 -0.14389751062E+02  0.15606307510E+02  0.97120572213E+02  0.93006003335E+02 0.  0.
         11    1    3    3    0    0  0.34243253386E+01  0.14951868582E+02 -0.32983083831E+02  0.36375378999E+02  0.51100000000E-03 0.  1.
         22    1    1    0    0    0  0.18211730314E+02  0.14389751062E+02 -0.15606307510E+02  0.27969427787E+02  0.00000000000E+00 0. -1.
</event>
<event>
 5    1  0.1043455E-009  0.9118800E+02  0.7561462E-02  0.1125453E+00
         25   -1    0    0    0    0  0.00000000000E+00  0.00000000000E+00  0.99999998245E-14  0.12509000000E+03  0.12509000000E+03 0.  0.
        -11    1    3    3    0    0 -0.37173950382E+02 -0.30139596744E+02  0.27313746646E+02  0.55102982088E+02  0.51100000000E-03 0. -1.
         23    2    1    0    0    0 -0.20089653532E+01 -0.21831661951E+02  0.25751683426E+02  0.91269789998E+02  0.84772448128E+02 0.  0.
         11    1    3    3    0    0  0.35164985029E+02  0.83079347927E+01 -0.15620632207E+01  0.36166807910E+02  0.51100000000E-03 0.  1.
         22    1    1    0    0    0  0.20089653532E+01  0.21831661951E+02 -0.25751683426E+02  0.33820210002E+02  0.00000000000E+00 0. -1.
</event>
<event>
 5    1  0.1043455E-009  0.9118800E+02  0.7561462E-02  0.1125453E+00
         25   -1    0    0    0    0  0.00000000000E+00  0.00000000000E+00  0.99999998245E-14  0.12509000000E+03  0.12509000000E+03 0.  0.
        -11    1    3    3    0    0 -0.24846743619E+02 -0.75076874823E+00 -0.33671502842E+02  0.41853248692E+02  0.51100000000E-03 0. -1.
         23    2    1    0    0    0 -0.15671311768E+02  0.18114369738E+02  0.16345733004E+02  0.96091665721E+02  0.91611706839E+02 0.  0.
         11    1    3    3    0    0  0.91754318514E+01  0.18865138487E+02  0.50017235846E+02  0.54238417028E+02  0.51100000000E-03 0.  1.
         22    1    1    0    0    0  0.15671311768E+02 -0.18114369738E+02 -0.16345733004E+02  0.28998334279E+02  0.00000000000E+00 0.  1.
</event>
<event>
 5    1  0.1043455E-009  0.9118800E+02  0.7561462E-02  0.1125453E+00
         25   -1    0    0    0    0  0.00000000000E+00  0.00000000000E+00  0.99999998245E-14  0.12509000000E+03  0.12509000000E+03 0.  0.
        -11    1    3    3    0    0  0.20675076877E+02 -0.25477093138E+02 -0.23658797698E+02  0.40450955333E+02  0.51100000000E-03 0.  1.
         23    2    1    0    0    0  0.25657959141E+02  0.20344712162E+02  0.18373602983E+00  0.92344436344E+02  0.86343633144E+02 0.  0.
         11    1    3    3    0    0  0.49828822640E+01  0.45821805300E+02  0.23842533728E+02  0.51893481011E+02  0.51100000000E-03 0. -1.
         22    1    1    0    0    0 -0.25657959141E+02 -0.20344712162E+02 -0.18373602983E+00  0.32745563656E+02  0.00000000000E+00 0. -1.
</event>
<event>
 5    1  0.1043455E-009  0.9118800E+02  0.7561462E-02  0.1125453E+00
         25   -1    0    0    0    0  0.00000000000E+00  0.00000000000E+00  0.99999998245E-14  0.12509000000E+03  0.12509000000E+03 0.  0.
        -11    1    3    3    0    0  0.35242309252E+02 -0.36454822994E+02  0.75142941421E+01  0.51258551459E+02  0.51100000000E-03 0. -1.
         23    2    1    0    0    0  0.89033720397E+01 -0.89803845955E+01  0.27916906256E+02  0.94442471616E+02  0.89331458338E+02 0.  0.
         11    1    3    3    0    0 -0.26338937212E+02  0.27474438398E+02  0.20402612114E+02  0.43183920157E+02  0.51100000000E-03 0.  1.
         22    1    1    0    0    0 -0.89033720397E+01  0.89803845955E+01 -0.27916906256E+02  0.30647528384E+02  0.00000000000E+00 0. -1.
</event>
<event>
 5    1  0.1043455E-009  0.9118800E+02  0.7561462E-02  0.1125453E+00
         25   -1    0    0    0    0  0.00000000000E+00  0.00000000000E+00  0.99999998245E-14  0.12509000000E+03  0.12509000000E+03 0.  0.
        -11    1    3    3    0    0  0.15183020878E+02  0.17760793122E+02 -0.27722518398E+02  0.36256143230E+02  0.51100000000E-03 0.  1.
         23    2    1    0    0    0 -0.21560766689E+02 -0.98214507158E+00  0.17382224901E+02  0.97377674012E+02  0.93351156310E+02 0.  0.
         11    1    3    3    0    0 -0.36743787566E+02 -0.18742938193E+02  0.45104743299E+02  0.61121530783E+02  0.51100000000E-03 0. -1.
         22    1    1    0    0    0  0.21560766689E+02  0.98214507158E+00 -0.17382224901E+02  0.27712325988E+02  0.00000000000E+00 0. -1.
</event>
<event>
 5    1  0.1043455E-009  0.9118800E+02  0.7561462E-02  0.1125453E+00
         25   -1    0    0    0    0  0.00000000000E+00  0.00000000000E+00  0.99999998245E-14  0.12509000000E+03  0.12509000000E+03 0.  0.
        -11    1    3    3    0    0  0.32950700960E+02 -0.31360969715E+02  0.31578099852E+02  0.55375405242E+02  0.51100000000E-03 0.  1.
         23    2    1    0    0    0  0.25481195323E+02  0.41851897750E+01  0.13656681677E+02  0.95878493997E+02  0.91320170434E+02 0.  0.
         11    1    3    3    0    0 -0.74695056369E+01  0.35546159490E+02 -0.17921418175E+02  0.40503088754E+02  0.51100000000E-03 0. -1.
         22    1    1    0    0    0 -0.25481195323E+02 -0.41851897750E+01 -0.13656681677E+02  0.29211506003E+02  0.00000000000E+00 0.  1.
</event>
<event>
 5    1  0.1043455E-009  0.9118800E+02  0.7561462E-02  0.1125453E+00
         25   -1    0    0    0    0  0.00000000000E+00  0.00000000000E+00  0.99999998245E-14  0.12509000000E+03  0.12509000000E+03 0.  0.
        -11    1    3    3    0    0  0.52901656186E+02  0.17104159723E+02 -0.76728577177E+01  0.56124952142E+02  0.51100000000E-03 0. -1.
         23    2    1    0    0    0  0.25139075282E+02  0.33268110254E+00  0.15105791289E+02  0.95759662238E+02  0.91157249842E+02 0.  0.
         11    1    3    3    0    0 -0.27762580904E+02 -0.16771478621E+02  0.22778649007E+02  0.39634710096E+02  0.51100000000E-03 0.  1.
         22    1    1    0    0    0 -0.25139075282E+02 -0.33268110254E+00 -0.15105791289E+02  0.29330337762E+02  0.00000000000E+00 0. -1.
</event>
<event>
 5    1  0.1043455E-009  0.9118800E+02  0.7561462E-02  0.1125453E+00
         25   -1    0    0    0    0  0.00000000000E+00  0.00000000000E+00  0.99999998245E-14  0.12509000000E+03  0.12509000000E+03 0.  0.
        -11    1    3    3    0    0 -0.14183877458E+02  0.30952065375E+02  0.13983608862E+02  0.36806983682E+02  0.51100000000E-03 0.  1.
         23    2    1    0    0    0 -0.20308835911E+01 -0.24082813514E+02 -0.11096447436E+02  0.98496061957E+02  0.94837949580E+02 0.  0.
         11    1    3    3    0    0  0.12152993867E+02 -0.55034878889E+02 -0.25080056297E+02  0.61689078275E+02  0.51100000000E-03 0. -1.
         22    1    1    0    0    0  0.20308835911E+01  0.24082813514E+02  0.11096447436E+02  0.26593938043E+02  0.00000000000E+00 0. -1.
</event>
<event>
 5    1  0.1043455E-009  0.9118800E+02  0.7561462E-02  0.1125453E+00
         25   -1    0    0    0    0  0.00000000000E+00  0.00000000000E+00  0.99999998245E-14  0.12509000000E+03  0.12509000000E+03 0.  0.
        -11    1    3    3    0    0 -0.47840749338E+02  0.34979023524E+02 -0.23432805767E+01  0.59310710231E+02  0.51100000000E-03 0.  1.
         23    2    1    0    0    0 -0.25263270588E+02  0.81350788852E+01  0.10335167617E+02  0.96607934785E+02  0.92313948157E+02 0.  0.
         11    1    3    3    0    0  0.22577478751E+02 -0.26843944639E+02  0.12678448194E+02  0.37297224554E+02  0.51100000000E-03 0. -1.
         22    1    1    0    0    0  0.25263270588E+02 -0.81350788852E+01 -0.10335167617E+02  0.28482065215E+02  0.00000000000E+00 0.  1.
</event>
<event>
 5    1  0.1043455E-009  0.9118800E+02  0.7561462E-02  0.1125453E+00
         25   -1    0    0    0    0  0.00000000000E+00  0.00000000000E+00  0.99999998245E-14  0.12509000000E+03  0.12509000000E+03 0.  0.
        -11    1    3    3    0    0 -0.35269387274E+02 -0.17890524890E+02 -0.35277406367E+02  0.52995244690E+02  0.51100000000E-03 0.  1.
         23    2    1    0    0    0 -0.29246799427E+02  0.97857032710E+00  0.25720250886E+01  0.95714020192E+02  0.91094596282E+02 0.  0.
         11    1    3    3    0    0  0.60225878471E+01  0.18869095217E+02  0.37849431455E+02  0.42718775503E+02  0.51100000000E-03 0. -1.
         22    1    1    0    0    0  0.29246799427E+02 -0.97857032710E+00 -0.25720250886E+01  0.29375979808E+02  0.00000000000E+00 0. -1.
</event>
<event>
 5    1  0.1043455E-009  0.9118800E+02  0.7561462E-02  0.1125453E+00
         25   -1    0    0    0    0  0.00000000000E+00  0.00000000000E+00  0.99999998245E-14  0.12509000000E+03  0.12509000000E+03 0.  0.
        -11    1    3    3    0    0  0.42203082866E+02 -0.79121697630E+01 -0.42823577369E+02  0.60642900761E+02  0.51100000000E-03 0.  1.
         23    2    1    0    0    0  0.23553746963E+02 -0.90775418514E+01 -0.10982419016E+02  0.97561936328E+02  0.93597741055E+02 0.  0.
         11    1    3    3    0    0 -0.18649335903E+02 -0.11653720884E+01  0.31841158352E+02  0.36919035567E+02  0.51100000000E-03 0. -1.
         22    1    1    0    0    0 -0.23553746963E+02  0.90775418514E+01  0.10982419016E+02  0.27528063672E+02  0.00000000000E+00 0.  1.
</event>
<event>
 5    1  0.1043455E-009  0.9118800E+02  0.7561462E-02  0.1125453E+00
         25   -1    0    0    0    0  0.00000000000E+00  0.00000000000E+00  0.99999998245E-14  0.12509000000E+03  0.12509000000E+03 0.  0.
        -11    1    3    3    0    0  0.29206550090E+02  0.67444308517E+01 -0.33205170872E+02  0.44733581218E+02  0.51100000000E-03 0. -1.
         23    2    1    0    0    0  0.87830110046E+01  0.30045659552E+02  0.44215891934E+01  0.93476183539E+02  0.87967968590E+02 0.  0.
         11    1    3    3    0    0 -0.20423539085E+02  0.23301228701E+02  0.37626760065E+02  0.48742602321E+02  0.51100000000E-03 0.  1.
         22    1    1    0    0    0 -0.87830110046E+01 -0.30045659552E+02 -0.44215891934E+01  0.31613816461E+02  0.00000000000E+00 0.  1.
</event>
<event>
 5    1  0.1043455E-009  0.9118800E+02  0.7561462E-02  0.1125453E+00
         25   -1    0    0    0    0  0.00000000000E+00  0.00000000000E+00  0.99999998245E-14  0.12509000000E+03  0.12509000000E+03 0.  0.
        -11    1    3    3    0    0 -0.50402385714E+02 -0.32017296886E+02  0.47653423969E+01  0.59901721795E+02  0.51100000000E-03 0. -1.
         23    2    1    0    0    0 -0.14546072116E+02  0.28304903127E+01 -0.10215876766E+01  0.11023592545E+03  0.10923056225E+03 0.  0.
         11    1    3    3    0    0  0.35856313599E+02  0.34847787198E+02 -0.57869300734E+01  0.50334203654E+02  0.51100000000E-03 0.  1.
         22    1    1    0    0    0  0.14546072116E+02 -0.28304903127E+01  0.10215876766E+01  0.14854074551E+02  0.00000000000E+00 0. -1.
</event>
<event>
 5    1  0.1043455E-009  0.9118800E+02  0.7561462E-02  0.1125453E+00
         25   -1    0    0    0    0  0.00000000000E+00  0.00000000000E+00  0.99999998245E-14  0.12509000000E+03  0.12509000000E+03 0.  0.
        -11    1    3    3    0    0 -0.31643583223E+01 -0.20055175255E+02 -0.22235466573E+02  0.30110449882E+02  0.51100000000E-03 0. -1.
         23    2    1    0    0    0  0.41810759205E+02 -0.14547788399E+02  0.52659683907E+00  0.80817491184E+02  0.67612216681E+02 0.  0.
         11    1    3    3    0    0  0.44975117527E+02  0.55073868565E+01  0.22762063412E+02  0.50707041302E+02  0.51100000000E-03 0.  1.
         22    1    1    0    0    0 -0.41810759205E+02  0.14547788399E+02 -0.52659683907E+00  0.44272508816E+02  0.00000000000E+00 0.  1.
</event>
<event>
 5    1  0.1043455E-009  0.9118800E+02  0.7561462E-02  0.1125453E+00
         25   -1    0    0    0    0  0.00000000000E+00  0.00000000000E+00  0.99999998245E-14  0.12509000000E+03  0.12509000000E+03 0.  0.
        -11    1    3    3    0    0  0.28368022581E+02  0.29389214368E+02 -0.35045505721E+02  0.53820610344E+02  0.51100000000E-03 0. -1.
         23    2    1    0    0    0  0.43837067218E+01 -0.57341991223E+01 -0.27045842441E+02  0.97097581070E+02  0.92975075865E+02 0.  0.
         11    1    3    3    0    0 -0.23984315859E+02 -0.35123413490E+02  0.79996632796E+01  0.43276970727E+02  0.51100000000E-03 0.  1.
         22    1    1    0    0    0 -0.43837067218E+01  0.57341991223E+01  0.27045842441E+02  0.27992418930E+02  0.00000000000E+00 0. -1.
</event>
<event>
 5    1  0.1043455E-009  0.9118800E+02  0.7561462E-02  0.1125453E+00
         25   -1    0    0    0    0  0.00000000000E+00  0.00000000000E+00  0.99999998245E-14  0.12509000000E+03  0.12509000000E+03 0.  0.
        -11    1    3    3    0    0  0.33970769483E+02 -0.45009691633E+02 -0.22904919037E+02  0.60864775006E+02  0.51100000000E-03 0. -1.
         23    2    1    0    0    0  0.23267604261E+02 -0.32918669719E+02 -0.58417415189E+01  0.84357382013E+02  0.73871657163E+02 0.  0.
         11    1    3    3    0    0 -0.10703165223E+02  0.12091021914E+02  0.17063177518E+02  0.23492607007E+02  0.51100000000E-03 0.  1.
         22    1    1    0    0    0 -0.23267604261E+02  0.32918669719E+02  0.58417415189E+01  0.40732617987E+02  0.00000000000E+00 0. -1.
</event>
<event>
 5    1  0.1043455E-009  0.9118800E+02  0.7561462E-02  0.1125453E+00
         25   -1    0    0    0    0  0.00000000000E+00  0.00000000000E+00  0.99999998245E-14  0.12509000000E+03  0.12509000000E+03 0.  0.
        -11    1    3    3    0    0 -0.13621816157E+02 -0.11880740711E+01 -0.53459199573E+02  0.55180172296E+02  0.51100000000E-03 0.  1.
         23    2    1    0    0    0 -0.22556960007E+02 -0.11076679668E+02 -0.15137810465E+02  0.95752948633E+02  0.91148036672E+02 0.  0.
         11    1    3    3    0    0 -0.89351438497E+01 -0.98886055972E+01  0.38321389108E+02  0.40572776337E+02  0.51100000000E-03 0. -1.
         22    1    1    0    0    0  0.22556960007E+02  0.11076679668E+02  0.15137810465E+02  0.29337051367E+02  0.00000000000E+00 0.  1.
</event>
<event>
 5    1  0.1043455E-009  0.9118800E+02  0.7561462E-02  0.1125453E+00
         25   -1    0    0    0    0  0.00000000000E+00  0.00000000000E+00  0.99999998245E-14  0.12509000000E+03  0.12509000000E+03 0.  0.
        -11    1    3    3    0    0  0.16594499392E+02  0.11970381760E+02  0.28099033971E+02  0.34759504598E+02  0.51100000000E-03 0. -1.
         23    2    1    0    0    0 -0.25042686191E+02 -0.23695086029E+01 -0.14522098412E+02  0.96044483221E+02  0.91547259447E+02 0.  0.
         11    1    3    3    0    0 -0.41637185583E+02 -0.14339890363E+02 -0.42621132383E+02  0.61284978623E+02  0.51100000000E-03 0.  1.
         22    1    1    0    0    0  0.25042686191E+02  0.23695086029E+01  0.14522098412E+02  0.29045516779E+02  0.00000000000E+00 0.  1.
</event>
<event>
 5    1  0.1043455E-009  0.9118800E+02  0.7561462E-02  0.1125453E+00
         25   -1    0    0    0    0  0.00000000000E+00  0.00000000000E+00  0.99999998245E-14  0.12509000000E+03  0.12509000000E+03 0.  0.
        -11    1    3    3    0    0 -0.41047560541E+02  0.26590381411E+02  0.14580886178E+02  0.51034819995E+02  0.51100000000E-03 0.  1.
         23    2    1    0    0    0 -0.31774863138E+01  0.30485872321E+02 -0.53014092058E+01  0.93983894972E+02  0.88686993095E+02 0.  0.
         11    1    3    3    0    0  0.37870074227E+02  0.38954909101E+01 -0.19882295384E+02  0.42949074977E+02  0.51100000000E-03 0. -1.
         22    1    1    0    0    0  0.31774863138E+01 -0.30485872321E+02  0.53014092058E+01  0.31106105028E+02  0.00000000000E+00 0.  1.
</event>
<event>
 5    1  0.1043455E-009  0.9118800E+02  0.7561462E-02  0.1125453E+00
         25   -1    0    0    0    0  0.00000000000E+00  0.00000000000E+00  0.99999998245E-14  0.12509000000E+03  0.12509000000E+03 0.  0.
        -11    1    3    3    0    0 -0.16378654035E+02 -0.19570960544E+02  0.36934320247E+02  0.44893505287E+02  0.51100000000E-03 0.  1.
         23    2    1    0    0    0  0.47472976464E+01  0.22788344251E+02  0.17052799546E+02  0.96234438301E+02  0.91806446800E+02 0.  0.
         11    1    3    3    0    0  0.21125951681E+02  0.42359304794E+02 -0.19881520701E+02  0.51340933014E+02  0.51100000000E-03 0. -1.
         22    1    1    0    0    0 -0.47472976464E+01 -0.22788344251E+02 -0.17052799546E+02  0.28855561699E+02  0.00000000000E+00 0. -1.
</event>
<event>
 5    1  0.1043455E-009  0.9118800E+02  0.7561462E-02  0.1125453E+00
         25   -1    0    0    0    0  0.00000000000E+00  0.00000000000E+00  0.99999998245E-14  0.12509000000E+03  0.12509000000E+03 0.  0.
        -11    1    3    3    0    0 -0.15675996369E+02 -0.31106013297E+02 -0.18041044837E+02  0.39227544207E+02  0.51100000000E-03 0.  1.
         23    2    1    0    0    0  0.11861298561E+02  0.16994337976E+02 -0.22089894104E+02  0.94800375566E+02  0.89831229866E+02 0.  0.
         11    1    3    3    0    0  0.27537294931E+02  0.48100351273E+02 -0.40488492667E+01  0.55572831360E+02  0.51100000000E-03 0. -1.
         22    1    1    0    0    0 -0.11861298561E+02 -0.16994337976E+02  0.22089894104E+02  0.30289624434E+02  0.00000000000E+00 0. -1.
</event>
<event>
 5    1  0.1043455E-009  0.9118800E+02  0.7561462E-02  0.1125453E+00
         25   -1    0    0    0    0  0.00000000000E+00  0.00000000000E+00  0.99999998245E-14  0.12509000000E+03  0.12509000000E+03 0.  0.
        -11    1    3    3    0    0  0.42378864330E+02  0.11857660496E+02 -0.27998348865E+02  0.52158218852E+02  0.51100000000E-03 0.  1.
         23    2    1    0    0    0  0.25476305631E+02  0.59282325473E+01  0.12245579617E+02  0.96208512679E+02  0.91771115293E+02 0.  0.
         11    1    3    3    0    0 -0.16902558699E+02 -0.59294279489E+01  0.40243928482E+02  0.44050293828E+02  0.51100000000E-03 0. -1.
         22    1    1    0    0    0 -0.25476305631E+02 -0.59282325473E+01 -0.12245579617E+02  0.28881487321E+02  0.00000000000E+00 0.  1.
</event>
<event>
 5    1  0.1043455E-009  0.9118800E+02  0.7561462E-02  0.1125453E+00
         25   -1    0    0    0    0  0.00000000000E+00  0.00000000000E+00  0.99999998245E-14  0.12509000000E+03  0.12509000000E+03 0.  0.
        -11    1    3    3    0    0  0.28288675422E+02 -0.12755368031E+02  0.18258377778E+02  0.36004401538E+02  0.51100000000E-03 0. -1.
         23    2    1    0    0    0 -0.11365417874E+02 -0.62254530687E+01 -0.26154674230E+02  0.95901029936E+02  0.91351034856E+02 0.  0.
         11    1    3    3    0    0 -0.39654093296E+02  0.65299149619E+01 -0.44413052008E+02  0.59896628398E+02  0.51100000000E-03 0.  1.
         22    1    1    0    0    0  0.11365417874E+02  0.62254530687E+01  0.26154674230E+02  0.29188970064E+02  0.00000000000E+00 0.  1.
</event>
<event>
 5    1  0.1043455E-009  0.9118800E+02  0.7561462E-02  0.1125453E+00
         25   -1    0    0    0    0  0.00000000000E+00  0.00000000000E+00  0.99999998245E-14  0.12509000000E+03  0.12509000000E+03 0.  0.
        -11    1    3    3    0    0  0.57735806669E+01  0.14622063256E+02 -0.47277853920E+02  0.49823031212E+02  0.51100000000E-03 0. -1.
         23    2    1    0    0    0  0.29755235296E+02  0.17992285737E+01 -0.16042977301E+02  0.91237549990E+02  0.84724861502E+02 0.  0.
         11    1    3    3    0    0  0.23981654629E+02 -0.12822834682E+02  0.31234876619E+02  0.41414518779E+02  0.51100000000E-03 0.  1.
         22    1    1    0    0    0 -0.29755235296E+02 -0.17992285737E+01  0.16042977301E+02  0.33852450010E+02  0.00000000000E+00 0. -1.
</event>
<event>
 5    1  0.1043455E-009  0.9118800E+02  0.7561462E-02  0.1125453E+00
         25   -1    0    0    0    0  0.00000000000E+00  0.00000000000E+00  0.99999998245E-14  0.12509000000E+03  0.12509000000E+03 0.  0.
        -11    1    3    3    0    0  0.22839173564E+02 -0.29976402292E+02 -0.16692590236E+02  0.41217170118E+02  0.51100000000E-03 0.  1.
         23    2    1    0    0    0 -0.76141216379E+01  0.13971630909E+02 -0.25129269389E+02  0.95346740283E+02  0.90588848012E+02 0.  0.
         11    1    3    3    0    0 -0.30453295202E+02  0.43948033201E+02 -0.84366791524E+01  0.54129570165E+02  0.51100000000E-03 0. -1.
         22    1    1    0    0    0  0.76141216379E+01 -0.13971630909E+02  0.25129269389E+02  0.29743259717E+02  0.00000000000E+00 0. -1.
</event>
<event>
 5    1  0.1043455E-009  0.9118800E+02  0.7561462E-02  0.1125453E+00
         25   -1    0    0    0    0  0.00000000000E+00  0.00000000000E+00  0.99999998245E-14  0.12509000000E+03  0.12509000000E+03 0.  0.
        -11    1    3    3    0    0  0.53448477722E+02  0.37222734437E+01  0.66175430650E+01  0.53985062442E+02  0.51100000000E-03 0.  1.
         23    2    1    0    0    0  0.21233322658E+02 -0.13915277948E+02 -0.13994938044E+02  0.96101256628E+02  0.91624801681E+02 0.  0.
         11    1    3    3    0    0 -0.32215155065E+02 -0.17637551391E+02 -0.20612481109E+02  0.42116194185E+02  0.51100000000E-03 0. -1.
         22    1    1    0    0    0 -0.21233322658E+02  0.13915277948E+02  0.13994938044E+02  0.28988743372E+02  0.00000000000E+00 0.  1.
</event>
<event>
 5    1  0.1043455E-009  0.9118800E+02  0.7561462E-02  0.1125453E+00
         25   -1    0    0    0    0  0.00000000000E+00  0.00000000000E+00  0.99999998245E-14  0.12509000000E+03  0.12509000000E+03 0.  0.
        -11    1    3    3    0    0 -0.12850558321E+02 -0.39455134294E+02  0.16424232356E+01  0.41527605585E+02  0.51100000000E-03 0. -1.
         23    2    1    0    0    0 -0.11377986229E+02  0.83011056156E+01  0.26271786419E+02  0.95281046870E+02  0.90498089515E+02 0.  0.
         11    1    3    3    0    0  0.14725720917E+01  0.47756239909E+02  0.24629363183E+02  0.53753441284E+02  0.51100000000E-03 0.  1.
         22    1    1    0    0    0  0.11377986229E+02 -0.83011056156E+01 -0.26271786419E+02  0.29808953130E+02  0.00000000000E+00 0.  1.
</event>
<event>
 5    1  0.1043455E-009  0.9118800E+02  0.7561462E-02  0.1125453E+00
         25   -1    0    0    0    0  0.00000000000E+00  0.00000000000E+00  0.99999998245E-14  0.12509000000E+03  0.12509000000E+03 0.  0.
        -11    1    3    3    0    0  0.10737233695E+02  0.30797016192E+02 -0.29415755807E+02  0.43920736375E+02  0.51100000000E-03 0. -1.
         23    2    1    0    0    0 -0.24406711483E+02  0.15481294816E+02  0.53771215025E+01  0.95691505306E+02  0.91063673864E+02 0.  0.
         11    1    3    3    0    0 -0.35143945179E+02 -0.15315721376E+02  0.34792877310E+02  0.51770768931E+02  0.51100000000E-03 0.  1.
         22    1    1    0    0    0  0.24406711483E+02 -0.15481294816E+02 -0.53771215025E+01  0.29398494694E+02  0.00000000000E+00 0.  1.
</event>
<event>
 5    1  0.1043455E-009  0.9118800E+02  0.7561462E-02  0.1125453E+00
         25   -1    0    0    0    0  0.00000000000E+00  0.00000000000E+00  0.99999998245E-14  0.12509000000E+03  0.12509000000E+03 0.  0.
        -11    1    3    3    0    0 -0.42957284662E+02  0.24360743875E+02  0.24381653193E+02  0.55074850525E+02  0.51100000000E-03 0. -1.
         23    2    1    0    0    0 -0.50726151362E+01  0.27170444963E+02  0.98817550035E+01  0.95736744886E+02  0.91125796214E+02 0.  0.
         11    1    3    3    0    0  0.37884669526E+02  0.28097010879E+01 -0.14499898190E+02  0.40661894361E+02  0.51100000000E-03 0.  1.
         22    1    1    0    0    0  0.50726151362E+01 -0.27170444963E+02 -0.98817550035E+01  0.29353255114E+02  0.00000000000E+00 0. -1.
</event>
<event>
 5    1  0.1043455E-009  0.9118800E+02  0.7561462E-02  0.1125453E+00
         25   -1    0    0    0    0  0.00000000000E+00  0.00000000000E+00  0.99999998245E-14  0.12509000000E+03  0.12509000000E+03 0.  0.
        -11    1    3    3    0    0  0.11548056778E+02 -0.29833519395E+02 -0.55025769248E+01  0.32460358099E+02  0.51100000000E-03 0.  1.
         23    2    1    0    0    0 -0.64190008037E+01  0.29409644531E+02  0.25055772624E+01  0.94883896640E+02  0.89947457782E+02 0.  0.
         11    1    3    3    0    0 -0.17967057582E+02  0.59243163927E+02  0.80081541872E+01  0.62423538541E+02  0.51100000000E-03 0. -1.
         22    1    1    0    0    0  0.64190008037E+01 -0.29409644531E+02 -0.25055772624E+01  0.30206103360E+02  0.00000000000E+00 0. -1.
</event>
<event>
 5    1  0.1043455E-009  0.9118800E+02  0.7561462E-02  0.1125453E+00
         25   -1    0    0    0    0  0.00000000000E+00  0.00000000000E+00  0.99999998245E-14  0.12509000000E+03  0.12509000000E+03 0.  0.
        -11    1    3    3    0    0 -0.31079540725E+02 -0.98796838505E+01  0.33236201450E+01  0.32780977042E+02  0.51100000000E-03 0. -1.
         23    2    1    0    0    0  0.28533824191E+02 -0.17799451353E+01  0.12944950711E+02  0.93706579591E+02  0.88294982769E+02 0.  0.
         11    1    3    3    0    0  0.59613364916E+02  0.80997387152E+01  0.96213305657E+01  0.60925602549E+02  0.51100000000E-03 0.  1.
         22    1    1    0    0    0 -0.28533824191E+02  0.17799451353E+01 -0.12944950711E+02  0.31383420409E+02  0.00000000000E+00 0.  1.
</event>
<event>
 5    1  0.1043455E-009  0.9118800E+02  0.7561462E-02  0.1125453E+00
         25   -1    0    0    0    0  0.00000000000E+00  0.00000000000E+00  0.99999998245E-14  0.12509000000E+03  0.12509000000E+03 0.  0.
        -11    1    3    3    0    0  0.25858066781E+02 -0.23815357535E+02 -0.14994695389E+02  0.38218474096E+02  0.51100000000E-03 0. -1.
         23    2    1    0    0    0 -0.21870488506E+02 -0.12684571842E+02  0.15014033968E+02  0.95685275102E+02  0.91055115315E+02 0.  0.
         11    1    3    3    0    0 -0.47728555287E+02  0.11130785693E+02  0.30008729358E+02  0.57466801006E+02  0.51100000000E-03 0.  1.
         22    1    1    0    0    0  0.21870488506E+02  0.12684571842E+02 -0.15014033968E+02  0.29404724898E+02  0.00000000000E+00 0.  1.
</event>
<event>
 5    1  0.1043455E-009  0.9118800E+02  0.7561462E-02  0.1125453E+00
         25   -1    0    0    0    0  0.00000000000E+00  0.00000000000E+00  0.99999998245E-14  0.12509000000E+03  0.12509000000E+03 0.  0.
        -11    1    3    3    0    0 -0.17313914119E+02  0.26492514627E+01  0.50218093177E+02  0.53185026446E+02  0.51100000000E-03 0.  1.
         23    2    1    0    0    0 -0.26580524234E+02 -0.58236592707E+01  0.87587012282E+01  0.96504092229E+02  0.92173128915E+02 0.  0.
         11    1    3    3    0    0 -0.92666101154E+01 -0.84729107333E+01 -0.41459391949E+02  0.43319065784E+02  0.51100000000E-03 0. -1.
         22    1    1    0    0    0  0.26580524234E+02  0.58236592707E+01 -0.87587012282E+01  0.28585907771E+02  0.00000000000E+00 0.  1.
</event>
<event>
 5    1  0.1043455E-009  0.9118800E+02  0.7561462E-02  0.1125453E+00
         25   -1    0    0    0    0  0.00000000000E+00  0.00000000000E+00  0.99999998245E-14  0.12509000000E+03  0.12509000000E+03 0.  0.
        -11    1    3    3    0    0  0.37588563681E+02  0.35982081312E+02  0.31520686754E+02  0.60837192480E+02  0.51100000000E-03 0. -1.
         23    2    1    0    0    0  0.25214211296E+02  0.13572862271E+02  0.86176112784E+01  0.95186116211E+02  0.90366777378E+02 0.  0.
         11    1    3    3    0    0 -0.12374352385E+02 -0.22409219041E+02 -0.22903075476E+02  0.34348923731E+02  0.51100000000E-03 0.  1.
         22    1    1    0    0    0 -0.25214211296E+02 -0.13572862271E+02 -0.86176112784E+01  0.29903883789E+02  0.00000000000E+00 0. -1.
</event>
<event>
 5    1  0.1043455E-009  0.9118800E+02  0.7561462E-02  0.1125453E+00
         25   -1    0    0    0    0  0.00000000000E+00  0.00000000000E+00  0.99999998245E-14  0.12509000000E+03  0.12509000000E+03 0.  0.
        -11    1    3    3    0    0 -0.34875052252E+02 -0.22028384957E+02 -0.46318977618E+02  0.62023920395E+02  0.51100000000E-03 0. -1.
         23    2    1    0    0    0 -0.11215153038E+02 -0.60769706600E+01 -0.22639443962E+02  0.99104356791E+02  0.95636916941E+02 0.  0.
         11    1    3    3    0    0  0.23659899214E+02  0.15951414297E+02  0.23679533656E+02  0.37080436396E+02  0.51100000000E-03 0.  1.
         22    1    1    0    0    0  0.11215153038E+02  0.60769706600E+01  0.22639443962E+02  0.25985643209E+02  0.00000000000E+00 0. -1.
</event>
<event>
 5    1  0.1043455E-009  0.9118800E+02  0.7561462E-02  0.1125453E+00
         25   -1    0    0    0    0  0.00000000000E+00  0.00000000000E+00  0.99999998245E-14  0.12509000000E+03  0.12509000000E+03 0.  0.
        -11    1    3    3    0    0  0.35447873474E+02 -0.44693935413E+02  0.90768521946E+01  0.57762347966E+02  0.51100000000E-03 0. -1.
         23    2    1    0    0    0  0.13440427251E+02 -0.23153110079E+02 -0.12679751124E+02  0.95467581469E+02  0.90755558684E+02 0.  0.
         11    1    3    3    0    0 -0.22007446223E+02  0.21540825333E+02 -0.21756603319E+02  0.37705233503E+02  0.51100000000E-03 0.  1.
         22    1    1    0    0    0 -0.13440427251E+02  0.23153110079E+02  0.12679751124E+02  0.29622418531E+02  0.00000000000E+00 0. -1.
</event>
<event>
 5    1  0.1043455E-009  0.9118800E+02  0.7561462E-02  0.1125453E+00
         25   -1    0    0    0    0  0.00000000000E+00  0.00000000000E+00  0.99999998245E-14  0.12509000000E+03  0.12509000000E+03 0.  0.
        -11    1    3    3    0    0 -0.89865058964E+01 -0.40187935360E+02  0.43123389308E+02  0.59627629019E+02  0.51100000000E-03 0.  1.
         23    2    1    0    0    0  0.93021887033E+01 -0.18835841310E+02  0.16108108397E+02  0.98617546606E+02  0.94998051085E+02 0.  0.
         11    1    3    3    0    0  0.18288694600E+02  0.21352094050E+02 -0.27015280911E+02  0.38989917587E+02  0.51100000000E-03 0. -1.
         22    1    1    0    0    0 -0.93021887033E+01  0.18835841310E+02 -0.16108108397E+02  0.26472453394E+02  0.00000000000E+00 0.  1.
</event>
<event>
 5    1  0.1043455E-009  0.9118800E+02  0.7561462E-02  0.1125453E+00
         25   -1    0    0    0    0  0.00000000000E+00  0.00000000000E+00  0.99999998245E-14  0.12509000000E+03  0.12509000000E+03 0.  0.
        -11    1    3    3    0    0  0.28658862404E+01  0.34793072394E+02  0.50187354278E+01  0.35269801475E+02  0.51100000000E-03 0.  1.
         23    2    1    0    0    0 -0.12574192296E+02 -0.23684974597E+02  0.11122398119E+02  0.96059049732E+02  0.91567160936E+02 0.  0.
         11    1    3    3    0    0 -0.15440078537E+02 -0.58478046991E+02  0.61036626912E+01  0.60789248256E+02  0.51100000000E-03 0. -1.
         22    1    1    0    0    0  0.12574192296E+02  0.23684974597E+02 -0.11122398119E+02  0.29030950268E+02  0.00000000000E+00 0. -1.
</event>
<event>
 5    1  0.1043455E-009  0.9118800E+02  0.7561462E-02  0.1125453E+00
         25   -1    0    0    0    0  0.00000000000E+00  0.00000000000E+00  0.99999998245E-14  0.12509000000E+03  0.12509000000E+03 0.  0.
        -11    1    3    3    0    0  0.28006781282E+02 -0.31402758316E+02 -0.32485952972E+01  0.42202682372E+02  0.51100000000E-03 0.  1.
         23    2    1    0    0    0  0.57091970235E+01  0.11716143143E+02 -0.26146550088E+02  0.95875191729E+02  0.91315646889E+02 0.  0.
         11    1    3    3    0    0 -0.22297584259E+02  0.43118901460E+02 -0.22897954791E+02  0.53672509357E+02  0.51100000000E-03 0. -1.
         22    1    1    0    0    0 -0.57091970235E+01 -0.11716143143E+02  0.26146550088E+02  0.29214808271E+02  0.00000000000E+00 0. -1.
</event>
<event>
 5    1  0.1043455E-009  0.9118800E+02  0.7561462E-02  0.1125453E+00
         25   -1    0    0    0    0  0.00000000000E+00  0.00000000000E+00  0.99999998245E-14  0.12509000000E+03  0.12509000000E+03 0.  0.
        -11    1    3    3    0    0 -0.21687042936E+02 -0.19691407944E+02  0.33132922733E+02  0.44225218454E+02  0.51100000000E-03 0. -1.
         23    2    1    0    0    0  0.17844490502E+02  0.11315709482E+02  0.19628924997E+02  0.96249649466E+02  0.91827170290E+02 0.  0.
         11    1    3    3    0    0  0.39531533438E+02  0.31007117426E+02 -0.13503997736E+02  0.52024431013E+02  0.51100000000E-03 0.  1.
         22    1    1    0    0    0 -0.17844490502E+02 -0.11315709482E+02 -0.19628924997E+02  0.28840350534E+02  0.00000000000E+00 0.  1.
</event>
<event>
 5    1  0.1043455E-009  0.9118800E+02  0.7561462E-02  0.1125453E+00
         25   -1    0    0    0    0  0.00000000000E+00  0.00000000000E+00  0.99999998245E-14  0.12509000000E+03  0.12509000000E+03 0.  0.
        -11    1    3    3    0    0  0.25384699461E+02  0.43397446822E+02 -0.23824359419E+02  0.55635613229E+02  0.51100000000E-03 0.  1.
         23    2    1    0    0    0  0.19371471752E+02  0.69444742279E+01 -0.25136183255E+02  0.92604505564E+02  0.86719588917E+02 0.  0.
         11    1    3    3    0    0 -0.60132277086E+01 -0.36452972594E+02 -0.13118238359E+01  0.36968892335E+02  0.51100000000E-03 0. -1.
         22    1    1    0    0    0 -0.19371471752E+02 -0.69444742279E+01  0.25136183255E+02  0.32485494436E+02  0.00000000000E+00 0.  1.
</event>
<event>
 5    1  0.1043455E-009  0.9118800E+02  0.7561462E-02  0.1125453E+00
         25   -1    0    0    0    0  0.00000000000E+00  0.00000000000E+00  0.99999998245E-14  0.12509000000E+03  0.12509000000E+03 0.  0.
        -11    1    3    3    0    0  0.26764326444E+02 -0.42076268591E+02  0.19455734603E+02  0.53528190309E+02  0.51100000000E-03 0.  1.
         23    2    1    0    0    0  0.28334610324E+02 -0.39671919951E+01 -0.28963113737E+00  0.96477543959E+02  0.92137092680E+02 0.  0.
         11    1    3    3    0    0  0.15702838797E+01  0.38109076596E+02 -0.19745365741E+02  0.42949353650E+02  0.51100000000E-03 0. -1.
         22    1    1    0    0    0 -0.28334610324E+02  0.39671919951E+01  0.28963113737E+00  0.28612456041E+02  0.00000000000E+00 0.  1.
</event>
<event>
 5    1  0.1043455E-009  0.9118800E+02  0.7561462E-02  0.1125453E+00
         25   -1    0    0    0    0  0.00000000000E+00  0.00000000000E+00  0.99999998245E-14  0.12509000000E+03  0.12509000000E+03 0.  0.
        -11    1    3    3    0    0 -0.77354479869E+01  0.14335743665E+02  0.35763961278E+02  0.39299002895E+02  0.51100000000E-03 0. -1.
         23    2    1    0    0    0  0.62341961169E+01  0.19790559191E+02 -0.19532795280E+02  0.96593306757E+02  0.92294124322E+02 0.  0.
         11    1    3    3    0    0  0.13969644104E+02  0.54548155258E+01 -0.55296756559E+02  0.57294303861E+02  0.51100000000E-03 0.  1.
         22    1    1    0    0    0 -0.62341961169E+01 -0.19790559191E+02  0.19532795280E+02  0.28496693243E+02  0.00000000000E+00 0.  1.
</event>
<event>
 5    1  0.1043455E-009  0.9118800E+02  0.7561462E-02  0.1125453E+00
         25   -1    0    0    0    0  0.00000000000E+00  0.00000000000E+00  0.99999998245E-14  0.12509000000E+03  0.12509000000E+03 0.  0.
        -11    1    3    3    0    0 -0.56837363547E+01  0.39438303828E+02 -0.79690016906E+01  0.40634833037E+02  0.51100000000E-03 0. -1.
         23    2    1    0    0    0  0.11983520297E+02 -0.93438294329E+01 -0.25505230919E+02  0.95401134892E+02  0.90663927928E+02 0.  0.
         11    1    3    3    0    0  0.17667256651E+02 -0.48782133261E+02 -0.17536229228E+02  0.54766301855E+02  0.51100000000E-03 0.  1.
         22    1    1    0    0    0 -0.11983520297E+02  0.93438294329E+01  0.25505230919E+02  0.29688865108E+02  0.00000000000E+00 0.  1.
</event>
<event>
 5    1  0.1043455E-009  0.9118800E+02  0.7561462E-02  0.1125453E+00
         25   -1    0    0    0    0  0.00000000000E+00  0.00000000000E+00  0.99999998245E-14  0.12509000000E+03  0.12509000000E+03 0.  0.
        -11    1    3    3    0    0 -0.34531260760E+01  0.10224745960E+02 -0.38264392910E+02  0.39757178908E+02  0.51100000000E-03 0. -1.
         23    2    1    0    0    0 -0.53941107776E+01 -0.18091935452E+02  0.15572126271E+02  0.10061745056E+03  0.97595930659E+02 0.  0.
         11    1    3    3    0    0 -0.19409847016E+01 -0.28316681412E+02  0.53836519181E+02  0.60860271653E+02  0.51100000000E-03 0.  1.
         22    1    1    0    0    0  0.53941107776E+01  0.18091935452E+02 -0.15572126271E+02  0.24472549439E+02  0.00000000000E+00 0.  1.
</event>
<event>
 5    1  0.1043455E-009  0.9118800E+02  0.7561462E-02  0.1125453E+00
         25   -1    0    0    0    0  0.00000000000E+00  0.00000000000E+00  0.99999998245E-14  0.12509000000E+03  0.12509000000E+03 0.  0.
        -11    1    3    3    0    0  0.41452517666E+01  0.56158682504E+02  0.13912608672E+02  0.58004667167E+02  0.51100000000E-03 0. -1.
         23    2    1    0    0    0 -0.13856020001E+02  0.31297115960E+02  0.12224128401E+02  0.88745425813E+02  0.80961858489E+02 0.  0.
         11    1    3    3    0    0 -0.18001271767E+02 -0.24861566545E+02 -0.16884802712E+01  0.30740758647E+02  0.51100000000E-03 0.  1.
         22    1    1    0    0    0  0.13856020001E+02 -0.31297115960E+02 -0.12224128401E+02  0.36344574187E+02  0.00000000000E+00 0. -1.
</event>
<event>
 5    1  0.1043455E-009  0.9118800E+02  0.7561462E-02  0.1125453E+00
         25   -1    0    0    0    0  0.00000000000E+00  0.00000000000E+00  0.99999998245E-14  0.12509000000E+03  0.12509000000E+03 0.  0.
        -11    1    3    3    0    0  0.39182077968E+01  0.20089041817E+02 -0.44179349673E+02  0.48690213506E+02  0.51100000000E-03 0. -1.
         23    2    1    0    0    0  0.14693490754E+02  0.25780064067E+02  0.91546169848E+00  0.95402486733E+02  0.90665793058E+02 0.  0.
         11    1    3    3    0    0  0.10775282958E+02  0.56910222499E+01  0.45094811372E+02  0.46712273226E+02  0.51100000000E-03 0.  1.
         22    1    1    0    0    0 -0.14693490754E+02 -0.25780064067E+02 -0.91546169848E+00  0.29687513267E+02  0.00000000000E+00 0.  1.
</event>
<event>
 5    1  0.1043455E-009  0.9118800E+02  0.7561462E-02  0.1125453E+00
         25   -1    0    0    0    0  0.00000000000E+00  0.00000000000E+00  0.99999998245E-14  0.12509000000E+03  0.12509000000E+03 0.  0.
        -11    1    3    3    0    0  0.37261891321E+02  0.29835588654E+02  0.34670683385E+02  0.58997179439E+02  0.51100000000E-03 0.  1.
         23    2    1    0    0    0  0.93120079696E+01  0.97687444256E+01  0.27946245288E+02  0.94055591905E+02  0.88788061601E+02 0.  0.
         11    1    3    3    0    0 -0.27949883351E+02 -0.20066844229E+02 -0.67244380967E+01  0.35058412466E+02  0.51100000000E-03 0. -1.
         22    1    1    0    0    0 -0.93120079696E+01 -0.97687444256E+01 -0.27946245288E+02  0.31034408095E+02  0.00000000000E+00 0.  1.
</event>
<event>
 5    1  0.1043455E-009  0.9118800E+02  0.7561462E-02  0.1125453E+00
         25   -1    0    0    0    0  0.00000000000E+00  0.00000000000E+00  0.99999998245E-14  0.12509000000E+03  0.12509000000E+03 0.  0.
        -11    1    3    3    0    0 -0.17370023104E+02  0.30694636315E+02  0.40720620650E+02  0.53870653862E+02  0.51100000000E-03 0. -1.
         23    2    1    0    0    0 -0.11763282325E+02  0.29676981325E+02  0.18968526711E+01  0.93110380214E+02  0.87446251045E+02 0.  0.
         11    1    3    3    0    0  0.56067407796E+01 -0.10176549898E+01 -0.38823767978E+02  0.39239726352E+02  0.51100000000E-03 0.  1.
         22    1    1    0    0    0  0.11763282325E+02 -0.29676981325E+02 -0.18968526711E+01  0.31979619786E+02  0.00000000000E+00 0. -1.
</event>
<event>
 5    1  0.1043455E-009  0.9118800E+02  0.7561462E-02  0.1125453E+00
         25   -1    0    0    0    0  0.00000000000E+00  0.00000000000E+00  0.99999998245E-14  0.12509000000E+03  0.12509000000E+03 0.  0.
        -11    1    3    3    0    0  0.43805060950E+01  0.22279846528E+02 -0.28787188520E+02  0.36664459878E+02  0.51100000000E-03 0.  1.
         23    2    1    0    0    0 -0.11831093950E+01  0.25214682417E+02  0.24257816687E+02  0.90081120731E+02  0.82999919786E+02 0.  0.
         11    1    3    3    0    0 -0.55636154900E+01  0.29348358891E+01  0.53045005207E+02  0.53416660853E+02  0.51100000000E-03 0. -1.
         22    1    1    0    0    0  0.11831093950E+01 -0.25214682417E+02 -0.24257816687E+02  0.35008879269E+02  0.00000000000E+00 0. -1.
</event>
<event>
 5    1  0.1043455E-009  0.9118800E+02  0.7561462E-02  0.1125453E+00
         25   -1    0    0    0    0  0.00000000000E+00  0.00000000000E+00  0.99999998245E-14  0.12509000000E+03  0.12509000000E+03 0.  0.
        -11    1    3    3    0    0 -0.14451049983E+01  0.80702327313E+01 -0.27181790009E+02  0.28391313692E+02  0.51100000000E-03 0. -1.
         23    2    1    0    0    0 -0.81176928898E+01 -0.24332385145E+02  0.24411266750E+02  0.89679947062E+02  0.82393088642E+02 0.  0.
         11    1    3    3    0    0 -0.66725878915E+01 -0.32402617877E+02  0.51593056759E+02  0.61288633370E+02  0.51100000000E-03 0.  1.
         22    1    1    0    0    0  0.81176928898E+01  0.24332385145E+02 -0.24411266750E+02  0.35410052938E+02  0.00000000000E+00 0.  1.
</event>
<event>
 5    1  0.1043455E-009  0.9118800E+02  0.7561462E-02  0.1125453E+00
         25   -1    0    0    0    0  0.00000000000E+00  0.00000000000E+00  0.99999998245E-14  0.12509000000E+03  0.12509000000E+03 0.  0.
        -11    1    3    3    0    0  0.36451788772E+02 -0.24440702433E+02  0.28301142492E+02  0.52221025523E+02  0.51100000000E-03 0.  1.
         23    2    1    0    0    0  0.57342299969E+01 -0.52952150083E+01  0.35171506435E+02  0.89062849675E+02  0.81450817257E+02 0.  0.
         11    1    3    3    0    0 -0.30717558776E+02  0.19145487425E+02  0.68703639430E+01  0.36841824152E+02  0.51100000000E-03 0. -1.
         22    1    1    0    0    0 -0.57342299969E+01  0.52952150083E+01 -0.35171506435E+02  0.36027150325E+02  0.00000000000E+00 0.  1.
</event>
<event>
 5    1  0.1043455E-009  0.9118800E+02  0.7561462E-02  0.1125453E+00
         25   -1    0    0    0    0  0.00000000000E+00  0.00000000000E+00  0.99999998245E-14  0.12509000000E+03  0.12509000000E+03 0.  0.
        -11    1    3    3    0    0  0.19697966021E+02 -0.25001175890E+02  0.44412232964E+02  0.54639867298E+02  0.51100000000E-03 0. -1.
         23    2    1    0    0    0  0.10250388678E+02  0.97541724803E+01  0.26916333989E+02  0.94681064073E+02  0.89664934672E+02 0.  0.
         11    1    3    3    0    0 -0.94475773434E+01  0.34755348370E+02 -0.17495898975E+02  0.40041196775E+02  0.51100000000E-03 0.  1.
         22    1    1    0    0    0 -0.10250388678E+02 -0.97541724803E+01 -0.26916333989E+02  0.30408935927E+02  0.00000000000E+00 0. -1.
</event>
<event>
 5    1  0.1043455E-009  0.9118800E+02  0.7561462E-02  0.1125453E+00
         25   -1    0    0    0    0  0.00000000000E+00  0.00000000000E+00  0.99999998245E-14  0.12509000000E+03  0.12509000000E+03 0.  0.
        -11    1    3    3    0    0  0.55792846354E+02  0.25924076374E+02  0.80475223173E+01  0.62045644938E+02  0.51100000000E-03 0. -1.
         23    2    1    0    0    0  0.20911613354E+02  0.15785516372E+02  0.30628146730E+01  0.98710861767E+02  0.95120845754E+02 0.  0.
         11    1    3    3    0    0 -0.34881233000E+02 -0.10138560002E+02 -0.49847076443E+01  0.36665216828E+02  0.51100000000E-03 0.  1.
         22    1    1    0    0    0 -0.20911613354E+02 -0.15785516372E+02 -0.30628146730E+01  0.26379138233E+02  0.00000000000E+00 0. -1.
</event>
<event>
 5    1  0.1043455E-009  0.9118800E+02  0.7561462E-02  0.1125453E+00
         25   -1    0    0    0    0  0.00000000000E+00  0.00000000000E+00  0.99999998245E-14  0.12509000000E+03  0.12509000000E+03 0.  0.
        -11    1    3    3    0    0 -0.15548474399E+02 -0.16500452560E+02 -0.54904354093E+02  0.59401246531E+02  0.51100000000E-03 0.  1.
         23    2    1    0    0    0 -0.11452495656E+02  0.56210010053E+01 -0.13548189133E+02  0.10648062769E+03  0.10484185870E+03 0.  0.
         11    1    3    3    0    0  0.40959787428E+01  0.22121453565E+02  0.41356164960E+02  0.47079381157E+02  0.51100000000E-03 0. -1.
         22    1    1    0    0    0  0.11452495656E+02 -0.56210010053E+01  0.13548189133E+02  0.18609372312E+02  0.00000000000E+00 0.  1.
</event>
<event>
 5    1  0.1043455E-009  0.9118800E+02  0.7561462E-02  0.1125453E+00
         25   -1    0    0    0    0  0.00000000000E+00  0.00000000000E+00  0.99999998245E-14  0.12509000000E+03  0.12509000000E+03 0.  0.
        -11    1    3    3    0    0  0.14777235810E+01  0.48797238263E+02  0.16397515527E+02  0.51499831503E+02  0.51100000000E-03 0. -1.
         23    2    1    0    0    0 -0.18145539806E+02  0.87924510621E+01  0.20610092699E+02  0.96256968047E+02  0.91837139361E+02 0.  0.
         11    1    3    3    0    0 -0.19623263387E+02 -0.40004787201E+02  0.42125771726E+01  0.44757136544E+02  0.51100000000E-03 0.  1.
         22    1    1    0    0    0  0.18145539806E+02 -0.87924510621E+01 -0.20610092699E+02  0.28833031953E+02  0.00000000000E+00 0.  1.
</event>
<event>
 5    1  0.1043455E-009  0.9118800E+02  0.7561462E-02  0.1125453E+00
         25   -1    0    0    0    0  0.00000000000E+00  0.00000000000E+00  0.99999998245E-14  0.12509000000E+03  0.12509000000E+03 0.  0.
        -11    1    3    3    0    0  0.15427846682E+02 -0.32416603088E+02 -0.29021155098E+02  0.46163644272E+02  0.51100000000E-03 0. -1.
         23    2    1    0    0    0  0.19994452874E+02 -0.11950882126E+02  0.16676090899E+02  0.96442247261E+02  0.92089159622E+02 0.  0.
         11    1    3    3    0    0  0.45666061916E+01  0.20465720962E+02  0.45697245996E+02  0.50278602989E+02  0.51100000000E-03 0.  1.
         22    1    1    0    0    0 -0.19994452874E+02  0.11950882126E+02 -0.16676090899E+02  0.28647752739E+02  0.00000000000E+00 0. -1.
</event>
<event>
 5    1  0.1043455E-009  0.9118800E+02  0.7561462E-02  0.1125453E+00
         25   -1    0    0    0    0  0.00000000000E+00  0.00000000000E+00  0.99999998245E-14  0.12509000000E+03  0.12509000000E+03 0.  0.
        -11    1    3    3    0    0  0.25200718991E+02 -0.19872762610E+02  0.41054005562E+01  0.32355173395E+02  0.51100000000E-03 0.  1.
         23    2    1    0    0    0 -0.27732904371E+02  0.11069561905E+02 -0.63703135808E+01  0.94557556915E+02  0.89492466102E+02 0.  0.
         11    1    3    3    0    0 -0.52933623363E+02  0.30942324515E+02 -0.10475714137E+02  0.62202383520E+02  0.51100000000E-03 0. -1.
         22    1    1    0    0    0  0.27732904371E+02 -0.11069561905E+02  0.63703135808E+01  0.30532443085E+02  0.00000000000E+00 0. -1.
</event>
<event>
 5    1  0.1043455E-009  0.9118800E+02  0.7561462E-02  0.1125453E+00
         25   -1    0    0    0    0  0.00000000000E+00  0.00000000000E+00  0.99999998245E-14  0.12509000000E+03  0.12509000000E+03 0.  0.
        -11    1    3    3    0    0 -0.35886881229E+02 -0.10148584479E+02  0.36961499246E+02  0.52507279857E+02  0.51100000000E-03 0.  1.
         23    2    1    0    0    0  0.10802907746E+01  0.11201137869E+02  0.26264254417E+02  0.96516523176E+02  0.92189997658E+02 0.  0.
         11    1    3    3    0    0  0.36967172004E+02  0.21349722348E+02 -0.10697244829E+02  0.44009243319E+02  0.51100000000E-03 0. -1.
         22    1    1    0    0    0 -0.10802907746E+01 -0.11201137869E+02 -0.26264254417E+02  0.28573476824E+02  0.00000000000E+00 0.  1.
</event>
<event>
 5    1  0.1043455E-009  0.9118800E+02  0.7561462E-02  0.1125453E+00
         25   -1    0    0    0    0  0.00000000000E+00  0.00000000000E+00  0.99999998245E-14  0.12509000000E+03  0.12509000000E+03 0.  0.
        -11    1    3    3    0    0 -0.16925458581E+02  0.36680278416E+02  0.37925182001E+01  0.40574587705E+02  0.51100000000E-03 0.  1.
         23    2    1    0    0    0  0.25062122787E+02  0.81696946919E+01 -0.15078687774E+02  0.94721912557E+02  0.89721903588E+02 0.  0.
         11    1    3    3    0    0  0.41987581368E+02 -0.28510583724E+02 -0.18871205974E+02  0.54147324852E+02  0.51100000000E-03 0. -1.
         22    1    1    0    0    0 -0.25062122787E+02 -0.81696946919E+01  0.15078687774E+02  0.30368087443E+02  0.00000000000E+00 0. -1.
</event>
<event>
 5    1  0.1043455E-009  0.9118800E+02  0.7561462E-02  0.1125453E+00
         25   -1    0    0    0    0  0.00000000000E+00  0.00000000000E+00  0.99999998245E-14  0.12509000000E+03  0.12509000000E+03 0.  0.
        -11    1    3    3    0    0 -0.30865916615E+02  0.37185148608E+01  0.16641801344E+02  0.35263036079E+02  0.51100000000E-03 0.  1.
         23    2    1    0    0    0  0.25785498214E+02  0.13041669247E+02 -0.32205116069E+01  0.96015118231E+02  0.91507126384E+02 0.  0.
         11    1    3    3    0    0  0.56651414829E+02  0.93231543858E+01 -0.19862312951E+02  0.60752082152E+02  0.51100000000E-03 0. -1.
         22    1    1    0    0    0 -0.25785498214E+02 -0.13041669247E+02  0.32205116069E+01  0.29074881769E+02  0.00000000000E+00 0. -1.
</event>
<event>
 4    1  0.1043455E-009  0.9118800E+02  0.7561462E-02  0.1125453E+00
         25   -1    0    0    0    0  0.00000000000E+00  0.00000000000E+00  0.99999998245E-14  0.12509000000E+03  0.12509000000E+03 0.  0.
        -11    1    1    0    0    0  0.82643206215E+01  0.39641227342E+02  0.47509515633E+01  0.40771282069E+02  0.51100000000E-03 0.  1.
         11    1    1    0    0    0 -0.17844637272E+02  0.17898037129E+02  0.30923573080E+01  0.25462393572E+02  0.51100000000E-03 0. -1.
         22    1    1    0    0    0  0.95803166503E+01 -0.57539264471E+02 -0.78433088714E+01  0.58856324359E+02  0.00000000000E+00 0.  1.
</event>
<event>
 5    1  0.1043455E-009  0.9118800E+02  0.7561462E-02  0.1125453E+00
         25   -1    0    0    0    0  0.00000000000E+00  0.00000000000E+00  0.99999998245E-14  0.12509000000E+03  0.12509000000E+03 0.  0.
        -11    1    3    3    0    0 -0.28041609190E+02 -0.30738919214E+02  0.14327419888E+01  0.41632508335E+02  0.51100000000E-03 0.  1.
         23    2    1    0    0    0  0.16539603166E+02 -0.14099284091E+01  0.20867912605E+02  0.98425113961E+02  0.94744323897E+02 0.  0.
         11    1    3    3    0    0  0.44581212355E+02  0.29328990805E+02  0.19435170616E+02  0.56792605626E+02  0.51100000000E-03 0. -1.
         22    1    1    0    0    0 -0.16539603166E+02  0.14099284091E+01 -0.20867912605E+02  0.26664886039E+02  0.00000000000E+00 0. -1.
</event>
<event>
 5    1  0.1043455E-009  0.9118800E+02  0.7561462E-02  0.1125453E+00
         25   -1    0    0    0    0  0.00000000000E+00  0.00000000000E+00  0.99999998245E-14  0.12509000000E+03  0.12509000000E+03 0.  0.
        -11    1    3    3    0    0 -0.50742165994E+02  0.29538633169E+02  0.15742556796E+02  0.60787550978E+02  0.51100000000E-03 0.  1.
         23    2    1    0    0    0 -0.17041085498E+02  0.19712343634E+02  0.12921028244E+02  0.96005157601E+02  0.91493509216E+02 0.  0.
         11    1    3    3    0    0  0.33701080495E+02 -0.98262895350E+01 -0.28215285524E+01  0.35217606623E+02  0.51100000000E-03 0. -1.
         22    1    1    0    0    0  0.17041085498E+02 -0.19712343634E+02 -0.12921028244E+02  0.29084842399E+02  0.00000000000E+00 0.  1.
</event>
<event>
 5    1  0.1043455E-009  0.9118800E+02  0.7561462E-02  0.1125453E+00
         25   -1    0    0    0    0  0.00000000000E+00  0.00000000000E+00  0.99999998245E-14  0.12509000000E+03  0.12509000000E+03 0.  0.
        -11    1    3    3    0    0  0.31280725301E+02 -0.12050561573E+02 -0.11943754964E+02  0.35585855231E+02  0.51100000000E-03 0. -1.
         23    2    1    0    0    0 -0.12820150138E+02  0.31016854843E+01  0.26151888318E+02  0.95800104729E+02  0.91212729929E+02 0.  0.
         11    1    3    3    0    0 -0.44100875439E+02  0.15152247058E+02  0.38095643281E+02  0.60214249498E+02  0.51100000000E-03 0.  1.
         22    1    1    0    0    0  0.12820150138E+02 -0.31016854843E+01 -0.26151888318E+02  0.29289895271E+02  0.00000000000E+00 0.  1.
</event>
<event>
 5    1  0.1043455E-009  0.9118800E+02  0.7561462E-02  0.1125453E+00
         25   -1    0    0    0    0  0.00000000000E+00  0.00000000000E+00  0.99999998245E-14  0.12509000000E+03  0.12509000000E+03 0.  0.
        -11    1    3    3    0    0 -0.16440773320E+02  0.31890739213E+02 -0.27717408688E+01  0.35986119861E+02  0.51100000000E-03 0. -1.
         23    2    1    0    0    0 -0.11522443401E+02 -0.25681120122E+02  0.10102149048E+02  0.95184481311E+02  0.90364514244E+02 0.  0.
         11    1    3    3    0    0  0.49183299196E+01 -0.57571859336E+02  0.12873889917E+02  0.59198361450E+02  0.51100000000E-03 0.  1.
         22    1    1    0    0    0  0.11522443401E+02  0.25681120122E+02 -0.10102149048E+02  0.29905518689E+02  0.00000000000E+00 0.  1.
</event>
<event>
 4    1  0.1043455E-009  0.9118800E+02  0.7561462E-02  0.1125453E+00
         25   -1    0    0    0    0  0.00000000000E+00  0.00000000000E+00  0.99999998245E-14  0.12509000000E+03  0.12509000000E+03 0.  0.
        -11    1    1    0    0    0 -0.25532093170E+02 -0.87959236639E+01 -0.52583371029E+02  0.59112324974E+02  0.51100000000E-03 0.  1.
         11    1    1    0    0    0 -0.55879745437E+01  0.44189194341E+01  0.41580085193E+01  0.82487176927E+01  0.51100000000E-03 0. -1.
         22    1    1    0    0    0  0.31120067714E+02  0.43770042297E+01  0.48425362510E+02  0.57728957333E+02  0.00000000000E+00 0.  1.
</event>
<event>
 5    1  0.1043455E-009  0.9118800E+02  0.7561462E-02  0.1125453E+00
         25   -1    0    0    0    0  0.00000000000E+00  0.00000000000E+00  0.99999998245E-14  0.12509000000E+03  0.12509000000E+03 0.  0.
        -11    1    3    3    0    0 -0.33435727167E+02 -0.58584737930E+01 -0.23749535875E+01  0.34028076219E+02  0.51100000000E-03 0.  1.
         23    2    1    0    0    0  0.22915597121E+02 -0.75647675617E-01  0.19745161111E+02  0.94841004955E+02  0.89887788490E+02 0.  0.
         11    1    3    3    0    0  0.56351324288E+02  0.57828261174E+01  0.22120114698E+02  0.60812928736E+02  0.51100000000E-03 0. -1.
         22    1    1    0    0    0 -0.22915597121E+02  0.75647675617E-01 -0.19745161111E+02  0.30248995045E+02  0.00000000000E+00 0. -1.
</event>
<event>
 5    1  0.1043455E-009  0.9118800E+02  0.7561462E-02  0.1125453E+00
         25   -1    0    0    0    0  0.00000000000E+00  0.00000000000E+00  0.99999998245E-14  0.12509000000E+03  0.12509000000E+03 0.  0.
        -11    1    3    3    0    0  0.45753327215E+01  0.58228684086E+02  0.18123569266E+02  0.61155352040E+02  0.51100000000E-03 0. -1.
         23    2    1    0    0    0 -0.53669543303E+01  0.27767933214E+02  0.14219957065E+02  0.93434518758E+02  0.87908701519E+02 0.  0.
         11    1    3    3    0    0 -0.99422870518E+01 -0.30460750872E+02 -0.39036122010E+01  0.32279166718E+02  0.51100000000E-03 0.  1.
         22    1    1    0    0    0  0.53669543303E+01 -0.27767933214E+02 -0.14219957065E+02  0.31655481242E+02  0.00000000000E+00 0. -1.
</event>
<event>
 5    1  0.1043455E-009  0.9118800E+02  0.7561462E-02  0.1125453E+00
         25   -1    0    0    0    0  0.00000000000E+00  0.00000000000E+00  0.99999998245E-14  0.12509000000E+03  0.12509000000E+03 0.  0.
        -11    1    3    3    0    0  0.25260483312E+02  0.15289785729E+01  0.26664293125E+02  0.36761587571E+02  0.51100000000E-03 0. -1.
         23    2    1    0    0    0 -0.26693392036E+02  0.14179861158E+02  0.14337600511E+02  0.91635965426E+02  0.85311064525E+02 0.  0.
         11    1    3    3    0    0 -0.51953875349E+02  0.12650882585E+02 -0.12326692613E+02  0.54874377855E+02  0.51100000000E-03 0.  1.
         22    1    1    0    0    0  0.26693392036E+02 -0.14179861158E+02 -0.14337600511E+02  0.33454034574E+02  0.00000000000E+00 0.  1.
</event>
<event>
 5    1  0.1043455E-009  0.9118800E+02  0.7561462E-02  0.1125453E+00
         25   -1    0    0    0    0  0.00000000000E+00  0.00000000000E+00  0.99999998245E-14  0.12509000000E+03  0.12509000000E+03 0.  0.
        -11    1    3    3    0    0  0.98165083058E+01  0.38249146669E+02  0.14311821077E+02  0.42002253261E+02  0.51100000000E-03 0. -1.
         23    2    1    0    0    0  0.18240645730E+02 -0.17431275657E+02  0.77435404663E+01  0.98698089371E+02  0.95104047753E+02 0.  0.
         11    1    3    3    0    0  0.84241374238E+01 -0.55680422326E+02 -0.65682806109E+01  0.56695836110E+02  0.51100000000E-03 0.  1.
         22    1    1    0    0    0 -0.18240645730E+02  0.17431275657E+02 -0.77435404663E+01  0.26391910629E+02  0.00000000000E+00 0.  1.
</event>
<event>
 5    1  0.1043455E-009  0.9118800E+02  0.7561462E-02  0.1125453E+00
         25   -1    0    0    0    0  0.00000000000E+00  0.00000000000E+00  0.99999998245E-14  0.12509000000E+03  0.12509000000E+03 0.  0.
        -11    1    3    3    0    0  0.37208937457E+01 -0.27140238870E+02 -0.20859659681E+02  0.34432005728E+02  0.51100000000E-03 0.  1.
         23    2    1    0    0    0  0.10338569202E+02  0.28156971918E+02  0.28483276614E+01  0.94960047275E+02  0.90053298259E+02 0.  0.
         11    1    3    3    0    0  0.66176754564E+01  0.55297210788E+02  0.23707987342E+02  0.60528041547E+02  0.51100000000E-03 0. -1.
         22    1    1    0    0    0 -0.10338569202E+02 -0.28156971918E+02 -0.28483276614E+01  0.30129952725E+02  0.00000000000E+00 0. -1.
</event>
<event>
 5    1  0.1043455E-009  0.9118800E+02  0.7561462E-02  0.1125453E+00
         25   -1    0    0    0    0  0.00000000000E+00  0.00000000000E+00  0.99999998245E-14  0.12509000000E+03  0.12509000000E+03 0.  0.
        -11    1    3    3    0    0 -0.81307580695E+01  0.57369906135E+02  0.40340916362E+01  0.58083467977E+02  0.51100000000E-03 0.  1.
         23    2    1    0    0    0 -0.19098540582E+02  0.19762970966E+02 -0.10562992568E+01  0.97586454013E+02  0.93630502321E+02 0.  0.
         11    1    3    3    0    0 -0.10967782512E+02 -0.37606935169E+02 -0.50903908930E+01  0.39502986036E+02  0.51100000000E-03 0. -1.
         22    1    1    0    0    0  0.19098540582E+02 -0.19762970966E+02  0.10562992568E+01  0.27503545987E+02  0.00000000000E+00 0.  1.
</event>
<event>
 5    1  0.1043455E-009  0.9118800E+02  0.7561462E-02  0.1125453E+00
         25   -1    0    0    0    0  0.00000000000E+00  0.00000000000E+00  0.99999998245E-14  0.12509000000E+03  0.12509000000E+03 0.  0.
        -11    1    3    3    0    0 -0.67285830448E+01 -0.44937581960E+02  0.40150816034E+02  0.60636194889E+02  0.51100000000E-03 0.  1.
         23    2    1    0    0    0 -0.13607741602E+02 -0.19763710236E+02  0.15576753232E+02  0.96482131938E+02  0.92143321344E+02 0.  0.
         11    1    3    3    0    0 -0.68791585575E+01  0.25173871724E+02 -0.24574062802E+02  0.35845937049E+02  0.51100000000E-03 0. -1.
         22    1    1    0    0    0  0.13607741602E+02  0.19763710236E+02 -0.15576753232E+02  0.28607868062E+02  0.00000000000E+00 0.  1.
</event>
<event>
 5    1  0.1043455E-009  0.9118800E+02  0.7561462E-02  0.1125453E+00
         25   -1    0    0    0    0  0.00000000000E+00  0.00000000000E+00  0.99999998245E-14  0.12509000000E+03  0.12509000000E+03 0.  0.
        -11    1    3    3    0    0  0.12040526512E+02  0.30127834458E+02  0.28852229845E+02  0.43417874834E+02  0.51100000000E-03 0.  1.
         23    2    1    0    0    0  0.62437954153E+00 -0.20494012308E+02  0.20712433575E+02  0.95945544354E+02  0.91411969602E+02 0.  0.
         11    1    3    3    0    0 -0.11416146971E+02 -0.50621846766E+02 -0.81397962697E+01  0.52527669520E+02  0.51100000000E-03 0. -1.
         22    1    1    0    0    0 -0.62437954153E+00  0.20494012308E+02 -0.20712433575E+02  0.29144455646E+02  0.00000000000E+00 0. -1.
</event>
<event>
 5    1  0.1043455E-009  0.9118800E+02  0.7561462E-02  0.1125453E+00
         25   -1    0    0    0    0  0.00000000000E+00  0.00000000000E+00  0.99999998245E-14  0.12509000000E+03  0.12509000000E+03 0.  0.
        -11    1    3    3    0    0  0.23763119164E+02  0.12865972607E+02  0.37649957855E+02  0.46343698712E+02  0.51100000000E-03 0.  1.
         23    2    1    0    0    0  0.25137714096E+02 -0.13242895970E+02 -0.48741936635E+01  0.96262292364E+02  0.91844391248E+02 0.  0.
         11    1    3    3    0    0  0.13745949325E+01 -0.26108868577E+02 -0.42524151519E+02  0.49918593653E+02  0.51100000000E-03 0. -1.
         22    1    1    0    0    0 -0.25137714096E+02  0.13242895970E+02  0.48741936635E+01  0.28827707636E+02  0.00000000000E+00 0.  1.
</event>
<event>
 5    1  0.1043455E-009  0.9118800E+02  0.7561462E-02  0.1125453E+00
         25   -1    0    0    0    0  0.00000000000E+00  0.00000000000E+00  0.99999998245E-14  0.12509000000E+03  0.12509000000E+03 0.  0.
        -11    1    3    3    0    0 -0.45478792683E+02  0.66686887343E+01 -0.74567206581E+01  0.46566024917E+02  0.51100000000E-03 0.  1.
         23    2    1    0    0    0 -0.12004517872E+02 -0.24956715835E+02  0.97549728550E+01  0.95728364998E+02  0.91114292266E+02 0.  0.
         11    1    3    3    0    0  0.33474274811E+02 -0.31625404569E+02  0.17211693513E+02  0.49162340080E+02  0.51100000000E-03 0. -1.
         22    1    1    0    0    0  0.12004517872E+02  0.24956715835E+02 -0.97549728550E+01  0.29361635002E+02  0.00000000000E+00 0. -1.
</event>
<event>
 5    1  0.1043455E-009  0.9118800E+02  0.7561462E-02  0.1125453E+00
         25   -1    0    0    0    0  0.00000000000E+00  0.00000000000E+00  0.99999998245E-14  0.12509000000E+03  0.12509000000E+03 0.  0.
        -11    1    3    3    0    0 -0.46741598603E+02  0.93018833007E+01 -0.50643792847E+01  0.47926506347E+02  0.51100000000E-03 0.  1.
         23    2    1    0    0    0 -0.75421442654E+01  0.89683585195E+01 -0.28968807487E+02  0.93840884782E+02  0.88485052155E+02 0.  0.
         11    1    3    3    0    0  0.39199454337E+02 -0.33352478124E+00 -0.23904428203E+02  0.45914378435E+02  0.51100000000E-03 0. -1.
         22    1    1    0    0    0  0.75421442654E+01 -0.89683585195E+01  0.28968807487E+02  0.31249115218E+02  0.00000000000E+00 0.  1.
</event>
<event>
 5    1  0.1043455E-009  0.9118800E+02  0.7561462E-02  0.1125453E+00
         25   -1    0    0    0    0  0.00000000000E+00  0.00000000000E+00  0.99999998245E-14  0.12509000000E+03  0.12509000000E+03 0.  0.
        -11    1    3    3    0    0  0.28202775184E+02  0.30446860595E+02 -0.24909247311E+02  0.48403289661E+02  0.51100000000E-03 0.  1.
         23    2    1    0    0    0  0.11762764046E+02  0.21068100517E+02  0.17791379953E+02  0.95110662482E+02  0.90262270300E+02 0.  0.
         11    1    3    3    0    0 -0.16440011137E+02 -0.93787600778E+01  0.42700627264E+02  0.46707372821E+02  0.51100000000E-03 0. -1.
         22    1    1    0    0    0 -0.11762764046E+02 -0.21068100517E+02 -0.17791379953E+02  0.29979337518E+02  0.00000000000E+00 0. -1.
</event>
<event>
 5    1  0.1043455E-009  0.9118800E+02  0.7561462E-02  0.1125453E+00
         25   -1    0    0    0    0  0.00000000000E+00  0.00000000000E+00  0.99999998245E-14  0.12509000000E+03  0.12509000000E+03 0.  0.
        -11    1    3    3    0    0  0.35361206861E+02  0.38116467183E+02  0.33528742600E+02  0.61866441644E+02  0.51100000000E-03 0. -1.
         23    2    1    0    0    0  0.12407417364E+02  0.14306361493E+02  0.19848709495E+02  0.97656676223E+02  0.93724271976E+02 0.  0.
         11    1    3    3    0    0 -0.22953789496E+02 -0.23810105690E+02 -0.13680033104E+02  0.35790234578E+02  0.51100000000E-03 0.  1.
         22    1    1    0    0    0 -0.12407417364E+02 -0.14306361493E+02 -0.19848709495E+02  0.27433323777E+02  0.00000000000E+00 0. -1.
</event>
<event>
 5    1  0.1043455E-009  0.9118800E+02  0.7561462E-02  0.1125453E+00
         25   -1    0    0    0    0  0.00000000000E+00  0.00000000000E+00  0.99999998245E-14  0.12509000000E+03  0.12509000000E+03 0.  0.
        -11    1    3    3    0    0 -0.45264071212E+02  0.30386315767E+02 -0.15210565517E+02  0.56599696397E+02  0.51100000000E-03 0.  1.
         23    2    1    0    0    0 -0.28976494873E+02  0.10849321958E+01  0.48839036509E+01  0.95684781962E+02  0.91054437844E+02 0.  0.
         11    1    3    3    0    0  0.16287576339E+02 -0.29301383571E+02  0.20094469168E+02  0.39085085565E+02  0.51100000000E-03 0. -1.
         22    1    1    0    0    0  0.28976494873E+02 -0.10849321958E+01 -0.48839036509E+01  0.29405218038E+02  0.00000000000E+00 0.  1.
</event>
<event>
 5    1  0.1043455E-009  0.9118800E+02  0.7561462E-02  0.1125453E+00
         25   -1    0    0    0    0  0.00000000000E+00  0.00000000000E+00  0.99999998245E-14  0.12509000000E+03  0.12509000000E+03 0.  0.
        -11    1    3    3    0    0  0.25302563354E+02  0.15603252123E+02 -0.15257558871E+02  0.33413684204E+02  0.51100000000E-03 0.  1.
         23    2    1    0    0    0 -0.24419809828E+02  0.14323198244E+02  0.16399808986E+02  0.92372499259E+02  0.86384279615E+02 0.  0.
         11    1    3    3    0    0 -0.49722373182E+02 -0.12800538789E+01  0.31657367857E+02  0.58958815055E+02  0.51100000000E-03 0. -1.
         22    1    1    0    0    0  0.24419809828E+02 -0.14323198244E+02 -0.16399808986E+02  0.32717500741E+02  0.00000000000E+00 0. -1.
</event>
<event>
 5    1  0.1043455E-009  0.9118800E+02  0.7561462E-02  0.1125453E+00
         25   -1    0    0    0    0  0.00000000000E+00  0.00000000000E+00  0.99999998245E-14  0.12509000000E+03  0.12509000000E+03 0.  0.
        -11    1    3    3    0    0  0.23798170657E+02  0.12028356025E+02  0.55367703580E+02  0.61454185173E+02  0.51100000000E-03 0. -1.
         23    2    1    0    0    0  0.50080567513E+01  0.11116791050E+02  0.26625584725E+02  0.95805440286E+02  0.91220046869E+02 0.  0.
         11    1    3    3    0    0 -0.18790113906E+02 -0.91156497483E+00 -0.28742118855E+02  0.34351255113E+02  0.51100000000E-03 0.  1.
         22    1    1    0    0    0 -0.50080567513E+01 -0.11116791050E+02 -0.26625584725E+02  0.29284559714E+02  0.00000000000E+00 0. -1.
</event>
<event>
 5    1  0.1043455E-009  0.9118800E+02  0.7561462E-02  0.1125453E+00
         25   -1    0    0    0    0  0.00000000000E+00  0.00000000000E+00  0.99999998245E-14  0.12509000000E+03  0.12509000000E+03 0.  0.
        -11    1    3    3    0    0 -0.12838638770E+02 -0.19005317525E+02 -0.27841974536E+02  0.36072264775E+02  0.51100000000E-03 0.  1.
         23    2    1    0    0    0 -0.14107185211E+02  0.58973415242E+01  0.25728151877E+02  0.95161266137E+02  0.90332372172E+02 0.  0.
         11    1    3    3    0    0 -0.12685464406E+01  0.24902659049E+02  0.53570126413E+02  0.59089001362E+02  0.51100000000E-03 0. -1.
         22    1    1    0    0    0  0.14107185211E+02 -0.58973415242E+01 -0.25728151877E+02  0.29928733863E+02  0.00000000000E+00 0. -1.
</event>
<event>
 5    1  0.1043455E-009  0.9118800E+02  0.7561462E-02  0.1125453E+00
         25   -1    0    0    0    0  0.00000000000E+00  0.00000000000E+00  0.99999998245E-14  0.12509000000E+03  0.12509000000E+03 0.  0.
        -11    1    3    3    0    0  0.52672579625E+02 -0.42010322642E+01 -0.49523979324E+01  0.53071419446E+02  0.51100000000E-03 0. -1.
         23    2    1    0    0    0  0.15359843771E+02 -0.19466816663E+02 -0.16855621921E+02  0.95106775657E+02  0.90256883581E+02 0.  0.
         11    1    3    3    0    0 -0.37312735854E+02 -0.15265784398E+02 -0.11903223989E+02  0.42035356211E+02  0.51100000000E-03 0.  1.
         22    1    1    0    0    0 -0.15359843771E+02  0.19466816663E+02  0.16855621921E+02  0.29983224343E+02  0.00000000000E+00 0. -1.
</event>
<event>
 5    1  0.1043455E-009  0.9118800E+02  0.7561462E-02  0.1125453E+00
         25   -1    0    0    0    0  0.00000000000E+00  0.00000000000E+00  0.99999998245E-14  0.12509000000E+03  0.12509000000E+03 0.  0.
        -11    1    3    3    0    0  0.33630422207E+02  0.35090978656E+02  0.31380914059E+02  0.57854505860E+02  0.51100000000E-03 0. -1.
         23    2    1    0    0    0  0.22090387539E+02  0.13042822369E+01  0.19820131914E+02  0.95382694453E+02  0.90638481884E+02 0.  0.
         11    1    3    3    0    0 -0.11540034668E+02 -0.33786696419E+02 -0.11560782144E+02  0.37528188593E+02  0.51100000000E-03 0.  1.
         22    1    1    0    0    0 -0.22090387539E+02 -0.13042822369E+01 -0.19820131914E+02  0.29707305547E+02  0.00000000000E+00 0. -1.
</event>
<event>
 5    1  0.1043455E-009  0.9118800E+02  0.7561462E-02  0.1125453E+00
         25   -1    0    0    0    0  0.00000000000E+00  0.00000000000E+00  0.99999998245E-14  0.12509000000E+03  0.12509000000E+03 0.  0.
        -11    1    3    3    0    0  0.14897253163E+02 -0.33791946474E+02 -0.99081008610E+01  0.38236033545E+02  0.51100000000E-03 0. -1.
         23    2    1    0    0    0 -0.29413294821E+02 -0.13430368431E+01  0.51837847905E+01  0.95193222833E+02  0.90376614168E+02 0.  0.
         11    1    3    3    0    0 -0.44310547984E+02  0.32448909631E+02  0.15091885651E+02  0.56957189289E+02  0.51100000000E-03 0.  1.
         22    1    1    0    0    0  0.29413294821E+02  0.13430368431E+01 -0.51837847905E+01  0.29896777167E+02  0.00000000000E+00 0.  1.
</event>
<event>
 4    1  0.1043455E-009  0.9118800E+02  0.7561462E-02  0.1125453E+00
         25   -1    0    0    0    0  0.00000000000E+00  0.00000000000E+00  0.99999998245E-14  0.12509000000E+03  0.12509000000E+03 0.  0.
        -11    1    1    0    0    0  0.29349109286E+02  0.21045967631E+02 -0.10935521908E+02  0.37734448573E+02  0.51100000000E-03 0. -1.
         11    1    1    0    0    0  0.23109497048E+02 -0.17412297407E+02 -0.10203401737E+02  0.30681368322E+02  0.51100000000E-03 0.  1.
         22    1    1    0    0    0 -0.52458606334E+02 -0.36336702235E+01  0.21138923646E+02  0.56674183106E+02  0.00000000000E+00 0. -1.
</event>
<event>
 5    1  0.1043455E-009  0.9118800E+02  0.7561462E-02  0.1125453E+00
         25   -1    0    0    0    0  0.00000000000E+00  0.00000000000E+00  0.99999998245E-14  0.12509000000E+03  0.12509000000E+03 0.  0.
        -11    1    3    3    0    0 -0.15863050076E+02  0.32641436113E+02 -0.34186167820E+01  0.36452525979E+02  0.51100000000E-03 0.  1.
         23    2    1    0    0    0  0.26258346077E+02  0.76080014142E+01  0.20443864364E+02  0.90953011053E+02  0.84303714066E+02 0.  0.
         11    1    3    3    0    0  0.42121396153E+02 -0.25033434699E+02  0.23862481146E+02  0.54500485075E+02  0.51100000000E-03 0. -1.
         22    1    1    0    0    0 -0.26258346077E+02 -0.76080014142E+01 -0.20443864364E+02  0.34136988947E+02  0.00000000000E+00 0. -1.
</event>
<event>
 5    1  0.1043455E-009  0.9118800E+02  0.7561462E-02  0.1125453E+00
         25   -1    0    0    0    0  0.00000000000E+00  0.00000000000E+00  0.99999998245E-14  0.12509000000E+03  0.12509000000E+03 0.  0.
        -11    1    3    3    0    0 -0.32546491593E+02  0.14752907372E+02  0.12818015155E+02  0.37963454844E+02  0.51100000000E-03 0.  1.
         23    2    1    0    0    0  0.11267992867E+02 -0.20076764645E+02 -0.11927429194E+02  0.99161102818E+02  0.95711110134E+02 0.  0.
         11    1    3    3    0    0  0.43814484460E+02 -0.34829672017E+02 -0.24745444349E+02  0.61197647974E+02  0.51100000000E-03 0. -1.
         22    1    1    0    0    0 -0.11267992867E+02  0.20076764645E+02  0.11927429194E+02  0.25928897182E+02  0.00000000000E+00 0. -1.
</event>
<event>
 5    1  0.1043455E-009  0.9118800E+02  0.7561462E-02  0.1125453E+00
         25   -1    0    0    0    0  0.00000000000E+00  0.00000000000E+00  0.99999998245E-14  0.12509000000E+03  0.12509000000E+03 0.  0.
        -11    1    3    3    0    0  0.60541618637E+02  0.37749602351E+01 -0.17612940247E+01  0.60684759775E+02  0.51100000000E-03 0.  1.
         23    2    1    0    0    0  0.27550174068E+02 -0.58535616272E+01 -0.84232263676E+01  0.95692261697E+02  0.91064712877E+02 0.  0.
         11    1    3    3    0    0 -0.32991444570E+02 -0.96285218623E+01 -0.66619323429E+01  0.35007501922E+02  0.51100000000E-03 0. -1.
         22    1    1    0    0    0 -0.27550174068E+02  0.58535616272E+01  0.84232263676E+01  0.29397738303E+02  0.00000000000E+00 0.  1.
</event>
<event>
 5    1  0.1043455E-009  0.9118800E+02  0.7561462E-02  0.1125453E+00
         25   -1    0    0    0    0  0.00000000000E+00  0.00000000000E+00  0.99999998245E-14  0.12509000000E+03  0.12509000000E+03 0.  0.
        -11    1    3    3    0    0 -0.38298259525E+01 -0.30271070709E+02 -0.43686953951E+02  0.53287477277E+02  0.51100000000E-03 0. -1.
         23    2    1    0    0    0 -0.22280745180E+02 -0.95434873480E+00 -0.18463781646E+02  0.96137390101E+02  0.91674119333E+02 0.  0.
         11    1    3    3    0    0 -0.18450919227E+02  0.29316721974E+02  0.25223172306E+02  0.42849912825E+02  0.51100000000E-03 0.  1.
         22    1    1    0    0    0  0.22280745180E+02  0.95434873480E+00  0.18463781646E+02  0.28952609899E+02  0.00000000000E+00 0. -1.
</event>
<event>
 5    1  0.1043455E-009  0.9118800E+02  0.7561462E-02  0.1125453E+00
         25   -1    0    0    0    0  0.00000000000E+00  0.00000000000E+00  0.99999998245E-14  0.12509000000E+03  0.12509000000E+03 0.  0.
        -11    1    3    3    0    0 -0.31532809226E+02 -0.13693367908E+02  0.61065850758E+01  0.34915852616E+02  0.51100000000E-03 0.  1.
         23    2    1    0    0    0  0.17184219975E+02  0.15199193413E+02 -0.17456712669E+02  0.96262067126E+02  0.91844084479E+02 0.  0.
         11    1    3    3    0    0  0.48717029201E+02  0.28892561321E+02 -0.23563297745E+02  0.61346214510E+02  0.51100000000E-03 0. -1.
         22    1    1    0    0    0 -0.17184219975E+02 -0.15199193413E+02  0.17456712669E+02  0.28827932874E+02  0.00000000000E+00 0. -1.
</event>
<event>
 5    1  0.1043455E-009  0.9118800E+02  0.7561462E-02  0.1125453E+00
         25   -1    0    0    0    0  0.00000000000E+00  0.00000000000E+00  0.99999998245E-14  0.12509000000E+03  0.12509000000E+03 0.  0.
        -11    1    3    3    0    0 -0.17526025469E+02  0.33409898256E+02  0.31891808898E+01  0.37862299788E+02  0.51100000000E-03 0.  1.
         23    2    1    0    0    0  0.15766810747E+02 -0.52975146843E+01 -0.24141785480E+02  0.95773080156E+02  0.91175660642E+02 0.  0.
         11    1    3    3    0    0  0.33292836216E+02 -0.38707412941E+02 -0.27330966370E+02  0.57910780368E+02  0.51100000000E-03 0. -1.
         22    1    1    0    0    0 -0.15766810747E+02  0.52975146843E+01  0.24141785480E+02  0.29316919844E+02  0.00000000000E+00 0. -1.
</event>
<event>
 5    1  0.1043455E-009  0.9118800E+02  0.7561462E-02  0.1125453E+00
         25   -1    0    0    0    0  0.00000000000E+00  0.00000000000E+00  0.99999998245E-14  0.12509000000E+03  0.12509000000E+03 0.  0.
        -11    1    3    3    0    0 -0.15109283785E+02  0.28026110619E+02 -0.44658813318E+01  0.32151165287E+02  0.51100000000E-03 0.  1.
         23    2    1    0    0    0  0.96630538993E+01 -0.28077251405E+02 -0.10069106920E+02  0.93735676992E+02  0.88336196261E+02 0.  0.
         11    1    3    3    0    0  0.24772337685E+02 -0.56103362024E+02 -0.56032255882E+01  0.61584511706E+02  0.51100000000E-03 0. -1.
         22    1    1    0    0    0 -0.96630538993E+01  0.28077251405E+02  0.10069106920E+02  0.31354323008E+02  0.00000000000E+00 0. -1.
</event>
<event>
 5    1  0.1043455E-009  0.9118800E+02  0.7561462E-02  0.1125453E+00
         25   -1    0    0    0    0  0.00000000000E+00  0.00000000000E+00  0.99999998245E-14  0.12509000000E+03  0.12509000000E+03 0.  0.
        -11    1    3    3    0    0  0.25811092713E+01  0.28182352358E+02 -0.43391222168E+02  0.51804490838E+02  0.51100000000E-03 0.  1.
         23    2    1    0    0    0  0.25800509619E+01  0.26573271232E+02  0.30001255709E+01  0.98223735645E+02  0.94478071973E+02 0.  0.
         11    1    3    3    0    0 -0.10583094426E-02 -0.16090811264E+01  0.46391347739E+02  0.46419244807E+02  0.51100000000E-03 0. -1.
         22    1    1    0    0    0 -0.25800509619E+01 -0.26573271232E+02 -0.30001255709E+01  0.26866264355E+02  0.00000000000E+00 0. -1.
</event>
<event>
 5    1  0.1043455E-009  0.9118800E+02  0.7561462E-02  0.1125453E+00
         25   -1    0    0    0    0  0.00000000000E+00  0.00000000000E+00  0.99999998245E-14  0.12509000000E+03  0.12509000000E+03 0.  0.
        -11    1    3    3    0    0  0.11955816632E+02 -0.16353761938E+02  0.28036232161E+02  0.34589267048E+02  0.51100000000E-03 0. -1.
         23    2    1    0    0    0 -0.14273861199E+02  0.18877281545E+02 -0.15791894068E+02  0.96638659253E+02  0.92355571959E+02 0.  0.
         11    1    3    3    0    0 -0.26229677831E+02  0.35231043483E+02 -0.43828126229E+02  0.62049392205E+02  0.51100000000E-03 0.  1.
         22    1    1    0    0    0  0.14273861199E+02 -0.18877281545E+02  0.15791894068E+02  0.28451340747E+02  0.00000000000E+00 0.  1.
</event>
<event>
 5    1  0.1043455E-009  0.9118800E+02  0.7561462E-02  0.1125453E+00
         25   -1    0    0    0    0  0.00000000000E+00  0.00000000000E+00  0.99999998245E-14  0.12509000000E+03  0.12509000000E+03 0.  0.
        -11    1    3    3    0    0 -0.41258175605E+02 -0.41040871506E+02 -0.60717667283E+01  0.58510311396E+02  0.51100000000E-03 0.  1.
         23    2    1    0    0    0 -0.26354289778E+02 -0.98206767331E+01  0.79874363517E+01  0.95853149611E+02  0.91285447196E+02 0.  0.
         11    1    3    3    0    0  0.14903885827E+02  0.31220194773E+02  0.14059203080E+02  0.37342838215E+02  0.51100000000E-03 0. -1.
         22    1    1    0    0    0  0.26354289778E+02  0.98206767331E+01 -0.79874363517E+01  0.29236850389E+02  0.00000000000E+00 0.  1.
</event>
<event>
 5    1  0.1043455E-009  0.9118800E+02  0.7561462E-02  0.1125453E+00
         25   -1    0    0    0    0  0.00000000000E+00  0.00000000000E+00  0.99999998245E-14  0.12509000000E+03  0.12509000000E+03 0.  0.
        -11    1    3    3    0    0  0.41807290075E+02  0.16163625878E+02  0.17447097460E+02  0.48098997027E+02  0.51100000000E-03 0.  1.
         23    2    1    0    0    0  0.25221446052E+01 -0.93054407228E+01  0.27468828510E+02  0.95978336012E+02  0.91456831365E+02 0.  0.
         11    1    3    3    0    0 -0.39285145470E+02 -0.25469066600E+02  0.10021731050E+02  0.47879338985E+02  0.51100000000E-03 0. -1.
         22    1    1    0    0    0 -0.25221446052E+01  0.93054407228E+01 -0.27468828510E+02  0.29111663988E+02  0.00000000000E+00 0. -1.
</event>
<event>
 5    1  0.1043455E-009  0.9118800E+02  0.7561462E-02  0.1125453E+00
         25   -1    0    0    0    0  0.00000000000E+00  0.00000000000E+00  0.99999998245E-14  0.12509000000E+03  0.12509000000E+03 0.  0.
        -11    1    3    3    0    0 -0.44882712005E+02  0.23053597947E+02  0.20057020779E+02  0.54297424414E+02  0.51100000000E-03 0.  1.
         23    2    1    0    0    0 -0.28385819988E+02  0.55163716266E+00 -0.96984346063E+01  0.95088021502E+02  0.90230887835E+02 0.  0.
         11    1    3    3    0    0  0.16496892016E+02 -0.22501960785E+02 -0.29755455386E+02  0.40790597088E+02  0.51100000000E-03 0. -1.
         22    1    1    0    0    0  0.28385819988E+02 -0.55163716266E+00  0.96984346063E+01  0.30001978498E+02  0.00000000000E+00 0. -1.
</event>
<event>
 5    1  0.1043455E-009  0.9118800E+02  0.7561462E-02  0.1125453E+00
         25   -1    0    0    0    0  0.00000000000E+00  0.00000000000E+00  0.99999998245E-14  0.12509000000E+03  0.12509000000E+03 0.  0.
        -11    1    3    3    0    0  0.27451177125E+02  0.15875290105E+02 -0.15560292908E+02  0.35323004927E+02  0.51100000000E-03 0. -1.
         23    2    1    0    0    0 -0.29501476503E+02  0.89229715947E+01 -0.24907809536E+01  0.94168154523E+02  0.88946505263E+02 0.  0.
         11    1    3    3    0    0 -0.56952653628E+02 -0.69523185107E+01  0.13069511955E+02  0.58845149595E+02  0.51100000000E-03 0.  1.
         22    1    1    0    0    0  0.29501476503E+02 -0.89229715947E+01  0.24907809536E+01  0.30921845477E+02  0.00000000000E+00 0.  1.
</event>
<event>
 5    1  0.1043455E-009  0.9118800E+02  0.7561462E-02  0.1125453E+00
         25   -1    0    0    0    0  0.00000000000E+00  0.00000000000E+00  0.99999998245E-14  0.12509000000E+03  0.12509000000E+03 0.  0.
        -11    1    3    3    0    0 -0.13755866982E+02  0.22566088882E+02  0.35273452889E+02  0.44075715795E+02  0.51100000000E-03 0.  1.
         23    2    1    0    0    0  0.12419940314E+02  0.25703973812E+02 -0.86128765118E+01  0.95271703118E+02  0.90485173294E+02 0.  0.
         11    1    3    3    0    0  0.26175807295E+02  0.31378849296E+01 -0.43886329401E+02  0.51195987323E+02  0.51100000000E-03 0. -1.
         22    1    1    0    0    0 -0.12419940314E+02 -0.25703973812E+02  0.86128765118E+01  0.29818296882E+02  0.00000000000E+00 0. -1.
</event>
<event>
 5    1  0.1043455E-009  0.9118800E+02  0.7561462E-02  0.1125453E+00
         25   -1    0    0    0    0  0.00000000000E+00  0.00000000000E+00  0.99999998245E-14  0.12509000000E+03  0.12509000000E+03 0.  0.
        -11    1    3    3    0    0  0.18879136831E+02  0.11063988770E+02 -0.28937969084E+02  0.36280018054E+02  0.51100000000E-03 0. -1.
         23    2    1    0    0    0  0.23409684589E+01 -0.25440112179E+02  0.14770384865E+02  0.95579938833E+02  0.90910290932E+02 0.  0.
         11    1    3    3    0    0 -0.16538168372E+02 -0.36504100949E+02  0.43708353949E+02  0.59299920779E+02  0.51100000000E-03 0.  1.
         22    1    1    0    0    0 -0.23409684589E+01  0.25440112179E+02 -0.14770384865E+02  0.29510061167E+02  0.00000000000E+00 0.  1.
</event>
<event>
 5    1  0.1043455E-009  0.9118800E+02  0.7561462E-02  0.1125453E+00
         25   -1    0    0    0    0  0.00000000000E+00  0.00000000000E+00  0.99999998245E-14  0.12509000000E+03  0.12509000000E+03 0.  0.
        -11    1    3    3    0    0  0.29934262551E+02  0.12017261498E+02 -0.18990000792E+02  0.37431200605E+02  0.51100000000E-03 0.  1.
         23    2    1    0    0    0 -0.25719389359E+02  0.81937390323E+01 -0.16875191479E+02  0.93256111834E+02  0.87654469130E+02 0.  0.
         11    1    3    3    0    0 -0.55653651910E+02 -0.38235224656E+01  0.21148093126E+01  0.55824911228E+02  0.51100000000E-03 0. -1.
         22    1    1    0    0    0  0.25719389359E+02 -0.81937390323E+01  0.16875191479E+02  0.31833888166E+02  0.00000000000E+00 0. -1.
</event>
<event>
 5    1  0.1043455E-009  0.9118800E+02  0.7561462E-02  0.1125453E+00
         25   -1    0    0    0    0  0.00000000000E+00  0.00000000000E+00  0.99999998245E-14  0.12509000000E+03  0.12509000000E+03 0.  0.
        -11    1    3    3    0    0 -0.12027475095E+02  0.36169943911E+02 -0.41586490327E+02  0.56412420420E+02  0.51100000000E-03 0.  1.
         23    2    1    0    0    0 -0.23365237148E+02  0.10726936218E+02 -0.13174216412E+02  0.96201222842E+02  0.91761178232E+02 0.  0.
         11    1    3    3    0    0 -0.11337762053E+02 -0.25443007693E+02  0.28412273915E+02  0.39788802422E+02  0.51100000000E-03 0. -1.
         22    1    1    0    0    0  0.23365237148E+02 -0.10726936218E+02  0.13174216412E+02  0.28888777158E+02  0.00000000000E+00 0.  1.
</event>
<event>
 5    1  0.1043455E-009  0.9118800E+02  0.7561462E-02  0.1125453E+00
         25   -1    0    0    0    0  0.00000000000E+00  0.00000000000E+00  0.99999998245E-14  0.12509000000E+03  0.12509000000E+03 0.  0.
        -11    1    3    3    0    0 -0.15085587222E+02 -0.27134399848E+02  0.43346635935E+02  0.53317740426E+02  0.51100000000E-03 0. -1.
         23    2    1    0    0    0 -0.11580308050E+02  0.10984063800E+02  0.24153581486E+02  0.96139202245E+02  0.91676591983E+02 0.  0.
         11    1    3    3    0    0  0.35052791722E+01  0.38118463648E+02 -0.19193054449E+02  0.42821461819E+02  0.51100000000E-03 0.  1.
         22    1    1    0    0    0  0.11580308050E+02 -0.10984063800E+02 -0.24153581486E+02  0.28950797755E+02  0.00000000000E+00 0. -1.
</event>
<event>
 5    1  0.1043455E-009  0.9118800E+02  0.7561462E-02  0.1125453E+00
         25   -1    0    0    0    0  0.00000000000E+00  0.00000000000E+00  0.99999998245E-14  0.12509000000E+03  0.12509000000E+03 0.  0.
        -11    1    3    3    0    0  0.47472487595E+02 -0.45201597721E+00 -0.39840812880E+02  0.61976864781E+02  0.51100000000E-03 0.  1.
         23    2    1    0    0    0  0.26523258673E+02 -0.29349931063E+01 -0.15333948399E+02  0.94312940221E+02  0.89149892229E+02 0.  0.
         11    1    3    3    0    0 -0.20949228922E+02 -0.24829771291E+01  0.24506864481E+02  0.32336075440E+02  0.51100000000E-03 0. -1.
         22    1    1    0    0    0 -0.26523258673E+02  0.29349931063E+01  0.15333948399E+02  0.30777059779E+02  0.00000000000E+00 0.  1.
</event>
<event>
 5    1  0.1043455E-009  0.9118800E+02  0.7561462E-02  0.1125453E+00
         25   -1    0    0    0    0  0.00000000000E+00  0.00000000000E+00  0.99999998245E-14  0.12509000000E+03  0.12509000000E+03 0.  0.
        -11    1    3    3    0    0 -0.10251578214E+02 -0.30374794978E+02  0.45209390781E+02  0.55422125915E+02  0.51100000000E-03 0.  1.
         23    2    1    0    0    0 -0.16224628722E+02 -0.23808011324E+02  0.59517232917E+01  0.95670907721E+02  0.91035375507E+02 0.  0.
         11    1    3    3    0    0 -0.59730505088E+01  0.65667836543E+01 -0.39257667490E+02  0.40248781807E+02  0.51100000000E-03 0. -1.
         22    1    1    0    0    0  0.16224628722E+02  0.23808011324E+02 -0.59517232917E+01  0.29419092279E+02  0.00000000000E+00 0.  1.
</event>
<event>
 5    1  0.1043455E-009  0.9118800E+02  0.7561462E-02  0.1125453E+00
         25   -1    0    0    0    0  0.00000000000E+00  0.00000000000E+00  0.99999998245E-14  0.12509000000E+03  0.12509000000E+03 0.  0.
        -11    1    3    3    0    0 -0.14170255753E+02 -0.27823333224E+02  0.27508273966E+02  0.41612968611E+02  0.51100000000E-03 0.  1.
         23    2    1    0    0    0 -0.48642701287E+01  0.21689249610E+02  0.24392573150E+02  0.92088753093E+02  0.85972415046E+02 0.  0.
         11    1    3    3    0    0  0.93059856245E+01  0.49512582833E+02 -0.31157008162E+01  0.50475784482E+02  0.51100000000E-03 0. -1.
         22    1    1    0    0    0  0.48642701287E+01 -0.21689249610E+02 -0.24392573150E+02  0.33001246907E+02  0.00000000000E+00 0.  1.
</event>
<event>
 5    1  0.1043455E-009  0.9118800E+02  0.7561462E-02  0.1125453E+00
         25   -1    0    0    0    0  0.00000000000E+00  0.00000000000E+00  0.99999998245E-14  0.12509000000E+03  0.12509000000E+03 0.  0.
        -11    1    3    3    0    0  0.44508192123E+02 -0.21687913536E+02 -0.32812734906E+02  0.59397140772E+02  0.51100000000E-03 0. -1.
         23    2    1    0    0    0  0.25524661058E+02 -0.16635538731E+02 -0.38684040495E+01  0.94378210393E+02  0.89241428586E+02 0.  0.
         11    1    3    3    0    0 -0.18983531065E+02  0.50523748049E+01  0.28944330856E+02  0.34981069621E+02  0.51100000000E-03 0.  1.
         22    1    1    0    0    0 -0.25524661058E+02  0.16635538731E+02  0.38684040495E+01  0.30711789607E+02  0.00000000000E+00 0. -1.
</event>
<event>
 5    1  0.1043455E-009  0.9118800E+02  0.7561462E-02  0.1125453E+00
         25   -1    0    0    0    0  0.00000000000E+00  0.00000000000E+00  0.99999998245E-14  0.12509000000E+03  0.12509000000E+03 0.  0.
        -11    1    3    3    0    0 -0.42302798362E+02 -0.87496283349E+01 -0.18278802316E+02  0.46906261412E+02  0.51100000000E-03 0.  1.
         23    2    1    0    0    0  0.30247514784E+01 -0.22331290545E+02 -0.20978068660E+02  0.94301771347E+02  0.89134219330E+02 0.  0.
         11    1    3    3    0    0  0.45327549840E+02 -0.13581662210E+02 -0.26992663438E+01  0.47395509935E+02  0.51100000000E-03 0. -1.
         22    1    1    0    0    0 -0.30247514784E+01  0.22331290545E+02  0.20978068660E+02  0.30788228653E+02  0.00000000000E+00 0.  1.
</event>
<event>
 5    1  0.1043455E-009  0.9118800E+02  0.7561462E-02  0.1125453E+00
         25   -1    0    0    0    0  0.00000000000E+00  0.00000000000E+00  0.99999998245E-14  0.12509000000E+03  0.12509000000E+03 0.  0.
        -11    1    3    3    0    0 -0.38461297117E+02 -0.13501985819E+02  0.13326829185E+02  0.42885654634E+02  0.51100000000E-03 0.  1.
         23    2    1    0    0    0 -0.40362595096E+01  0.21073682097E+02  0.24069324696E+02  0.92845250671E+02  0.87066162847E+02 0.  0.
         11    1    3    3    0    0  0.34425037608E+02  0.34575667916E+02  0.10742495511E+02  0.49959596037E+02  0.51100000000E-03 0. -1.
         22    1    1    0    0    0  0.40362595096E+01 -0.21073682097E+02 -0.24069324696E+02  0.32244749329E+02  0.00000000000E+00 0. -1.
</event>
<event>
 5    1  0.1043455E-009  0.9118800E+02  0.7561462E-02  0.1125453E+00
         25   -1    0    0    0    0  0.00000000000E+00  0.00000000000E+00  0.99999998245E-14  0.12509000000E+03  0.12509000000E+03 0.  0.
        -11    1    3    3    0    0  0.46808924401E+01 -0.34116259318E+02  0.50442373189E+01  0.34803365272E+02  0.51100000000E-03 0.  1.
         23    2    1    0    0    0 -0.98494792253E+01  0.23396134689E+02  0.15940234066E+02  0.95115303647E+02  0.90268702031E+02 0.  0.
         11    1    3    3    0    0 -0.14530371665E+02  0.57512394007E+02  0.10895996747E+02  0.60311938375E+02  0.51100000000E-03 0. -1.
         22    1    1    0    0    0  0.98494792253E+01 -0.23396134689E+02 -0.15940234066E+02  0.29974696353E+02  0.00000000000E+00 0. -1.
</event>
<event>
 5    1  0.1043455E-009  0.9118800E+02  0.7561462E-02  0.1125453E+00
         25   -1    0    0    0    0  0.00000000000E+00  0.00000000000E+00  0.99999998245E-14  0.12509000000E+03  0.12509000000E+03 0.  0.
        -11    1    3    3    0    0 -0.10547756212E+02 -0.23899276994E+02 -0.25761297068E+02  0.36688895171E+02  0.51100000000E-03 0. -1.
         23    2    1    0    0    0  0.62048781986E+01 -0.17456401084E+00  0.27253847460E+02  0.97138198851E+02  0.93029707560E+02 0.  0.
         11    1    3    3    0    0  0.16752634410E+02  0.23724712983E+02  0.53015144529E+02  0.60449303681E+02  0.51100000000E-03 0.  1.
         22    1    1    0    0    0 -0.62048781986E+01  0.17456401084E+00 -0.27253847460E+02  0.27951801149E+02  0.00000000000E+00 0.  1.
</event>
<event>
 5    1  0.1043455E-009  0.9118800E+02  0.7561462E-02  0.1125453E+00
         25   -1    0    0    0    0  0.00000000000E+00  0.00000000000E+00  0.99999998245E-14  0.12509000000E+03  0.12509000000E+03 0.  0.
        -11    1    3    3    0    0 -0.66067951971E+01  0.88387781949E+01 -0.33055911881E+02  0.34849204486E+02  0.51100000000E-03 0.  1.
         23    2    1    0    0    0  0.18438674212E+02  0.56729005033E+01  0.22248174170E+02  0.95642627269E+02  0.90996507572E+02 0.  0.
         11    1    3    3    0    0  0.25045469409E+02 -0.31658776916E+01  0.55304086051E+02  0.60793422783E+02  0.51100000000E-03 0. -1.
         22    1    1    0    0    0 -0.18438674212E+02 -0.56729005033E+01 -0.22248174170E+02  0.29447372731E+02  0.00000000000E+00 0. -1.
</event>
<event>
 5    1  0.1043455E-009  0.9118800E+02  0.7561462E-02  0.1125453E+00
         25   -1    0    0    0    0  0.00000000000E+00  0.00000000000E+00  0.99999998245E-14  0.12509000000E+03  0.12509000000E+03 0.  0.
        -11    1    3    3    0    0  0.17107975132E+02  0.43002269027E+02 -0.24115496108E+02  0.52186541439E+02  0.51100000000E-03 0.  1.
         23    2    1    0    0    0 -0.45530606002E+01  0.61188007920E+01 -0.28875432857E+02  0.95224288780E+02  0.90419602228E+02 0.  0.
         11    1    3    3    0    0 -0.21661035732E+02 -0.36883468235E+02 -0.47599367493E+01  0.43037747341E+02  0.51100000000E-03 0. -1.
         22    1    1    0    0    0  0.45530606002E+01 -0.61188007920E+01  0.28875432857E+02  0.29865711220E+02  0.00000000000E+00 0.  1.
</event>
<event>
 5    1  0.1043455E-009  0.9118800E+02  0.7561462E-02  0.1125453E+00
         25   -1    0    0    0    0  0.00000000000E+00  0.00000000000E+00  0.99999998245E-14  0.12509000000E+03  0.12509000000E+03 0.  0.
        -11    1    3    3    0    0 -0.13250458474E+02  0.35591063558E+02 -0.40528092013E+02  0.55541198199E+02  0.51100000000E-03 0. -1.
         23    2    1    0    0    0 -0.24323112675E+02  0.15096831036E+02 -0.83427218396E+01  0.95271731687E+02  0.90485212788E+02 0.  0.
         11    1    3    3    0    0 -0.11072654200E+02 -0.20494232522E+02  0.32185370173E+02  0.39730533487E+02  0.51100000000E-03 0.  1.
         22    1    1    0    0    0  0.24323112675E+02 -0.15096831036E+02  0.83427218396E+01  0.29818268313E+02  0.00000000000E+00 0. -1.
</event>
<event>
 5    1  0.1043455E-009  0.9118800E+02  0.7561462E-02  0.1125453E+00
         25   -1    0    0    0    0  0.00000000000E+00  0.00000000000E+00  0.99999998245E-14  0.12509000000E+03  0.12509000000E+03 0.  0.
        -11    1    3    3    0    0 -0.92758399428E+01 -0.26873574311E+02 -0.22497101599E+02  0.36253962315E+02  0.51100000000E-03 0.  1.
         23    2    1    0    0    0 -0.88824246965E+01  0.28783847589E+02 -0.53401090427E+01  0.94497123132E+02  0.89407953590E+02 0.  0.
         11    1    3    3    0    0  0.39341524633E+00  0.55657421900E+02  0.17156992556E+02  0.58243160817E+02  0.51100000000E-03 0. -1.
         22    1    1    0    0    0  0.88824246965E+01 -0.28783847589E+02  0.53401090427E+01  0.30592876868E+02  0.00000000000E+00 0. -1.
</event>
<event>
 5    1  0.1043455E-009  0.9118800E+02  0.7561462E-02  0.1125453E+00
         25   -1    0    0    0    0  0.00000000000E+00  0.00000000000E+00  0.99999998245E-14  0.12509000000E+03  0.12509000000E+03 0.  0.
        -11    1    3    3    0    0 -0.11262427735E+02  0.22853739937E+02  0.26118036664E+02  0.36486813331E+02  0.51100000000E-03 0.  1.
         23    2    1    0    0    0  0.21675958867E+02  0.45432084582E+01 -0.19446771827E+02  0.95616878848E+02  0.90961105151E+02 0.  0.
         11    1    3    3    0    0  0.32938386602E+02 -0.18310531479E+02 -0.45564808491E+02  0.59130065518E+02  0.51100000000E-03 0. -1.
         22    1    1    0    0    0 -0.21675958867E+02 -0.45432084582E+01  0.19446771827E+02  0.29473121152E+02  0.00000000000E+00 0. -1.
</event>
<event>
 5    1  0.1043455E-009  0.9118800E+02  0.7561462E-02  0.1125453E+00
         25   -1    0    0    0    0  0.00000000000E+00  0.00000000000E+00  0.99999998245E-14  0.12509000000E+03  0.12509000000E+03 0.  0.
        -11    1    3    3    0    0 -0.31482942770E+02  0.18394434818E+02 -0.33885722119E+02  0.49777234571E+02  0.51100000000E-03 0. -1.
         23    2    1    0    0    0 -0.26427144859E+01  0.30070929326E+02 -0.12365806677E+01  0.94877852408E+02  0.89939051670E+02 0.  0.
         11    1    3    3    0    0  0.28840228284E+02  0.11676494508E+02  0.32649141451E+02  0.45100617837E+02  0.51100000000E-03 0.  1.
         22    1    1    0    0    0  0.26427144859E+01 -0.30070929326E+02  0.12365806677E+01  0.30212147592E+02  0.00000000000E+00 0.  1.
</event>
<event>
 5    1  0.1043455E-009  0.9118800E+02  0.7561462E-02  0.1125453E+00
         25   -1    0    0    0    0  0.00000000000E+00  0.00000000000E+00  0.99999998245E-14  0.12509000000E+03  0.12509000000E+03 0.  0.
        -11    1    3    3    0    0 -0.29271530759E+02 -0.51738802195E+02  0.29086084734E+01  0.59516268104E+02  0.51100000000E-03 0.  1.
         23    2    1    0    0    0 -0.25011156169E+02 -0.16557174587E+02  0.29026433020E+01  0.94954915773E+02  0.90046169981E+02 0.  0.
         11    1    3    3    0    0  0.42603745900E+01  0.35181627608E+02 -0.59651713938E-02  0.35438647669E+02  0.51100000000E-03 0. -1.
         22    1    1    0    0    0  0.25011156169E+02  0.16557174587E+02 -0.29026433020E+01  0.30135084227E+02  0.00000000000E+00 0.  1.
</event>
<event>
 5    1  0.1043455E-009  0.9118800E+02  0.7561462E-02  0.1125453E+00
         25   -1    0    0    0    0  0.00000000000E+00  0.00000000000E+00  0.99999998245E-14  0.12509000000E+03  0.12509000000E+03 0.  0.
        -11    1    3    3    0    0  0.49142475133E+01 -0.30110222928E+02 -0.24031869083E+02  0.38836916526E+02  0.51100000000E-03 0.  1.
         23    2    1    0    0    0 -0.27768655234E+02  0.11372490044E+02 -0.96087922244E+01  0.93581895783E+02  0.88118162640E+02 0.  0.
         11    1    3    3    0    0 -0.32682902747E+02  0.41482712972E+02  0.14423076859E+02  0.54744979257E+02  0.51100000000E-03 0. -1.
         22    1    1    0    0    0  0.27768655234E+02 -0.11372490044E+02  0.96087922244E+01  0.31508104217E+02  0.00000000000E+00 0. -1.
</event>
<event>
 5    1  0.1043455E-009  0.9118800E+02  0.7561462E-02  0.1125453E+00
         25   -1    0    0    0    0  0.00000000000E+00  0.00000000000E+00  0.99999998245E-14  0.12509000000E+03  0.12509000000E+03 0.  0.
        -11    1    3    3    0    0  0.18687129463E+02  0.47119092747E+02  0.27917768312E+02  0.57868985619E+02  0.51100000000E-03 0.  1.
         23    2    1    0    0    0 -0.50667795276E+01  0.28565587455E+02  0.51914658137E+01  0.95617701842E+02  0.90962236927E+02 0.  0.
         11    1    3    3    0    0 -0.23753908991E+02 -0.18553505292E+02 -0.22726302498E+02  0.37748716222E+02  0.51100000000E-03 0. -1.
         22    1    1    0    0    0  0.50667795276E+01 -0.28565587455E+02 -0.51914658137E+01  0.29472298158E+02  0.00000000000E+00 0.  1.
</event>
<event>
 5    1  0.1043455E-009  0.9118800E+02  0.7561462E-02  0.1125453E+00
         25   -1    0    0    0    0  0.00000000000E+00  0.00000000000E+00  0.99999998245E-14  0.12509000000E+03  0.12509000000E+03 0.  0.
        -11    1    3    3    0    0  0.14917509590E+02  0.31733957972E+02 -0.50417922609E+02  0.61412890352E+02  0.51100000000E-03 0.  1.
         23    2    1    0    0    0  0.12849175270E+02  0.12240522775E+02 -0.32929650403E+02  0.87682867277E+02  0.79303162833E+02 0.  0.
         11    1    3    3    0    0 -0.20683343192E+01 -0.19493435197E+02  0.17488272206E+02  0.26269976925E+02  0.51100000000E-03 0. -1.
         22    1    1    0    0    0 -0.12849175270E+02 -0.12240522775E+02  0.32929650403E+02  0.37407132723E+02  0.00000000000E+00 0.  1.
</event>
<event>
 5    1  0.1043455E-009  0.9118800E+02  0.7561462E-02  0.1125453E+00
         25   -1    0    0    0    0  0.00000000000E+00  0.00000000000E+00  0.99999998245E-14  0.12509000000E+03  0.12509000000E+03 0.  0.
        -11    1    3    3    0    0 -0.49613566412E+01  0.27184171817E+02 -0.19977537581E+02  0.34098332293E+02  0.51100000000E-03 0. -1.
         23    2    1    0    0    0 -0.31266285811E+02 -0.12041433040E+02  0.10105107742E+02  0.90094429701E+02  0.83019975443E+02 0.  0.
         11    1    3    3    0    0 -0.26304929170E+02 -0.39225604857E+02  0.30082645323E+02  0.55996097408E+02  0.51100000000E-03 0.  1.
         22    1    1    0    0    0  0.31266285811E+02  0.12041433040E+02 -0.10105107742E+02  0.34995570299E+02  0.00000000000E+00 0.  1.
</event>
<event>
 5    1  0.1043455E-009  0.9118800E+02  0.7561462E-02  0.1125453E+00
         25   -1    0    0    0    0  0.00000000000E+00  0.00000000000E+00  0.99999998245E-14  0.12509000000E+03  0.12509000000E+03 0.  0.
        -11    1    3    3    0    0  0.24506025632E+02 -0.27144931040E+02 -0.97670224969E+01  0.37852176980E+02  0.51100000000E-03 0.  1.
         23    2    1    0    0    0 -0.10554473108E+02  0.17878949961E+02 -0.20494770714E+02  0.95916563779E+02  0.91372303388E+02 0.  0.
         11    1    3    3    0    0 -0.35060498740E+02  0.45023881001E+02 -0.10727748217E+02  0.58064386799E+02  0.51100000000E-03 0. -1.
         22    1    1    0    0    0  0.10554473108E+02 -0.17878949961E+02  0.20494770714E+02  0.29173436221E+02  0.00000000000E+00 0. -1.
</event>
<event>
 5    1  0.1043455E-009  0.9118800E+02  0.7561462E-02  0.1125453E+00
         25   -1    0    0    0    0  0.00000000000E+00  0.00000000000E+00  0.99999998245E-14  0.12509000000E+03  0.12509000000E+03 0.  0.
        -11    1    3    3    0    0  0.28853048637E+02  0.11976588219E+02 -0.42574413568E+02  0.52806417904E+02  0.51100000000E-03 0. -1.
         23    2    1    0    0    0 -0.38426209716E+01 -0.72801990504E+01 -0.31785901420E+02  0.92255405999E+02  0.86214554298E+02 0.  0.
         11    1    3    3    0    0 -0.32695669608E+02 -0.19256787269E+02  0.10788512148E+02  0.39448988095E+02  0.51100000000E-03 0.  1.
         22    1    1    0    0    0  0.38426209716E+01  0.72801990504E+01  0.31785901420E+02  0.32834594001E+02  0.00000000000E+00 0. -1.
</event>
<event>
 5    1  0.1043455E-009  0.9118800E+02  0.7561462E-02  0.1125453E+00
         25   -1    0    0    0    0  0.00000000000E+00  0.00000000000E+00  0.99999998245E-14  0.12509000000E+03  0.12509000000E+03 0.  0.
        -11    1    3    3    0    0  0.43888944174E+01  0.17068742932E+02  0.38272129593E+02  0.42135024425E+02  0.51100000000E-03 0. -1.
         23    2    1    0    0    0  0.18981608555E+02  0.17809798362E+02 -0.13386808846E+02  0.95820612714E+02  0.91240850439E+02 0.  0.
         11    1    3    3    0    0  0.14592714137E+02  0.74105542953E+00 -0.51658938439E+02  0.53685588289E+02  0.51100000000E-03 0.  1.
         22    1    1    0    0    0 -0.18981608555E+02 -0.17809798362E+02  0.13386808846E+02  0.29269387286E+02  0.00000000000E+00 0.  1.
</event>
<event>
 5    1  0.1043455E-009  0.9118800E+02  0.7561462E-02  0.1125453E+00
         25   -1    0    0    0    0  0.00000000000E+00  0.00000000000E+00  0.99999998245E-14  0.12509000000E+03  0.12509000000E+03 0.  0.
        -11    1    3    3    0    0 -0.31477144109E+02 -0.38606389467E+02  0.20872145300E+02  0.54008428589E+02  0.51100000000E-03 0. -1.
         23    2    1    0    0    0  0.25517679614E+01 -0.20995505067E+02  0.24766294756E+02  0.92521731568E+02  0.86600107988E+02 0.  0.
         11    1    3    3    0    0  0.34028912071E+02  0.17610884400E+02  0.38941494559E+01  0.38513302979E+02  0.51100000000E-03 0.  1.
         22    1    1    0    0    0 -0.25517679614E+01  0.20995505067E+02 -0.24766294756E+02  0.32568268432E+02  0.00000000000E+00 0.  1.
</event>
<event>
 5    1  0.1043455E-009  0.9118800E+02  0.7561462E-02  0.1125453E+00
         25   -1    0    0    0    0  0.00000000000E+00  0.00000000000E+00  0.99999998245E-14  0.12509000000E+03  0.12509000000E+03 0.  0.
        -11    1    3    3    0    0  0.45475015862E+02  0.12037505111E+02  0.92817993424E+01  0.47948205349E+02  0.51100000000E-03 0.  1.
         23    2    1    0    0    0 -0.74675027815E+00  0.27693729143E+02  0.17095310328E+01  0.97333509476E+02  0.93291957321E+02 0.  0.
         11    1    3    3    0    0 -0.46221766140E+02  0.15656224033E+02 -0.75722683097E+01  0.49385304127E+02  0.51100000000E-03 0. -1.
         22    1    1    0    0    0  0.74675027815E+00 -0.27693729143E+02 -0.17095310328E+01  0.27756490524E+02  0.00000000000E+00 0. -1.
</event>
<event>
 5    1  0.1043455E-009  0.9118800E+02  0.7561462E-02  0.1125453E+00
         25   -1    0    0    0    0  0.00000000000E+00  0.00000000000E+00  0.99999998245E-14  0.12509000000E+03  0.12509000000E+03 0.  0.
        -11    1    3    3    0    0  0.10528679465E+02  0.38665501584E+02 -0.29197879493E+02  0.49582156782E+02  0.51100000000E-03 0.  1.
         23    2    1    0    0    0  0.28285747922E+02  0.10753728594E+02  0.16085317619E+01  0.94786310643E+02  0.89811642323E+02 0.  0.
         11    1    3    3    0    0  0.17757068457E+02 -0.27911772990E+02  0.30806411255E+02  0.45204153861E+02  0.51100000000E-03 0. -1.
         22    1    1    0    0    0 -0.28285747922E+02 -0.10753728594E+02 -0.16085317619E+01  0.30303689357E+02  0.00000000000E+00 0.  1.
</event>
<event>
 5    1  0.1043455E-009  0.9118800E+02  0.7561462E-02  0.1125453E+00
         25   -1    0    0    0    0  0.00000000000E+00  0.00000000000E+00  0.99999998245E-14  0.12509000000E+03  0.12509000000E+03 0.  0.
        -11    1    3    3    0    0  0.12918813046E+02 -0.56554792405E+01 -0.47155307994E+02  0.49218931807E+02  0.51100000000E-03 0.  1.
         23    2    1    0    0    0  0.21906508766E+02  0.15681025655E+02 -0.44666437871E+01  0.97781748525E+02  0.93891052534E+02 0.  0.
         11    1    3    3    0    0  0.89876957199E+01  0.21336504895E+02  0.42688664207E+02  0.48562816718E+02  0.51100000000E-03 0. -1.
         22    1    1    0    0    0 -0.21906508766E+02 -0.15681025655E+02  0.44666437871E+01  0.27308251475E+02  0.00000000000E+00 0.  1.
</event>
<event>
 5    1  0.1043455E-009  0.9118800E+02  0.7561462E-02  0.1125453E+00
         25   -1    0    0    0    0  0.00000000000E+00  0.00000000000E+00  0.99999998245E-14  0.12509000000E+03  0.12509000000E+03 0.  0.
        -11    1    3    3    0    0 -0.23251527096E+02  0.24200663020E+02  0.19909766890E+02  0.39021845430E+02  0.51100000000E-03 0.  1.
         23    2    1    0    0    0  0.53705751991E+01 -0.36993889506E+01 -0.25064528895E+02  0.99190981384E+02  0.95750152076E+02 0.  0.
         11    1    3    3    0    0  0.28622102295E+02 -0.27900051971E+02 -0.44974295785E+02  0.60169135953E+02  0.51100000000E-03 0. -1.
         22    1    1    0    0    0 -0.53705751991E+01  0.36993889506E+01  0.25064528895E+02  0.25899018616E+02  0.00000000000E+00 0. -1.
</event>
<event>
 5    1  0.1043455E-009  0.9118800E+02  0.7561462E-02  0.1125453E+00
         25   -1    0    0    0    0  0.00000000000E+00  0.00000000000E+00  0.99999998245E-14  0.12509000000E+03  0.12509000000E+03 0.  0.
        -11    1    3    3    0    0  0.34415780047E+02  0.13830960190E+02  0.13296659011E+02  0.39402316139E+02  0.51100000000E-03 0. -1.
         23    2    1    0    0    0  0.25628486992E+01 -0.13107234900E+02 -0.25457264799E+02  0.96342128231E+02  0.91953061618E+02 0.  0.
         11    1    3    3    0    0 -0.31852931348E+02 -0.26938195090E+02 -0.38753923810E+02  0.56939812092E+02  0.51100000000E-03 0.  1.
         22    1    1    0    0    0 -0.25628486992E+01  0.13107234900E+02  0.25457264799E+02  0.28747871769E+02  0.00000000000E+00 0.  1.
</event>
<event>
 5    1  0.1043455E-009  0.9118800E+02  0.7561462E-02  0.1125453E+00
         25   -1    0    0    0    0  0.00000000000E+00  0.00000000000E+00  0.99999998245E-14  0.12509000000E+03  0.12509000000E+03 0.  0.
        -11    1    3    3    0    0 -0.20684745934E+02  0.28894734557E+02 -0.15299349324E+02  0.38688945314E+02  0.51100000000E-03 0.  1.
         23    2    1    0    0    0  0.17068004935E+02  0.14360922995E+02  0.22033593616E+02  0.93736656488E+02  0.88337583283E+02 0.  0.
         11    1    3    3    0    0  0.37752750869E+02 -0.14533811562E+02  0.37332942941E+02  0.55047711175E+02  0.51100000000E-03 0. -1.
         22    1    1    0    0    0 -0.17068004935E+02 -0.14360922995E+02 -0.22033593616E+02  0.31353343512E+02  0.00000000000E+00 0. -1.
</event>
<event>
 5    1  0.1043455E-009  0.9118800E+02  0.7561462E-02  0.1125453E+00
         25   -1    0    0    0    0  0.00000000000E+00  0.00000000000E+00  0.99999998245E-14  0.12509000000E+03  0.12509000000E+03 0.  0.
        -11    1    3    3    0    0 -0.18259772840E+01  0.52526950072E+02 -0.30544739707E+02  0.60789767239E+02  0.51100000000E-03 0.  1.
         23    2    1    0    0    0  0.75162528018E+01  0.20714314625E+02 -0.19289699918E+02  0.95804006599E+02  0.91218080833E+02 0.  0.
         11    1    3    3    0    0  0.93422300858E+01 -0.31812635447E+02  0.11255039789E+02  0.35014239360E+02  0.51100000000E-03 0. -1.
         22    1    1    0    0    0 -0.75162528018E+01 -0.20714314625E+02  0.19289699918E+02  0.29285993401E+02  0.00000000000E+00 0.  1.
</event>
<event>
 5    1  0.1043455E-009  0.9118800E+02  0.7561462E-02  0.1125453E+00
         25   -1    0    0    0    0  0.00000000000E+00  0.00000000000E+00  0.99999998245E-14  0.12509000000E+03  0.12509000000E+03 0.  0.
        -11    1    3    3    0    0  0.12896190687E+01  0.50728873152E+02  0.23972119117E+02  0.56122581764E+02  0.51100000000E-03 0. -1.
         23    2    1    0    0    0 -0.31570791110E+01  0.12203301242E+02  0.27273817230E+02  0.95044221328E+02  0.90170145790E+02 0.  0.
         11    1    3    3    0    0 -0.44466981797E+01 -0.38525571910E+02  0.33016981128E+01  0.38921639564E+02  0.51100000000E-03 0.  1.
         22    1    1    0    0    0  0.31570791110E+01 -0.12203301242E+02 -0.27273817230E+02  0.30045778672E+02  0.00000000000E+00 0. -1.
</event>
<event>
 5    1  0.1043455E-009  0.9118800E+02  0.7561462E-02  0.1125453E+00
         25   -1    0    0    0    0  0.00000000000E+00  0.00000000000E+00  0.99999998245E-14  0.12509000000E+03  0.12509000000E+03 0.  0.
        -11    1    3    3    0    0 -0.45838171148E+01 -0.15488174342E+02  0.31223500747E+02  0.35153974497E+02  0.51100000000E-03 0. -1.
         23    2    1    0    0    0 -0.23982203669E+02  0.27809154719E+02  0.10751634304E+02  0.86826534145E+02  0.77940709596E+02 0.  0.
         11    1    3    3    0    0 -0.19398386554E+02  0.43297329061E+02 -0.20471866443E+02  0.51672559648E+02  0.51100000000E-03 0.  1.
         22    1    1    0    0    0  0.23982203669E+02 -0.27809154719E+02 -0.10751634304E+02  0.38263465855E+02  0.00000000000E+00 0.  1.
</event>
<event>
 5    1  0.1043455E-009  0.9118800E+02  0.7561462E-02  0.1125453E+00
         25   -1    0    0    0    0  0.00000000000E+00  0.00000000000E+00  0.99999998245E-14  0.12509000000E+03  0.12509000000E+03 0.  0.
        -11    1    3    3    0    0 -0.20139612766E+02  0.24297619142E+02  0.23837636530E+02  0.39550110163E+02  0.51100000000E-03 0.  1.
         23    2    1    0    0    0 -0.13641428743E+02  0.34677737090E+01 -0.26871962357E+02  0.94754931291E+02  0.89767926402E+02 0.  0.
         11    1    3    3    0    0  0.64981840228E+01 -0.20829845433E+02 -0.50709598886E+02  0.55204821129E+02  0.51100000000E-03 0. -1.
         22    1    1    0    0    0  0.13641428743E+02 -0.34677737090E+01  0.26871962357E+02  0.30335068709E+02  0.00000000000E+00 0. -1.
</event>
<event>
 5    1  0.1043455E-009  0.9118800E+02  0.7561462E-02  0.1125453E+00
         25   -1    0    0    0    0  0.00000000000E+00  0.00000000000E+00  0.99999998245E-14  0.12509000000E+03  0.12509000000E+03 0.  0.
        -11    1    3    3    0    0 -0.79384589635E+01  0.14938922086E+02  0.10602386122E+02  0.19964997259E+02  0.51100000000E-03 0. -1.
         23    2    1    0    0    0  0.27981664064E+01 -0.43670395156E+02  0.12499732629E+02  0.79579820214E+02  0.65282243537E+02 0.  0.
         11    1    3    3    0    0  0.10736625370E+02 -0.58609317242E+02  0.18973465066E+01  0.59614822955E+02  0.51100000000E-03 0.  1.
         22    1    1    0    0    0 -0.27981664064E+01  0.43670395156E+02 -0.12499732629E+02  0.45510179786E+02  0.00000000000E+00 0.  1.
</event>
<event>
 5    1  0.1043455E-009  0.9118800E+02  0.7561462E-02  0.1125453E+00
         25   -1    0    0    0    0  0.00000000000E+00  0.00000000000E+00  0.99999998245E-14  0.12509000000E+03  0.12509000000E+03 0.  0.
        -11    1    3    3    0    0 -0.31263476431E+02  0.96090097394E+01 -0.43660582359E+02  0.54552584530E+02  0.51100000000E-03 0. -1.
         23    2    1    0    0    0 -0.17305505908E+02  0.22457926893E+02 -0.69146689494E+01  0.95906928507E+02  0.91359111608E+02 0.  0.
         11    1    3    3    0    0  0.13957970523E+02  0.12848917154E+02  0.36745913410E+02  0.41354343977E+02  0.51100000000E-03 0.  1.
         22    1    1    0    0    0  0.17305505908E+02 -0.22457926893E+02  0.69146689494E+01  0.29183071493E+02  0.00000000000E+00 0. -1.
</event>
<event>
 5    1  0.1043455E-009  0.9118800E+02  0.7561462E-02  0.1125453E+00
         25   -1    0    0    0    0  0.00000000000E+00  0.00000000000E+00  0.99999998245E-14  0.12509000000E+03  0.12509000000E+03 0.  0.
        -11    1    3    3    0    0  0.44137964901E+02  0.12379008084E+01  0.24934041540E+02  0.50708961455E+02  0.51100000000E-03 0.  1.
         23    2    1    0    0    0  0.22686530239E+02 -0.40309977719E+01 -0.15872385626E+02  0.97110360567E+02  0.92992267994E+02 0.  0.
         11    1    3    3    0    0 -0.21451434662E+02 -0.52688985803E+01 -0.40806427166E+02  0.46401399113E+02  0.51100000000E-03 0. -1.
         22    1    1    0    0    0 -0.22686530239E+02  0.40309977719E+01  0.15872385626E+02  0.27979639433E+02  0.00000000000E+00 0.  1.
</event>
<event>
 5    1  0.1043455E-009  0.9118800E+02  0.7561462E-02  0.1125453E+00
         25   -1    0    0    0    0  0.00000000000E+00  0.00000000000E+00  0.99999998245E-14  0.12509000000E+03  0.12509000000E+03 0.  0.
        -11    1    3    3    0    0  0.31121346757E+02  0.14210088158E+02 -0.13588507331E+02  0.36811850825E+02  0.51100000000E-03 0. -1.
         23    2    1    0    0    0 -0.22664566886E+02  0.14816054872E+02  0.10884182269E+02  0.95906725719E+02  0.91358833948E+02 0.  0.
         11    1    3    3    0    0 -0.53785913644E+02  0.60596671378E+00  0.24472689600E+02  0.59094874893E+02  0.51100000000E-03 0.  1.
         22    1    1    0    0    0  0.22664566886E+02 -0.14816054872E+02 -0.10884182269E+02  0.29183274281E+02  0.00000000000E+00 0.  1.
</event>
<event>
 5    1  0.1043455E-009  0.9118800E+02  0.7561462E-02  0.1125453E+00
         25   -1    0    0    0    0  0.00000000000E+00  0.00000000000E+00  0.99999998245E-14  0.12509000000E+03  0.12509000000E+03 0.  0.
        -11    1    3    3    0    0  0.39892160855E+02 -0.88790026930E+01  0.11479580195E+02  0.42449993500E+02  0.51100000000E-03 0. -1.
         23    2    1    0    0    0  0.88095817138E+01  0.15749543755E+02 -0.23589862844E+02  0.95389183724E+02  0.90647437272E+02 0.  0.
         11    1    3    3    0    0 -0.31082579141E+02  0.24628546448E+02 -0.35069443039E+02  0.52939190223E+02  0.51100000000E-03 0.  1.
         22    1    1    0    0    0 -0.88095817138E+01 -0.15749543755E+02  0.23589862844E+02  0.29700816276E+02  0.00000000000E+00 0.  1.
</event>
<event>
 4    1  0.1043455E-009  0.9118800E+02  0.7561462E-02  0.1125453E+00
         25   -1    0    0    0    0  0.00000000000E+00  0.00000000000E+00  0.99999998245E-14  0.12509000000E+03  0.12509000000E+03 0.  0.
        -11    1    1    0    0    0 -0.19977634837E+02  0.32832232659E+02  0.13101410840E+02  0.40604289937E+02  0.51100000000E-03 0.  1.
         11    1    1    0    0    0 -0.25560636322E+02 -0.99727398249E+01  0.90975506173E+01  0.28906177476E+02  0.51100000000E-03 0. -1.
         22    1    1    0    0    0  0.45538271159E+02 -0.22859492834E+02 -0.22198961458E+02  0.55579532587E+02  0.00000000000E+00 0.  1.
</event>
<event>
 5    1  0.1043455E-009  0.9118800E+02  0.7561462E-02  0.1125453E+00
         25   -1    0    0    0    0  0.00000000000E+00  0.00000000000E+00  0.99999998245E-14  0.12509000000E+03  0.12509000000E+03 0.  0.
        -11    1    3    3    0    0 -0.29241746398E+02 -0.20583315956E+02  0.50945388305E+01  0.36120727489E+02  0.51100000000E-03 0. -1.
         23    2    1    0    0    0 -0.36130162526E+01  0.30953305601E+02 -0.24803474946E+00  0.93925556553E+02  0.88604670523E+02 0.  0.
         11    1    3    3    0    0  0.25628730146E+02  0.51536621558E+02 -0.53425735800E+01  0.57804829064E+02  0.51100000000E-03 0.  1.
         22    1    1    0    0    0  0.36130162526E+01 -0.30953305601E+02  0.24803474946E+00  0.31164443447E+02  0.00000000000E+00 0.  1.
</event>
<event>
 5    1  0.1043455E-009  0.9118800E+02  0.7561462E-02  0.1125453E+00
         25   -1    0    0    0    0  0.00000000000E+00  0.00000000000E+00  0.99999998245E-14  0.12509000000E+03  0.12509000000E+03 0.  0.
        -11    1    3    3    0    0 -0.50881541618E+02 -0.24884174809E+02  0.16892156242E+02  0.59105823538E+02  0.51100000000E-03 0. -1.
         23    2    1    0    0    0 -0.15249304901E+02 -0.18174564847E+02  0.17887184741E+02  0.95377923578E+02  0.90631897369E+02 0.  0.
         11    1    3    3    0    0  0.35632236717E+02  0.67096099622E+01  0.99502849942E+00  0.36272100040E+02  0.51100000000E-03 0.  1.
         22    1    1    0    0    0  0.15249304901E+02  0.18174564847E+02 -0.17887184741E+02  0.29712076422E+02  0.00000000000E+00 0. -1.
</event>
<event>
 5    1  0.1043455E-009  0.9118800E+02  0.7561462E-02  0.1125453E+00
         25   -1    0    0    0    0  0.00000000000E+00  0.00000000000E+00  0.99999998245E-14  0.12509000000E+03  0.12509000000E+03 0.  0.
        -11    1    3    3    0    0 -0.38456505934E+02 -0.30957465478E+02  0.24358491119E+02  0.55050918315E+02  0.51100000000E-03 0. -1.
         23    2    1    0    0    0 -0.85014307932E+01 -0.42700615830E+01  0.28176206026E+02  0.95351029986E+02  0.90594771273E+02 0.  0.
         11    1    3    3    0    0  0.29955075141E+02  0.26687403895E+02  0.38177149071E+01  0.40300111671E+02  0.51100000000E-03 0.  1.
         22    1    1    0    0    0  0.85014307932E+01  0.42700615830E+01 -0.28176206026E+02  0.29738970014E+02  0.00000000000E+00 0. -1.
</event>
<event>
 5    1  0.1043455E-009  0.9118800E+02  0.7561462E-02  0.1125453E+00
         25   -1    0    0    0    0  0.00000000000E+00  0.00000000000E+00  0.99999998245E-14  0.12509000000E+03  0.12509000000E+03 0.  0.
        -11    1    3    3    0    0 -0.39167631308E+02 -0.28730065109E+02 -0.12425018633E+02  0.50138818013E+02  0.51100000000E-03 0. -1.
         23    2    1    0    0    0 -0.23647160230E+02  0.33756661021E+01  0.16502626803E+02  0.96056915424E+02  0.91564245209E+02 0.  0.
         11    1    3    3    0    0  0.15520471077E+02  0.32105731211E+02  0.28927645437E+02  0.45918097411E+02  0.51100000000E-03 0.  1.
         22    1    1    0    0    0  0.23647160230E+02 -0.33756661021E+01 -0.16502626803E+02  0.29033084576E+02  0.00000000000E+00 0. -1.
</event>
<event>
 5    1  0.1043455E-009  0.9118800E+02  0.7561462E-02  0.1125453E+00
         25   -1    0    0    0    0  0.00000000000E+00  0.00000000000E+00  0.99999998245E-14  0.12509000000E+03  0.12509000000E+03 0.  0.
        -11    1    3    3    0    0  0.17181983022E+02  0.14506062687E+01 -0.36844540025E+02  0.40679785263E+02  0.51100000000E-03 0.  1.
         23    2    1    0    0    0  0.30534829517E+02 -0.22528482610E+02  0.64031715887E+00  0.87138473701E+02  0.78439755549E+02 0.  0.
         11    1    3    3    0    0  0.13352846494E+02 -0.23979088879E+02  0.37484857184E+02  0.46458688438E+02  0.51100000000E-03 0. -1.
         22    1    1    0    0    0 -0.30534829517E+02  0.22528482610E+02 -0.64031715887E+00  0.37951526299E+02  0.00000000000E+00 0.  1.
</event>
<event>
 5    1  0.1043455E-009  0.9118800E+02  0.7561462E-02  0.1125453E+00
         25   -1    0    0    0    0  0.00000000000E+00  0.00000000000E+00  0.99999998245E-14  0.12509000000E+03  0.12509000000E+03 0.  0.
        -11    1    3    3    0    0  0.56600728788E+02  0.84137307897E+01  0.20336994794E+02  0.60729125818E+02  0.51100000000E-03 0.  1.
         23    2    1    0    0    0  0.21462802730E+02  0.13792188976E+02  0.88546299385E+01  0.98084799591E+02  0.94293939687E+02 0.  0.
         11    1    3    3    0    0 -0.35137926058E+02  0.53784581862E+01 -0.11482364855E+02  0.37355673773E+02  0.51100000000E-03 0. -1.
         22    1    1    0    0    0 -0.21462802730E+02 -0.13792188976E+02 -0.88546299385E+01  0.27005200409E+02  0.00000000000E+00 0.  1.
</event>
<event>
 5    1  0.1043455E-009  0.9118800E+02  0.7561462E-02  0.1125453E+00
         25   -1    0    0    0    0  0.00000000000E+00  0.00000000000E+00  0.99999998245E-14  0.12509000000E+03  0.12509000000E+03 0.  0.
        -11    1    3    3    0    0 -0.13722027888E+02  0.26621929116E+02 -0.21818726774E+02  0.37055067096E+02  0.51100000000E-03 0. -1.
         23    2    1    0    0    0  0.25952638371E+02 -0.13110629216E+02 -0.58494075709E+01  0.95431213683E+02  0.90705418467E+02 0.  0.
         11    1    3    3    0    0  0.39674666259E+02 -0.39732558332E+02  0.15969319203E+02  0.58376146587E+02  0.51100000000E-03 0.  1.
         22    1    1    0    0    0 -0.25952638371E+02  0.13110629216E+02  0.58494075709E+01  0.29658786317E+02  0.00000000000E+00 0.  1.
</event>
<event>
 5    1  0.1043455E-009  0.9118800E+02  0.7561462E-02  0.1125453E+00
         25   -1    0    0    0    0  0.00000000000E+00  0.00000000000E+00  0.99999998245E-14  0.12509000000E+03  0.12509000000E+03 0.  0.
        -11    1    3    3    0    0  0.55317858935E+01 -0.40083399190E+02  0.80855316816E+01  0.41263244766E+02  0.51100000000E-03 0. -1.
         23    2    1    0    0    0  0.17264379842E+02  0.12156217939E+00 -0.25049188216E+02  0.94667386388E+02  0.89645851140E+02 0.  0.
         11    1    3    3    0    0  0.11732593949E+02  0.40204961369E+02 -0.33134719898E+02  0.53404141622E+02  0.51100000000E-03 0.  1.
         22    1    1    0    0    0 -0.17264379842E+02 -0.12156217939E+00  0.25049188216E+02  0.30422613612E+02  0.00000000000E+00 0.  1.
</event>
<event>
 5    1  0.1043455E-009  0.9118800E+02  0.7561462E-02  0.1125453E+00
         25   -1    0    0    0    0  0.00000000000E+00  0.00000000000E+00  0.99999998245E-14  0.12509000000E+03  0.12509000000E+03 0.  0.
        -11    1    3    3    0    0  0.12041650024E+01 -0.56045639467E+02  0.59373332603E+01  0.56372117604E+02  0.51100000000E-03 0. -1.
         23    2    1    0    0    0  0.19431255170E+02 -0.22497936922E+02  0.69331339895E+01  0.94564614005E+02  0.89502329756E+02 0.  0.
         11    1    3    3    0    0  0.18227090167E+02  0.33547702545E+02  0.99580072919E+00  0.38192496401E+02  0.51100000000E-03 0.  1.
         22    1    1    0    0    0 -0.19431255170E+02  0.22497936922E+02 -0.69331339895E+01  0.30525385995E+02  0.00000000000E+00 0. -1.
</event>
<event>
 5    1  0.1043455E-009  0.9118800E+02  0.7561462E-02  0.1125453E+00
         25   -1    0    0    0    0  0.00000000000E+00  0.00000000000E+00  0.99999998245E-14  0.12509000000E+03  0.12509000000E+03 0.  0.
        -11    1    3    3    0    0  0.17242765722E+01  0.34855274105E+02 -0.31755424240E+02  0.47183368167E+02  0.51100000000E-03 0.  1.
         23    2    1    0    0    0  0.65913176382E+01 -0.13818965563E+02 -0.23869997175E+02  0.96731825825E+02  0.92481674319E+02 0.  0.
         11    1    3    3    0    0  0.48670410660E+01 -0.48674239668E+02  0.78854270653E+01  0.49548457658E+02  0.51100000000E-03 0. -1.
         22    1    1    0    0    0 -0.65913176382E+01  0.13818965563E+02  0.23869997175E+02  0.28358174175E+02  0.00000000000E+00 0.  1.
</event>
<event>
 5    1  0.1043455E-009  0.9118800E+02  0.7561462E-02  0.1125453E+00
         25   -1    0    0    0    0  0.00000000000E+00  0.00000000000E+00  0.99999998245E-14  0.12509000000E+03  0.12509000000E+03 0.  0.
        -11    1    3    3    0    0 -0.65487802697E+01 -0.12277090086E+02  0.33199576463E+02  0.35997574107E+02  0.51100000000E-03 0.  1.
         23    2    1    0    0    0  0.22681346279E+02  0.26959506180E+01 -0.17438357696E+02  0.96353125816E+02  0.91968021163E+02 0.  0.
         11    1    3    3    0    0  0.29230126549E+02  0.14973040704E+02 -0.50637934159E+02  0.60355551709E+02  0.51100000000E-03 0. -1.
         22    1    1    0    0    0 -0.22681346279E+02 -0.26959506180E+01  0.17438357696E+02  0.28736874184E+02  0.00000000000E+00 0. -1.
</event>
<event>
 5    1  0.1043455E-009  0.9118800E+02  0.7561462E-02  0.1125453E+00
         25   -1    0    0    0    0  0.00000000000E+00  0.00000000000E+00  0.99999998245E-14  0.12509000000E+03  0.12509000000E+03 0.  0.
        -11    1    3    3    0    0 -0.35793980632E+02  0.23939190948E+01  0.11877879439E+02  0.37789203727E+02  0.51100000000E-03 0. -1.
         23    2    1    0    0    0  0.19954447528E+02 -0.73066239210E+01  0.21125284886E+02  0.95125948358E+02  0.90283451752E+02 0.  0.
         11    1    3    3    0    0  0.55748428160E+02 -0.97005430158E+01  0.92474054473E+01  0.57336744631E+02  0.51100000000E-03 0.  1.
         22    1    1    0    0    0 -0.19954447528E+02  0.73066239210E+01 -0.21125284886E+02  0.29964051642E+02  0.00000000000E+00 0.  1.
</event>
<event>
 5    1  0.1043455E-009  0.9118800E+02  0.7561462E-02  0.1125453E+00
         25   -1    0    0    0    0  0.00000000000E+00  0.00000000000E+00  0.99999998245E-14  0.12509000000E+03  0.12509000000E+03 0.  0.
        -11    1    3    3    0    0  0.40174543355E+01 -0.29289947039E+02 -0.51710594056E+02  0.59565312681E+02  0.51100000000E-03 0.  1.
         23    2    1    0    0    0  0.11446951938E+02 -0.44571694413E+01 -0.27224254413E+02  0.95222641622E+02  0.90417323457E+02 0.  0.
         11    1    3    3    0    0  0.74294976028E+01  0.24832777598E+02  0.24486339643E+02  0.35657328941E+02  0.51100000000E-03 0. -1.
         22    1    1    0    0    0 -0.11446951938E+02  0.44571694413E+01  0.27224254413E+02  0.29867358378E+02  0.00000000000E+00 0.  1.
</event>
<event>
 5    1  0.1043455E-009  0.9118800E+02  0.7561462E-02  0.1125453E+00
         25   -1    0    0    0    0  0.00000000000E+00  0.00000000000E+00  0.99999998245E-14  0.12509000000E+03  0.12509000000E+03 0.  0.
        -11    1    3    3    0    0  0.41104177433E+02  0.30570663005E+02  0.68234355368E+01  0.51678604003E+02  0.51100000000E-03 0. -1.
         23    2    1    0    0    0  0.11958723927E+02  0.16309718518E+02 -0.22090803625E+02  0.95139681122E+02  0.90302476838E+02 0.  0.
         11    1    3    3    0    0 -0.29145453506E+02 -0.14260944487E+02 -0.28914239162E+02  0.43461077119E+02  0.51100000000E-03 0.  1.
         22    1    1    0    0    0 -0.11958723927E+02 -0.16309718518E+02  0.22090803625E+02  0.29950318878E+02  0.00000000000E+00 0.  1.
</event>
<event>
 5    1  0.1043455E-009  0.9118800E+02  0.7561462E-02  0.1125453E+00
         25   -1    0    0    0    0  0.00000000000E+00  0.00000000000E+00  0.99999998245E-14  0.12509000000E+03  0.12509000000E+03 0.  0.
        -11    1    3    3    0    0  0.40669565085E+01 -0.60505776061E+02 -0.12251144625E+01  0.60654678119E+02  0.51100000000E-03 0.  1.
         23    2    1    0    0    0  0.62332436122E+01 -0.25928498205E+02  0.92748461171E+01  0.96855922795E+02  0.92649374876E+02 0.  0.
         11    1    3    3    0    0  0.21662871037E+01  0.34577277856E+02  0.10499960580E+02  0.36201244677E+02  0.51100000000E-03 0. -1.
         22    1    1    0    0    0 -0.62332436122E+01  0.25928498205E+02 -0.92748461171E+01  0.28234077205E+02  0.00000000000E+00 0.  1.
</event>
<event>
 5    1  0.1043455E-009  0.9118800E+02  0.7561462E-02  0.1125453E+00
         25   -1    0    0    0    0  0.00000000000E+00  0.00000000000E+00  0.99999998245E-14  0.12509000000E+03  0.12509000000E+03 0.  0.
        -11    1    3    3    0    0  0.25440116605E+02 -0.35448908287E+02  0.10884209916E+02  0.44969886117E+02  0.51100000000E-03 0. -1.
         23    2    1    0    0    0 -0.15616353636E+01 -0.15990497292E+02 -0.25922019235E+02  0.94592692088E+02  0.89541563570E+02 0.  0.
         11    1    3    3    0    0 -0.27001751969E+02  0.19458410995E+02 -0.36806229151E+02  0.49622805971E+02  0.51100000000E-03 0.  1.
         22    1    1    0    0    0  0.15616353636E+01  0.15990497292E+02  0.25922019235E+02  0.30497307912E+02  0.00000000000E+00 0.  1.
</event>
<event>
 5    1  0.1043455E-009  0.9118800E+02  0.7561462E-02  0.1125453E+00
         25   -1    0    0    0    0  0.00000000000E+00  0.00000000000E+00  0.99999998245E-14  0.12509000000E+03  0.12509000000E+03 0.  0.
        -11    1    3    3    0    0 -0.49074150335E+02  0.38219639487E+02 -0.51275934677E+01  0.62412380892E+02  0.51100000000E-03 0.  1.
         23    2    1    0    0    0 -0.21037543167E+02  0.18492387207E+02  0.34116505143E-01  0.97080220082E+02  0.92951715208E+02 0.  0.
         11    1    3    3    0    0  0.28036607168E+02 -0.19727252280E+02  0.51617099728E+01  0.34667839190E+02  0.51100000000E-03 0. -1.
         22    1    1    0    0    0  0.21037543167E+02 -0.18492387207E+02 -0.34116505143E-01  0.28009779918E+02  0.00000000000E+00 0.  1.
</event>
<event>
 5    1  0.1043455E-009  0.9118800E+02  0.7561462E-02  0.1125453E+00
         25   -1    0    0    0    0  0.00000000000E+00  0.00000000000E+00  0.99999998245E-14  0.12509000000E+03  0.12509000000E+03 0.  0.
        -11    1    3    3    0    0 -0.27791774996E+01 -0.29137897743E+02  0.32813779236E+02  0.43971411399E+02  0.51100000000E-03 0.  1.
         23    2    1    0    0    0 -0.16222299127E+02 -0.12291632645E+02 -0.17207110714E+02  0.98437947900E+02  0.94761266906E+02 0.  0.
         11    1    3    3    0    0 -0.13443121627E+02  0.16846265098E+02 -0.50020889949E+02  0.54466536501E+02  0.51100000000E-03 0. -1.
         22    1    1    0    0    0  0.16222299127E+02  0.12291632645E+02  0.17207110714E+02  0.26652052100E+02  0.00000000000E+00 0. -1.
</event>
<event>
 5    1  0.1043455E-009  0.9118800E+02  0.7561462E-02  0.1125453E+00
         25   -1    0    0    0    0  0.00000000000E+00  0.00000000000E+00  0.99999998245E-14  0.12509000000E+03  0.12509000000E+03 0.  0.
        -11    1    3    3    0    0 -0.34331114152E+02  0.18596406945E+01  0.10583359839E+02  0.35973478678E+02  0.51100000000E-03 0.  1.
         23    2    1    0    0    0  0.19586319554E+02 -0.21125349568E+02  0.10021995791E+02  0.94588447455E+02  0.89535633600E+02 0.  0.
         11    1    3    3    0    0  0.53917433707E+02 -0.22984990262E+02 -0.56136404867E+00  0.58614968777E+02  0.51100000000E-03 0. -1.
         22    1    1    0    0    0 -0.19586319554E+02  0.21125349568E+02 -0.10021995791E+02  0.30501552545E+02  0.00000000000E+00 0. -1.
</event>
<event>
 5    1  0.1043455E-009  0.9118800E+02  0.7561462E-02  0.1125453E+00
         25   -1    0    0    0    0  0.00000000000E+00  0.00000000000E+00  0.99999998245E-14  0.12509000000E+03  0.12509000000E+03 0.  0.
        -11    1    3    3    0    0  0.29466030726E+02  0.10880841124E+02  0.45275217752E+02  0.55104310294E+02  0.51100000000E-03 0. -1.
         23    2    1    0    0    0 -0.60496884764E+01  0.13231666072E+02  0.25260740398E+02  0.95939001335E+02  0.91403015563E+02 0.  0.
         11    1    3    3    0    0 -0.35515719202E+02  0.23508249480E+01 -0.20014477354E+02  0.40834691041E+02  0.51100000000E-03 0.  1.
         22    1    1    0    0    0  0.60496884764E+01 -0.13231666072E+02 -0.25260740398E+02  0.29150998665E+02  0.00000000000E+00 0. -1.
</event>
<event>
 5    1  0.1043455E-009  0.9118800E+02  0.7561462E-02  0.1125453E+00
         25   -1    0    0    0    0  0.00000000000E+00  0.00000000000E+00  0.99999998245E-14  0.12509000000E+03  0.12509000000E+03 0.  0.
        -11    1    3    3    0    0  0.38761453121E+00  0.16521090996E+02 -0.52055158792E+02  0.54615348116E+02  0.51100000000E-03 0. -1.
         23    2    1    0    0    0 -0.17788108673E+02 -0.57350578134E+01 -0.22563590073E+02  0.95791138328E+02  0.91200432493E+02 0.  0.
         11    1    3    3    0    0 -0.18175723204E+02 -0.22256148809E+02  0.29491568719E+02  0.41175790212E+02  0.51100000000E-03 0.  1.
         22    1    1    0    0    0  0.17788108673E+02  0.57350578134E+01  0.22563590073E+02  0.29298861672E+02  0.00000000000E+00 0. -1.
</event>
<event>
 5    1  0.1043455E-009  0.9118800E+02  0.7561462E-02  0.1125453E+00
         25   -1    0    0    0    0  0.00000000000E+00  0.00000000000E+00  0.99999998245E-14  0.12509000000E+03  0.12509000000E+03 0.  0.
        -11    1    3    3    0    0  0.31580658091E+02 -0.23326043165E+02 -0.25537539081E+02  0.46835970768E+02  0.51100000000E-03 0.  1.
         23    2    1    0    0    0  0.35917082481E+01 -0.41300938908E+01  0.20409898452E+02  0.10395893286E+03  0.10178869153E+03 0.  0.
         11    1    3    3    0    0 -0.27988949843E+02  0.19195949275E+02  0.45947437534E+02  0.57122962091E+02  0.51100000000E-03 0. -1.
         22    1    1    0    0    0 -0.35917082481E+01  0.41300938908E+01 -0.20409898452E+02  0.21131067141E+02  0.00000000000E+00 0. -1.
</event>
<event>
 5    1  0.1043455E-009  0.9118800E+02  0.7561462E-02  0.1125453E+00
         25   -1    0    0    0    0  0.00000000000E+00  0.00000000000E+00  0.99999998245E-14  0.12509000000E+03  0.12509000000E+03 0.  0.
        -11    1    3    3    0    0 -0.36511373255E+02 -0.33457026859E+02  0.23184288391E+02  0.54680565576E+02  0.51100000000E-03 0. -1.
         23    2    1    0    0    0  0.25789495797E+01 -0.26484129255E+02  0.11752657228E+02  0.96000740208E+02  0.91487469553E+02 0.  0.
         11    1    3    3    0    0  0.39090322835E+02  0.69728976034E+01 -0.11431631163E+02  0.41320174632E+02  0.51100000000E-03 0.  1.
         22    1    1    0    0    0 -0.25789495797E+01  0.26484129255E+02 -0.11752657228E+02  0.29089259792E+02  0.00000000000E+00 0. -1.
</event>
<event>
 5    1  0.1043455E-009  0.9118800E+02  0.7561462E-02  0.1125453E+00
         25   -1    0    0    0    0  0.00000000000E+00  0.00000000000E+00  0.99999998245E-14  0.12509000000E+03  0.12509000000E+03 0.  0.
        -11    1    3    3    0    0 -0.41445841693E+02 -0.54467416854E+01 -0.23304790843E+00  0.41802859952E+02  0.51100000000E-03 0.  1.
         23    2    1    0    0    0  0.34702974179E+01  0.46026308616E+01 -0.28630572994E+02  0.95884916796E+02  0.91328967935E+02 0.  0.
         11    1    3    3    0    0  0.44916139111E+02  0.10049372547E+02 -0.28397525085E+02  0.54082056844E+02  0.51100000000E-03 0. -1.
         22    1    1    0    0    0 -0.34702974179E+01 -0.46026308616E+01  0.28630572994E+02  0.29205083204E+02  0.00000000000E+00 0. -1.
</event>
<event>
 5    1  0.1043455E-009  0.9118800E+02  0.7561462E-02  0.1125453E+00
         25   -1    0    0    0    0  0.00000000000E+00  0.00000000000E+00  0.99999998245E-14  0.12509000000E+03  0.12509000000E+03 0.  0.
        -11    1    3    3    0    0  0.13051902398E+02 -0.19078744650E+02  0.23444518575E+02  0.32924096117E+02  0.51100000000E-03 0. -1.
         23    2    1    0    0    0  0.32364432658E+01  0.24494888313E+02 -0.18520981610E+02  0.94211190466E+02  0.89007008323E+02 0.  0.
         11    1    3    3    0    0 -0.98154591323E+01  0.43573632963E+02 -0.41965500186E+02  0.61287094348E+02  0.51100000000E-03 0.  1.
         22    1    1    0    0    0 -0.32364432658E+01 -0.24494888313E+02  0.18520981610E+02  0.30878809534E+02  0.00000000000E+00 0.  1.
</event>
<event>
 5    1  0.1043455E-009  0.9118800E+02  0.7561462E-02  0.1125453E+00
         25   -1    0    0    0    0  0.00000000000E+00  0.00000000000E+00  0.99999998245E-14  0.12509000000E+03  0.12509000000E+03 0.  0.
        -11    1    3    3    0    0 -0.38462579102E+02 -0.48754138820E+01  0.89804214291E+01  0.39796829284E+02  0.51100000000E-03 0. -1.
         23    2    1    0    0    0  0.15406625411E+02  0.19599730445E+02  0.77672210283E+01  0.98977871351E+02  0.95471334727E+02 0.  0.
         11    1    3    3    0    0  0.53869204513E+02  0.24475144327E+02 -0.12132004008E+01  0.59181042067E+02  0.51100000000E-03 0.  1.
         22    1    1    0    0    0 -0.15406625411E+02 -0.19599730445E+02 -0.77672210283E+01  0.26112128649E+02  0.00000000000E+00 0.  1.
</event>
<event>
 5    1  0.1043455E-009  0.9118800E+02  0.7561462E-02  0.1125453E+00
         25   -1    0    0    0    0  0.00000000000E+00  0.00000000000E+00  0.99999998245E-14  0.12509000000E+03  0.12509000000E+03 0.  0.
        -11    1    3    3    0    0 -0.40600352025E+02  0.18201475153E+02 -0.42172449524E+02  0.61304141634E+02  0.51100000000E-03 0.  1.
         23    2    1    0    0    0 -0.25081375057E+02  0.74224433765E+01 -0.13467274492E+02  0.95670014911E+02  0.91034148704E+02 0.  0.
         11    1    3    3    0    0  0.15518976968E+02 -0.10779031776E+02  0.28705175033E+02  0.34365873277E+02  0.51100000000E-03 0. -1.
         22    1    1    0    0    0  0.25081375057E+02 -0.74224433765E+01  0.13467274492E+02  0.29419985089E+02  0.00000000000E+00 0.  1.
</event>
<event>
 5    1  0.1043455E-009  0.9118800E+02  0.7561462E-02  0.1125453E+00
         25   -1    0    0    0    0  0.00000000000E+00  0.00000000000E+00  0.99999998245E-14  0.12509000000E+03  0.12509000000E+03 0.  0.
        -11    1    3    3    0    0 -0.28559228203E+02 -0.17856128501E+02 -0.40096826069E+02  0.52366270649E+02  0.51100000000E-03 0.  1.
         23    2    1    0    0    0  0.47734476116E+01  0.75504731052E+01 -0.27568956902E+02  0.96109958060E+02  0.91636680469E+02 0.  0.
         11    1    3    3    0    0  0.33332675814E+02  0.25406601606E+02  0.12527869168E+02  0.43743687411E+02  0.51100000000E-03 0. -1.
         22    1    1    0    0    0 -0.47734476116E+01 -0.75504731052E+01  0.27568956902E+02  0.28980041940E+02  0.00000000000E+00 0. -1.
</event>
<event>
 5    1  0.1043455E-009  0.9118800E+02  0.7561462E-02  0.1125453E+00
         25   -1    0    0    0    0  0.00000000000E+00  0.00000000000E+00  0.99999998245E-14  0.12509000000E+03  0.12509000000E+03 0.  0.
        -11    1    3    3    0    0  0.21605497513E+02  0.48970887128E+02 -0.86541036300E+01  0.54220280512E+02  0.51100000000E-03 0.  1.
         23    2    1    0    0    0 -0.12976146507E+02  0.22811583712E+02  0.16674055769E+01  0.98793061567E+02  0.95228882398E+02 0.  0.
         11    1    3    3    0    0 -0.34581644020E+02 -0.26159303417E+02  0.10321509207E+02  0.44572781055E+02  0.51100000000E-03 0. -1.
         22    1    1    0    0    0  0.12976146507E+02 -0.22811583712E+02 -0.16674055769E+01  0.26296938433E+02  0.00000000000E+00 0.  1.
</event>
<event>
 5    1  0.1043455E-009  0.9118800E+02  0.7561462E-02  0.1125453E+00
         25   -1    0    0    0    0  0.00000000000E+00  0.00000000000E+00  0.99999998245E-14  0.12509000000E+03  0.12509000000E+03 0.  0.
        -11    1    3    3    0    0 -0.31139227314E+02  0.44579701778E+02  0.13327291302E+02  0.55987659194E+02  0.51100000000E-03 0. -1.
         23    2    1    0    0    0 -0.13121809538E+02  0.21524456892E+02  0.26883800934E+02  0.88235924477E+02  0.80170789479E+02 0.  0.
         11    1    3    3    0    0  0.18017417777E+02 -0.23055244886E+02  0.13556509632E+02  0.32248265283E+02  0.51100000000E-03 0.  1.
         22    1    1    0    0    0  0.13121809538E+02 -0.21524456892E+02 -0.26883800934E+02  0.36854075523E+02  0.00000000000E+00 0. -1.
</event>
<event>
 5    1  0.1043455E-009  0.9118800E+02  0.7561462E-02  0.1125453E+00
         25   -1    0    0    0    0  0.00000000000E+00  0.00000000000E+00  0.99999998245E-14  0.12509000000E+03  0.12509000000E+03 0.  0.
        -11    1    3    3    0    0 -0.73006402317E+01 -0.33372494775E+02 -0.16749395423E+02  0.38046879013E+02  0.51100000000E-03 0. -1.
         23    2    1    0    0    0  0.29292756917E+02  0.66257297879E+01  0.85359667576E+00  0.95045124724E+02  0.90171399033E+02 0.  0.
         11    1    3    3    0    0  0.36593397149E+02  0.39998224563E+02  0.17602992099E+02  0.56998245712E+02  0.51100000000E-03 0.  1.
         22    1    1    0    0    0 -0.29292756917E+02 -0.66257297879E+01 -0.85359667576E+00  0.30044875276E+02  0.00000000000E+00 0.  1.
</event>
<event>
 5    1  0.1043455E-009  0.9118800E+02  0.7561462E-02  0.1125453E+00
         25   -1    0    0    0    0  0.00000000000E+00  0.00000000000E+00  0.99999998245E-14  0.12509000000E+03  0.12509000000E+03 0.  0.
        -11    1    3    3    0    0 -0.15780414405E+02 -0.21922986474E+02 -0.23738480548E+02  0.35960454304E+02  0.51100000000E-03 0.  1.
         23    2    1    0    0    0  0.78191534786E+01  0.22997045307E+02  0.11973155473E+02  0.98009385052E+02  0.94193841903E+02 0.  0.
         11    1    3    3    0    0  0.23599567884E+02  0.44920031781E+02  0.35711636021E+02  0.62048930749E+02  0.51100000000E-03 0. -1.
         22    1    1    0    0    0 -0.78191534786E+01 -0.22997045307E+02 -0.11973155473E+02  0.27080614948E+02  0.00000000000E+00 0. -1.
</event>
<event>
 5    1  0.1043455E-009  0.9118800E+02  0.7561462E-02  0.1125453E+00
         25   -1    0    0    0    0  0.00000000000E+00  0.00000000000E+00  0.99999998245E-14  0.12509000000E+03  0.12509000000E+03 0.  0.
        -11    1    3    3    0    0  0.26039074785E+02 -0.23930239048E+01 -0.45800692973E+02  0.52739581494E+02  0.51100000000E-03 0. -1.
         23    2    1    0    0    0 -0.34401916986E+01 -0.20636962477E+02 -0.21598980143E+02  0.95019498135E+02  0.90135841613E+02 0.  0.
         11    1    3    3    0    0 -0.29479266483E+02 -0.18243938572E+02  0.24201712830E+02  0.42279916641E+02  0.51100000000E-03 0.  1.
         22    1    1    0    0    0  0.34401916986E+01  0.20636962477E+02  0.21598980143E+02  0.30070501865E+02  0.00000000000E+00 0. -1.
</event>
<event>
 5    1  0.1043455E-009  0.9118800E+02  0.7561462E-02  0.1125453E+00
         25   -1    0    0    0    0  0.00000000000E+00  0.00000000000E+00  0.99999998245E-14  0.12509000000E+03  0.12509000000E+03 0.  0.
        -11    1    3    3    0    0  0.26904789835E+02 -0.21719473992E+02  0.93613153625E+01  0.35822304394E+02  0.51100000000E-03 0.  1.
         23    2    1    0    0    0 -0.28478546605E+02  0.19364830985E+01  0.24766196645E+01  0.96438451551E+02  0.92084003547E+02 0.  0.
         11    1    3    3    0    0 -0.55383336440E+02  0.23655957090E+02 -0.68846956980E+01  0.60616147157E+02  0.51100000000E-03 0. -1.
         22    1    1    0    0    0  0.28478546605E+02 -0.19364830985E+01 -0.24766196645E+01  0.28651548449E+02  0.00000000000E+00 0. -1.
</event>
<event>
 5    1  0.1043455E-009  0.9118800E+02  0.7561462E-02  0.1125453E+00
         25   -1    0    0    0    0  0.00000000000E+00  0.00000000000E+00  0.99999998245E-14  0.12509000000E+03  0.12509000000E+03 0.  0.
        -11    1    3    3    0    0 -0.22816705001E+02 -0.63879279673E+01  0.35034354082E+02  0.42294368621E+02  0.51100000000E-03 0.  1.
         23    2    1    0    0    0  0.17227162665E+02 -0.23904660287E+02  0.53141151376E+01  0.95149262925E+02  0.90315748896E+02 0.  0.
         11    1    3    3    0    0  0.40043867666E+02 -0.17516732319E+02 -0.29720238944E+02  0.52854894305E+02  0.51100000000E-03 0. -1.
         22    1    1    0    0    0 -0.17227162665E+02  0.23904660287E+02 -0.53141151376E+01  0.29940737075E+02  0.00000000000E+00 0. -1.
</event>
<event>
 5    1  0.1043455E-009  0.9118800E+02  0.7561462E-02  0.1125453E+00
         25   -1    0    0    0    0  0.00000000000E+00  0.00000000000E+00  0.99999998245E-14  0.12509000000E+03  0.12509000000E+03 0.  0.
        -11    1    3    3    0    0  0.47158830659E+02  0.19036169460E+02  0.15055943416E+02  0.53037840164E+02  0.51100000000E-03 0. -1.
         23    2    1    0    0    0  0.24432482839E+02  0.51810518851E+01 -0.17130422819E+02  0.94804014754E+02  0.89836297292E+02 0.  0.
         11    1    3    3    0    0 -0.22726347820E+02 -0.13855117575E+02 -0.32186366235E+02  0.41766174590E+02  0.51100000000E-03 0.  1.
         22    1    1    0    0    0 -0.24432482839E+02 -0.51810518851E+01  0.17130422819E+02  0.30285985246E+02  0.00000000000E+00 0. -1.
</event>
<event>
 5    1  0.1043455E-009  0.9118800E+02  0.7561462E-02  0.1125453E+00
         25   -1    0    0    0    0  0.00000000000E+00  0.00000000000E+00  0.99999998245E-14  0.12509000000E+03  0.12509000000E+03 0.  0.
        -11    1    3    3    0    0  0.29666325552E+02  0.33890521185E+02  0.35059897223E+02  0.57077619883E+02  0.51100000000E-03 0.  1.
         23    2    1    0    0    0  0.14303711175E+02 -0.24511100751E+01  0.22184160006E+02  0.98580736541E+02  0.94949568550E+02 0.  0.
         11    1    3    3    0    0 -0.15362614377E+02 -0.36341631260E+02 -0.12875737217E+02  0.41503116658E+02  0.51100000000E-03 0. -1.
         22    1    1    0    0    0 -0.14303711175E+02  0.24511100751E+01 -0.22184160006E+02  0.26509263459E+02  0.00000000000E+00 0.  1.
</event>
<event>
 5    1  0.1043455E-009  0.9118800E+02  0.7561462E-02  0.1125453E+00
         25   -1    0    0    0    0  0.00000000000E+00  0.00000000000E+00  0.99999998245E-14  0.12509000000E+03  0.12509000000E+03 0.  0.
        -11    1    3    3    0    0  0.31571058630E+02 -0.31899521800E+02 -0.34142440317E+02  0.56391643576E+02  0.51100000000E-03 0. -1.
         23    2    1    0    0    0  0.29779707051E+02 -0.48900797438E+01 -0.83581908161E+01  0.93775415767E+02  0.88392451130E+02 0.  0.
         11    1    3    3    0    0 -0.17913515785E+01  0.27009442056E+02  0.25784249501E+02  0.37383772192E+02  0.51100000000E-03 0.  1.
         22    1    1    0    0    0 -0.29779707051E+02  0.48900797438E+01  0.83581908161E+01  0.31314584233E+02  0.00000000000E+00 0. -1.
</event>
<event>
 5    1  0.1043455E-009  0.9118800E+02  0.7561462E-02  0.1125453E+00
         25   -1    0    0    0    0  0.00000000000E+00  0.00000000000E+00  0.99999998245E-14  0.12509000000E+03  0.12509000000E+03 0.  0.
        -11    1    3    3    0    0 -0.52750897955E+02 -0.26417711306E+02  0.16209478456E+02  0.61182513006E+02  0.51100000000E-03 0. -1.
         23    2    1    0    0    0 -0.27668946976E+02 -0.76522789284E+01  0.15473198655E+00  0.96381953366E+02  0.92007222505E+02 0.  0.
         11    1    3    3    0    0  0.25081950979E+02  0.18765432378E+02 -0.16054746469E+02  0.35199440360E+02  0.51100000000E-03 0.  1.
         22    1    1    0    0    0  0.27668946976E+02  0.76522789284E+01 -0.15473198655E+00  0.28708046634E+02  0.00000000000E+00 0. -1.
</event>
<event>
 5    1  0.1043455E-009  0.9118800E+02  0.7561462E-02  0.1125453E+00
         25   -1    0    0    0    0  0.00000000000E+00  0.00000000000E+00  0.99999998245E-14  0.12509000000E+03  0.12509000000E+03 0.  0.
        -11    1    3    3    0    0  0.44850830466E+02  0.13752338827E+02 -0.62450198239E+01  0.47325723339E+02  0.51100000000E-03 0. -1.
         23    2    1    0    0    0  0.16535282416E+01  0.26546156563E+02  0.11972886808E+02  0.95921822093E+02  0.91379501810E+02 0.  0.
         11    1    3    3    0    0 -0.43197302224E+02  0.12793817736E+02  0.18217906632E+02  0.48596098753E+02  0.51100000000E-03 0.  1.
         22    1    1    0    0    0 -0.16535282416E+01 -0.26546156563E+02 -0.11972886808E+02  0.29168177907E+02  0.00000000000E+00 0. -1.
</event>
<event>
 5    1  0.1043455E-009  0.9118800E+02  0.7561462E-02  0.1125453E+00
         25   -1    0    0    0    0  0.00000000000E+00  0.00000000000E+00  0.99999998245E-14  0.12509000000E+03  0.12509000000E+03 0.  0.
        -11    1    3    3    0    0 -0.57006136058E+01  0.18186388164E+02  0.33752718821E+02  0.38761936717E+02  0.51100000000E-03 0. -1.
         23    2    1    0    0    0  0.18701850377E+02 -0.89792856701E+01 -0.14866679709E+02  0.99567364081E+02  0.96240610170E+02 0.  0.
         11    1    3    3    0    0  0.24402463983E+02 -0.27165673835E+02 -0.48619398530E+02  0.60805427365E+02  0.51100000000E-03 0.  1.
         22    1    1    0    0    0 -0.18701850377E+02  0.89792856701E+01  0.14866679709E+02  0.25522635919E+02  0.00000000000E+00 0.  1.
</event>
<event>
 5    1  0.1043455E-009  0.9118800E+02  0.7561462E-02  0.1125453E+00
         25   -1    0    0    0    0  0.00000000000E+00  0.00000000000E+00  0.99999998245E-14  0.12509000000E+03  0.12509000000E+03 0.  0.
        -11    1    3    3    0    0  0.90634777994E+01 -0.82364181090E+01  0.21766375536E+02  0.24975194040E+02  0.51100000000E-03 0.  1.
         23    2    1    0    0    0 -0.16572079183E+02  0.69694752571E+00 -0.34145390719E+02  0.87129135262E+02  0.78424861873E+02 0.  0.
         11    1    3    3    0    0 -0.25635556982E+02  0.89333656347E+01 -0.55911766255E+02  0.62153941222E+02  0.51100000000E-03 0. -1.
         22    1    1    0    0    0  0.16572079183E+02 -0.69694752571E+00  0.34145390719E+02  0.37960864738E+02  0.00000000000E+00 0. -1.
</event>
<event>
 5    1  0.1043455E-009  0.9118800E+02  0.7561462E-02  0.1125453E+00
         25   -1    0    0    0    0  0.00000000000E+00  0.00000000000E+00  0.99999998245E-14  0.12509000000E+03  0.12509000000E+03 0.  0.
        -11    1    3    3    0    0 -0.11417765069E+02 -0.18959160232E+02  0.31917493137E+02  0.38839947017E+02  0.51100000000E-03 0.  1.
         23    2    1    0    0    0  0.23962249969E+01  0.27897814523E+02  0.19167501940E+00  0.97088809155E+02  0.92963273256E+02 0.  0.
         11    1    3    3    0    0  0.13813990066E+02  0.46856974756E+02 -0.31725818118E+02  0.58248862138E+02  0.51100000000E-03 0. -1.
         22    1    1    0    0    0 -0.23962249969E+01 -0.27897814523E+02 -0.19167501940E+00  0.28001190845E+02  0.00000000000E+00 0. -1.
</event>
<event>
 5    1  0.1043455E-009  0.9118800E+02  0.7561462E-02  0.1125453E+00
         25   -1    0    0    0    0  0.00000000000E+00  0.00000000000E+00  0.99999998245E-14  0.12509000000E+03  0.12509000000E+03 0.  0.
        -11    1    3    3    0    0  0.41376565395E+02 -0.18228406692E+02  0.13019572574E+02  0.47051081227E+02  0.51100000000E-03 0.  1.
         23    2    1    0    0    0 -0.50350990433E+01 -0.27677285511E+02  0.12213153292E+02  0.94421686238E+02  0.89302348027E+02 0.  0.
         11    1    3    3    0    0 -0.46411664438E+02 -0.94488788190E+01 -0.80641928144E+00  0.47370605011E+02  0.51100000000E-03 0. -1.
         22    1    1    0    0    0  0.50350990433E+01  0.27677285511E+02 -0.12213153292E+02  0.30668313762E+02  0.00000000000E+00 0.  1.
</event>
<event>
 5    1  0.1043455E-009  0.9118800E+02  0.7561462E-02  0.1125453E+00
         25   -1    0    0    0    0  0.00000000000E+00  0.00000000000E+00  0.99999998245E-14  0.12509000000E+03  0.12509000000E+03 0.  0.
        -11    1    3    3    0    0 -0.37464149128E+02  0.14757747140E+00 -0.27265950553E+02  0.46335907338E+02  0.51100000000E-03 0.  1.
         23    2    1    0    0    0  0.12285510046E+02  0.13266584381E+02 -0.19717687908E+02  0.98336995783E+02  0.94627910813E+02 0.  0.
         11    1    3    3    0    0  0.49749659174E+02  0.13119006910E+02  0.75482626447E+01  0.52001088445E+02  0.51100000000E-03 0. -1.
         22    1    1    0    0    0 -0.12285510046E+02 -0.13266584381E+02  0.19717687908E+02  0.26753004217E+02  0.00000000000E+00 0.  1.
</event>
<event>
 5    1  0.1043455E-009  0.9118800E+02  0.7561462E-02  0.1125453E+00
         25   -1    0    0    0    0  0.00000000000E+00  0.00000000000E+00  0.99999998245E-14  0.12509000000E+03  0.12509000000E+03 0.  0.
        -11    1    3    3    0    0  0.24239112425E+02 -0.29426538931E+02 -0.60481254869E+01  0.38600979091E+02  0.51100000000E-03 0.  1.
         23    2    1    0    0    0 -0.15245002867E+01  0.11898678699E+02  0.25695800850E+02  0.96731988129E+02  0.92481893851E+02 0.  0.
         11    1    3    3    0    0 -0.25763612712E+02  0.41325217631E+02  0.31743926337E+02  0.58131009038E+02  0.51100000000E-03 0. -1.
         22    1    1    0    0    0  0.15245002867E+01 -0.11898678699E+02 -0.25695800850E+02  0.28358011871E+02  0.00000000000E+00 0. -1.
</event>
<event>
 5    1  0.1043455E-009  0.9118800E+02  0.7561462E-02  0.1125453E+00
         25   -1    0    0    0    0  0.00000000000E+00  0.00000000000E+00  0.99999998245E-14  0.12509000000E+03  0.12509000000E+03 0.  0.
        -11    1    3    3    0    0  0.22427852574E+02 -0.15043164393E+01 -0.25260250261E+01  0.22619733459E+02  0.51100000000E-03 0. -1.
         23    2    1    0    0    0 -0.21085203048E+02  0.27903383780E+02 -0.27332893810E+02  0.80702257345E+02  0.67398684279E+02 0.  0.
         11    1    3    3    0    0 -0.43513055623E+02  0.29407700220E+02 -0.24806868784E+02  0.58082523886E+02  0.51100000000E-03 0.  1.
         22    1    1    0    0    0  0.21085203048E+02 -0.27903383780E+02  0.27332893810E+02  0.44387742655E+02  0.00000000000E+00 0.  1.
</event>
<event>
 5    1  0.1043455E-009  0.9118800E+02  0.7561462E-02  0.1125453E+00
         25   -1    0    0    0    0  0.00000000000E+00  0.00000000000E+00  0.99999998245E-14  0.12509000000E+03  0.12509000000E+03 0.  0.
        -11    1    3    3    0    0  0.21278638354E+02  0.21888224726E+02  0.13017901597E+02  0.33186451966E+02  0.51100000000E-03 0.  1.
         23    2    1    0    0    0 -0.18069237252E+02 -0.17618477218E+02 -0.15148590087E+02  0.95655532857E+02  0.91014246743E+02 0.  0.
         11    1    3    3    0    0 -0.39347875606E+02 -0.39506701944E+02 -0.28166491684E+02  0.62469080891E+02  0.51100000000E-03 0. -1.
         22    1    1    0    0    0  0.18069237252E+02  0.17618477218E+02  0.15148590087E+02  0.29434467143E+02  0.00000000000E+00 0. -1.
</event>
<event>
 5    1  0.1043455E-009  0.9118800E+02  0.7561462E-02  0.1125453E+00
         25   -1    0    0    0    0  0.00000000000E+00  0.00000000000E+00  0.99999998245E-14  0.12509000000E+03  0.12509000000E+03 0.  0.
        -11    1    3    3    0    0 -0.24122455964E+02  0.88967487108E+01 -0.24188468702E+02  0.35300524610E+02  0.51100000000E-03 0.  1.
         23    2    1    0    0    0  0.19122656052E+01 -0.18844722979E+02  0.22598466900E+02  0.95603205496E+02  0.90942299569E+02 0.  0.
         11    1    3    3    0    0  0.26034721569E+02 -0.27741471689E+02  0.46786935602E+02  0.60302680886E+02  0.51100000000E-03 0. -1.
         22    1    1    0    0    0 -0.19122656052E+01  0.18844722979E+02 -0.22598466900E+02  0.29486794504E+02  0.00000000000E+00 0. -1.
</event>
<event>
 5    1  0.1043455E-009  0.9118800E+02  0.7561462E-02  0.1125453E+00
         25   -1    0    0    0    0  0.00000000000E+00  0.00000000000E+00  0.99999998245E-14  0.12509000000E+03  0.12509000000E+03 0.  0.
        -11    1    3    3    0    0  0.21093968490E+02  0.48572265352E+02 -0.22149073911E+02  0.57400365360E+02  0.51100000000E-03 0. -1.
         23    2    1    0    0    0  0.73242532248E+01  0.31479727900E+02  0.50781476223E+01  0.92372947302E+02  0.86384928408E+02 0.  0.
         11    1    3    3    0    0 -0.13769715265E+02 -0.17092537452E+02  0.27227221533E+02  0.34972581942E+02  0.51100000000E-03 0.  1.
         22    1    1    0    0    0 -0.73242532248E+01 -0.31479727900E+02 -0.50781476223E+01  0.32717052698E+02  0.00000000000E+00 0. -1.
</event>
<event>
 5    1  0.1043455E-009  0.9118800E+02  0.7561462E-02  0.1125453E+00
         25   -1    0    0    0    0  0.00000000000E+00  0.00000000000E+00  0.99999998245E-14  0.12509000000E+03  0.12509000000E+03 0.  0.
        -11    1    3    3    0    0  0.70802002733E+01 -0.31535795071E+02 -0.67554751638E+01  0.33019267884E+02  0.51100000000E-03 0.  1.
         23    2    1    0    0    0 -0.10019354323E+02  0.26119692136E+02  0.98894432165E+01  0.95418012108E+02  0.90687210615E+02 0.  0.
         11    1    3    3    0    0 -0.17099554596E+02  0.57655487207E+02  0.16644918380E+02  0.62398744223E+02  0.51100000000E-03 0. -1.
         22    1    1    0    0    0  0.10019354323E+02 -0.26119692136E+02 -0.98894432165E+01  0.29671987892E+02  0.00000000000E+00 0. -1.
</event>
<event>
 5    1  0.1043455E-009  0.9118800E+02  0.7561462E-02  0.1125453E+00
         25   -1    0    0    0    0  0.00000000000E+00  0.00000000000E+00  0.99999998245E-14  0.12509000000E+03  0.12509000000E+03 0.  0.
        -11    1    3    3    0    0  0.12009166683E+02 -0.54772649497E+02  0.78018580742E+01  0.56613887051E+02  0.51100000000E-03 0.  1.
         23    2    1    0    0    0  0.20588449176E+02 -0.22405241173E+02 -0.79814877895E+01  0.93632358340E+02  0.88189768735E+02 0.  0.
         11    1    3    3    0    0  0.85792824924E+01  0.32367408324E+02 -0.15783345864E+02  0.37018471289E+02  0.51100000000E-03 0. -1.
         22    1    1    0    0    0 -0.20588449176E+02  0.22405241173E+02  0.79814877895E+01  0.31457641660E+02  0.00000000000E+00 0.  1.
</event>
<event>
 5    1  0.1043455E-009  0.9118800E+02  0.7561462E-02  0.1125453E+00
         25   -1    0    0    0    0  0.00000000000E+00  0.00000000000E+00  0.99999998245E-14  0.12509000000E+03  0.12509000000E+03 0.  0.
        -11    1    3    3    0    0 -0.39518663072E+01 -0.21332367724E+02  0.26947110663E+02  0.34595287734E+02  0.51100000000E-03 0.  1.
         23    2    1    0    0    0  0.12156356180E+02  0.15994698453E+02 -0.20029739819E+02  0.96721040707E+02  0.92467085301E+02 0.  0.
         11    1    3    3    0    0  0.16108222487E+02  0.37327066177E+02 -0.46976850482E+02  0.62125752973E+02  0.51100000000E-03 0. -1.
         22    1    1    0    0    0 -0.12156356180E+02 -0.15994698453E+02  0.20029739819E+02  0.28368959293E+02  0.00000000000E+00 0. -1.
</event>
<event>
 5    1  0.1043455E-009  0.9118800E+02  0.7561462E-02  0.1125453E+00
         25   -1    0    0    0    0  0.00000000000E+00  0.00000000000E+00  0.99999998245E-14  0.12509000000E+03  0.12509000000E+03 0.  0.
        -11    1    3    3    0    0 -0.39349963388E+02 -0.22201846638E+02  0.22079152197E+02  0.50287479304E+02  0.51100000000E-03 0.  1.
         23    2    1    0    0    0 -0.12126077430E+02 -0.23010499070E+02 -0.14046282136E+02  0.95529505025E+02  0.90840868926E+02 0.  0.
         11    1    3    3    0    0  0.27223885958E+02 -0.80865243281E+00 -0.36125434332E+02  0.45242025722E+02  0.51100000000E-03 0. -1.
         22    1    1    0    0    0  0.12126077430E+02  0.23010499070E+02  0.14046282136E+02  0.29560494975E+02  0.00000000000E+00 0.  1.
</event>
<event>
 5    1  0.1043455E-009  0.9118800E+02  0.7561462E-02  0.1125453E+00
         25   -1    0    0    0    0  0.00000000000E+00  0.00000000000E+00  0.99999998245E-14  0.12509000000E+03  0.12509000000E+03 0.  0.
        -11    1    3    3    0    0 -0.88232658333E+01 -0.21939253996E+02  0.27107103823E+02  0.35971877401E+02  0.51100000000E-03 0.  1.
         23    2    1    0    0    0  0.24044637025E+02  0.96358530151E+01 -0.12476219478E+02  0.96338473337E+02  0.91948089482E+02 0.  0.
         11    1    3    3    0    0  0.32867902858E+02  0.31575107011E+02 -0.39583323301E+02  0.60366595936E+02  0.51100000000E-03 0. -1.
         22    1    1    0    0    0 -0.24044637025E+02 -0.96358530151E+01  0.12476219478E+02  0.28751526663E+02  0.00000000000E+00 0. -1.
</event>
<event>
 5    1  0.1043455E-009  0.9118800E+02  0.7561462E-02  0.1125453E+00
         25   -1    0    0    0    0  0.00000000000E+00  0.00000000000E+00  0.99999998245E-14  0.12509000000E+03  0.12509000000E+03 0.  0.
        -11    1    3    3    0    0  0.46229249398E+01  0.42121761719E+02  0.23100059171E+02  0.48262065635E+02  0.51100000000E-03 0. -1.
         23    2    1    0    0    0  0.72447659534E+01 -0.77478205880E+01  0.24681629611E+02  0.98225558859E+02  0.94480485897E+02 0.  0.
         11    1    3    3    0    0  0.26218410136E+01 -0.49869582307E+02  0.15815704396E+01  0.49963493224E+02  0.51100000000E-03 0.  1.
         22    1    1    0    0    0 -0.72447659534E+01  0.77478205880E+01 -0.24681629611E+02  0.26864441141E+02  0.00000000000E+00 0.  1.
</event>
<event>
 5    1  0.1043455E-009  0.9118800E+02  0.7561462E-02  0.1125453E+00
         25   -1    0    0    0    0  0.00000000000E+00  0.00000000000E+00  0.99999998245E-14  0.12509000000E+03  0.12509000000E+03 0.  0.
        -11    1    3    3    0    0 -0.21928699732E+02  0.11976612157E+02  0.15391884367E+02  0.29346502608E+02  0.51100000000E-03 0.  1.
         23    2    1    0    0    0 -0.21800483545E+02  0.24041470463E+02 -0.32753634175E+02  0.78980847584E+02  0.64124257100E+02 0.  0.
         11    1    3    3    0    0  0.12821618668E+00  0.12064858306E+02 -0.48145518542E+02  0.49634344976E+02  0.51100000000E-03 0. -1.
         22    1    1    0    0    0  0.21800483545E+02 -0.24041470463E+02  0.32753634175E+02  0.46109152416E+02  0.00000000000E+00 0.  1.
</event>
<event>
 5    1  0.1043455E-009  0.9118800E+02  0.7561462E-02  0.1125453E+00
         25   -1    0    0    0    0  0.00000000000E+00  0.00000000000E+00  0.99999998245E-14  0.12509000000E+03  0.12509000000E+03 0.  0.
        -11    1    3    3    0    0 -0.10068874472E+02 -0.22139081282E+02  0.56381297691E+02  0.61403354003E+02  0.51100000000E-03 0. -1.
         23    2    1    0    0    0  0.26677441202E+01 -0.62387869100E+01  0.27618728121E+02  0.96650002394E+02  0.92370934275E+02 0.  0.
         11    1    3    3    0    0  0.12736618592E+02  0.15900294372E+02 -0.28762569570E+02  0.35246648391E+02  0.51100000000E-03 0.  1.
         22    1    1    0    0    0 -0.26677441202E+01  0.62387869100E+01 -0.27618728121E+02  0.28439997606E+02  0.00000000000E+00 0. -1.
</event>
<event>
 5    1  0.1043455E-009  0.9118800E+02  0.7561462E-02  0.1125453E+00
         25   -1    0    0    0    0  0.00000000000E+00  0.00000000000E+00  0.99999998245E-14  0.12509000000E+03  0.12509000000E+03 0.  0.
        -11    1    3    3    0    0 -0.78511557590E+01 -0.37126903410E+02 -0.39491222772E+02  0.54768643217E+02  0.51100000000E-03 0. -1.
         23    2    1    0    0    0 -0.40475762919E+01 -0.12731052856E+02 -0.43322371965E+02  0.79754688230E+02  0.65616459835E+02 0.  0.
         11    1    3    3    0    0  0.38035794671E+01  0.24395850553E+02 -0.38311491925E+01  0.24986045013E+02  0.51100000000E-03 0.  1.
         22    1    1    0    0    0  0.40475762919E+01  0.12731052856E+02  0.43322371965E+02  0.45335311770E+02  0.00000000000E+00 0. -1.
</event>
<event>
 5    1  0.1043455E-009  0.9118800E+02  0.7561462E-02  0.1125453E+00
         25   -1    0    0    0    0  0.00000000000E+00  0.00000000000E+00  0.99999998245E-14  0.12509000000E+03  0.12509000000E+03 0.  0.
        -11    1    3    3    0    0 -0.20534125005E+01  0.30559587801E+02 -0.11539445181E+00  0.30628715703E+02  0.51100000000E-03 0.  1.
         23    2    1    0    0    0 -0.16495549951E+02 -0.28486367047E+02 -0.57425623017E+01  0.91675133585E+02  0.85368476737E+02 0.  0.
         11    1    3    3    0    0 -0.14442137450E+02 -0.59045954848E+02 -0.56271678499E+01  0.61046417883E+02  0.51100000000E-03 0. -1.
         22    1    1    0    0    0  0.16495549951E+02  0.28486367047E+02  0.57425623017E+01  0.33414866415E+02  0.00000000000E+00 0. -1.
</event>
<event>
 5    1  0.1043455E-009  0.9118800E+02  0.7561462E-02  0.1125453E+00
         25   -1    0    0    0    0  0.00000000000E+00  0.00000000000E+00  0.99999998245E-14  0.12509000000E+03  0.12509000000E+03 0.  0.
        -11    1    3    3    0    0  0.28470028335E+02 -0.42069524056E+02 -0.32940242931E+02  0.60542934949E+02  0.51100000000E-03 0.  1.
         23    2    1    0    0    0  0.14458175622E+02 -0.13518783542E+02 -0.24776411885E+02  0.93377747846E+02  0.87827881998E+02 0.  0.
         11    1    3    3    0    0 -0.14011852713E+02  0.28550740514E+02  0.81638310463E+01  0.32834812897E+02  0.51100000000E-03 0. -1.
         22    1    1    0    0    0 -0.14458175622E+02  0.13518783542E+02  0.24776411885E+02  0.31712252154E+02  0.00000000000E+00 0.  1.
</event>
<event>
 5    1  0.1043455E-009  0.9118800E+02  0.7561462E-02  0.1125453E+00
         25   -1    0    0    0    0  0.00000000000E+00  0.00000000000E+00  0.99999998245E-14  0.12509000000E+03  0.12509000000E+03 0.  0.
        -11    1    3    3    0    0  0.24887442633E+02 -0.17624941205E+02 -0.17400373642E+02  0.35111199871E+02  0.51100000000E-03 0.  1.
         23    2    1    0    0    0 -0.22445853059E+02  0.17132975316E+02 -0.13010254501E+02  0.93999456665E+02  0.88708939620E+02 0.  0.
         11    1    3    3    0    0 -0.47333295691E+02  0.34757916520E+02  0.43901191412E+01  0.58888256794E+02  0.51100000000E-03 0. -1.
         22    1    1    0    0    0  0.22445853059E+02 -0.17132975316E+02  0.13010254501E+02  0.31090543335E+02  0.00000000000E+00 0. -1.
</event>
<event>
 5    1  0.1043455E-009  0.9118800E+02  0.7561462E-02  0.1125453E+00
         25   -1    0    0    0    0  0.00000000000E+00  0.00000000000E+00  0.99999998245E-14  0.12509000000E+03  0.12509000000E+03 0.  0.
        -11    1    3    3    0    0 -0.25005280207E+02 -0.27957774860E+02  0.20309947261E+02  0.42654368725E+02  0.51100000000E-03 0.  1.
         23    2    1    0    0    0 -0.14018644464E+02 -0.48779948018E+01 -0.25771021555E+02  0.95350081072E+02  0.90593461036E+02 0.  0.
         11    1    3    3    0    0  0.10986635743E+02  0.23079780058E+02 -0.46080968816E+02  0.52695712347E+02  0.51100000000E-03 0. -1.
         22    1    1    0    0    0  0.14018644464E+02  0.48779948018E+01  0.25771021555E+02  0.29739918928E+02  0.00000000000E+00 0. -1.
</event>
<event>
 5    1  0.1043455E-009  0.9118800E+02  0.7561462E-02  0.1125453E+00
         25   -1    0    0    0    0  0.00000000000E+00  0.00000000000E+00  0.99999998245E-14  0.12509000000E+03  0.12509000000E+03 0.  0.
        -11    1    3    3    0    0 -0.12788978097E+01 -0.38691674385E+02  0.85461112011E+01  0.39644889497E+02  0.51100000000E-03 0. -1.
         23    2    1    0    0    0  0.81715269115E+01  0.16081734352E+02  0.21808501939E+02  0.96787936672E+02  0.92557538302E+02 0.  0.
         11    1    3    3    0    0  0.94504247213E+01  0.54773408737E+02  0.13262390738E+02  0.57143047174E+02  0.51100000000E-03 0.  1.
         22    1    1    0    0    0 -0.81715269115E+01 -0.16081734352E+02 -0.21808501939E+02  0.28302063328E+02  0.00000000000E+00 0.  1.
</event>
<event>
 5    1  0.1043455E-009  0.9118800E+02  0.7561462E-02  0.1125453E+00
         25   -1    0    0    0    0  0.00000000000E+00  0.00000000000E+00  0.99999998245E-14  0.12509000000E+03  0.12509000000E+03 0.  0.
        -11    1    3    3    0    0 -0.26448021483E+02 -0.33109620018E+02  0.18906933509E+02  0.46402768377E+02  0.51100000000E-03 0.  1.
         23    2    1    0    0    0  0.23565580036E+01 -0.39028562550E+02 -0.67299120865E+01  0.85415401363E+02  0.75642032052E+02 0.  0.
         11    1    3    3    0    0  0.28804579487E+02 -0.59189425319E+01 -0.25636845595E+02  0.39012632985E+02  0.51100000000E-03 0. -1.
         22    1    1    0    0    0 -0.23565580036E+01  0.39028562550E+02  0.67299120865E+01  0.39674598637E+02  0.00000000000E+00 0.  1.
</event>
<event>
 5    1  0.1043455E-009  0.9118800E+02  0.7561462E-02  0.1125453E+00
         25   -1    0    0    0    0  0.00000000000E+00  0.00000000000E+00  0.99999998245E-14  0.12509000000E+03  0.12509000000E+03 0.  0.
        -11    1    3    3    0    0  0.17758125966E+02 -0.44838663225E+01 -0.26039759235E+02  0.31835909855E+02  0.51100000000E-03 0. -1.
         23    2    1    0    0    0 -0.98186230672E+01  0.12627748166E+02  0.26819140383E+02  0.93862901615E+02  0.88516171551E+02 0.  0.
         11    1    3    3    0    0 -0.27576749033E+02  0.17111614488E+02  0.52858899618E+02  0.62026991760E+02  0.51100000000E-03 0.  1.
         22    1    1    0    0    0  0.98186230672E+01 -0.12627748166E+02 -0.26819140383E+02  0.31227098385E+02  0.00000000000E+00 0.  1.
</event>
<event>
 5    1  0.1043455E-009  0.9118800E+02  0.7561462E-02  0.1125453E+00
         25   -1    0    0    0    0  0.00000000000E+00  0.00000000000E+00  0.99999998245E-14  0.12509000000E+03  0.12509000000E+03 0.  0.
        -11    1    3    3    0    0  0.14622912927E+02 -0.52688322617E+02 -0.66173653617E+00  0.54683880789E+02  0.51100000000E-03 0.  1.
         23    2    1    0    0    0  0.22635665409E+02 -0.14196096888E+02  0.11732582487E+02  0.95908567424E+02  0.91361355606E+02 0.  0.
         11    1    3    3    0    0  0.80127524817E+01  0.38492225728E+02  0.12394319024E+02  0.41224686635E+02  0.51100000000E-03 0. -1.
         22    1    1    0    0    0 -0.22635665409E+02  0.14196096888E+02 -0.11732582487E+02  0.29181432576E+02  0.00000000000E+00 0. -1.
</event>
<event>
 5    1  0.1043455E-009  0.9118800E+02  0.7561462E-02  0.1125453E+00
         25   -1    0    0    0    0  0.00000000000E+00  0.00000000000E+00  0.99999998245E-14  0.12509000000E+03  0.12509000000E+03 0.  0.
        -11    1    3    3    0    0  0.40244265497E+02 -0.21850500127E+02 -0.13000253893E+02  0.47603065686E+02  0.51100000000E-03 0.  1.
         23    2    1    0    0    0  0.38493802200E+01 -0.18430416304E+02  0.20548736749E+02  0.97219790901E+02  0.93139353593E+02 0.  0.
         11    1    3    3    0    0 -0.36394885277E+02  0.34200838224E+01  0.33548990642E+02  0.49616725215E+02  0.51100000000E-03 0. -1.
         22    1    1    0    0    0 -0.38493802200E+01  0.18430416304E+02 -0.20548736749E+02  0.27870209099E+02  0.00000000000E+00 0. -1.
</event>
<event>
 5    1  0.1043455E-009  0.9118800E+02  0.7561462E-02  0.1125453E+00
         25   -1    0    0    0    0  0.00000000000E+00  0.00000000000E+00  0.99999998245E-14  0.12509000000E+03  0.12509000000E+03 0.  0.
        -11    1    3    3    0    0  0.10705554155E+02 -0.40500626795E+02  0.32444417527E+02  0.52986317946E+02  0.51100000000E-03 0.  1.
         23    2    1    0    0    0  0.23164528416E+02 -0.19405718628E+02 -0.14830744152E+01  0.94834805373E+02  0.89879160589E+02 0.  0.
         11    1    3    3    0    0  0.12458974261E+02  0.21094908167E+02 -0.33927491942E+02  0.41848487427E+02  0.51100000000E-03 0. -1.
         22    1    1    0    0    0 -0.23164528416E+02  0.19405718628E+02  0.14830744152E+01  0.30255194627E+02  0.00000000000E+00 0.  1.
</event>
<event>
 5    1  0.1043455E-009  0.9118800E+02  0.7561462E-02  0.1125453E+00
         25   -1    0    0    0    0  0.00000000000E+00  0.00000000000E+00  0.99999998245E-14  0.12509000000E+03  0.12509000000E+03 0.  0.
        -11    1    3    3    0    0 -0.27167963944E+02  0.20338560540E+02 -0.29754430623E+02  0.45134038726E+02  0.51100000000E-03 0.  1.
         23    2    1    0    0    0  0.18946037452E+02  0.13134382618E+01 -0.22665595577E+02  0.95519631757E+02  0.90827272187E+02 0.  0.
         11    1    3    3    0    0  0.46114001396E+02 -0.19025122278E+02  0.70888350467E+01  0.50385593031E+02  0.51100000000E-03 0. -1.
         22    1    1    0    0    0 -0.18946037452E+02 -0.13134382618E+01  0.22665595577E+02  0.29570368243E+02  0.00000000000E+00 0. -1.
</event>
<event>
 5    1  0.1043455E-009  0.9118800E+02  0.7561462E-02  0.1125453E+00
         25   -1    0    0    0    0  0.00000000000E+00  0.00000000000E+00  0.99999998245E-14  0.12509000000E+03  0.12509000000E+03 0.  0.
        -11    1    3    3    0    0  0.18908034467E+02 -0.65047359090E+01  0.38379496864E+02  0.43275987989E+02  0.51100000000E-03 0. -1.
         23    2    1    0    0    0  0.25748230235E+02 -0.97203435402E+00 -0.13572305131E+02  0.95967436967E+02  0.91441922992E+02 0.  0.
         11    1    3    3    0    0  0.68401957685E+01  0.55327015550E+01 -0.51951801995E+02  0.52691448978E+02  0.51100000000E-03 0.  1.
         22    1    1    0    0    0 -0.25748230235E+02  0.97203435402E+00  0.13572305131E+02  0.29122563033E+02  0.00000000000E+00 0.  1.
</event>
<event>
 5    1  0.1043455E-009  0.9118800E+02  0.7561462E-02  0.1125453E+00
         25   -1    0    0    0    0  0.00000000000E+00  0.00000000000E+00  0.99999998245E-14  0.12509000000E+03  0.12509000000E+03 0.  0.
        -11    1    3    3    0    0  0.21928627554E+02  0.10363375152E+02  0.23692597375E+02  0.33905802182E+02  0.51100000000E-03 0.  1.
         23    2    1    0    0    0 -0.24328502452E+02  0.11940363005E+01 -0.16336186563E+02  0.95761298261E+02  0.91159494838E+02 0.  0.
         11    1    3    3    0    0 -0.46257130006E+02 -0.91693388512E+01 -0.40028783939E+02  0.61855496080E+02  0.51100000000E-03 0. -1.
         22    1    1    0    0    0  0.24328502452E+02 -0.11940363005E+01  0.16336186563E+02  0.29328701739E+02  0.00000000000E+00 0. -1.
</event>
<event>
 5    1  0.1043455E-009  0.9118800E+02  0.7561462E-02  0.1125453E+00
         25   -1    0    0    0    0  0.00000000000E+00  0.00000000000E+00  0.99999998245E-14  0.12509000000E+03  0.12509000000E+03 0.  0.
        -11    1    3    3    0    0  0.84306903553E+01 -0.26674024097E+02  0.44947997108E+02  0.52942445596E+02  0.51100000000E-03 0. -1.
         23    2    1    0    0    0  0.22385615170E+02  0.38807527056E+01  0.20510435970E+02  0.94481929303E+02  0.89386693489E+02 0.  0.
         11    1    3    3    0    0  0.13954924815E+02  0.30554776803E+02 -0.24437561137E+02  0.41539483707E+02  0.51100000000E-03 0.  1.
         22    1    1    0    0    0 -0.22385615170E+02 -0.38807527056E+01 -0.20510435970E+02  0.30608070697E+02  0.00000000000E+00 0.  1.
</event>
<event>
 5    1  0.1043455E-009  0.9118800E+02  0.7561462E-02  0.1125453E+00
         25   -1    0    0    0    0  0.00000000000E+00  0.00000000000E+00  0.99999998245E-14  0.12509000000E+03  0.12509000000E+03 0.  0.
        -11    1    3    3    0    0 -0.13622818128E+02  0.35138896788E+02 -0.27453781673E+02  0.46626530749E+02  0.51100000000E-03 0.  1.
         23    2    1    0    0    0  0.25311324484E+02  0.13399439105E+02 -0.74657629367E+01  0.95493619618E+02  0.90791440434E+02 0.  0.
         11    1    3    3    0    0  0.38934142612E+02 -0.21739457683E+02  0.19988018737E+02  0.48867088869E+02  0.51100000000E-03 0. -1.
         22    1    1    0    0    0 -0.25311324484E+02 -0.13399439105E+02  0.74657629367E+01  0.29596380382E+02  0.00000000000E+00 0.  1.
</event>
<event>
 5    1  0.1043455E-009  0.9118800E+02  0.7561462E-02  0.1125453E+00
         25   -1    0    0    0    0  0.00000000000E+00  0.00000000000E+00  0.99999998245E-14  0.12509000000E+03  0.12509000000E+03 0.  0.
        -11    1    3    3    0    0  0.21514948521E+02 -0.27987043581E+02  0.11953739001E+02  0.37270088471E+02  0.51100000000E-03 0.  1.
         23    2    1    0    0    0 -0.21439835029E+01  0.24844712513E+02  0.16264527995E+02  0.95317676006E+02  0.90548705585E+02 0.  0.
         11    1    3    3    0    0 -0.23658932024E+02  0.52831756094E+02  0.43107889942E+01  0.58047587534E+02  0.51100000000E-03 0. -1.
         22    1    1    0    0    0  0.21439835029E+01 -0.24844712513E+02 -0.16264527995E+02  0.29772323994E+02  0.00000000000E+00 0. -1.
</event>
<event>
 5    1  0.1043455E-009  0.9118800E+02  0.7561462E-02  0.1125453E+00
         25   -1    0    0    0    0  0.00000000000E+00  0.00000000000E+00  0.99999998245E-14  0.12509000000E+03  0.12509000000E+03 0.  0.
        -11    1    3    3    0    0  0.39128114481E+02 -0.74172478545E+01 -0.50902005557E+01  0.40148910951E+02  0.51100000000E-03 0. -1.
         23    2    1    0    0    0 -0.55633997851E+01 -0.11509545895E+02  0.26930288073E+02  0.95279574315E+02  0.90496054069E+02 0.  0.
         11    1    3    3    0    0 -0.44691514266E+02 -0.40922980406E+01  0.32020488628E+02  0.55130663364E+02  0.51100000000E-03 0.  1.
         22    1    1    0    0    0  0.55633997851E+01  0.11509545895E+02 -0.26930288073E+02  0.29810425685E+02  0.00000000000E+00 0.  1.
</event>
<event>
 5    1  0.1043455E-009  0.9118800E+02  0.7561462E-02  0.1125453E+00
         25   -1    0    0    0    0  0.00000000000E+00  0.00000000000E+00  0.99999998245E-14  0.12509000000E+03  0.12509000000E+03 0.  0.
        -11    1    3    3    0    0  0.65918201299E+01 -0.29574021218E+00 -0.35608068312E+02  0.36214280113E+02  0.51100000000E-03 0.  1.
         23    2    1    0    0    0  0.43763172379E+01 -0.27665498451E+02  0.14647039692E+02  0.93481967336E+02  0.87976192735E+02 0.  0.
         11    1    3    3    0    0 -0.22155028920E+01 -0.27369758239E+02  0.50255108004E+02  0.57267687223E+02  0.51100000000E-03 0. -1.
         22    1    1    0    0    0 -0.43763172379E+01  0.27665498451E+02 -0.14647039692E+02  0.31608032664E+02  0.00000000000E+00 0. -1.
</event>
<event>
 5    1  0.1043455E-009  0.9118800E+02  0.7561462E-02  0.1125453E+00
         25   -1    0    0    0    0  0.00000000000E+00  0.00000000000E+00  0.99999998245E-14  0.12509000000E+03  0.12509000000E+03 0.  0.
        -11    1    3    3    0    0 -0.28758150536E+02 -0.24695738280E+02  0.76091267569E+01  0.38662766607E+02  0.51100000000E-03 0. -1.
         23    2    1    0    0    0  0.17012280515E+02 -0.81951810906E+01 -0.22373310385E+02  0.95812983434E+02  0.91230390197E+02 0.  0.
         11    1    3    3    0    0  0.45770431051E+02  0.16500557190E+02 -0.29982437142E+02  0.57150216827E+02  0.51100000000E-03 0.  1.
         22    1    1    0    0    0 -0.17012280515E+02  0.81951810906E+01  0.22373310385E+02  0.29277016566E+02  0.00000000000E+00 0.  1.
</event>
<event>
 5    1  0.1043455E-009  0.9118800E+02  0.7561462E-02  0.1125453E+00
         25   -1    0    0    0    0  0.00000000000E+00  0.00000000000E+00  0.99999998245E-14  0.12509000000E+03  0.12509000000E+03 0.  0.
        -11    1    3    3    0    0  0.83390200906E+01  0.25124549940E+02 -0.48943726110E+02  0.55644142473E+02  0.51100000000E-03 0. -1.
         23    2    1    0    0    0  0.17102888376E+02  0.22013399858E+02 -0.10331364874E+02  0.95360626238E+02  0.90608020463E+02 0.  0.
         11    1    3    3    0    0  0.87638682857E+01 -0.31111500826E+01  0.38612361236E+02  0.39716483765E+02  0.51100000000E-03 0.  1.
         22    1    1    0    0    0 -0.17102888376E+02 -0.22013399858E+02  0.10331364874E+02  0.29729373762E+02  0.00000000000E+00 0. -1.
</event>
<event>
 5    1  0.1043455E-009  0.9118800E+02  0.7561462E-02  0.1125453E+00
         25   -1    0    0    0    0  0.00000000000E+00  0.00000000000E+00  0.99999998245E-14  0.12509000000E+03  0.12509000000E+03 0.  0.
        -11    1    3    3    0    0 -0.32646835133E+02  0.56692399418E+01  0.13322485393E+02  0.35713369248E+02  0.51100000000E-03 0.  1.
         23    2    1    0    0    0  0.27005811932E+02  0.85272452365E+01  0.65926324235E+00  0.96762232395E+02  0.92522792871E+02 0.  0.
         11    1    3    3    0    0  0.59652647065E+02  0.28580052947E+01 -0.12663222151E+02  0.61048863148E+02  0.51100000000E-03 0. -1.
         22    1    1    0    0    0 -0.27005811932E+02 -0.85272452365E+01 -0.65926324235E+00  0.28327767605E+02  0.00000000000E+00 0. -1.
</event>
<event>
 5    1  0.1043455E-009  0.9118800E+02  0.7561462E-02  0.1125453E+00
         25   -1    0    0    0    0  0.00000000000E+00  0.00000000000E+00  0.99999998245E-14  0.12509000000E+03  0.12509000000E+03 0.  0.
        -11    1    3    3    0    0  0.29687276812E+02  0.25212324623E+02 -0.39505937933E+02  0.55477156106E+02  0.51100000000E-03 0.  1.
         23    2    1    0    0    0  0.24123946010E+02  0.15334165553E+02 -0.75641665126E-01  0.96504914274E+02  0.92174244521E+02 0.  0.
         11    1    3    3    0    0 -0.55633308022E+01 -0.98781590700E+01  0.39430296268E+02  0.41027758168E+02  0.51100000000E-03 0. -1.
         22    1    1    0    0    0 -0.24123946010E+02 -0.15334165553E+02  0.75641665126E-01  0.28585085726E+02  0.00000000000E+00 0.  1.
</event>
<event>
 5    1  0.1043455E-009  0.9118800E+02  0.7561462E-02  0.1125453E+00
         25   -1    0    0    0    0  0.00000000000E+00  0.00000000000E+00  0.99999998245E-14  0.12509000000E+03  0.12509000000E+03 0.  0.
        -11    1    3    3    0    0 -0.10592678238E+02 -0.25454205134E+02 -0.11110183321E+02  0.29724696213E+02  0.51100000000E-03 0. -1.
         23    2    1    0    0    0 -0.11247397033E+01  0.27502884346E+02  0.19253403783E+02  0.91498821932E+02  0.85109736053E+02 0.  0.
         11    1    3    3    0    0  0.94679385347E+01  0.52957089480E+02  0.30363587104E+02  0.61774125719E+02  0.51100000000E-03 0.  1.
         22    1    1    0    0    0  0.11247397033E+01 -0.27502884346E+02 -0.19253403783E+02  0.33591178068E+02  0.00000000000E+00 0.  1.
</event>
<event>
 5    1  0.1043455E-009  0.9118800E+02  0.7561462E-02  0.1125453E+00
         25   -1    0    0    0    0  0.00000000000E+00  0.00000000000E+00  0.99999998245E-14  0.12509000000E+03  0.12509000000E+03 0.  0.
        -11    1    3    3    0    0 -0.26026903171E+02  0.18960112263E+02  0.38516734415E+02  0.50203828299E+02  0.51100000000E-03 0.  1.
         23    2    1    0    0    0 -0.27922870730E+02  0.96985009945E+01 -0.53264939235E+01  0.95054701286E+02  0.90184683110E+02 0.  0.
         11    1    3    3    0    0 -0.18959675591E+01 -0.92616112689E+01 -0.43843228338E+02  0.44850872986E+02  0.51100000000E-03 0. -1.
         22    1    1    0    0    0  0.27922870730E+02 -0.96985009945E+01  0.53264939235E+01  0.30035298714E+02  0.00000000000E+00 0.  1.
</event>
<event>
 5    1  0.1043455E-009  0.9118800E+02  0.7561462E-02  0.1125453E+00
         25   -1    0    0    0    0  0.00000000000E+00  0.00000000000E+00  0.99999998245E-14  0.12509000000E+03  0.12509000000E+03 0.  0.
        -11    1    3    3    0    0  0.99659309350E+01 -0.27109380327E+02  0.30407824442E+02  0.41938932612E+02  0.51100000000E-03 0.  1.
         23    2    1    0    0    0  0.23345483137E+02 -0.48364409492E+01 -0.16868497870E+02  0.95884709994E+02  0.91328684684E+02 0.  0.
         11    1    3    3    0    0  0.13379552202E+02  0.22272939378E+02 -0.47276322312E+02  0.53945777381E+02  0.51100000000E-03 0. -1.
         22    1    1    0    0    0 -0.23345483137E+02  0.48364409492E+01  0.16868497870E+02  0.29205290006E+02  0.00000000000E+00 0. -1.
</event>
<event>
 5    1  0.1043455E-009  0.9118800E+02  0.7561462E-02  0.1125453E+00
         25   -1    0    0    0    0  0.00000000000E+00  0.00000000000E+00  0.99999998245E-14  0.12509000000E+03  0.12509000000E+03 0.  0.
        -11    1    3    3    0    0 -0.10328662739E+02 -0.33208959825E+02  0.45659592484E+02  0.57396120711E+02  0.51100000000E-03 0.  1.
         23    2    1    0    0    0 -0.11108129411E+01 -0.27023458918E+02  0.76659062698E+01  0.96978305703E+02  0.92814462347E+02 0.  0.
         11    1    3    3    0    0  0.92178497981E+01  0.61855009064E+01 -0.37993686214E+02  0.39582184992E+02  0.51100000000E-03 0. -1.
         22    1    1    0    0    0  0.11108129411E+01  0.27023458918E+02 -0.76659062698E+01  0.28111694297E+02  0.00000000000E+00 0.  1.
</event>
<event>
 5    1  0.1043455E-009  0.9118800E+02  0.7561462E-02  0.1125453E+00
         25   -1    0    0    0    0  0.00000000000E+00  0.00000000000E+00  0.99999998245E-14  0.12509000000E+03  0.12509000000E+03 0.  0.
        -11    1    3    3    0    0  0.46166296553E+02  0.94649623930E+01 -0.39797927615E+02  0.61682959504E+02  0.51100000000E-03 0. -1.
         23    2    1    0    0    0  0.17063361876E+02  0.29860687683E+01 -0.24191763578E+02  0.95335733916E+02  0.90573648547E+02 0.  0.
         11    1    3    3    0    0 -0.29102934677E+02 -0.64788936247E+01  0.15606164037E+02  0.33652774412E+02  0.51100000000E-03 0.  1.
         22    1    1    0    0    0 -0.17063361876E+02 -0.29860687683E+01  0.24191763578E+02  0.29754266084E+02  0.00000000000E+00 0. -1.
</event>
<event>
 5    1  0.1043455E-009  0.9118800E+02  0.7561462E-02  0.1125453E+00
         25   -1    0    0    0    0  0.00000000000E+00  0.00000000000E+00  0.99999998245E-14  0.12509000000E+03  0.12509000000E+03 0.  0.
        -11    1    3    3    0    0  0.48538582559E+02  0.22475607895E+02 -0.87303499866E+01  0.54197471880E+02  0.51100000000E-03 0. -1.
         23    2    1    0    0    0  0.24537005953E+02 -0.12322156242E+02 -0.80561105155E+01  0.96475299019E+02  0.92134044786E+02 0.  0.
         11    1    3    3    0    0 -0.24001576606E+02 -0.34797764137E+02  0.67423947116E+00  0.42277827139E+02  0.51100000000E-03 0.  1.
         22    1    1    0    0    0 -0.24537005953E+02  0.12322156242E+02  0.80561105155E+01  0.28614700981E+02  0.00000000000E+00 0. -1.
</event>
<event>
 5    1  0.1043455E-009  0.9118800E+02  0.7561462E-02  0.1125453E+00
         25   -1    0    0    0    0  0.00000000000E+00  0.00000000000E+00  0.99999998245E-14  0.12509000000E+03  0.12509000000E+03 0.  0.
        -11    1    3    3    0    0  0.11057667308E+01  0.29693538930E+02  0.32479520603E+00  0.29715895854E+02  0.51100000000E-03 0.  1.
         23    2    1    0    0    0  0.45755642093E+01 -0.31376442799E+02 -0.10196347159E+02  0.91782606737E+02  0.85525811622E+02 0.  0.
         11    1    3    3    0    0  0.34697974785E+01 -0.61069981729E+02 -0.10521142365E+02  0.62066710883E+02  0.51100000000E-03 0. -1.
         22    1    1    0    0    0 -0.45755642093E+01  0.31376442799E+02  0.10196347159E+02  0.33307393263E+02  0.00000000000E+00 0. -1.
</event>
<event>
 5    1  0.1043455E-009  0.9118800E+02  0.7561462E-02  0.1125453E+00
         25   -1    0    0    0    0  0.00000000000E+00  0.00000000000E+00  0.99999998245E-14  0.12509000000E+03  0.12509000000E+03 0.  0.
        -11    1    3    3    0    0 -0.11373452872E+02 -0.81732871478E+00 -0.35363695802E+02  0.37156620373E+02  0.51100000000E-03 0.  1.
         23    2    1    0    0    0  0.37562668145E+01  0.26082547293E+02  0.13905812780E+02  0.95294355306E+02  0.90516483087E+02 0.  0.
         11    1    3    3    0    0  0.15129719686E+02  0.26899876007E+02  0.49269508582E+02  0.58137734933E+02  0.51100000000E-03 0. -1.
         22    1    1    0    0    0 -0.37562668145E+01 -0.26082547293E+02 -0.13905812780E+02  0.29795644694E+02  0.00000000000E+00 0. -1.
</event>
<event>
 5    1  0.1043455E-009  0.9118800E+02  0.7561462E-02  0.1125453E+00
         25   -1    0    0    0    0  0.00000000000E+00  0.00000000000E+00  0.99999998245E-14  0.12509000000E+03  0.12509000000E+03 0.  0.
        -11    1    3    3    0    0  0.27267889366E+02  0.22084745882E+02  0.19447033914E+01  0.35143358728E+02  0.51100000000E-03 0. -1.
         23    2    1    0    0    0 -0.10123118936E+02 -0.24947421676E+02 -0.99379955916E+01  0.96391304182E+02  0.92019934690E+02 0.  0.
         11    1    3    3    0    0 -0.37391008302E+02 -0.47032167558E+02 -0.11882698983E+02  0.61247945454E+02  0.51100000000E-03 0.  1.
         22    1    1    0    0    0  0.10123118936E+02  0.24947421676E+02  0.99379955916E+01  0.28698695818E+02  0.00000000000E+00 0.  1.
</event>
<event>
 5    1  0.1043455E-009  0.9118800E+02  0.7561462E-02  0.1125453E+00
         25   -1    0    0    0    0  0.00000000000E+00  0.00000000000E+00  0.99999998245E-14  0.12509000000E+03  0.12509000000E+03 0.  0.
        -11    1    3    3    0    0 -0.23616950998E+02 -0.63207016539E+01 -0.33550609818E+02  0.41513311881E+02  0.51100000000E-03 0. -1.
         23    2    1    0    0    0  0.61486761923E+01  0.28226441340E+02 -0.38208188983E+01  0.95950046899E+02  0.91418130769E+02 0.  0.
         11    1    3    3    0    0  0.29765627190E+02  0.34547142994E+02  0.29729790920E+02  0.54436735019E+02  0.51100000000E-03 0.  1.
         22    1    1    0    0    0 -0.61486761923E+01 -0.28226441340E+02  0.38208188983E+01  0.29139953101E+02  0.00000000000E+00 0.  1.
</event>
<event>
 5    1  0.1043455E-009  0.9118800E+02  0.7561462E-02  0.1125453E+00
         25   -1    0    0    0    0  0.00000000000E+00  0.00000000000E+00  0.99999998245E-14  0.12509000000E+03  0.12509000000E+03 0.  0.
        -11    1    3    3    0    0  0.13488196270E+02 -0.30509988986E+02 -0.17357398458E+01  0.33403647400E+02  0.51100000000E-03 0.  1.
         23    2    1    0    0    0  0.37438526632E+01  0.29823737325E+02  0.39078778370E+01  0.94779222214E+02  0.89801768989E+02 0.  0.
         11    1    3    3    0    0 -0.97443436064E+01  0.60333726311E+02  0.56436176828E+01  0.61375574814E+02  0.51100000000E-03 0. -1.
         22    1    1    0    0    0 -0.37438526632E+01 -0.29823737325E+02 -0.39078778370E+01  0.30310777786E+02  0.00000000000E+00 0. -1.
</event>
<event>
 5    1  0.1043455E-009  0.9118800E+02  0.7561462E-02  0.1125453E+00
         25   -1    0    0    0    0  0.00000000000E+00  0.00000000000E+00  0.99999998245E-14  0.12509000000E+03  0.12509000000E+03 0.  0.
        -11    1    3    3    0    0 -0.17078256052E+02  0.30337264082E+02 -0.42703401532E+02  0.55096251456E+02  0.51100000000E-03 0.  1.
         23    2    1    0    0    0  0.30549905253E+01  0.32637858452E+02 -0.16013823891E+02  0.88607054298E+02  0.80747784765E+02 0.  0.
         11    1    3    3    0    0  0.20133246577E+02  0.23005943701E+01  0.26689577642E+02  0.33510802843E+02  0.51100000000E-03 0. -1.
         22    1    1    0    0    0 -0.30549905253E+01 -0.32637858452E+02  0.16013823891E+02  0.36482945702E+02  0.00000000000E+00 0.  1.
</event>
<event>
 5    1  0.1043455E-009  0.9118800E+02  0.7561462E-02  0.1125453E+00
         25   -1    0    0    0    0  0.00000000000E+00  0.00000000000E+00  0.99999998245E-14  0.12509000000E+03  0.12509000000E+03 0.  0.
        -11    1    3    3    0    0  0.52189978215E+02  0.50997204869E+00  0.88531535542E+00  0.52199977789E+02  0.51100000000E-03 0.  1.
         23    2    1    0    0    0  0.18764064393E+02  0.18120745252E+02 -0.16951792975E+02  0.93980277949E+02  0.88681891259E+02 0.  0.
         11    1    3    3    0    0 -0.33425913822E+02  0.17610773203E+02 -0.17837108330E+02  0.41780300161E+02  0.51100000000E-03 0. -1.
         22    1    1    0    0    0 -0.18764064393E+02 -0.18120745252E+02  0.16951792975E+02  0.31109722051E+02  0.00000000000E+00 0.  1.
</event>
<event>
 5    1  0.1043455E-009  0.9118800E+02  0.7561462E-02  0.1125453E+00
         25   -1    0    0    0    0  0.00000000000E+00  0.00000000000E+00  0.99999998245E-14  0.12509000000E+03  0.12509000000E+03 0.  0.
        -11    1    3    3    0    0 -0.37370779373E+02 -0.35120772880E+02 -0.30509434683E+02  0.59673021070E+02  0.51100000000E-03 0.  1.
         23    2    1    0    0    0 -0.64340623623E+01 -0.24189598433E+02 -0.14155339542E+02  0.96334001176E+02  0.91942005167E+02 0.  0.
         11    1    3    3    0    0  0.30936717011E+02  0.10931174447E+02  0.16354095141E+02  0.36660980106E+02  0.51100000000E-03 0. -1.
         22    1    1    0    0    0  0.64340623623E+01  0.24189598433E+02  0.14155339542E+02  0.28755998824E+02  0.00000000000E+00 0.  1.
</event>
<event>
 5    1  0.1043455E-009  0.9118800E+02  0.7561462E-02  0.1125453E+00
         25   -1    0    0    0    0  0.00000000000E+00  0.00000000000E+00  0.99999998245E-14  0.12509000000E+03  0.12509000000E+03 0.  0.
        -11    1    3    3    0    0  0.23196181214E+02 -0.59291591530E+01  0.30341688903E+02  0.38650172534E+02  0.51100000000E-03 0. -1.
         23    2    1    0    0    0  0.12874822492E+01 -0.19101046731E+02 -0.21408608929E+02  0.96370039467E+02  0.91991023332E+02 0.  0.
         11    1    3    3    0    0 -0.21908698964E+02 -0.13171887578E+02 -0.51750297833E+02  0.57719866932E+02  0.51100000000E-03 0.  1.
         22    1    1    0    0    0 -0.12874822492E+01  0.19101046731E+02  0.21408608929E+02  0.28719960533E+02  0.00000000000E+00 0.  1.
</event>
<event>
 5    1  0.1043455E-009  0.9118800E+02  0.7561462E-02  0.1125453E+00
         25   -1    0    0    0    0  0.00000000000E+00  0.00000000000E+00  0.99999998245E-14  0.12509000000E+03  0.12509000000E+03 0.  0.
        -11    1    3    3    0    0  0.25407674580E+02  0.28674326306E+02  0.31074499351E+01  0.38437262676E+02  0.51100000000E-03 0. -1.
         23    2    1    0    0    0  0.86998655483E+01 -0.27045474764E+02  0.17983672193E+01  0.96622834872E+02  0.92334136311E+02 0.  0.
         11    1    3    3    0    0 -0.16707809032E+02 -0.55719801070E+02 -0.13090827158E+01  0.58185572196E+02  0.51100000000E-03 0.  1.
         22    1    1    0    0    0 -0.86998655483E+01  0.27045474764E+02 -0.17983672193E+01  0.28467165128E+02  0.00000000000E+00 0.  1.
</event>
<event>
 5    1  0.1043455E-009  0.9118800E+02  0.7561462E-02  0.1125453E+00
         25   -1    0    0    0    0  0.00000000000E+00  0.00000000000E+00  0.99999998245E-14  0.12509000000E+03  0.12509000000E+03 0.  0.
        -11    1    3    3    0    0  0.59135924685E+01 -0.30088325753E+02 -0.18096682578E+02  0.35605727673E+02  0.51100000000E-03 0. -1.
         23    2    1    0    0    0  0.76933500305E+01  0.11173116508E+02  0.25839810301E+02  0.95905724035E+02  0.91357462416E+02 0.  0.
         11    1    3    3    0    0  0.17797575620E+01  0.41261442261E+02  0.43936492879E+02  0.60299996362E+02  0.51100000000E-03 0.  1.
         22    1    1    0    0    0 -0.76933500305E+01 -0.11173116508E+02 -0.25839810301E+02  0.29184275965E+02  0.00000000000E+00 0.  1.
</event>
<event>
 5    1  0.1043455E-009  0.9118800E+02  0.7561462E-02  0.1125453E+00
         25   -1    0    0    0    0  0.00000000000E+00  0.00000000000E+00  0.99999998245E-14  0.12509000000E+03  0.12509000000E+03 0.  0.
        -11    1    3    3    0    0 -0.90386473829E+01 -0.32219236340E+01 -0.45484550822E+02  0.46485721487E+02  0.51100000000E-03 0. -1.
         23    2    1    0    0    0  0.21599437021E+02  0.15773424852E+02 -0.11679615717E+02  0.95905243114E+02  0.91356803919E+02 0.  0.
         11    1    3    3    0    0  0.30638084404E+02  0.18995348486E+02  0.33804935106E+02  0.49419521627E+02  0.51100000000E-03 0.  1.
         22    1    1    0    0    0 -0.21599437021E+02 -0.15773424852E+02  0.11679615717E+02  0.29184756886E+02  0.00000000000E+00 0. -1.
</event>
<event>
 5    1  0.1043455E-009  0.9118800E+02  0.7561462E-02  0.1125453E+00
         25   -1    0    0    0    0  0.00000000000E+00  0.00000000000E+00  0.99999998245E-14  0.12509000000E+03  0.12509000000E+03 0.  0.
        -11    1    3    3    0    0  0.53145234634E+02 -0.99729826798E+01  0.13513456248E+02  0.55735893712E+02  0.51100000000E-03 0. -1.
         23    2    1    0    0    0  0.16521236581E+02 -0.22756778058E+02  0.11882168835E+02  0.94561191606E+02  0.89497546424E+02 0.  0.
         11    1    3    3    0    0 -0.36623998053E+02 -0.12783795378E+02 -0.16312874128E+01  0.38825297894E+02  0.51100000000E-03 0.  1.
         22    1    1    0    0    0 -0.16521236581E+02  0.22756778058E+02 -0.11882168835E+02  0.30528808394E+02  0.00000000000E+00 0. -1.
</event>
<event>
 5    1  0.1043455E-009  0.9118800E+02  0.7561462E-02  0.1125453E+00
         25   -1    0    0    0    0  0.00000000000E+00  0.00000000000E+00  0.99999998245E-14  0.12509000000E+03  0.12509000000E+03 0.  0.
        -11    1    3    3    0    0 -0.47213341206E+02 -0.27420128273E+01 -0.40520389853E+02  0.62277766629E+02  0.51100000000E-03 0. -1.
         23    2    1    0    0    0 -0.20283030417E+02 -0.23974145311E+00 -0.22598497705E+02  0.94723062430E+02  0.89723506724E+02 0.  0.
         11    1    3    3    0    0  0.26930310789E+02  0.25022713742E+01  0.17921892148E+02  0.32445295802E+02  0.51100000000E-03 0.  1.
         22    1    1    0    0    0  0.20283030417E+02  0.23974145311E+00  0.22598497705E+02  0.30366937570E+02  0.00000000000E+00 0. -1.
</event>
<event>
 5    1  0.1043455E-009  0.9118800E+02  0.7561462E-02  0.1125453E+00
         25   -1    0    0    0    0  0.00000000000E+00  0.00000000000E+00  0.99999998245E-14  0.12509000000E+03  0.12509000000E+03 0.  0.
        -11    1    3    3    0    0 -0.36310930875E+02 -0.43089700423E+02  0.45608953405E+01  0.56533244645E+02  0.51100000000E-03 0.  1.
         23    2    1    0    0    0 -0.20350850585E+02 -0.13459805768E+02 -0.15944485186E+02  0.95942957291E+02  0.91408429343E+02 0.  0.
         11    1    3    3    0    0  0.15960080289E+02  0.29629894654E+02 -0.20505380526E+02  0.39409712646E+02  0.51100000000E-03 0. -1.
         22    1    1    0    0    0  0.20350850585E+02  0.13459805768E+02  0.15944485186E+02  0.29147042709E+02  0.00000000000E+00 0.  1.
</event>
<event>
 5    1  0.1043455E-009  0.9118800E+02  0.7561462E-02  0.1125453E+00
         25   -1    0    0    0    0  0.00000000000E+00  0.00000000000E+00  0.99999998245E-14  0.12509000000E+03  0.12509000000E+03 0.  0.
        -11    1    3    3    0    0 -0.16853749179E+02  0.57179581879E+02  0.33602701236E+01  0.59706321783E+02  0.51100000000E-03 0.  1.
         23    2    1    0    0    0 -0.19540010854E+02  0.21771335405E+02 -0.26295042106E+01  0.95717949308E+02  0.91099991536E+02 0.  0.
         11    1    3    3    0    0 -0.26862616744E+01 -0.35408246475E+02 -0.59897743342E+01  0.36011627525E+02  0.51100000000E-03 0. -1.
         22    1    1    0    0    0  0.19540010854E+02 -0.21771335405E+02  0.26295042106E+01  0.29372050692E+02  0.00000000000E+00 0.  1.
</event>
<event>
 5    1  0.1043455E-009  0.9118800E+02  0.7561462E-02  0.1125453E+00
         25   -1    0    0    0    0  0.00000000000E+00  0.00000000000E+00  0.99999998245E-14  0.12509000000E+03  0.12509000000E+03 0.  0.
        -11    1    3    3    0    0 -0.16920897081E+02 -0.40446539061E+02 -0.23585240415E+00  0.43843983699E+02  0.51100000000E-03 0. -1.
         23    2    1    0    0    0  0.21909183874E+02 -0.18265892269E+02  0.17130973052E+02  0.91816506103E+02  0.85575378450E+02 0.  0.
         11    1    3    3    0    0  0.38830080955E+02  0.22180646792E+02  0.17366825456E+02  0.47972522403E+02  0.51100000000E-03 0.  1.
         22    1    1    0    0    0 -0.21909183874E+02  0.18265892269E+02 -0.17130973052E+02  0.33273493897E+02  0.00000000000E+00 0.  1.
</event>
<event>
 5    1  0.1043455E-009  0.9118800E+02  0.7561462E-02  0.1125453E+00
         25   -1    0    0    0    0  0.00000000000E+00  0.00000000000E+00  0.99999998245E-14  0.12509000000E+03  0.12509000000E+03 0.  0.
        -11    1    3    3    0    0  0.81269182855E+01  0.67405843141E+01  0.47357625753E+02  0.48520377110E+02  0.51100000000E-03 0.  1.
         23    2    1    0    0    0  0.17294948152E+02  0.30261003107E+02  0.25645716138E+02  0.81817072009E+02  0.69436928038E+02 0.  0.
         11    1    3    3    0    0  0.91680298665E+01  0.23520418793E+02 -0.21711909615E+02  0.33296694899E+02  0.51100000000E-03 0. -1.
         22    1    1    0    0    0 -0.17294948152E+02 -0.30261003107E+02 -0.25645716138E+02  0.43272927991E+02  0.00000000000E+00 0.  1.
</event>
<event>
 5    1  0.1043455E-009  0.9118800E+02  0.7561462E-02  0.1125453E+00
         25   -1    0    0    0    0  0.00000000000E+00  0.00000000000E+00  0.99999998245E-14  0.12509000000E+03  0.12509000000E+03 0.  0.
        -11    1    3    3    0    0  0.45546629768E+02  0.67452670005E+01  0.19989626373E+02  0.50195410875E+02  0.51100000000E-03 0. -1.
         23    2    1    0    0    0  0.11176321394E+01  0.17716492589E+02  0.22974700617E+02  0.96056225190E+02  0.91563302246E+02 0.  0.
         11    1    3    3    0    0 -0.44428997628E+02  0.10971225588E+02  0.29850742442E+01  0.45860814315E+02  0.51100000000E-03 0.  1.
         22    1    1    0    0    0 -0.11176321394E+01 -0.17716492589E+02 -0.22974700617E+02  0.29033774810E+02  0.00000000000E+00 0. -1.
</event>
<event>
 5    1  0.1043455E-009  0.9118800E+02  0.7561462E-02  0.1125453E+00
         25   -1    0    0    0    0  0.00000000000E+00  0.00000000000E+00  0.99999998245E-14  0.12509000000E+03  0.12509000000E+03 0.  0.
        -11    1    3    3    0    0  0.35440783585E+02 -0.21856748438E+01  0.39472609756E+02  0.53093438737E+02  0.51100000000E-03 0. -1.
         23    2    1    0    0    0  0.90363800265E+00 -0.18584508929E+02  0.24893034386E+02  0.94011652317E+02  0.88726135252E+02 0.  0.
         11    1    3    3    0    0 -0.34537145582E+02 -0.16398834085E+02 -0.14579575371E+02  0.40918213580E+02  0.51100000000E-03 0.  1.
         22    1    1    0    0    0 -0.90363800265E+00  0.18584508929E+02 -0.24893034386E+02  0.31078347683E+02  0.00000000000E+00 0. -1.
</event>
<event>
 5    1  0.1043455E-009  0.9118800E+02  0.7561462E-02  0.1125453E+00
         25   -1    0    0    0    0  0.00000000000E+00  0.00000000000E+00  0.99999998245E-14  0.12509000000E+03  0.12509000000E+03 0.  0.
        -11    1    3    3    0    0 -0.59040108817E+02  0.61311814854E-01  0.87171203401E+01  0.59680201034E+02  0.51100000000E-03 0.  1.
         23    2    1    0    0    0 -0.24873469246E+02 -0.78997631015E+01  0.14498582145E+02  0.95235274853E+02  0.90434799511E+02 0.  0.
         11    1    3    3    0    0  0.34166639571E+02 -0.79610749163E+01  0.57814618054E+01  0.35555073818E+02  0.51100000000E-03 0. -1.
         22    1    1    0    0    0  0.24873469246E+02  0.78997631015E+01 -0.14498582145E+02  0.29854725147E+02  0.00000000000E+00 0.  1.
</event>
<event>
 5    1  0.1043455E-009  0.9118800E+02  0.7561462E-02  0.1125453E+00
         25   -1    0    0    0    0  0.00000000000E+00  0.00000000000E+00  0.99999998245E-14  0.12509000000E+03  0.12509000000E+03 0.  0.
        -11    1    3    3    0    0 -0.32984287747E+02  0.29409818099E+02 -0.58553672011E+01  0.44577864059E+02  0.51100000000E-03 0.  1.
         23    2    1    0    0    0 -0.20676346974E+02  0.23059165259E+01 -0.33795739820E+02  0.85403974686E+02  0.75623133279E+02 0.  0.
         11    1    3    3    0    0  0.12307940772E+02 -0.27103901573E+02 -0.27940372619E+02  0.40826110627E+02  0.51100000000E-03 0. -1.
         22    1    1    0    0    0  0.20676346974E+02 -0.23059165259E+01  0.33795739820E+02  0.39686025314E+02  0.00000000000E+00 0. -1.
</event>
<event>
 5    1  0.1043455E-009  0.9118800E+02  0.7561462E-02  0.1125453E+00
         25   -1    0    0    0    0  0.00000000000E+00  0.00000000000E+00  0.99999998245E-14  0.12509000000E+03  0.12509000000E+03 0.  0.
        -11    1    3    3    0    0  0.35697136929E+01 -0.41014394671E+02 -0.65956093231E+01  0.41694429948E+02  0.51100000000E-03 0.  1.
         23    2    1    0    0    0 -0.28212172596E+02  0.34896331529E+01 -0.31220777879E+01  0.96491895311E+02  0.92156574745E+02 0.  0.
         11    1    3    3    0    0 -0.31781886289E+02  0.44504027824E+02  0.34735315351E+01  0.54797465363E+02  0.51100000000E-03 0. -1.
         22    1    1    0    0    0  0.28212172596E+02 -0.34896331529E+01  0.31220777879E+01  0.28598104689E+02  0.00000000000E+00 0. -1.
</event>
<event>
 5    1  0.1043455E-009  0.9118800E+02  0.7561462E-02  0.1125453E+00
         25   -1    0    0    0    0  0.00000000000E+00  0.00000000000E+00  0.99999998245E-14  0.12509000000E+03  0.12509000000E+03 0.  0.
        -11    1    3    3    0    0  0.48457336861E+02 -0.23589860417E+02  0.93430355782E+01  0.54698147357E+02  0.51100000000E-03 0.  1.
         23    2    1    0    0    0  0.24704681446E+02  0.68712445253E+01 -0.95862502037E+01  0.97714253806E+02  0.93801086973E+02 0.  0.
         11    1    3    3    0    0 -0.23752655415E+02  0.30461104943E+02 -0.18929285782E+02  0.43016106449E+02  0.51100000000E-03 0. -1.
         22    1    1    0    0    0 -0.24704681446E+02 -0.68712445253E+01  0.95862502037E+01  0.27375746194E+02  0.00000000000E+00 0.  1.
</event>
<event>
 5    1  0.1043455E-009  0.9118800E+02  0.7561462E-02  0.1125453E+00
         25   -1    0    0    0    0  0.00000000000E+00  0.00000000000E+00  0.99999998245E-14  0.12509000000E+03  0.12509000000E+03 0.  0.
        -11    1    3    3    0    0 -0.27779641549E+02 -0.39849708195E+02  0.64154056453E+01  0.48998624038E+02  0.51100000000E-03 0. -1.
         23    2    1    0    0    0  0.14385226505E+02 -0.19957341891E+02  0.14816768827E+02  0.96371245232E+02  0.91992662925E+02 0.  0.
         11    1    3    3    0    0  0.42164868054E+02  0.19892366303E+02  0.84013631814E+01  0.47372621193E+02  0.51100000000E-03 0.  1.
         22    1    1    0    0    0 -0.14385226505E+02  0.19957341891E+02 -0.14816768827E+02  0.28718754768E+02  0.00000000000E+00 0. -1.
</event>
<event>
 5    1  0.1043455E-009  0.9118800E+02  0.7561462E-02  0.1125453E+00
         25   -1    0    0    0    0  0.00000000000E+00  0.00000000000E+00  0.99999998245E-14  0.12509000000E+03  0.12509000000E+03 0.  0.
        -11    1    3    3    0    0 -0.50491227552E+02  0.33807793185E+02 -0.13917038667E+02  0.62337909054E+02  0.51100000000E-03 0. -1.
         23    2    1    0    0    0 -0.23603751470E+02  0.17625066182E+02 -0.33940209169E+01  0.95437016687E+02  0.90713420919E+02 0.  0.
         11    1    3    3    0    0  0.26887476082E+02 -0.16182727003E+02  0.10523017750E+02  0.33099107633E+02  0.51100000000E-03 0.  1.
         22    1    1    0    0    0  0.23603751470E+02 -0.17625066182E+02  0.33940209169E+01  0.29652983313E+02  0.00000000000E+00 0. -1.
</event>
<event>
 5    1  0.1043455E-009  0.9118800E+02  0.7561462E-02  0.1125453E+00
         25   -1    0    0    0    0  0.00000000000E+00  0.00000000000E+00  0.99999998245E-14  0.12509000000E+03  0.12509000000E+03 0.  0.
        -11    1    3    3    0    0  0.13343217799E+02 -0.60499035082E+01  0.53287709647E+02  0.55265023237E+02  0.51100000000E-03 0. -1.
         23    2    1    0    0    0 -0.60538612088E+00  0.17503957245E+02  0.24308289514E+02  0.95129226467E+02  0.90287993540E+02 0.  0.
         11    1    3    3    0    0 -0.13948603920E+02  0.23553860753E+02 -0.28979420133E+02  0.39864203230E+02  0.51100000000E-03 0.  1.
         22    1    1    0    0    0  0.60538612088E+00 -0.17503957245E+02 -0.24308289514E+02  0.29960773533E+02  0.00000000000E+00 0. -1.
</event>
<event>
 5    1  0.1043455E-009  0.9118800E+02  0.7561462E-02  0.1125453E+00
         25   -1    0    0    0    0  0.00000000000E+00  0.00000000000E+00  0.99999998245E-14  0.12509000000E+03  0.12509000000E+03 0.  0.
        -11    1    3    3    0    0  0.13622802425E+02 -0.18706365926E+02  0.46454651950E+02  0.51899359920E+02  0.51100000000E-03 0.  1.
         23    2    1    0    0    0  0.43049592024E+01 -0.27763528004E+02  0.34987527457E+01  0.96777680566E+02  0.92543676305E+02 0.  0.
         11    1    3    3    0    0 -0.93178432222E+01 -0.90571620780E+01 -0.42955899205E+02  0.44878320646E+02  0.51100000000E-03 0. -1.
         22    1    1    0    0    0 -0.43049592024E+01  0.27763528004E+02 -0.34987527457E+01  0.28312319434E+02  0.00000000000E+00 0.  1.
</event>
<event>
 5    1  0.1043455E-009  0.9118800E+02  0.7561462E-02  0.1125453E+00
         25   -1    0    0    0    0  0.00000000000E+00  0.00000000000E+00  0.99999998245E-14  0.12509000000E+03  0.12509000000E+03 0.  0.
        -11    1    3    3    0    0  0.45616120903E+02 -0.18352806665E+02  0.17617130458E+02  0.52230444039E+02  0.51100000000E-03 0.  1.
         23    2    1    0    0    0  0.90512124250E+01  0.96231911543E+00  0.28649154307E+02  0.95029651583E+02  0.90149931409E+02 0.  0.
         11    1    3    3    0    0 -0.36564908478E+02  0.19315125781E+02  0.11032023849E+02  0.42799207544E+02  0.51100000000E-03 0. -1.
         22    1    1    0    0    0 -0.90512124250E+01 -0.96231911543E+00 -0.28649154307E+02  0.30060348417E+02  0.00000000000E+00 0.  1.
</event>
<event>
 5    1  0.1043455E-009  0.9118800E+02  0.7561462E-02  0.1125453E+00
         25   -1    0    0    0    0  0.00000000000E+00  0.00000000000E+00  0.99999998245E-14  0.12509000000E+03  0.12509000000E+03 0.  0.
        -11    1    3    3    0    0  0.24448664238E+02  0.20239056121E+02  0.12008090075E+02  0.33934507558E+02  0.51100000000E-03 0.  1.
         23    2    1    0    0    0 -0.26221338164E+01 -0.18180784311E+02 -0.25218659599E+02  0.93890684368E+02  0.88555425104E+02 0.  0.
         11    1    3    3    0    0 -0.27070798054E+02 -0.38419840433E+02 -0.37226749674E+02  0.59956176810E+02  0.51100000000E-03 0. -1.
         22    1    1    0    0    0  0.26221338164E+01  0.18180784311E+02  0.25218659599E+02  0.31199315632E+02  0.00000000000E+00 0. -1.
</event>
<event>
 5    1  0.1043455E-009  0.9118800E+02  0.7561462E-02  0.1125453E+00
         25   -1    0    0    0    0  0.00000000000E+00  0.00000000000E+00  0.99999998245E-14  0.12509000000E+03  0.12509000000E+03 0.  0.
        -11    1    3    3    0    0 -0.88447135902E+01 -0.58969356609E+02 -0.32380313093E+01  0.59716821955E+02  0.51100000000E-03 0.  1.
         23    2    1    0    0    0  0.85024211157E+01 -0.29012935855E+02  0.22823615172E+01  0.94770851169E+02  0.89790107726E+02 0.  0.
         11    1    3    3    0    0  0.17347134706E+02  0.29956420754E+02  0.55203928266E+01  0.35054029214E+02  0.51100000000E-03 0. -1.
         22    1    1    0    0    0 -0.85024211157E+01  0.29012935855E+02 -0.22823615172E+01  0.30319148831E+02  0.00000000000E+00 0.  1.
</event>
<event>
 5    1  0.1043455E-009  0.9118800E+02  0.7561462E-02  0.1125453E+00
         25   -1    0    0    0    0  0.00000000000E+00  0.00000000000E+00  0.99999998245E-14  0.12509000000E+03  0.12509000000E+03 0.  0.
        -11    1    3    3    0    0  0.48243380801E+01  0.38297608169E+02  0.71587047330E+01  0.39258477850E+02  0.51100000000E-03 0.  1.
         23    2    1    0    0    0 -0.27108452661E+02 -0.86841089117E+01  0.55545084864E+01  0.96087680820E+02  0.91606265548E+02 0.  0.
         11    1    3    3    0    0 -0.31932790742E+02 -0.46981717081E+02 -0.16041962466E+01  0.56829202970E+02  0.51100000000E-03 0. -1.
         22    1    1    0    0    0  0.27108452661E+02  0.86841089117E+01 -0.55545084864E+01  0.29002319180E+02  0.00000000000E+00 0. -1.
</event>
<event>
 5    1  0.1043455E-009  0.9118800E+02  0.7561462E-02  0.1125453E+00
         25   -1    0    0    0    0  0.00000000000E+00  0.00000000000E+00  0.99999998245E-14  0.12509000000E+03  0.12509000000E+03 0.  0.
        -11    1    3    3    0    0  0.45175538944E+01  0.34330452353E+02  0.15147275161E+02  0.37794552478E+02  0.51100000000E-03 0.  1.
         23    2    1    0    0    0  0.26954610955E+02 -0.15185261991E+02  0.28745921954E+00  0.94150933009E+02  0.88922282473E+02 0.  0.
         11    1    3    3    0    0  0.22437057060E+02 -0.49515714344E+02 -0.14859815941E+02  0.56356380531E+02  0.51100000000E-03 0. -1.
         22    1    1    0    0    0 -0.26954610955E+02  0.15185261991E+02 -0.28745921954E+00  0.30939066991E+02  0.00000000000E+00 0. -1.
</event>
<event>
 5    1  0.1043455E-009  0.9118800E+02  0.7561462E-02  0.1125453E+00
         25   -1    0    0    0    0  0.00000000000E+00  0.00000000000E+00  0.99999998245E-14  0.12509000000E+03  0.12509000000E+03 0.  0.
        -11    1    3    3    0    0 -0.51945164475E+02  0.20536593136E+02  0.18312798288E+02  0.58782738550E+02  0.51100000000E-03 0. -1.
         23    2    1    0    0    0 -0.17011985844E+02  0.22662974444E+02  0.45498096974E+01  0.96389497543E+02  0.92017478749E+02 0.  0.
         11    1    3    3    0    0  0.34933178632E+02  0.21263813083E+01 -0.13762988591E+02  0.37606758993E+02  0.51100000000E-03 0.  1.
         22    1    1    0    0    0  0.17011985844E+02 -0.22662974444E+02 -0.45498096974E+01  0.28700502457E+02  0.00000000000E+00 0. -1.
</event>
<event>
 5    1  0.1043455E-009  0.9118800E+02  0.7561462E-02  0.1125453E+00
         25   -1    0    0    0    0  0.00000000000E+00  0.00000000000E+00  0.99999998245E-14  0.12509000000E+03  0.12509000000E+03 0.  0.
        -11    1    3    3    0    0  0.94878245322E+01  0.18503797474E+02  0.46210115975E+02  0.50673308102E+02  0.51100000000E-03 0. -1.
         23    2    1    0    0    0 -0.10327547523E+02 -0.15205115574E+02  0.20926784264E+02  0.97237099305E+02  0.93162596594E+02 0.  0.
         11    1    3    3    0    0 -0.19815372055E+02 -0.33708913048E+02 -0.25283331711E+02  0.46563791203E+02  0.51100000000E-03 0.  1.
         22    1    1    0    0    0  0.10327547523E+02  0.15205115574E+02 -0.20926784264E+02  0.27852900695E+02  0.00000000000E+00 0. -1.
</event>
<event>
 5    1  0.1043455E-009  0.9118800E+02  0.7561462E-02  0.1125453E+00
         25   -1    0    0    0    0  0.00000000000E+00  0.00000000000E+00  0.99999998245E-14  0.12509000000E+03  0.12509000000E+03 0.  0.
        -11    1    3    3    0    0  0.29190100852E+01 -0.54588689333E+02 -0.70228633825E+01  0.55115934478E+02  0.51100000000E-03 0.  1.
         23    2    1    0    0    0  0.40055117816E+01 -0.14154420677E+02 -0.22318101324E+02  0.98360065544E+02  0.94658402151E+02 0.  0.
         11    1    3    3    0    0  0.10865016964E+01  0.40434268657E+02 -0.15295237941E+02  0.43244131066E+02  0.51100000000E-03 0. -1.
         22    1    1    0    0    0 -0.40055117816E+01  0.14154420677E+02  0.22318101324E+02  0.26729934456E+02  0.00000000000E+00 0.  1.
</event>
<event>
 5    1  0.1043455E-009  0.9118800E+02  0.7561462E-02  0.1125453E+00
         25   -1    0    0    0    0  0.00000000000E+00  0.00000000000E+00  0.99999998245E-14  0.12509000000E+03  0.12509000000E+03 0.  0.
        -11    1    3    3    0    0 -0.17420981575E+01 -0.39386492962E+02 -0.22636300774E+02  0.45461333535E+02  0.51100000000E-03 0.  1.
         23    2    1    0    0    0 -0.26337299868E+02 -0.11117575206E+02  0.96443564208E+01  0.94919361068E+02  0.89996764675E+02 0.  0.
         11    1    3    3    0    0 -0.24595201710E+02  0.28268917756E+02  0.32280657195E+02  0.49458027533E+02  0.51100000000E-03 0. -1.
         22    1    1    0    0    0  0.26337299868E+02  0.11117575206E+02 -0.96443564208E+01  0.30170638932E+02  0.00000000000E+00 0. -1.
</event>
<event>
 5    1  0.1043455E-009  0.9118800E+02  0.7561462E-02  0.1125453E+00
         25   -1    0    0    0    0  0.00000000000E+00  0.00000000000E+00  0.99999998245E-14  0.12509000000E+03  0.12509000000E+03 0.  0.
        -11    1    3    3    0    0  0.64986454771E+01  0.15375938493E+02 -0.38700567916E+02  0.42147192491E+02  0.51100000000E-03 0. -1.
         23    2    1    0    0    0 -0.27447092947E+02 -0.79252652178E+01 -0.35165207525E+01  0.96305999962E+02  0.91903900735E+02 0.  0.
         11    1    3    3    0    0 -0.33945738424E+02 -0.23301203711E+02  0.35184047164E+02  0.54158807470E+02  0.51100000000E-03 0.  1.
         22    1    1    0    0    0  0.27447092947E+02  0.79252652178E+01  0.35165207525E+01  0.28784000038E+02  0.00000000000E+00 0.  1.
</event>
<event>
 5    1  0.1043455E-009  0.9118800E+02  0.7561462E-02  0.1125453E+00
         25   -1    0    0    0    0  0.00000000000E+00  0.00000000000E+00  0.99999998245E-14  0.12509000000E+03  0.12509000000E+03 0.  0.
        -11    1    3    3    0    0  0.38037560751E+02  0.88800467002E+01  0.25290952994E+02  0.46533252206E+02  0.51100000000E-03 0. -1.
         23    2    1    0    0    0 -0.65802525523E+01  0.25533142686E+02  0.12862477272E+02  0.95752576448E+02  0.91147525890E+02 0.  0.
         11    1    3    3    0    0 -0.44617813303E+02  0.16653095986E+02 -0.12428475722E+02  0.49219324243E+02  0.51100000000E-03 0.  1.
         22    1    1    0    0    0  0.65802525523E+01 -0.25533142686E+02 -0.12862477272E+02  0.29337423552E+02  0.00000000000E+00 0. -1.
</event>
<event>
 5    1  0.1043455E-009  0.9118800E+02  0.7561462E-02  0.1125453E+00
         25   -1    0    0    0    0  0.00000000000E+00  0.00000000000E+00  0.99999998245E-14  0.12509000000E+03  0.12509000000E+03 0.  0.
        -11    1    3    3    0    0  0.41784663660E+02  0.39827098442E+02  0.15371076272E+02  0.59736302811E+02  0.51100000000E-03 0. -1.
         23    2    1    0    0    0  0.24204574282E+02  0.72344095694E+01  0.12567823724E+02  0.96873900143E+02  0.92673643706E+02 0.  0.
         11    1    3    3    0    0 -0.17580089379E+02 -0.32592688872E+02 -0.28032525476E+01  0.37137597332E+02  0.51100000000E-03 0.  1.
         22    1    1    0    0    0 -0.24204574282E+02 -0.72344095694E+01 -0.12567823724E+02  0.28216099857E+02  0.00000000000E+00 0. -1.
</event>
<event>
 5    1  0.1043455E-009  0.9118800E+02  0.7561462E-02  0.1125453E+00
         25   -1    0    0    0    0  0.00000000000E+00  0.00000000000E+00  0.99999998245E-14  0.12509000000E+03  0.12509000000E+03 0.  0.
        -11    1    3    3    0    0  0.35002509064E+02  0.29649324724E+02  0.12126611939E+02  0.47448001167E+02  0.51100000000E-03 0.  1.
         23    2    1    0    0    0 -0.93395126398E+01  0.23720022512E+02 -0.10426093197E+02  0.97547861672E+02  0.93578928895E+02 0.  0.
         11    1    3    3    0    0 -0.44342021703E+02 -0.59293022115E+01 -0.22552705136E+02  0.50099860505E+02  0.51100000000E-03 0. -1.
         22    1    1    0    0    0  0.93395126398E+01 -0.23720022512E+02  0.10426093197E+02  0.27542138328E+02  0.00000000000E+00 0.  1.
</event>
<event>
 5    1  0.1043455E-009  0.9118800E+02  0.7561462E-02  0.1125453E+00
         25   -1    0    0    0    0  0.00000000000E+00  0.00000000000E+00  0.99999998245E-14  0.12509000000E+03  0.12509000000E+03 0.  0.
        -11    1    3    3    0    0  0.32581951123E+02  0.42539878526E+02 -0.14374773011E+02  0.55478454406E+02  0.51100000000E-03 0.  1.
         23    2    1    0    0    0  0.17720367559E+02  0.67100731088E+01 -0.23075247423E+02  0.95231943279E+02  0.90430191139E+02 0.  0.
         11    1    3    3    0    0 -0.14861583564E+02 -0.35829805417E+02 -0.87004744124E+01  0.39753488872E+02  0.51100000000E-03 0. -1.
         22    1    1    0    0    0 -0.17720367559E+02 -0.67100731088E+01  0.23075247423E+02  0.29858056721E+02  0.00000000000E+00 0.  1.
</event>
<event>
 5    1  0.1043455E-009  0.9118800E+02  0.7561462E-02  0.1125453E+00
         25   -1    0    0    0    0  0.00000000000E+00  0.00000000000E+00  0.99999998245E-14  0.12509000000E+03  0.12509000000E+03 0.  0.
        -11    1    3    3    0    0 -0.42282608829E+02 -0.17069095110E+02 -0.76113344785E-01  0.45598013232E+02  0.51100000000E-03 0. -1.
         23    2    1    0    0    0  0.74419591841E+01 -0.27439684571E+02  0.30930849657E+01  0.96491289881E+02  0.92155752954E+02 0.  0.
         11    1    3    3    0    0  0.49724568013E+02 -0.10370589462E+02  0.31691983105E+01  0.50893276649E+02  0.51100000000E-03 0.  1.
         22    1    1    0    0    0 -0.74419591841E+01  0.27439684571E+02 -0.30930849657E+01  0.28598710119E+02  0.00000000000E+00 0. -1.
</event>
<event>
 5    1  0.1043455E-009  0.9118800E+02  0.7561462E-02  0.1125453E+00
         25   -1    0    0    0    0  0.00000000000E+00  0.00000000000E+00  0.99999998245E-14  0.12509000000E+03  0.12509000000E+03 0.  0.
        -11    1    3    3    0    0  0.88374255618E+01  0.20677272935E+02 -0.25514297525E+02  0.34009249992E+02  0.51100000000E-03 0.  1.
         23    2    1    0    0    0  0.15276195287E+02 -0.22263955553E+02  0.15683584628E+02  0.93864678767E+02  0.88518682966E+02 0.  0.
         11    1    3    3    0    0  0.64387697249E+01 -0.42941228488E+02  0.41197882153E+02  0.59855428775E+02  0.51100000000E-03 0. -1.
         22    1    1    0    0    0 -0.15276195287E+02  0.22263955553E+02 -0.15683584628E+02  0.31225321233E+02  0.00000000000E+00 0. -1.
</event>
<event>
 5    1  0.1043455E-009  0.9118800E+02  0.7561462E-02  0.1125453E+00
         25   -1    0    0    0    0  0.00000000000E+00  0.00000000000E+00  0.99999998245E-14  0.12509000000E+03  0.12509000000E+03 0.  0.
        -11    1    3    3    0    0  0.27075480214E+02  0.70931794310E+01  0.20120302449E+02  0.34470587378E+02  0.51100000000E-03 0.  1.
         23    2    1    0    0    0 -0.28109693446E+02 -0.90313046032E+01 -0.53279825167E+00  0.95560299655E+02  0.90883263958E+02 0.  0.
         11    1    3    3    0    0 -0.55185173661E+02 -0.16124484034E+02 -0.20653100700E+02  0.61089712277E+02  0.51100000000E-03 0. -1.
         22    1    1    0    0    0  0.28109693446E+02  0.90313046032E+01  0.53279825167E+00  0.29529700345E+02  0.00000000000E+00 0. -1.
</event>
<event>
 5    1  0.1043455E-009  0.9118800E+02  0.7561462E-02  0.1125453E+00
         25   -1    0    0    0    0  0.00000000000E+00  0.00000000000E+00  0.99999998245E-14  0.12509000000E+03  0.12509000000E+03 0.  0.
        -11    1    3    3    0    0  0.23523277992E+02  0.22721002528E+02 -0.12814489392E+02  0.35125485078E+02  0.51100000000E-03 0.  1.
         23    2    1    0    0    0 -0.37165886802E+01 -0.15822053745E+02  0.24773169280E+02  0.95461292091E+02  0.90746889508E+02 0.  0.
         11    1    3    3    0    0 -0.27239866672E+02 -0.38543056273E+02  0.37587658673E+02  0.60335807013E+02  0.51100000000E-03 0. -1.
         22    1    1    0    0    0  0.37165886802E+01  0.15822053745E+02 -0.24773169280E+02  0.29628707909E+02  0.00000000000E+00 0. -1.
</event>
<event>
 5    1  0.1043455E-009  0.9118800E+02  0.7561462E-02  0.1125453E+00
         25   -1    0    0    0    0  0.00000000000E+00  0.00000000000E+00  0.99999998245E-14  0.12509000000E+03  0.12509000000E+03 0.  0.
        -11    1    3    3    0    0 -0.19633435774E+02 -0.29158798833E+02  0.16778097335E+00  0.35153029747E+02  0.51100000000E-03 0.  1.
         23    2    1    0    0    0 -0.23706120279E+01  0.29060530647E+02 -0.14179285524E+01  0.95898481296E+02  0.91347544852E+02 0.  0.
         11    1    3    3    0    0  0.17262823746E+02  0.58219329480E+02 -0.15857095258E+01  0.60745451548E+02  0.51100000000E-03 0. -1.
         22    1    1    0    0    0  0.23706120279E+01 -0.29060530647E+02  0.14179285524E+01  0.29191518704E+02  0.00000000000E+00 0. -1.
</event>
<event>
 5    1  0.1043455E-009  0.9118800E+02  0.7561462E-02  0.1125453E+00
         25   -1    0    0    0    0  0.00000000000E+00  0.00000000000E+00  0.99999998245E-14  0.12509000000E+03  0.12509000000E+03 0.  0.
        -11    1    3    3    0    0 -0.42542101817E+02 -0.52870720675E+01  0.12772265171E+01  0.42888400132E+02  0.51100000000E-03 0.  1.
         23    2    1    0    0    0 -0.36088965307E+01  0.26442602874E+02  0.14352597894E+02  0.94787649477E+02  0.89813507036E+02 0.  0.
         11    1    3    3    0    0  0.38933205286E+02  0.31729674941E+02  0.13075371377E+02  0.51899249345E+02  0.51100000000E-03 0. -1.
         22    1    1    0    0    0  0.36088965307E+01 -0.26442602874E+02 -0.14352597894E+02  0.30302350523E+02  0.00000000000E+00 0. -1.
</event>
<event>
 5    1  0.1043455E-009  0.9118800E+02  0.7561462E-02  0.1125453E+00
         25   -1    0    0    0    0  0.00000000000E+00  0.00000000000E+00  0.99999998245E-14  0.12509000000E+03  0.12509000000E+03 0.  0.
        -11    1    3    3    0    0 -0.43129148069E+02 -0.82423950798E+01 -0.55705260051E+01  0.44261622768E+02  0.51100000000E-03 0. -1.
         23    2    1    0    0    0 -0.78514893339E+01  0.14814018488E+02  0.24049339644E+02  0.95773251104E+02  0.91175895176E+02 0.  0.
         11    1    3    3    0    0  0.35277658735E+02  0.23056413567E+02  0.29619865650E+02  0.51511628336E+02  0.51100000000E-03 0.  1.
         22    1    1    0    0    0  0.78514893339E+01 -0.14814018488E+02 -0.24049339644E+02  0.29316748896E+02  0.00000000000E+00 0. -1.
</event>
<event>
 5    1  0.1043455E-009  0.9118800E+02  0.7561462E-02  0.1125453E+00
         25   -1    0    0    0    0  0.00000000000E+00  0.00000000000E+00  0.99999998245E-14  0.12509000000E+03  0.12509000000E+03 0.  0.
        -11    1    3    3    0    0 -0.33678087639E+02 -0.69344961484E+01 -0.92248836916E+00  0.34396973834E+02  0.51100000000E-03 0. -1.
         23    2    1    0    0    0  0.22507624838E+02  0.34347448563E+01  0.19541378726E+02  0.95085731461E+02  0.90227713020E+02 0.  0.
         11    1    3    3    0    0  0.56185712477E+02  0.10369241005E+02  0.20463867095E+02  0.60688757627E+02  0.51100000000E-03 0.  1.
         22    1    1    0    0    0 -0.22507624838E+02 -0.34347448563E+01 -0.19541378726E+02  0.30004268539E+02  0.00000000000E+00 0.  1.
</event>
<event>
 5    1  0.1043455E-009  0.9118800E+02  0.7561462E-02  0.1125453E+00
         25   -1    0    0    0    0  0.00000000000E+00  0.00000000000E+00  0.99999998245E-14  0.12509000000E+03  0.12509000000E+03 0.  0.
        -11    1    3    3    0    0 -0.23981097175E+02  0.35642347852E+02 -0.67046705358E+01  0.43478990207E+02  0.51100000000E-03 0.  1.
         23    2    1    0    0    0 -0.12191405506E+01 -0.34253681574E+01 -0.30363423453E+02  0.94509664251E+02  0.89425498055E+02 0.  0.
         11    1    3    3    0    0  0.22761956625E+02 -0.39067716009E+02 -0.23658752918E+02  0.51030674045E+02  0.51100000000E-03 0. -1.
         22    1    1    0    0    0  0.12191405506E+01  0.34253681574E+01  0.30363423453E+02  0.30580335749E+02  0.00000000000E+00 0. -1.
</event>
<event>
 5    1  0.1043455E-009  0.9118800E+02  0.7561462E-02  0.1125453E+00
         25   -1    0    0    0    0  0.00000000000E+00  0.00000000000E+00  0.99999998245E-14  0.12509000000E+03  0.12509000000E+03 0.  0.
        -11    1    3    3    0    0  0.26174046293E+02 -0.35399965867E+02 -0.39585779333E+01  0.44203038609E+02  0.51100000000E-03 0. -1.
         23    2    1    0    0    0  0.13962946018E+02  0.28527031461E+01  0.26767834460E+02  0.94764783787E+02  0.89781654628E+02 0.  0.
         11    1    3    3    0    0 -0.12211100276E+02  0.38252669013E+02  0.30726412393E+02  0.50561745177E+02  0.51100000000E-03 0.  1.
         22    1    1    0    0    0 -0.13962946018E+02 -0.28527031461E+01 -0.26767834460E+02  0.30325216213E+02  0.00000000000E+00 0. -1.
</event>
<event>
 5    1  0.1043455E-009  0.9118800E+02  0.7561462E-02  0.1125453E+00
         25   -1    0    0    0    0  0.00000000000E+00  0.00000000000E+00  0.99999998245E-14  0.12509000000E+03  0.12509000000E+03 0.  0.
        -11    1    3    3    0    0  0.15224356383E+02 -0.32723617517E+02  0.78785685692E+01  0.36941683957E+02  0.51100000000E-03 0.  1.
         23    2    1    0    0    0 -0.29929336625E+02 -0.13678202943E+00 -0.65218234963E+01  0.94458021908E+02  0.89353230613E+02 0.  0.
         11    1    3    3    0    0 -0.45153693008E+02  0.32586835487E+02 -0.14400392065E+02  0.57516337950E+02  0.51100000000E-03 0. -1.
         22    1    1    0    0    0  0.29929336625E+02  0.13678202943E+00  0.65218234963E+01  0.30631978092E+02  0.00000000000E+00 0. -1.
</event>
<event>
 5    1  0.1043455E-009  0.9118800E+02  0.7561462E-02  0.1125453E+00
         25   -1    0    0    0    0  0.00000000000E+00  0.00000000000E+00  0.99999998245E-14  0.12509000000E+03  0.12509000000E+03 0.  0.
        -11    1    3    3    0    0 -0.14824214165E+01  0.43579256067E+02 -0.57168725140E+01  0.43977627996E+02  0.51100000000E-03 0.  1.
         23    2    1    0    0    0 -0.21645110753E+02 -0.24565140810E+01 -0.19243331807E+02  0.96023677564E+02  0.91518826222E+02 0.  0.
         11    1    3    3    0    0 -0.20162689336E+02 -0.46035770148E+02 -0.13526459292E+02  0.52046049568E+02  0.51100000000E-03 0. -1.
         22    1    1    0    0    0  0.21645110753E+02  0.24565140810E+01  0.19243331807E+02  0.29066322436E+02  0.00000000000E+00 0. -1.
</event>
<event>
 5    1  0.1043455E-009  0.9118800E+02  0.7561462E-02  0.1125453E+00
         25   -1    0    0    0    0  0.00000000000E+00  0.00000000000E+00  0.99999998245E-14  0.12509000000E+03  0.12509000000E+03 0.  0.
        -11    1    3    3    0    0  0.32204566020E+02  0.34196949102E+02  0.37794200918E+02  0.60290687703E+02  0.51100000000E-03 0.  1.
         23    2    1    0    0    0  0.12349948896E+02  0.77354718651E+01  0.25760536616E+02  0.95493310837E+02  0.90791015002E+02 0.  0.
         11    1    3    3    0    0 -0.19854617124E+02 -0.26461477237E+02 -0.12033664303E+02  0.35202623134E+02  0.51100000000E-03 0. -1.
         22    1    1    0    0    0 -0.12349948896E+02 -0.77354718651E+01 -0.25760536616E+02  0.29596689163E+02  0.00000000000E+00 0.  1.
</event>
<event>
 5    1  0.1043455E-009  0.9118800E+02  0.7561462E-02  0.1125453E+00
         25   -1    0    0    0    0  0.00000000000E+00  0.00000000000E+00  0.99999998245E-14  0.12509000000E+03  0.12509000000E+03 0.  0.
        -11    1    3    3    0    0  0.49791613100E+02 -0.14961318280E+02  0.11026534827E+02  0.53147250638E+02  0.51100000000E-03 0. -1.
         23    2    1    0    0    0  0.12562847615E+02  0.30860992055E+01  0.25103702495E+02  0.96849160291E+02  0.92640244072E+02 0.  0.
         11    1    3    3    0    0 -0.37228765486E+02  0.18047417486E+02  0.14077167668E+02  0.43701909653E+02  0.51100000000E-03 0.  1.
         22    1    1    0    0    0 -0.12562847615E+02 -0.30860992055E+01 -0.25103702495E+02  0.28240839709E+02  0.00000000000E+00 0. -1.
</event>
<event>
 5    1  0.1043455E-009  0.9118800E+02  0.7561462E-02  0.1125453E+00
         25   -1    0    0    0    0  0.00000000000E+00  0.00000000000E+00  0.99999998245E-14  0.12509000000E+03  0.12509000000E+03 0.  0.
        -11    1    3    3    0    0 -0.30498931498E+02 -0.15137303819E+02 -0.10686073803E+02  0.35686341406E+02  0.51100000000E-03 0.  1.
         23    2    1    0    0    0  0.26729167784E+02 -0.85560910461E+01  0.74027256304E+01  0.96064916862E+02  0.91575175679E+02 0.  0.
         11    1    3    3    0    0  0.57228099281E+02  0.65812127728E+01  0.18088799433E+02  0.60378575456E+02  0.51100000000E-03 0. -1.
         22    1    1    0    0    0 -0.26729167784E+02  0.85560910461E+01 -0.74027256304E+01  0.29025083138E+02  0.00000000000E+00 0. -1.
</event>
<event>
 5    1  0.1043455E-009  0.9118800E+02  0.7561462E-02  0.1125453E+00
         25   -1    0    0    0    0  0.00000000000E+00  0.00000000000E+00  0.99999998245E-14  0.12509000000E+03  0.12509000000E+03 0.  0.
        -11    1    3    3    0    0 -0.12083205810E+02 -0.32899569655E+01  0.32531766992E+02  0.34858909096E+02  0.51100000000E-03 0.  1.
         23    2    1    0    0    0  0.13872308279E+01 -0.11936555563E+02 -0.26484169947E+02  0.96007066416E+02  0.91496118912E+02 0.  0.
         11    1    3    3    0    0  0.13470436638E+02 -0.86465985973E+01 -0.59015936939E+02  0.61148157320E+02  0.51100000000E-03 0. -1.
         22    1    1    0    0    0 -0.13872308279E+01  0.11936555563E+02  0.26484169947E+02  0.29082933584E+02  0.00000000000E+00 0. -1.
</event>
<event>
 5    1  0.1043455E-009  0.9118800E+02  0.7561462E-02  0.1125453E+00
         25   -1    0    0    0    0  0.00000000000E+00  0.00000000000E+00  0.99999998245E-14  0.12509000000E+03  0.12509000000E+03 0.  0.
        -11    1    3    3    0    0  0.39205925744E+01 -0.30302788750E+02 -0.37668621110E+02  0.48503144937E+02  0.51100000000E-03 0. -1.
         23    2    1    0    0    0 -0.16055994264E+02 -0.24957597670E+02  0.41206507903E+01  0.95129085524E+02  0.90287798270E+02 0.  0.
         11    1    3    3    0    0 -0.19976586838E+02  0.53451910800E+01  0.41789271901E+02  0.46625940587E+02  0.51100000000E-03 0.  1.
         22    1    1    0    0    0  0.16055994264E+02  0.24957597670E+02 -0.41206507903E+01  0.29960914476E+02  0.00000000000E+00 0.  1.
</event>
<event>
 5    1  0.1043455E-009  0.9118800E+02  0.7561462E-02  0.1125453E+00
         25   -1    0    0    0    0  0.00000000000E+00  0.00000000000E+00  0.99999998245E-14  0.12509000000E+03  0.12509000000E+03 0.  0.
        -11    1    3    3    0    0  0.74240688032E+01  0.42040844233E+02 -0.13040745101E+02  0.44638665016E+02  0.51100000000E-03 0. -1.
         23    2    1    0    0    0  0.13336011402E+02 -0.97840564450E+01 -0.22002446757E+02  0.97563928288E+02  0.93600403199E+02 0.  0.
         11    1    3    3    0    0  0.59119425985E+01 -0.51824900678E+02 -0.89617016557E+01  0.52925263272E+02  0.51100000000E-03 0.  1.
         22    1    1    0    0    0 -0.13336011402E+02  0.97840564450E+01  0.22002446757E+02  0.27526071712E+02  0.00000000000E+00 0. -1.
</event>
<event>
 5    1  0.1043455E-009  0.9118800E+02  0.7561462E-02  0.1125453E+00
         25   -1    0    0    0    0  0.00000000000E+00  0.00000000000E+00  0.99999998245E-14  0.12509000000E+03  0.12509000000E+03 0.  0.
        -11    1    3    3    0    0  0.34286167148E+01 -0.12909387728E+02  0.32070069238E+02  0.34740423792E+02  0.51100000000E-03 0. -1.
         23    2    1    0    0    0  0.14303740153E+02 -0.73280857780E+01 -0.26240733840E+02  0.94318683226E+02  0.89157950119E+02 0.  0.
         11    1    3    3    0    0  0.10875123438E+02  0.55813019501E+01 -0.58310803078E+02  0.59578259434E+02  0.51100000000E-03 0.  1.
         22    1    1    0    0    0 -0.14303740153E+02  0.73280857780E+01  0.26240733840E+02  0.30771316774E+02  0.00000000000E+00 0.  1.
</event>
<event>
 5    1  0.1043455E-009  0.9118800E+02  0.7561462E-02  0.1125453E+00
         25   -1    0    0    0    0  0.00000000000E+00  0.00000000000E+00  0.99999998245E-14  0.12509000000E+03  0.12509000000E+03 0.  0.
        -11    1    3    3    0    0 -0.13963258741E+02 -0.34417823996E+02  0.78399858270E+01  0.37960829566E+02  0.51100000000E-03 0. -1.
         23    2    1    0    0    0 -0.94934043867E+00  0.10456520340E+02 -0.26919338182E+02  0.96195522447E+02  0.91753407053E+02 0.  0.
         11    1    3    3    0    0  0.13013918302E+02  0.44874344336E+02 -0.34759324009E+02  0.58234692882E+02  0.51100000000E-03 0.  1.
         22    1    1    0    0    0  0.94934043867E+00 -0.10456520340E+02  0.26919338182E+02  0.28894477553E+02  0.00000000000E+00 0.  1.
</event>
<event>
 5    1  0.1043455E-009  0.9118800E+02  0.7561462E-02  0.1125453E+00
         25   -1    0    0    0    0  0.00000000000E+00  0.00000000000E+00  0.99999998245E-14  0.12509000000E+03  0.12509000000E+03 0.  0.
        -11    1    3    3    0    0 -0.34717645461E+02 -0.43904990219E+02  0.15539823572E+02  0.58090009377E+02  0.51100000000E-03 0. -1.
         23    2    1    0    0    0 -0.21084737716E+02 -0.27164413191E+02 -0.77428726023E+01  0.89841970485E+02  0.82638708097E+02 0.  0.
         11    1    3    3    0    0  0.13632907745E+02  0.16740577028E+02 -0.23282696174E+02  0.31751961108E+02  0.51100000000E-03 0.  1.
         22    1    1    0    0    0  0.21084737716E+02  0.27164413191E+02  0.77428726023E+01  0.35248029515E+02  0.00000000000E+00 0. -1.
</event>
<event>
 5    1  0.1043455E-009  0.9118800E+02  0.7561462E-02  0.1125453E+00
         25   -1    0    0    0    0  0.00000000000E+00  0.00000000000E+00  0.99999998245E-14  0.12509000000E+03  0.12509000000E+03 0.  0.
        -11    1    3    3    0    0  0.37200393387E+02 -0.85064705850E+01  0.33708393068E+02  0.50916451894E+02  0.51100000000E-03 0.  1.
         23    2    1    0    0    0  0.69172106347E+01 -0.27585522853E+02  0.63937315842E+01  0.95940580150E+02  0.91405176232E+02 0.  0.
         11    1    3    3    0    0 -0.30283182752E+02 -0.19079052268E+02 -0.27314661483E+02  0.45024128256E+02  0.51100000000E-03 0. -1.
         22    1    1    0    0    0 -0.69172106347E+01  0.27585522853E+02 -0.63937315842E+01  0.29149419850E+02  0.00000000000E+00 0.  1.
</event>
<event>
 5    1  0.1043455E-009  0.9118800E+02  0.7561462E-02  0.1125453E+00
         25   -1    0    0    0    0  0.00000000000E+00  0.00000000000E+00  0.99999998245E-14  0.12509000000E+03  0.12509000000E+03 0.  0.
        -11    1    3    3    0    0 -0.36574928824E+02  0.40032021105E+02  0.10724429022E+02  0.55274781866E+02  0.51100000000E-03 0.  1.
         23    2    1    0    0    0  0.95944126099E+00  0.30016627997E+02  0.27502376579E+01  0.94932375906E+02  0.90014852686E+02 0.  0.
         11    1    3    3    0    0  0.37534370085E+02 -0.10015393108E+02 -0.79741913643E+01  0.39657594039E+02  0.51100000000E-03 0. -1.
         22    1    1    0    0    0 -0.95944126099E+00 -0.30016627997E+02 -0.27502376579E+01  0.30157624094E+02  0.00000000000E+00 0.  1.
</event>
<event>
 5    1  0.1043455E-009  0.9118800E+02  0.7561462E-02  0.1125453E+00
         25   -1    0    0    0    0  0.00000000000E+00  0.00000000000E+00  0.99999998245E-14  0.12509000000E+03  0.12509000000E+03 0.  0.
        -11    1    3    3    0    0 -0.16664508231E+02 -0.37422003640E+02 -0.22845052275E+02  0.46904249325E+02  0.51100000000E-03 0.  1.
         23    2    1    0    0    0 -0.24976315371E+02  0.60943917501E+01  0.45331950018E+01  0.98984295695E+02  0.95479751764E+02 0.  0.
         11    1    3    3    0    0 -0.83118071402E+01  0.43516395391E+02  0.27378247276E+02  0.52080046370E+02  0.51100000000E-03 0. -1.
         22    1    1    0    0    0  0.24976315371E+02 -0.60943917501E+01 -0.45331950018E+01  0.26105704305E+02  0.00000000000E+00 0. -1.
</event>
<event>
 5    1  0.1043455E-009  0.9118800E+02  0.7561462E-02  0.1125453E+00
         25   -1    0    0    0    0  0.00000000000E+00  0.00000000000E+00  0.99999998245E-14  0.12509000000E+03  0.12509000000E+03 0.  0.
        -11    1    3    3    0    0  0.15805948944E+02  0.25049760195E+02 -0.26170131410E+02  0.39524603554E+02  0.51100000000E-03 0.  1.
         23    2    1    0    0    0 -0.24367899525E+02 -0.10651391719E+02 -0.15468030256E+02  0.94324652077E+02  0.89166324117E+02 0.  0.
         11    1    3    3    0    0 -0.40173848469E+02 -0.35701151914E+02  0.10702101153E+02  0.54800048523E+02  0.51100000000E-03 0. -1.
         22    1    1    0    0    0  0.24367899525E+02  0.10651391719E+02  0.15468030256E+02  0.30765347923E+02  0.00000000000E+00 0. -1.
</event>
<event>
 5    1  0.1043455E-009  0.9118800E+02  0.7561462E-02  0.1125453E+00
         25   -1    0    0    0    0  0.00000000000E+00  0.00000000000E+00  0.99999998245E-14  0.12509000000E+03  0.12509000000E+03 0.  0.
        -11    1    3    3    0    0  0.10283199744E+01 -0.23952033507E+02 -0.26833285123E+02  0.35983086886E+02  0.51100000000E-03 0.  1.
         23    2    1    0    0    0 -0.21676760529E+01 -0.93788910926E+00  0.28758249529E+02  0.96234924685E+02  0.91807109517E+02 0.  0.
         11    1    3    3    0    0 -0.31959960274E+01  0.23014144398E+02  0.55591534652E+02  0.60251837799E+02  0.51100000000E-03 0. -1.
         22    1    1    0    0    0  0.21676760529E+01  0.93788910926E+00 -0.28758249529E+02  0.28855075315E+02  0.00000000000E+00 0. -1.
</event>
<event>
 5    1  0.1043455E-009  0.9118800E+02  0.7561462E-02  0.1125453E+00
         25   -1    0    0    0    0  0.00000000000E+00  0.00000000000E+00  0.99999998245E-14  0.12509000000E+03  0.12509000000E+03 0.  0.
        -11    1    3    3    0    0  0.57763054953E+01 -0.17467965299E+02 -0.39551406893E+02  0.43621202463E+02  0.51100000000E-03 0.  1.
         23    2    1    0    0    0 -0.33815932586E+01 -0.26313388861E+02  0.11455093888E+02  0.96192789369E+02  0.91749680895E+02 0.  0.
         11    1    3    3    0    0 -0.91578987539E+01 -0.88454235617E+01  0.51006500781E+02  0.52571586905E+02  0.51100000000E-03 0. -1.
         22    1    1    0    0    0  0.33815932586E+01  0.26313388861E+02 -0.11455093888E+02  0.28897210631E+02  0.00000000000E+00 0. -1.
</event>
<event>
 5    1  0.1043455E-009  0.9118800E+02  0.7561462E-02  0.1125453E+00
         25   -1    0    0    0    0  0.00000000000E+00  0.00000000000E+00  0.99999998245E-14  0.12509000000E+03  0.12509000000E+03 0.  0.
        -11    1    3    3    0    0  0.26417046816E+01 -0.19287850281E+02  0.57582210165E+02  0.60784131974E+02  0.51100000000E-03 0.  1.
         23    2    1    0    0    0  0.69188017830E+01 -0.16690463067E+02  0.22442151432E+02  0.96278690825E+02  0.91866722868E+02 0.  0.
         11    1    3    3    0    0  0.42770971014E+01  0.25973872134E+01 -0.35140058733E+02  0.35494558851E+02  0.51100000000E-03 0. -1.
         22    1    1    0    0    0 -0.69188017830E+01  0.16690463067E+02 -0.22442151432E+02  0.28811309175E+02  0.00000000000E+00 0.  1.
</event>
<event>
 5    1  0.1043455E-009  0.9118800E+02  0.7561462E-02  0.1125453E+00
         25   -1    0    0    0    0  0.00000000000E+00  0.00000000000E+00  0.99999998245E-14  0.12509000000E+03  0.12509000000E+03 0.  0.
        -11    1    3    3    0    0  0.41714339207E+02 -0.16680891200E+02 -0.62090165332E+01  0.45352950437E+02  0.51100000000E-03 0.  1.
         23    2    1    0    0    0  0.87694943441E+01  0.24709069904E+02  0.15763535574E+01  0.98823537407E+02  0.95268906200E+02 0.  0.
         11    1    3    3    0    0 -0.32944844863E+02  0.41389961104E+02  0.77853700906E+01  0.53470586971E+02  0.51100000000E-03 0. -1.
         22    1    1    0    0    0 -0.87694943441E+01 -0.24709069904E+02 -0.15763535574E+01  0.26266462593E+02  0.00000000000E+00 0.  1.
</event>
<event>
 5    1  0.1043455E-009  0.9118800E+02  0.7561462E-02  0.1125453E+00
         25   -1    0    0    0    0  0.00000000000E+00  0.00000000000E+00  0.99999998245E-14  0.12509000000E+03  0.12509000000E+03 0.  0.
        -11    1    3    3    0    0 -0.26248795076E+02  0.29551898240E+02 -0.64180817350E+01  0.40043797347E+02  0.51100000000E-03 0.  1.
         23    2    1    0    0    0  0.10950374180E+02  0.20813880668E+00  0.25612097970E+02  0.97234415661E+02  0.93158993179E+02 0.  0.
         11    1    3    3    0    0  0.37199169256E+02 -0.29343759433E+02  0.32030179705E+02  0.57190618314E+02  0.51100000000E-03 0. -1.
         22    1    1    0    0    0 -0.10950374180E+02 -0.20813880668E+00 -0.25612097970E+02  0.27855584339E+02  0.00000000000E+00 0. -1.
</event>
<event>
 5    1  0.1043455E-009  0.9118800E+02  0.7561462E-02  0.1125453E+00
         25   -1    0    0    0    0  0.00000000000E+00  0.00000000000E+00  0.99999998245E-14  0.12509000000E+03  0.12509000000E+03 0.  0.
        -11    1    3    3    0    0  0.12822378825E+02  0.31557360201E+02 -0.90938562699E+01  0.35255901686E+02  0.51100000000E-03 0. -1.
         23    2    1    0    0    0 -0.16066115513E+02 -0.21048047047E+02 -0.13376276460E+02  0.95424108405E+02  0.90695619193E+02 0.  0.
         11    1    3    3    0    0 -0.28888494339E+02 -0.52605407248E+02 -0.42824201902E+01  0.60168206719E+02  0.51100000000E-03 0.  1.
         22    1    1    0    0    0  0.16066115513E+02  0.21048047047E+02  0.13376276460E+02  0.29665891595E+02  0.00000000000E+00 0.  1.
</event>
<event>
 5    1  0.1043455E-009  0.9118800E+02  0.7561462E-02  0.1125453E+00
         25   -1    0    0    0    0  0.00000000000E+00  0.00000000000E+00  0.99999998245E-14  0.12509000000E+03  0.12509000000E+03 0.  0.
        -11    1    3    3    0    0  0.12113410969E+02 -0.50947526486E+02  0.10064586721E+02  0.53326176373E+02  0.51100000000E-03 0. -1.
         23    2    1    0    0    0  0.25292373227E+02 -0.86536610658E+01  0.46754788063E+01  0.97952385967E+02  0.94118116329E+02 0.  0.
         11    1    3    3    0    0  0.13178962258E+02  0.42293865421E+02 -0.53891079151E+01  0.44626209595E+02  0.51100000000E-03 0.  1.
         22    1    1    0    0    0 -0.25292373227E+02  0.86536610658E+01 -0.46754788063E+01  0.27137614033E+02  0.00000000000E+00 0.  1.
</event>
<event>
 5    1  0.1043455E-009  0.9118800E+02  0.7561462E-02  0.1125453E+00
         25   -1    0    0    0    0  0.00000000000E+00  0.00000000000E+00  0.99999998245E-14  0.12509000000E+03  0.12509000000E+03 0.  0.
        -11    1    3    3    0    0  0.32709270244E+02 -0.27875862135E+02 -0.37749040421E+02  0.57200962427E+02  0.51100000000E-03 0. -1.
         23    2    1    0    0    0  0.10646510125E+01 -0.24575995484E+02 -0.17128087460E+02  0.95115270379E+02  0.90268655930E+02 0.  0.
         11    1    3    3    0    0 -0.31644619231E+02  0.32998666506E+01  0.20620952961E+02  0.37914307952E+02  0.51100000000E-03 0.  1.
         22    1    1    0    0    0 -0.10646510125E+01  0.24575995484E+02  0.17128087460E+02  0.29974729621E+02  0.00000000000E+00 0. -1.
</event>
<event>
 5    1  0.1043455E-009  0.9118800E+02  0.7561462E-02  0.1125453E+00
         25   -1    0    0    0    0  0.00000000000E+00  0.00000000000E+00  0.99999998245E-14  0.12509000000E+03  0.12509000000E+03 0.  0.
        -11    1    3    3    0    0  0.51348408517E+01 -0.26304570345E+02  0.28835811852E+02  0.39367512711E+02  0.51100000000E-03 0.  1.
         23    2    1    0    0    0 -0.21444797676E+02  0.18546756806E+02  0.70338901944E+01  0.95878064997E+02  0.91319582790E+02 0.  0.
         11    1    3    3    0    0 -0.26579638527E+02  0.44851327151E+02 -0.21801921658E+02  0.56510552286E+02  0.51100000000E-03 0. -1.
         22    1    1    0    0    0  0.21444797676E+02 -0.18546756806E+02 -0.70338901944E+01  0.29211935003E+02  0.00000000000E+00 0. -1.
</event>
<event>
 5    1  0.1043455E-009  0.9118800E+02  0.7561462E-02  0.1125453E+00
         25   -1    0    0    0    0  0.00000000000E+00  0.00000000000E+00  0.99999998245E-14  0.12509000000E+03  0.12509000000E+03 0.  0.
        -11    1    3    3    0    0  0.25369823740E+02 -0.31255745309E+02  0.44135010408E+02  0.59736494000E+02  0.51100000000E-03 0.  1.
         23    2    1    0    0    0  0.38989617701E+01 -0.60257503790E+01  0.27230746196E+02  0.96929298501E+02  0.92748389738E+02 0.  0.
         11    1    3    3    0    0 -0.21470861970E+02  0.25229994930E+02 -0.16904264212E+02  0.37192804502E+02  0.51100000000E-03 0. -1.
         22    1    1    0    0    0 -0.38989617701E+01  0.60257503790E+01 -0.27230746196E+02  0.28160701499E+02  0.00000000000E+00 0.  1.
</event>
<event>
 5    1  0.1043455E-009  0.9118800E+02  0.7561462E-02  0.1125453E+00
         25   -1    0    0    0    0  0.00000000000E+00  0.00000000000E+00  0.99999998245E-14  0.12509000000E+03  0.12509000000E+03 0.  0.
        -11    1    3    3    0    0 -0.21349240901E+02 -0.25169128601E+02  0.40008016542E+01  0.33245774704E+02  0.51100000000E-03 0. -1.
         23    2    1    0    0    0  0.23982672130E+02  0.11281019233E+02 -0.15244023167E+02  0.94515334020E+02  0.89433428679E+02 0.  0.
         11    1    3    3    0    0  0.45331913031E+02  0.36450147833E+02 -0.19244824821E+02  0.61269559316E+02  0.51100000000E-03 0.  1.
         22    1    1    0    0    0 -0.23982672130E+02 -0.11281019233E+02  0.15244023167E+02  0.30574665980E+02  0.00000000000E+00 0.  1.
</event>
<event>
 5    1  0.1043455E-009  0.9118800E+02  0.7561462E-02  0.1125453E+00
         25   -1    0    0    0    0  0.00000000000E+00  0.00000000000E+00  0.99999998245E-14  0.12509000000E+03  0.12509000000E+03 0.  0.
        -11    1    3    3    0    0  0.37252018809E+02  0.33584130919E+02  0.19527261491E+02  0.53823049863E+02  0.51100000000E-03 0.  1.
         23    2    1    0    0    0  0.27500520947E+02  0.18123115427E+02 -0.11809542099E+02  0.90101555483E+02  0.83030711492E+02 0.  0.
         11    1    3    3    0    0 -0.97514978624E+01 -0.15461015492E+02 -0.31336803589E+02  0.36278505621E+02  0.51100000000E-03 0. -1.
         22    1    1    0    0    0 -0.27500520947E+02 -0.18123115427E+02  0.11809542099E+02  0.34988444517E+02  0.00000000000E+00 0.  1.
</event>
<event>
 5    1  0.1043455E-009  0.9118800E+02  0.7561462E-02  0.1125453E+00
         25   -1    0    0    0    0  0.00000000000E+00  0.00000000000E+00  0.99999998245E-14  0.12509000000E+03  0.12509000000E+03 0.  0.
        -11    1    3    3    0    0 -0.42495498927E+02 -0.29401328716E+01  0.43453891133E+02  0.60850246221E+02  0.51100000000E-03 0. -1.
         23    2    1    0    0    0 -0.18728102718E+02  0.86972732989E+01  0.21997747714E+02  0.94919065332E+02  0.89996353619E+02 0.  0.
         11    1    3    3    0    0  0.23767396209E+02  0.11637406171E+02 -0.21456143418E+02  0.34068819110E+02  0.51100000000E-03 0.  1.
         22    1    1    0    0    0  0.18728102718E+02 -0.86972732989E+01 -0.21997747714E+02  0.30170934668E+02  0.00000000000E+00 0. -1.
</event>
<event>
 5    1  0.1043455E-009  0.9118800E+02  0.7561462E-02  0.1125453E+00
         25   -1    0    0    0    0  0.00000000000E+00  0.00000000000E+00  0.99999998245E-14  0.12509000000E+03  0.12509000000E+03 0.  0.
        -11    1    3    3    0    0  0.32334105136E+02 -0.72429263006E+01 -0.35464719565E+02  0.48535560885E+02  0.51100000000E-03 0.  1.
         23    2    1    0    0    0  0.27885769449E+02  0.10156588061E+02  0.69617827412E+01  0.94606580937E+02  0.89560964258E+02 0.  0.
         11    1    3    3    0    0 -0.44483356863E+01  0.17399514361E+02  0.42426502307E+02  0.46071020052E+02  0.51100000000E-03 0. -1.
         22    1    1    0    0    0 -0.27885769449E+02 -0.10156588061E+02 -0.69617827412E+01  0.30483419063E+02  0.00000000000E+00 0.  1.
</event>
<event>
 5    1  0.1043455E-009  0.9118800E+02  0.7561462E-02  0.1125453E+00
         25   -1    0    0    0    0  0.00000000000E+00  0.00000000000E+00  0.99999998245E-14  0.12509000000E+03  0.12509000000E+03 0.  0.
        -11    1    3    3    0    0  0.39536485098E+02 -0.23613859988E+00 -0.74132939769E+01  0.40226189768E+02  0.51100000000E-03 0.  1.
         23    2    1    0    0    0 -0.99770398042E+01 -0.26617943549E+02 -0.31002893928E+01  0.96495104716E+02  0.92160930973E+02 0.  0.
         11    1    3    3    0    0 -0.49513524902E+02 -0.26381804949E+02  0.43130045842E+01  0.56268914948E+02  0.51100000000E-03 0. -1.
         22    1    1    0    0    0  0.99770398042E+01  0.26617943549E+02  0.31002893928E+01  0.28594895284E+02  0.00000000000E+00 0. -1.
</event>
<event>
 5    1  0.1043455E-009  0.9118800E+02  0.7561462E-02  0.1125453E+00
         25   -1    0    0    0    0  0.00000000000E+00  0.00000000000E+00  0.99999998245E-14  0.12509000000E+03  0.12509000000E+03 0.  0.
        -11    1    3    3    0    0 -0.22960568407E+02 -0.18263337239E+02 -0.51630049561E+02  0.59383492711E+02  0.51100000000E-03 0.  1.
         23    2    1    0    0    0 -0.49646417636E+01 -0.20460219741E+02 -0.18909356498E+02  0.96791024350E+02  0.92561711154E+02 0.  0.
         11    1    3    3    0    0  0.17995926643E+02 -0.21968825021E+01  0.32720693063E+02  0.37407531638E+02  0.51100000000E-03 0. -1.
         22    1    1    0    0    0  0.49646417636E+01  0.20460219741E+02  0.18909356498E+02  0.28298975650E+02  0.00000000000E+00 0.  1.
</event>
<event>
 5    1  0.1043455E-009  0.9118800E+02  0.7561462E-02  0.1125453E+00
         25   -1    0    0    0    0  0.00000000000E+00  0.00000000000E+00  0.99999998245E-14  0.12509000000E+03  0.12509000000E+03 0.  0.
        -11    1    3    3    0    0  0.91544714210E+01  0.23866428668E+02 -0.35219090405E+02  0.43517756072E+02  0.51100000000E-03 0. -1.
         23    2    1    0    0    0  0.90489329945E+01  0.16453674842E+02  0.19079429649E+02  0.98320031007E+02  0.94605482174E+02 0.  0.
         11    1    3    3    0    0 -0.10553842650E+00 -0.74127538256E+01  0.54298520055E+02  0.54802274935E+02  0.51100000000E-03 0.  1.
         22    1    1    0    0    0 -0.90489329945E+01 -0.16453674842E+02 -0.19079429649E+02  0.26769968993E+02  0.00000000000E+00 0.  1.
</event>
<event>
 4    1  0.1043455E-009  0.9118800E+02  0.7561462E-02  0.1125453E+00
         25   -1    0    0    0    0  0.00000000000E+00  0.00000000000E+00  0.99999998245E-14  0.12509000000E+03  0.12509000000E+03 0.  0.
        -11    1    1    0    0    0  0.11677110315E+02 -0.62105190586E+01  0.22495888696E+02  0.26095793929E+02  0.51100000000E-03 0.  1.
         11    1    1    0    0    0  0.40880989339E+02  0.83703731126E+01 -0.20150134499E+02  0.46339468663E+02  0.51100000000E-03 0. -1.
         22    1    1    0    0    0 -0.52558099654E+02 -0.21598540539E+01 -0.23457541976E+01  0.52654737408E+02  0.00000000000E+00 0. -1.
</event>
<event>
 5    1  0.1043455E-009  0.9118800E+02  0.7561462E-02  0.1125453E+00
         25   -1    0    0    0    0  0.00000000000E+00  0.00000000000E+00  0.99999998245E-14  0.12509000000E+03  0.12509000000E+03 0.  0.
        -11    1    3    3    0    0 -0.12612973100E+02 -0.40616069049E+02 -0.13675652407E+02  0.44674104630E+02  0.51100000000E-03 0. -1.
         23    2    1    0    0    0 -0.21086007028E+02  0.89523442923E+01 -0.19114820184E+02  0.95254777337E+02  0.90461771452E+02 0.  0.
         11    1    3    3    0    0 -0.84730339274E+01  0.49568413342E+02 -0.54391677768E+01  0.50580672707E+02  0.51100000000E-03 0.  1.
         22    1    1    0    0    0  0.21086007028E+02 -0.89523442923E+01  0.19114820184E+02  0.29835222663E+02  0.00000000000E+00 0.  1.
</event>
<event>
 5    1  0.1043455E-009  0.9118800E+02  0.7561462E-02  0.1125453E+00
         25   -1    0    0    0    0  0.00000000000E+00  0.00000000000E+00  0.99999998245E-14  0.12509000000E+03  0.12509000000E+03 0.  0.
        -11    1    3    3    0    0  0.58813441498E+02  0.10090252585E+02  0.18209983961E+02  0.62389403060E+02  0.51100000000E-03 0. -1.
         23    2    1    0    0    0  0.26015940116E+02  0.75762841577E+01  0.87232275572E+01  0.96623810919E+02  0.92335458605E+02 0.  0.
         11    1    3    3    0    0 -0.32797501382E+02 -0.25139684271E+01 -0.94867564035E+01  0.34234407859E+02  0.51100000000E-03 0.  1.
         22    1    1    0    0    0 -0.26015940116E+02 -0.75762841577E+01 -0.87232275572E+01  0.28466189081E+02  0.00000000000E+00 0. -1.
</event>
<event>
 5    1  0.1043455E-009  0.9118800E+02  0.7561462E-02  0.1125453E+00
         25   -1    0    0    0    0  0.00000000000E+00  0.00000000000E+00  0.99999998245E-14  0.12509000000E+03  0.12509000000E+03 0.  0.
        -11    1    3    3    0    0 -0.60273556475E+02  0.69729263282E+00 -0.14900024532E+01  0.60296002643E+02  0.51100000000E-03 0. -1.
         23    2    1    0    0    0 -0.26188614739E+02 -0.37674955738E+01 -0.11705788025E+02  0.96157958279E+02  0.91702180466E+02 0.  0.
         11    1    3    3    0    0  0.34084941736E+02 -0.44647882066E+01 -0.10215785572E+02  0.35861955636E+02  0.51100000000E-03 0.  1.
         22    1    1    0    0    0  0.26188614739E+02  0.37674955738E+01  0.11705788025E+02  0.28932041721E+02  0.00000000000E+00 0. -1.
</event>
<event>
 5    1  0.1043455E-009  0.9118800E+02  0.7561462E-02  0.1125453E+00
         25   -1    0    0    0    0  0.00000000000E+00  0.00000000000E+00  0.99999998245E-14  0.12509000000E+03  0.12509000000E+03 0.  0.
        -11    1    3    3    0    0  0.49835628145E+02 -0.34530763615E+02 -0.10449707072E+02  0.61523652741E+02  0.51100000000E-03 0. -1.
         23    2    1    0    0    0  0.20482018476E+02 -0.21499890066E+02  0.30949322866E+00  0.95393970977E+02  0.90654043257E+02 0.  0.
         11    1    3    3    0    0 -0.29353609669E+02  0.13030873549E+02  0.10759200301E+02  0.33870318236E+02  0.51100000000E-03 0.  1.
         22    1    1    0    0    0 -0.20482018476E+02  0.21499890066E+02 -0.30949322866E+00  0.29696029023E+02  0.00000000000E+00 0. -1.
</event>
<event>
 5    1  0.1043455E-009  0.9118800E+02  0.7561462E-02  0.1125453E+00
         25   -1    0    0    0    0  0.00000000000E+00  0.00000000000E+00  0.99999998245E-14  0.12509000000E+03  0.12509000000E+03 0.  0.
        -11    1    3    3    0    0  0.24379763215E+02 -0.14393825206E+02 -0.44833179766E+02  0.53024230939E+02  0.51100000000E-03 0. -1.
         23    2    1    0    0    0  0.23547729462E+02  0.12910201849E+02 -0.12164609524E+02  0.95608707635E+02  0.90949867379E+02 0.  0.
         11    1    3    3    0    0 -0.83203375239E+00  0.27304027055E+02  0.32668570242E+02  0.42584476696E+02  0.51100000000E-03 0.  1.
         22    1    1    0    0    0 -0.23547729462E+02 -0.12910201849E+02  0.12164609524E+02  0.29481292365E+02  0.00000000000E+00 0. -1.
</event>
<event>
 5    1  0.1043455E-009  0.9118800E+02  0.7561462E-02  0.1125453E+00
         25   -1    0    0    0    0  0.00000000000E+00  0.00000000000E+00  0.99999998245E-14  0.12509000000E+03  0.12509000000E+03 0.  0.
        -11    1    3    3    0    0 -0.24822712239E+02 -0.22482314653E+02  0.18404298416E+02  0.38214391471E+02  0.51100000000E-03 0.  1.
         23    2    1    0    0    0  0.17499785661E+02 -0.12875116634E+02 -0.19545745202E+02  0.95865912640E+02  0.91302934916E+02 0.  0.
         11    1    3    3    0    0  0.42322497901E+02  0.96071980181E+01 -0.37950043617E+02  0.57651521169E+02  0.51100000000E-03 0. -1.
         22    1    1    0    0    0 -0.17499785661E+02  0.12875116634E+02  0.19545745202E+02  0.29224087360E+02  0.00000000000E+00 0.  1.
</event>
<event>
 5    1  0.1043455E-009  0.9118800E+02  0.7561462E-02  0.1125453E+00
         25   -1    0    0    0    0  0.00000000000E+00  0.00000000000E+00  0.99999998245E-14  0.12509000000E+03  0.12509000000E+03 0.  0.
        -11    1    3    3    0    0  0.29772405914E+02  0.16241034647E+02  0.27547157071E+02  0.43692255873E+02  0.51100000000E-03 0. -1.
         23    2    1    0    0    0  0.15922203043E+02  0.11347174942E+02 -0.22167715214E+02  0.95531878836E+02  0.90844137660E+02 0.  0.
         11    1    3    3    0    0 -0.13850202871E+02 -0.48938597054E+01 -0.49714872285E+02  0.51839622963E+02  0.51100000000E-03 0.  1.
         22    1    1    0    0    0 -0.15922203043E+02 -0.11347174942E+02  0.22167715214E+02  0.29558121164E+02  0.00000000000E+00 0.  1.
</event>
<event>
 5    1  0.1043455E-009  0.9118800E+02  0.7561462E-02  0.1125453E+00
         25   -1    0    0    0    0  0.00000000000E+00  0.00000000000E+00  0.99999998245E-14  0.12509000000E+03  0.12509000000E+03 0.  0.
        -11    1    3    3    0    0 -0.28583463158E+02 -0.11897740013E+02  0.19502152208E+02  0.36591044322E+02  0.51100000000E-03 0.  1.
         23    2    1    0    0    0  0.28273158812E+02 -0.41720992812E+01  0.26797269493E+01  0.96385316442E+02  0.92011794720E+02 0.  0.
         11    1    3    3    0    0  0.56856621970E+02  0.77256407320E+01 -0.16822425259E+02  0.59794272121E+02  0.51100000000E-03 0. -1.
         22    1    1    0    0    0 -0.28273158812E+02  0.41720992812E+01 -0.26797269493E+01  0.28704683558E+02  0.00000000000E+00 0. -1.
</event>
<event>
 5    1  0.1043455E-009  0.9118800E+02  0.7561462E-02  0.1125453E+00
         25   -1    0    0    0    0  0.00000000000E+00  0.00000000000E+00  0.99999998245E-14  0.12509000000E+03  0.12509000000E+03 0.  0.
        -11    1    3    3    0    0  0.24405443936E+01  0.16375436008E+02 -0.52599834652E+02  0.55143936811E+02  0.51100000000E-03 0. -1.
         23    2    1    0    0    0  0.19663546123E+02 -0.33114285405E+01 -0.22121503831E+02  0.95307764744E+02  0.90535012474E+02 0.  0.
         11    1    3    3    0    0  0.17223001729E+02 -0.19686864548E+02  0.30478330821E+02  0.40163827933E+02  0.51100000000E-03 0.  1.
         22    1    1    0    0    0 -0.19663546123E+02  0.33114285405E+01  0.22121503831E+02  0.29782235256E+02  0.00000000000E+00 0.  1.
</event>
<event>
 5    1  0.1043455E-009  0.9118800E+02  0.7561462E-02  0.1125453E+00
         25   -1    0    0    0    0  0.00000000000E+00  0.00000000000E+00  0.99999998245E-14  0.12509000000E+03  0.12509000000E+03 0.  0.
        -11    1    3    3    0    0  0.33475741802E+02  0.48749658336E+02  0.13945193161E+02  0.60758726860E+02  0.51100000000E-03 0.  1.
         23    2    1    0    0    0  0.15733314369E+02  0.24935778017E+02 -0.38130988042E+01  0.95360049969E+02  0.90607224884E+02 0.  0.
         11    1    3    3    0    0 -0.17742427433E+02 -0.23813880319E+02 -0.17758291965E+02  0.34601323109E+02  0.51100000000E-03 0. -1.
         22    1    1    0    0    0 -0.15733314369E+02 -0.24935778017E+02  0.38130988042E+01  0.29729950031E+02  0.00000000000E+00 0.  1.
</event>
<event>
 5    1  0.1043455E-009  0.9118800E+02  0.7561462E-02  0.1125453E+00
         25   -1    0    0    0    0  0.00000000000E+00  0.00000000000E+00  0.99999998245E-14  0.12509000000E+03  0.12509000000E+03 0.  0.
        -11    1    3    3    0    0  0.52206513983E+01 -0.26466188502E+02 -0.55320677069E+02  0.61547474737E+02  0.51100000000E-03 0.  1.
         23    2    1    0    0    0  0.30896577709E+00 -0.56352136336E+01 -0.29358346721E+02  0.95194120438E+02  0.90377856532E+02 0.  0.
         11    1    3    3    0    0 -0.49116856212E+01  0.20830974868E+02  0.25962330348E+02  0.33646645701E+02  0.51100000000E-03 0. -1.
         22    1    1    0    0    0 -0.30896577709E+00  0.56352136336E+01  0.29358346721E+02  0.29895879562E+02  0.00000000000E+00 0.  1.
</event>
<event>
 5    1  0.1043455E-009  0.9118800E+02  0.7561462E-02  0.1125453E+00
         25   -1    0    0    0    0  0.00000000000E+00  0.00000000000E+00  0.99999998245E-14  0.12509000000E+03  0.12509000000E+03 0.  0.
        -11    1    3    3    0    0  0.38086466478E+02 -0.82078772279E+01  0.20088012443E+01  0.39012606425E+02  0.51100000000E-03 0. -1.
         23    2    1    0    0    0 -0.14015859473E+02 -0.27016278556E+02  0.36915593798E+01  0.94431375855E+02  0.89315919698E+02 0.  0.
         11    1    3    3    0    0 -0.52102325951E+02 -0.18808401328E+02  0.16827581356E+01  0.55418769431E+02  0.51100000000E-03 0.  1.
         22    1    1    0    0    0  0.14015859473E+02  0.27016278556E+02 -0.36915593798E+01  0.30658624145E+02  0.00000000000E+00 0. -1.
</event>
<event>
 5    1  0.1043455E-009  0.9118800E+02  0.7561462E-02  0.1125453E+00
         25   -1    0    0    0    0  0.00000000000E+00  0.00000000000E+00  0.99999998245E-14  0.12509000000E+03  0.12509000000E+03 0.  0.
        -11    1    3    3    0    0 -0.57763913498E+01 -0.50043819100E+02 -0.13347619010E+02  0.52114388230E+02  0.51100000000E-03 0.  1.
         23    2    1    0    0    0  0.22749056410E+02 -0.19655589754E+02 -0.53868627626E+01  0.94546914587E+02  0.89477589324E+02 0.  0.
         11    1    3    3    0    0  0.28525447760E+02  0.30388229346E+02  0.79607562476E+01  0.42432526356E+02  0.51100000000E-03 0. -1.
         22    1    1    0    0    0 -0.22749056410E+02  0.19655589754E+02  0.53868627626E+01  0.30543085413E+02  0.00000000000E+00 0.  1.
</event>
<event>
 5    1  0.1043455E-009  0.9118800E+02  0.7561462E-02  0.1125453E+00
         25   -1    0    0    0    0  0.00000000000E+00  0.00000000000E+00  0.99999998245E-14  0.12509000000E+03  0.12509000000E+03 0.  0.
        -11    1    3    3    0    0  0.21204898787E+02  0.46272454444E+02  0.26969152199E+02  0.57603150464E+02  0.51100000000E-03 0. -1.
         23    2    1    0    0    0 -0.51778211151E+01  0.26133592729E+02  0.35756418586E+01  0.98209529112E+02  0.94459260496E+02 0.  0.
         11    1    3    3    0    0 -0.26382719902E+02 -0.20138861715E+02 -0.23393510340E+02  0.40606378648E+02  0.51100000000E-03 0.  1.
         22    1    1    0    0    0  0.51778211151E+01 -0.26133592729E+02 -0.35756418586E+01  0.26880470888E+02  0.00000000000E+00 0. -1.
</event>
<event>
 5    1  0.1043455E-009  0.9118800E+02  0.7561462E-02  0.1125453E+00
         25   -1    0    0    0    0  0.00000000000E+00  0.00000000000E+00  0.99999998245E-14  0.12509000000E+03  0.12509000000E+03 0.  0.
        -11    1    3    3    0    0  0.23215253667E+02  0.40952307120E+02  0.17465589771E+01  0.47107217385E+02  0.51100000000E-03 0.  1.
         23    2    1    0    0    0 -0.20688607430E+02  0.15613344601E+02 -0.62568587225E+01  0.98426480201E+02  0.94746127713E+02 0.  0.
         11    1    3    3    0    0 -0.43903861097E+02 -0.25338962519E+02 -0.80034176996E+01  0.51319262815E+02  0.51100000000E-03 0. -1.
         22    1    1    0    0    0  0.20688607430E+02 -0.15613344601E+02  0.62568587225E+01  0.26663519799E+02  0.00000000000E+00 0.  1.
</event>
<event>
 5    1  0.1043455E-009  0.9118800E+02  0.7561462E-02  0.1125453E+00
         25   -1    0    0    0    0  0.00000000000E+00  0.00000000000E+00  0.99999998245E-14  0.12509000000E+03  0.12509000000E+03 0.  0.
        -11    1    3    3    0    0  0.13630169321E+02 -0.27459758259E+02 -0.49545567211E+02  0.58263050640E+02  0.51100000000E-03 0.  1.
         23    2    1    0    0    0 -0.21559371562E+01 -0.24396482303E+02 -0.14994497587E+02  0.96372908022E+02  0.91994923930E+02 0.  0.
         11    1    3    3    0    0 -0.15786106478E+02  0.30632759564E+01  0.34551069623E+02  0.38109857382E+02  0.51100000000E-03 0. -1.
         22    1    1    0    0    0  0.21559371562E+01  0.24396482303E+02  0.14994497587E+02  0.28717091978E+02  0.00000000000E+00 0.  1.
</event>
<event>
 5    1  0.1043455E-009  0.9118800E+02  0.7561462E-02  0.1125453E+00
         25   -1    0    0    0    0  0.00000000000E+00  0.00000000000E+00  0.99999998245E-14  0.12509000000E+03  0.12509000000E+03 0.  0.
        -11    1    3    3    0    0  0.29079457030E+02  0.17268281096E+02  0.21016151337E+02  0.39818173872E+02  0.51100000000E-03 0.  1.
         23    2    1    0    0    0  0.74696004226E+00  0.16257704083E+02 -0.25821368593E+02  0.94567648070E+02  0.89506570117E+02 0.  0.
         11    1    3    3    0    0 -0.28332496988E+02 -0.10105770135E+01 -0.46837519930E+02  0.54749474198E+02  0.51100000000E-03 0. -1.
         22    1    1    0    0    0 -0.74696004226E+00 -0.16257704083E+02  0.25821368593E+02  0.30522351930E+02  0.00000000000E+00 0. -1.
</event>
<event>
 5    1  0.1043455E-009  0.9118800E+02  0.7561462E-02  0.1125453E+00
         25   -1    0    0    0    0  0.00000000000E+00  0.00000000000E+00  0.99999998245E-14  0.12509000000E+03  0.12509000000E+03 0.  0.
        -11    1    3    3    0    0 -0.25853192181E+01  0.44321384595E+02 -0.43359121342E+02  0.62057089939E+02  0.51100000000E-03 0. -1.
         23    2    1    0    0    0 -0.65278259189E+01  0.21215202858E+02 -0.18870330163E+02  0.95956055811E+02  0.91426352562E+02 0.  0.
         11    1    3    3    0    0 -0.39425067007E+01 -0.23106181737E+02  0.24488791179E+02  0.33898965872E+02  0.51100000000E-03 0.  1.
         22    1    1    0    0    0  0.65278259189E+01 -0.21215202858E+02  0.18870330163E+02  0.29133944189E+02  0.00000000000E+00 0. -1.
</event>
<event>
 5    1  0.1043455E-009  0.9118800E+02  0.7561462E-02  0.1125453E+00
         25   -1    0    0    0    0  0.00000000000E+00  0.00000000000E+00  0.99999998245E-14  0.12509000000E+03  0.12509000000E+03 0.  0.
        -11    1    3    3    0    0 -0.19507735597E+02 -0.49215147927E+02  0.28958686359E+02  0.60343086178E+02  0.51100000000E-03 0. -1.
         23    2    1    0    0    0 -0.16783666710E+02 -0.17001584845E+02  0.20114588064E+02  0.93859533971E+02  0.88511412308E+02 0.  0.
         11    1    3    3    0    0  0.27240688876E+01  0.32213563082E+02 -0.88440982953E+01  0.33516447793E+02  0.51100000000E-03 0.  1.
         22    1    1    0    0    0  0.16783666710E+02  0.17001584845E+02 -0.20114588064E+02  0.31230466029E+02  0.00000000000E+00 0. -1.
</event>
<event>
 5    1  0.1043455E-009  0.9118800E+02  0.7561462E-02  0.1125453E+00
         25   -1    0    0    0    0  0.00000000000E+00  0.00000000000E+00  0.99999998245E-14  0.12509000000E+03  0.12509000000E+03 0.  0.
        -11    1    3    3    0    0 -0.30715343705E+02  0.62077627462E+01  0.48062556247E+02  0.57375761175E+02  0.51100000000E-03 0.  1.
         23    2    1    0    0    0 -0.93672626208E+01 -0.14556396666E+02  0.23031752748E+02  0.96278614620E+02  0.91866619104E+02 0.  0.
         11    1    3    3    0    0  0.21348081084E+02 -0.20764159412E+02 -0.25030803499E+02  0.38902853444E+02  0.51100000000E-03 0. -1.
         22    1    1    0    0    0  0.93672626208E+01  0.14556396666E+02 -0.23031752748E+02  0.28811385380E+02  0.00000000000E+00 0. -1.
</event>
<event>
 5    1  0.1043455E-009  0.9118800E+02  0.7561462E-02  0.1125453E+00
         25   -1    0    0    0    0  0.00000000000E+00  0.00000000000E+00  0.99999998245E-14  0.12509000000E+03  0.12509000000E+03 0.  0.
        -11    1    3    3    0    0  0.24647493054E+02  0.37400097904E+02 -0.17407568716E+02  0.48055069306E+02  0.51100000000E-03 0.  1.
         23    2    1    0    0    0  0.21283436455E+02 -0.98060582393E+01 -0.18249384096E+02  0.95388426550E+02  0.90646392396E+02 0.  0.
         11    1    3    3    0    0 -0.33640565998E+01 -0.47206156143E+02 -0.84181537959E+00  0.47333357245E+02  0.51100000000E-03 0. -1.
         22    1    1    0    0    0 -0.21283436455E+02  0.98060582393E+01  0.18249384096E+02  0.29701573450E+02  0.00000000000E+00 0. -1.
</event>
<event>
 5    1  0.1043455E-009  0.9118800E+02  0.7561462E-02  0.1125453E+00
         25   -1    0    0    0    0  0.00000000000E+00  0.00000000000E+00  0.99999998245E-14  0.12509000000E+03  0.12509000000E+03 0.  0.
        -11    1    3    3    0    0 -0.70582818290E+01 -0.43703201614E+02  0.83847683855E+01  0.45056559066E+02  0.51100000000E-03 0.  1.
         23    2    1    0    0    0  0.28540142683E+02 -0.10461497535E+02 -0.10810578320E+01  0.94673699089E+02  0.89654659322E+02 0.  0.
         11    1    3    3    0    0  0.35598424512E+02  0.33241704079E+02 -0.94658262175E+01  0.49617140023E+02  0.51100000000E-03 0. -1.
         22    1    1    0    0    0 -0.28540142683E+02  0.10461497535E+02  0.10810578320E+01  0.30416300911E+02  0.00000000000E+00 0. -1.
</event>
<event>
 5    1  0.1043455E-009  0.9118800E+02  0.7561462E-02  0.1125453E+00
         25   -1    0    0    0    0  0.00000000000E+00  0.00000000000E+00  0.99999998245E-14  0.12509000000E+03  0.12509000000E+03 0.  0.
        -11    1    3    3    0    0  0.53630603169E+02 -0.60506333299E+01 -0.71050458641E+01  0.54436508310E+02  0.51100000000E-03 0. -1.
         23    2    1    0    0    0  0.15769711834E+02  0.31662557644E+01 -0.23418257650E+02  0.96680076061E+02  0.92411651478E+02 0.  0.
         11    1    3    3    0    0 -0.37860891335E+02  0.92168890942E+01 -0.16313211786E+02  0.42243567751E+02  0.51100000000E-03 0.  1.
         22    1    1    0    0    0 -0.15769711834E+02 -0.31662557644E+01  0.23418257650E+02  0.28409923939E+02  0.00000000000E+00 0. -1.
</event>
<event>
 5    1  0.1043455E-009  0.9118800E+02  0.7561462E-02  0.1125453E+00
         25   -1    0    0    0    0  0.00000000000E+00  0.00000000000E+00  0.99999998245E-14  0.12509000000E+03  0.12509000000E+03 0.  0.
        -11    1    3    3    0    0  0.15561848822E+02  0.38239791661E+02 -0.11161987056E+02  0.42767309482E+02  0.51100000000E-03 0. -1.
         23    2    1    0    0    0  0.73860535415E+01  0.53155458549E+01  0.28624875447E+02  0.95053483740E+02  0.90182994307E+02 0.  0.
         11    1    3    3    0    0 -0.81757952805E+01 -0.32924245806E+02  0.39786862503E+02  0.52286174258E+02  0.51100000000E-03 0.  1.
         22    1    1    0    0    0 -0.73860535415E+01 -0.53155458549E+01 -0.28624875447E+02  0.30036516260E+02  0.00000000000E+00 0.  1.
</event>
<event>
 5    1  0.1043455E-009  0.9118800E+02  0.7561462E-02  0.1125453E+00
         25   -1    0    0    0    0  0.00000000000E+00  0.00000000000E+00  0.99999998245E-14  0.12509000000E+03  0.12509000000E+03 0.  0.
        -11    1    3    3    0    0  0.64517925594E+01 -0.30552368416E+02  0.53152961063E+02  0.61646655328E+02  0.51100000000E-03 0. -1.
         23    2    1    0    0    0  0.98713102742E+01 -0.15015075552E+02  0.21525620694E+02  0.97049892892E+02  0.92910893353E+02 0.  0.
         11    1    3    3    0    0  0.34195177148E+01  0.15537292864E+02 -0.31627340369E+02  0.35403237564E+02  0.51100000000E-03 0.  1.
         22    1    1    0    0    0 -0.98713102742E+01  0.15015075552E+02 -0.21525620694E+02  0.28040107108E+02  0.00000000000E+00 0. -1.
</event>
<event>
 5    1  0.1043455E-009  0.9118800E+02  0.7561462E-02  0.1125453E+00
         25   -1    0    0    0    0  0.00000000000E+00  0.00000000000E+00  0.99999998245E-14  0.12509000000E+03  0.12509000000E+03 0.  0.
        -11    1    3    3    0    0  0.72352271383E+01 -0.12756498860E+02  0.31651696817E+02  0.34884189636E+02  0.51100000000E-03 0.  1.
         23    2    1    0    0    0  0.30176937462E+01  0.20059756514E+02 -0.20245006109E+02  0.96430610974E+02  0.92073352028E+02 0.  0.
         11    1    3    3    0    0 -0.42175333921E+01  0.32816255374E+02 -0.51896702926E+02  0.61546421339E+02  0.51100000000E-03 0. -1.
         22    1    1    0    0    0 -0.30176937462E+01 -0.20059756514E+02  0.20245006109E+02  0.28659389026E+02  0.00000000000E+00 0. -1.
</event>
<event>
 5    1  0.1043455E-009  0.9118800E+02  0.7561462E-02  0.1125453E+00
         25   -1    0    0    0    0  0.00000000000E+00  0.00000000000E+00  0.99999998245E-14  0.12509000000E+03  0.12509000000E+03 0.  0.
        -11    1    3    3    0    0 -0.51035954733E+02  0.10267204598E+02 -0.14671720754E+02  0.54086445214E+02  0.51100000000E-03 0.  1.
         23    2    1    0    0    0 -0.20920640027E+02 -0.18262574689E+02 -0.31418203353E+01  0.97142444678E+02  0.93035416426E+02 0.  0.
         11    1    3    3    0    0  0.30115314705E+02 -0.28529779287E+02  0.11529900418E+02  0.43055999465E+02  0.51100000000E-03 0. -1.
         22    1    1    0    0    0  0.20920640027E+02  0.18262574689E+02  0.31418203353E+01  0.27947555322E+02  0.00000000000E+00 0.  1.
</event>
<event>
 5    1  0.1043455E-009  0.9118800E+02  0.7561462E-02  0.1125453E+00
         25   -1    0    0    0    0  0.00000000000E+00  0.00000000000E+00  0.99999998245E-14  0.12509000000E+03  0.12509000000E+03 0.  0.
        -11    1    3    3    0    0 -0.18651080830E+01  0.88629034030E+00  0.54989359909E+02  0.55028118650E+02  0.51100000000E-03 0. -1.
         23    2    1    0    0    0 -0.14149957631E+02  0.16204789041E+02  0.17463501900E+02  0.97380969208E+02  0.93355571748E+02 0.  0.
         11    1    3    3    0    0 -0.12284849548E+02  0.15318498700E+02 -0.37525858008E+02  0.42352850558E+02  0.51100000000E-03 0.  1.
         22    1    1    0    0    0  0.14149957631E+02 -0.16204789041E+02 -0.17463501900E+02  0.27709030792E+02  0.00000000000E+00 0.  1.
</event>
<event>
 5    1  0.1043455E-009  0.9118800E+02  0.7561462E-02  0.1125453E+00
         25   -1    0    0    0    0  0.00000000000E+00  0.00000000000E+00  0.99999998245E-14  0.12509000000E+03  0.12509000000E+03 0.  0.
        -11    1    3    3    0    0 -0.47552495155E+02  0.38478089436E+02 -0.59574421937E+01  0.61459696386E+02  0.51100000000E-03 0.  1.
         23    2    1    0    0    0 -0.24578829754E+02  0.14152018759E+02 -0.96705357613E+01  0.95124723946E+02  0.90281755283E+02 0.  0.
         11    1    3    3    0    0  0.22973665401E+02 -0.24326070677E+02 -0.37130935676E+01  0.33665027560E+02  0.51100000000E-03 0. -1.
         22    1    1    0    0    0  0.24578829754E+02 -0.14152018759E+02  0.96705357613E+01  0.29965276054E+02  0.00000000000E+00 0.  1.
</event>
<event>
 5    1  0.1043455E-009  0.9118800E+02  0.7561462E-02  0.1125453E+00
         25   -1    0    0    0    0  0.00000000000E+00  0.00000000000E+00  0.99999998245E-14  0.12509000000E+03  0.12509000000E+03 0.  0.
        -11    1    3    3    0    0  0.53965182312E+02  0.20183846644E+02  0.16696608062E+02  0.59986709264E+02  0.51100000000E-03 0.  1.
         23    2    1    0    0    0  0.23195023613E+02  0.17071015358E+02 -0.21602947351E+01  0.96209287420E+02  0.91772171309E+02 0.  0.
         11    1    3    3    0    0 -0.30770158698E+02 -0.31128312856E+01 -0.18856902797E+02  0.36222578156E+02  0.51100000000E-03 0. -1.
         22    1    1    0    0    0 -0.23195023613E+02 -0.17071015358E+02  0.21602947351E+01  0.28880712580E+02  0.00000000000E+00 0.  1.
</event>
<event>
 5    1  0.1043455E-009  0.9118800E+02  0.7561462E-02  0.1125453E+00
         25   -1    0    0    0    0  0.00000000000E+00  0.00000000000E+00  0.99999998245E-14  0.12509000000E+03  0.12509000000E+03 0.  0.
        -11    1    3    3    0    0  0.41529231303E+02  0.12374631897E+01 -0.39688633425E+02  0.57457775724E+02  0.51100000000E-03 0.  1.
         23    2    1    0    0    0  0.25679989679E+02  0.15833525048E+02 -0.33779379726E+02  0.79799726430E+02  0.65702263722E+02 0.  0.
         11    1    3    3    0    0 -0.15849241624E+02  0.14596061858E+02  0.59092536983E+01  0.22341950706E+02  0.51100000000E-03 0. -1.
         22    1    1    0    0    0 -0.25679989679E+02 -0.15833525048E+02  0.33779379726E+02  0.45290273570E+02  0.00000000000E+00 0.  1.
</event>
<event>
 5    1  0.1043455E-009  0.9118800E+02  0.7561462E-02  0.1125453E+00
         25   -1    0    0    0    0  0.00000000000E+00  0.00000000000E+00  0.99999998245E-14  0.12509000000E+03  0.12509000000E+03 0.  0.
        -11    1    3    3    0    0  0.77606398427E+01 -0.45871014442E+02 -0.35001028369E+02  0.58218978726E+02  0.51100000000E-03 0. -1.
         23    2    1    0    0    0  0.89465538236E+01 -0.40425981953E+02 -0.11861137420E+02  0.82020435072E+02  0.69802323359E+02 0.  0.
         11    1    3    3    0    0  0.11859139809E+01  0.54450324891E+01  0.23139890949E+02  0.23801456346E+02  0.51100000000E-03 0.  1.
         22    1    1    0    0    0 -0.89465538236E+01  0.40425981953E+02  0.11861137420E+02  0.43069564928E+02  0.00000000000E+00 0. -1.
</event>
<event>
 5    1  0.1043455E-009  0.9118800E+02  0.7561462E-02  0.1125453E+00
         25   -1    0    0    0    0  0.00000000000E+00  0.00000000000E+00  0.99999998245E-14  0.12509000000E+03  0.12509000000E+03 0.  0.
        -11    1    3    3    0    0  0.34419099580E+02  0.99891671571E+01 -0.15047579241E+02  0.38870136579E+02  0.51100000000E-03 0.  1.
         23    2    1    0    0    0 -0.18760849184E+02  0.23047888166E+02 -0.12302293679E+01  0.95346293518E+02  0.90588231092E+02 0.  0.
         11    1    3    3    0    0 -0.53179948763E+02  0.13058721009E+02  0.13817349873E+02  0.56476156939E+02  0.51100000000E-03 0. -1.
         22    1    1    0    0    0  0.18760849184E+02 -0.23047888166E+02  0.12302293679E+01  0.29743706482E+02  0.00000000000E+00 0. -1.
</event>
<event>
 5    1  0.1043455E-009  0.9118800E+02  0.7561462E-02  0.1125453E+00
         25   -1    0    0    0    0  0.00000000000E+00  0.00000000000E+00  0.99999998245E-14  0.12509000000E+03  0.12509000000E+03 0.  0.
        -11    1    3    3    0    0  0.48701610377E+01 -0.59802798513E+02  0.21789677715E+00  0.60001172137E+02  0.51100000000E-03 0. -1.
         23    2    1    0    0    0 -0.14153625366E+01 -0.27186641821E+02 -0.11927472509E+02  0.95368268135E+02  0.90618569962E+02 0.  0.
         11    1    3    3    0    0 -0.62855235743E+01  0.32616156692E+02 -0.12145369287E+02  0.35367095998E+02  0.51100000000E-03 0.  1.
         22    1    1    0    0    0  0.14153625366E+01  0.27186641821E+02  0.11927472509E+02  0.29721731865E+02  0.00000000000E+00 0. -1.
</event>
<event>
 5    1  0.1043455E-009  0.9118800E+02  0.7561462E-02  0.1125453E+00
         25   -1    0    0    0    0  0.00000000000E+00  0.00000000000E+00  0.99999998245E-14  0.12509000000E+03  0.12509000000E+03 0.  0.
        -11    1    3    3    0    0  0.42832385676E+02  0.15441079273E+01 -0.21269783172E+02  0.47847687598E+02  0.51100000000E-03 0.  1.
         23    2    1    0    0    0  0.17286242277E+02  0.62461585881E+01  0.20826420864E+02  0.97312878566E+02  0.93264290377E+02 0.  0.
         11    1    3    3    0    0 -0.25546143399E+02  0.47020506609E+01  0.42096204036E+02  0.49465190968E+02  0.51100000000E-03 0. -1.
         22    1    1    0    0    0 -0.17286242277E+02 -0.62461585881E+01 -0.20826420864E+02  0.27777121434E+02  0.00000000000E+00 0.  1.
</event>
<event>
 5    1  0.1043455E-009  0.9118800E+02  0.7561462E-02  0.1125453E+00
         25   -1    0    0    0    0  0.00000000000E+00  0.00000000000E+00  0.99999998245E-14  0.12509000000E+03  0.12509000000E+03 0.  0.
        -11    1    3    3    0    0 -0.42889383284E+02  0.29031666258E+02  0.57037215011E+01  0.52104407524E+02  0.51100000000E-03 0.  1.
         23    2    1    0    0    0 -0.25401231181E+02 -0.75598849872E+01 -0.11552967439E+02  0.96179007918E+02  0.91730889568E+02 0.  0.
         11    1    3    3    0    0  0.17488152103E+02 -0.36591551245E+02 -0.17256688940E+02  0.44074600394E+02  0.51100000000E-03 0. -1.
         22    1    1    0    0    0  0.25401231181E+02  0.75598849872E+01  0.11552967439E+02  0.28910992082E+02  0.00000000000E+00 0.  1.
</event>
<event>
 5    1  0.1043455E-009  0.9118800E+02  0.7561462E-02  0.1125453E+00
         25   -1    0    0    0    0  0.00000000000E+00  0.00000000000E+00  0.99999998245E-14  0.12509000000E+03  0.12509000000E+03 0.  0.
        -11    1    3    3    0    0 -0.38890307288E+02 -0.29747061445E+01  0.34729819734E+02  0.52225140082E+02  0.51100000000E-03 0. -1.
         23    2    1    0    0    0  0.41053813875E+01 -0.58236417610E+01  0.28439112513E+02  0.95771881366E+02  0.91174015926E+02 0.  0.
         11    1    3    3    0    0  0.42995688676E+02 -0.28489356164E+01 -0.62907072209E+01  0.43546741284E+02  0.51100000000E-03 0.  1.
         22    1    1    0    0    0 -0.41053813875E+01  0.58236417610E+01 -0.28439112513E+02  0.29318118634E+02  0.00000000000E+00 0. -1.
</event>
<event>
 5    1  0.1043455E-009  0.9118800E+02  0.7561462E-02  0.1125453E+00
         25   -1    0    0    0    0  0.00000000000E+00  0.00000000000E+00  0.99999998245E-14  0.12509000000E+03  0.12509000000E+03 0.  0.
        -11    1    3    3    0    0  0.21226031188E+02  0.26906530342E+02 -0.12506853976E+02  0.36481874564E+02  0.51100000000E-03 0. -1.
         23    2    1    0    0    0  0.76040713060E+00 -0.18940069216E+02  0.20967137807E+02  0.96824733174E+02  0.92607254822E+02 0.  0.
         11    1    3    3    0    0 -0.20465624058E+02 -0.45846599558E+02  0.33473991783E+02  0.60342858610E+02  0.51100000000E-03 0.  1.
         22    1    1    0    0    0 -0.76040713060E+00  0.18940069216E+02 -0.20967137807E+02  0.28265266826E+02  0.00000000000E+00 0.  1.
</event>
<event>
 5    1  0.1043455E-009  0.9118800E+02  0.7561462E-02  0.1125453E+00
         25   -1    0    0    0    0  0.00000000000E+00  0.00000000000E+00  0.99999998245E-14  0.12509000000E+03  0.12509000000E+03 0.  0.
        -11    1    3    3    0    0  0.35794072891E+02  0.24016751675E+02 -0.19020476148E+02  0.47114737910E+02  0.51100000000E-03 0.  1.
         23    2    1    0    0    0 -0.12477103184E+02  0.22684000365E+02 -0.13982315524E+02  0.95666418915E+02  0.91029207314E+02 0.  0.
         11    1    3    3    0    0 -0.48271176075E+02 -0.13327513099E+01  0.50381606241E+01  0.48551681006E+02  0.51100000000E-03 0. -1.
         22    1    1    0    0    0  0.12477103184E+02 -0.22684000365E+02  0.13982315524E+02  0.29423581085E+02  0.00000000000E+00 0.  1.
</event>
<event>
 5    1  0.1043455E-009  0.9118800E+02  0.7561462E-02  0.1125453E+00
         25   -1    0    0    0    0  0.00000000000E+00  0.00000000000E+00  0.99999998245E-14  0.12509000000E+03  0.12509000000E+03 0.  0.
        -11    1    3    3    0    0  0.52099972723E+02  0.21807399210E+02 -0.80763298115E+01  0.57054333065E+02  0.51100000000E-03 0.  1.
         23    2    1    0    0    0  0.15133631790E+02  0.26022664230E+02 -0.64963280585E+01  0.94293764142E+02  0.89122981396E+02 0.  0.
         11    1    3    3    0    0 -0.36966340932E+02  0.42152650203E+01  0.15800017530E+01  0.37239431077E+02  0.51100000000E-03 0. -1.
         22    1    1    0    0    0 -0.15133631790E+02 -0.26022664230E+02  0.64963280585E+01  0.30796235858E+02  0.00000000000E+00 0.  1.
</event>
<event>
 5    1  0.1043455E-009  0.9118800E+02  0.7561462E-02  0.1125453E+00
         25   -1    0    0    0    0  0.00000000000E+00  0.00000000000E+00  0.99999998245E-14  0.12509000000E+03  0.12509000000E+03 0.  0.
        -11    1    3    3    0    0 -0.18782643567E+02 -0.15936824064E+02  0.23150752462E+02  0.33804251218E+02  0.51100000000E-03 0.  1.
         23    2    1    0    0    0  0.14812668651E+02  0.11664188789E+02 -0.21749475808E+02  0.96306182487E+02  0.91904149170E+02 0.  0.
         11    1    3    3    0    0  0.33595312218E+02  0.27601012852E+02 -0.44900228270E+02  0.62501931270E+02  0.51100000000E-03 0. -1.
         22    1    1    0    0    0 -0.14812668651E+02 -0.11664188789E+02  0.21749475808E+02  0.28783817513E+02  0.00000000000E+00 0. -1.
</event>
<event>
 5    1  0.1043455E-009  0.9118800E+02  0.7561462E-02  0.1125453E+00
         25   -1    0    0    0    0  0.00000000000E+00  0.00000000000E+00  0.99999998245E-14  0.12509000000E+03  0.12509000000E+03 0.  0.
        -11    1    3    3    0    0 -0.51414149910E+02  0.13829642378E+02 -0.25035975808E+02  0.58834291907E+02  0.51100000000E-03 0. -1.
         23    2    1    0    0    0 -0.15356852901E+02  0.17931672821E+02 -0.16984136733E+02  0.96006693418E+02  0.91495608961E+02 0.  0.
         11    1    3    3    0    0  0.36057297009E+02  0.41020304432E+01  0.80518390741E+01  0.37172401511E+02  0.51100000000E-03 0.  1.
         22    1    1    0    0    0  0.15356852901E+02 -0.17931672821E+02  0.16984136733E+02  0.29083306582E+02  0.00000000000E+00 0. -1.
</event>
<event>
 5    1  0.1043455E-009  0.9118800E+02  0.7561462E-02  0.1125453E+00
         25   -1    0    0    0    0  0.00000000000E+00  0.00000000000E+00  0.99999998245E-14  0.12509000000E+03  0.12509000000E+03 0.  0.
        -11    1    3    3    0    0 -0.35458852481E+02  0.11993037691E+02  0.11529036800E+02  0.39167357099E+02  0.51100000000E-03 0.  1.
         23    2    1    0    0    0 -0.18980004005E+02 -0.11910649387E+02 -0.28637164386E+02  0.88728051414E+02  0.80935009748E+02 0.  0.
         11    1    3    3    0    0  0.16478848476E+02 -0.23903687079E+02 -0.40166201186E+02  0.49560694315E+02  0.51100000000E-03 0. -1.
         22    1    1    0    0    0  0.18980004005E+02  0.11910649387E+02  0.28637164386E+02  0.36361948586E+02  0.00000000000E+00 0. -1.
</event>
<event>
 5    1  0.1043455E-009  0.9118800E+02  0.7561462E-02  0.1125453E+00
         25   -1    0    0    0    0  0.00000000000E+00  0.00000000000E+00  0.99999998245E-14  0.12509000000E+03  0.12509000000E+03 0.  0.
        -11    1    3    3    0    0 -0.38505561524E+02 -0.41531097532E+02  0.21125230458E+02  0.60446552364E+02  0.51100000000E-03 0. -1.
         23    2    1    0    0    0 -0.18240723012E+02 -0.12143441539E+02  0.18796391296E+02  0.96219747591E+02  0.91786427931E+02 0.  0.
         11    1    3    3    0    0  0.20264838513E+02  0.29387655993E+02 -0.23288391625E+01  0.35773195227E+02  0.51100000000E-03 0.  1.
         22    1    1    0    0    0  0.18240723012E+02  0.12143441539E+02 -0.18796391296E+02  0.28870252409E+02  0.00000000000E+00 0. -1.
</event>
<event>
 5    1  0.1043455E-009  0.9118800E+02  0.7561462E-02  0.1125453E+00
         25   -1    0    0    0    0  0.00000000000E+00  0.00000000000E+00  0.99999998245E-14  0.12509000000E+03  0.12509000000E+03 0.  0.
        -11    1    3    3    0    0  0.19245516384E+02  0.33522790921E+02 -0.39386756519E+02  0.55185904010E+02  0.51100000000E-03 0.  1.
         23    2    1    0    0    0  0.13018439998E+02 -0.39859424750E+01 -0.26437590313E+02  0.95352587554E+02  0.90596921881E+02 0.  0.
         11    1    3    3    0    0 -0.62270763851E+01 -0.37508733396E+02  0.12949166206E+02  0.40166683545E+02  0.51100000000E-03 0. -1.
         22    1    1    0    0    0 -0.13018439998E+02  0.39859424750E+01  0.26437590313E+02  0.29737412446E+02  0.00000000000E+00 0.  1.
</event>
<event>
 5    1  0.1043455E-009  0.9118800E+02  0.7561462E-02  0.1125453E+00
         25   -1    0    0    0    0  0.00000000000E+00  0.00000000000E+00  0.99999998245E-14  0.12509000000E+03  0.12509000000E+03 0.  0.
        -11    1    3    3    0    0  0.12734109510E+02 -0.24363000524E+02 -0.13911906048E+02  0.30809973543E+02  0.51100000000E-03 0. -1.
         23    2    1    0    0    0  0.26242864312E+02  0.24729789472E+02  0.10856596500E+02  0.87432117662E+02  0.78906647988E+02 0.  0.
         11    1    3    3    0    0  0.13508754801E+02  0.49092789996E+02  0.24768502549E+02  0.56622144119E+02  0.51100000000E-03 0.  1.
         22    1    1    0    0    0 -0.26242864312E+02 -0.24729789472E+02 -0.10856596500E+02  0.37657882338E+02  0.00000000000E+00 0.  1.
</event>
<event>
 5    1  0.1043455E-009  0.9118800E+02  0.7561462E-02  0.1125453E+00
         25   -1    0    0    0    0  0.00000000000E+00  0.00000000000E+00  0.99999998245E-14  0.12509000000E+03  0.12509000000E+03 0.  0.
        -11    1    3    3    0    0 -0.28302444858E+02 -0.22192843231E+02 -0.17148438039E+01  0.36006823870E+02  0.51100000000E-03 0.  1.
         23    2    1    0    0    0  0.46706195107E+01  0.28304971571E+02 -0.21955067451E+01  0.96318375921E+02  0.91920744057E+02 0.  0.
         11    1    3    3    0    0  0.32973064369E+02  0.50497814803E+02 -0.48066294121E+00  0.60311552052E+02  0.51100000000E-03 0. -1.
         22    1    1    0    0    0 -0.46706195107E+01 -0.28304971571E+02  0.21955067451E+01  0.28771624079E+02  0.00000000000E+00 0. -1.
</event>
<event>
 5    1  0.1043455E-009  0.9118800E+02  0.7561462E-02  0.1125453E+00
         25   -1    0    0    0    0  0.00000000000E+00  0.00000000000E+00  0.99999998245E-14  0.12509000000E+03  0.12509000000E+03 0.  0.
        -11    1    3    3    0    0  0.71966563810E+01 -0.32225751196E+02 -0.17983606861E+01  0.33068489603E+02  0.51100000000E-03 0. -1.
         23    2    1    0    0    0 -0.67701817489E-01  0.29620780768E+02 -0.26964450607E+01  0.95346663724E+02  0.90588742295E+02 0.  0.
         11    1    3    3    0    0 -0.72643581985E+01  0.61846531964E+02 -0.89808437460E+00  0.62278174121E+02  0.51100000000E-03 0.  1.
         22    1    1    0    0    0  0.67701817489E-01 -0.29620780768E+02  0.26964450607E+01  0.29743336276E+02  0.00000000000E+00 0.  1.
</event>
<event>
 5    1  0.1043455E-009  0.9118800E+02  0.7561462E-02  0.1125453E+00
         25   -1    0    0    0    0  0.00000000000E+00  0.00000000000E+00  0.99999998245E-14  0.12509000000E+03  0.12509000000E+03 0.  0.
        -11    1    3    3    0    0 -0.32495156617E+02 -0.42238721181E+02 -0.12686921740E+02  0.54781408836E+02  0.51100000000E-03 0.  1.
         23    2    1    0    0    0  0.20597490436E+01 -0.18231137530E+02 -0.20502086027E+02  0.97577230724E+02  0.93618179231E+02 0.  0.
         11    1    3    3    0    0  0.34554905660E+02  0.24007583651E+02 -0.78151642868E+01  0.42795821888E+02  0.51100000000E-03 0. -1.
         22    1    1    0    0    0 -0.20597490436E+01  0.18231137530E+02  0.20502086027E+02  0.27512769276E+02  0.00000000000E+00 0.  1.
</event>
<event>
 5    1  0.1043455E-009  0.9118800E+02  0.7561462E-02  0.1125453E+00
         25   -1    0    0    0    0  0.00000000000E+00  0.00000000000E+00  0.99999998245E-14  0.12509000000E+03  0.12509000000E+03 0.  0.
        -11    1    3    3    0    0 -0.93687205222E+01  0.53922346821E+02 -0.10479478624E+02  0.55724428067E+02  0.51100000000E-03 0.  1.
         23    2    1    0    0    0  0.83394880325E+01  0.19084673024E+02 -0.20286054210E+02  0.96016028815E+02  0.91508371141E+02 0.  0.
         11    1    3    3    0    0  0.17708208555E+02 -0.34837673797E+02 -0.98065755856E+01  0.40291600748E+02  0.51100000000E-03 0. -1.
         22    1    1    0    0    0 -0.83394880325E+01 -0.19084673024E+02  0.20286054210E+02  0.29073971185E+02  0.00000000000E+00 0.  1.
</event>
<event>
 5    1  0.1043455E-009  0.9118800E+02  0.7561462E-02  0.1125453E+00
         25   -1    0    0    0    0  0.00000000000E+00  0.00000000000E+00  0.99999998245E-14  0.12509000000E+03  0.12509000000E+03 0.  0.
        -11    1    3    3    0    0 -0.18763683001E+02  0.39837079445E+02  0.26222468322E+02  0.51251210167E+02  0.51100000000E-03 0.  1.
         23    2    1    0    0    0  0.51837523586E+01  0.21481005499E+02 -0.11997049956E+02  0.99945734384E+02  0.96731151798E+02 0.  0.
         11    1    3    3    0    0  0.23947435359E+02 -0.18356073946E+02 -0.38219518278E+02  0.48694524216E+02  0.51100000000E-03 0. -1.
         22    1    1    0    0    0 -0.51837523586E+01 -0.21481005499E+02  0.11997049956E+02  0.25144265616E+02  0.00000000000E+00 0. -1.
</event>
<event>
 5    1  0.1043455E-009  0.9118800E+02  0.7561462E-02  0.1125453E+00
         25   -1    0    0    0    0  0.00000000000E+00  0.00000000000E+00  0.99999998245E-14  0.12509000000E+03  0.12509000000E+03 0.  0.
        -11    1    3    3    0    0 -0.33757569901E+02  0.15316793770E+01 -0.44925327900E+02  0.56215697581E+02  0.51100000000E-03 0. -1.
         23    2    1    0    0    0 -0.16026576203E+02  0.19080680448E+01 -0.48208052670E+02  0.74251941317E+02  0.54118782124E+02 0.  0.
         11    1    3    3    0    0  0.17730993697E+02  0.37638866778E+00 -0.32827247695E+01  0.18036243736E+02  0.51100000000E-03 0.  1.
         22    1    1    0    0    0  0.16026576203E+02 -0.19080680448E+01  0.48208052670E+02  0.50838058683E+02  0.00000000000E+00 0. -1.
</event>
<event>
 5    1  0.1043455E-009  0.9118800E+02  0.7561462E-02  0.1125453E+00
         25   -1    0    0    0    0  0.00000000000E+00  0.00000000000E+00  0.99999998245E-14  0.12509000000E+03  0.12509000000E+03 0.  0.
        -11    1    3    3    0    0  0.19238392394E+02  0.35084533725E+02 -0.25926086136E+01  0.40096905969E+02  0.51100000000E-03 0.  1.
         23    2    1    0    0    0 -0.11163327495E+02 -0.53325515571E+01 -0.26354891664E+02  0.95975805841E+02  0.91453370662E+02 0.  0.
         11    1    3    3    0    0 -0.30401719889E+02 -0.40417085282E+02 -0.23762283051E+02  0.55878899872E+02  0.51100000000E-03 0. -1.
         22    1    1    0    0    0  0.11163327495E+02  0.53325515571E+01  0.26354891664E+02  0.29114194159E+02  0.00000000000E+00 0. -1.
</event>
<event>
 5    1  0.1043455E-009  0.9118800E+02  0.7561462E-02  0.1125453E+00
         25   -1    0    0    0    0  0.00000000000E+00  0.00000000000E+00  0.99999998245E-14  0.12509000000E+03  0.12509000000E+03 0.  0.
        -11    1    3    3    0    0 -0.92644499087E+01 -0.12199295994E+02  0.28563465801E+02  0.32411794669E+02  0.51100000000E-03 0.  1.
         23    2    1    0    0    0  0.78717885431E+01  0.26153575472E+02 -0.15823575131E+02  0.93524827820E+02  0.88037113333E+02 0.  0.
         11    1    3    3    0    0  0.17136238452E+02  0.38352871466E+02 -0.44387040931E+02  0.61113033151E+02  0.51100000000E-03 0. -1.
         22    1    1    0    0    0 -0.78717885431E+01 -0.26153575472E+02  0.15823575131E+02  0.31565172180E+02  0.00000000000E+00 0. -1.
</event>
<event>
 5    1  0.1043455E-009  0.9118800E+02  0.7561462E-02  0.1125453E+00
         25   -1    0    0    0    0  0.00000000000E+00  0.00000000000E+00  0.99999998245E-14  0.12509000000E+03  0.12509000000E+03 0.  0.
        -11    1    3    3    0    0 -0.40755824761E+02 -0.25809565949E+02  0.25214308489E+02  0.54432823730E+02  0.51100000000E-03 0.  1.
         23    2    1    0    0    0 -0.88543240677E+01 -0.29262572726E+02  0.12322901311E+01  0.94492357016E+02  0.89401285104E+02 0.  0.
         11    1    3    3    0    0  0.31901500693E+02 -0.34530067766E+01 -0.23982018358E+02  0.40059533285E+02  0.51100000000E-03 0. -1.
         22    1    1    0    0    0  0.88543240677E+01  0.29262572726E+02 -0.12322901311E+01  0.30597642984E+02  0.00000000000E+00 0.  1.
</event>
<event>
 5    1  0.1043455E-009  0.9118800E+02  0.7561462E-02  0.1125453E+00
         25   -1    0    0    0    0  0.00000000000E+00  0.00000000000E+00  0.99999998245E-14  0.12509000000E+03  0.12509000000E+03 0.  0.
        -11    1    3    3    0    0 -0.96626989461E+01  0.72216990820E+01  0.35693074639E+02  0.37676468333E+02  0.51100000000E-03 0.  1.
         23    2    1    0    0    0  0.12458154260E+02  0.64887808444E+01 -0.21728820396E+02  0.99216238769E+02  0.95783143169E+02 0.  0.
         11    1    3    3    0    0  0.22120853206E+02 -0.73291823767E+00 -0.57421895035E+02  0.61539770437E+02  0.51100000000E-03 0. -1.
         22    1    1    0    0    0 -0.12458154260E+02 -0.64887808444E+01  0.21728820396E+02  0.25873761231E+02  0.00000000000E+00 0. -1.
</event>
<event>
 5    1  0.1043455E-009  0.9118800E+02  0.7561462E-02  0.1125453E+00
         25   -1    0    0    0    0  0.00000000000E+00  0.00000000000E+00  0.99999998245E-14  0.12509000000E+03  0.12509000000E+03 0.  0.
        -11    1    3    3    0    0 -0.86266290437E+01  0.34281172755E+02 -0.13491847173E+02  0.37837117682E+02  0.51100000000E-03 0.  1.
         23    2    1    0    0    0  0.23526810853E+02 -0.57188927275E+01  0.15070548549E+02  0.96570918729E+02  0.92263775924E+02 0.  0.
         11    1    3    3    0    0  0.32153439897E+02 -0.40000065482E+02  0.28562395722E+02  0.58733801047E+02  0.51100000000E-03 0. -1.
         22    1    1    0    0    0 -0.23526810853E+02  0.57188927275E+01 -0.15070548549E+02  0.28519081271E+02  0.00000000000E+00 0. -1.
</event>
<event>
 5    1  0.1043455E-009  0.9118800E+02  0.7561462E-02  0.1125453E+00
         25   -1    0    0    0    0  0.00000000000E+00  0.00000000000E+00  0.99999998245E-14  0.12509000000E+03  0.12509000000E+03 0.  0.
        -11    1    3    3    0    0 -0.16163461946E+02 -0.35562861108E+02 -0.24871911639E+01  0.39142824533E+02  0.51100000000E-03 0. -1.
         23    2    1    0    0    0 -0.13717444010E+02  0.20295255291E+02 -0.14903219049E+02  0.96416465242E+02  0.92054131761E+02 0.  0.
         11    1    3    3    0    0  0.24460179364E+01  0.55858116399E+02 -0.12416027885E+02  0.57273640709E+02  0.51100000000E-03 0.  1.
         22    1    1    0    0    0  0.13717444010E+02 -0.20295255291E+02  0.14903219049E+02  0.28673534758E+02  0.00000000000E+00 0.  1.
</event>
<event>
 5    1  0.1043455E-009  0.9118800E+02  0.7561462E-02  0.1125453E+00
         25   -1    0    0    0    0  0.00000000000E+00  0.00000000000E+00  0.99999998245E-14  0.12509000000E+03  0.12509000000E+03 0.  0.
        -11    1    3    3    0    0 -0.13894091011E+02  0.52572485492E+02 -0.28421959016E+02  0.61357312118E+02  0.51100000000E-03 0. -1.
         23    2    1    0    0    0 -0.37468123685E+01  0.21333452788E+02 -0.20766227559E+02  0.95083483744E+02  0.90224596774E+02 0.  0.
         11    1    3    3    0    0  0.10147278643E+02 -0.31239032704E+02  0.76557314570E+01  0.33726171626E+02  0.51100000000E-03 0.  1.
         22    1    1    0    0    0  0.37468123685E+01 -0.21333452788E+02  0.20766227559E+02  0.30006516256E+02  0.00000000000E+00 0. -1.
</event>
<event>
 5    1  0.1043455E-009  0.9118800E+02  0.7561462E-02  0.1125453E+00
         25   -1    0    0    0    0  0.00000000000E+00  0.00000000000E+00  0.99999998245E-14  0.12509000000E+03  0.12509000000E+03 0.  0.
        -11    1    3    3    0    0 -0.20500680695E+02  0.30121301194E+02  0.85208223679E+01  0.37418913782E+02  0.51100000000E-03 0. -1.
         23    2    1    0    0    0  0.24172277164E+02 -0.78111712957E+01  0.13657070454E+02  0.96248554931E+02  0.91825679266E+02 0.  0.
         11    1    3    3    0    0  0.44672957858E+02 -0.37932472490E+02  0.51362480860E+01  0.58829641148E+02  0.51100000000E-03 0.  1.
         22    1    1    0    0    0 -0.24172277164E+02  0.78111712957E+01 -0.13657070454E+02  0.28841445069E+02  0.00000000000E+00 0.  1.
</event>
<event>
 5    1  0.1043455E-009  0.9118800E+02  0.7561462E-02  0.1125453E+00
         25   -1    0    0    0    0  0.00000000000E+00  0.00000000000E+00  0.99999998245E-14  0.12509000000E+03  0.12509000000E+03 0.  0.
        -11    1    3    3    0    0  0.12387334398E+02 -0.26918183299E+02 -0.13363444948E+02  0.32505635000E+02  0.51100000000E-03 0. -1.
         23    2    1    0    0    0  0.27643358762E+02  0.22134173039E+02 -0.20187793300E+02  0.84326978791E+02  0.73820156150E+02 0.  0.
         11    1    3    3    0    0  0.15256024363E+02  0.49052356338E+02 -0.68243483522E+01  0.51821343792E+02  0.51100000000E-03 0.  1.
         22    1    1    0    0    0 -0.27643358762E+02 -0.22134173039E+02  0.20187793300E+02  0.40763021209E+02  0.00000000000E+00 0.  1.
</event>
<event>
 5    1  0.1043455E-009  0.9118800E+02  0.7561462E-02  0.1125453E+00
         25   -1    0    0    0    0  0.00000000000E+00  0.00000000000E+00  0.99999998245E-14  0.12509000000E+03  0.12509000000E+03 0.  0.
        -11    1    3    3    0    0 -0.21202704133E+02 -0.57853176529E+02 -0.45764389982E+01  0.61785827592E+02  0.51100000000E-03 0.  1.
         23    2    1    0    0    0 -0.18509118697E+02 -0.30680260304E+02 -0.28034576394E+01  0.89149420957E+02  0.81583662794E+02 0.  0.
         11    1    3    3    0    0  0.26935854367E+01  0.27172916225E+02  0.17729813588E+01  0.27363593365E+02  0.51100000000E-03 0. -1.
         22    1    1    0    0    0  0.18509118697E+02  0.30680260304E+02  0.28034576394E+01  0.35940579043E+02  0.00000000000E+00 0.  1.
</event>
<event>
 5    1  0.1043455E-009  0.9118800E+02  0.7561462E-02  0.1125453E+00
         25   -1    0    0    0    0  0.00000000000E+00  0.00000000000E+00  0.99999998245E-14  0.12509000000E+03  0.12509000000E+03 0.  0.
        -11    1    3    3    0    0 -0.10517726469E+02 -0.14774742558E+01  0.32883144929E+02  0.34555849302E+02  0.51100000000E-03 0. -1.
         23    2    1    0    0    0 -0.12993982968E+02  0.77149326167E+01 -0.26438986541E+02  0.94637023332E+02  0.89603473131E+02 0.  0.
         11    1    3    3    0    0 -0.24762564989E+01  0.91924068725E+01 -0.59322131470E+02  0.60081174030E+02  0.51100000000E-03 0.  1.
         22    1    1    0    0    0  0.12993982968E+02 -0.77149326167E+01  0.26438986541E+02  0.30452976668E+02  0.00000000000E+00 0.  1.
</event>
<event>
 5    1  0.1043455E-009  0.9118800E+02  0.7561462E-02  0.1125453E+00
         25   -1    0    0    0    0  0.00000000000E+00  0.00000000000E+00  0.99999998245E-14  0.12509000000E+03  0.12509000000E+03 0.  0.
        -11    1    3    3    0    0 -0.21807679779E+02  0.21385015168E+02  0.45181486702E+02  0.54536781276E+02  0.51100000000E-03 0.  1.
         23    2    1    0    0    0 -0.25619873736E+02 -0.53273928467E+01  0.15388225555E+02  0.94732850422E+02  0.89737151830E+02 0.  0.
         11    1    3    3    0    0 -0.38121939567E+01 -0.26712408015E+02 -0.29793261148E+02  0.40196069146E+02  0.51100000000E-03 0. -1.
         22    1    1    0    0    0  0.25619873736E+02  0.53273928467E+01 -0.15388225555E+02  0.30357149578E+02  0.00000000000E+00 0.  1.
</event>
<event>
 5    1  0.1043455E-009  0.9118800E+02  0.7561462E-02  0.1125453E+00
         25   -1    0    0    0    0  0.00000000000E+00  0.00000000000E+00  0.99999998245E-14  0.12509000000E+03  0.12509000000E+03 0.  0.
        -11    1    3    3    0    0 -0.77591854462E+01 -0.16248843039E+02  0.50916159694E+02  0.54006343860E+02  0.51100000000E-03 0.  1.
         23    2    1    0    0    0 -0.24319786569E+02 -0.68601676845E+01  0.12460642416E+02  0.96915871285E+02  0.92730278648E+02 0.  0.
         11    1    3    3    0    0 -0.16560601123E+02  0.93886753541E+01 -0.38455517278E+02  0.42909527425E+02  0.51100000000E-03 0. -1.
         22    1    1    0    0    0  0.24319786569E+02  0.68601676845E+01 -0.12460642416E+02  0.28174128715E+02  0.00000000000E+00 0. -1.
</event>
<event>
 5    1  0.1043455E-009  0.9118800E+02  0.7561462E-02  0.1125453E+00
         25   -1    0    0    0    0  0.00000000000E+00  0.00000000000E+00  0.99999998245E-14  0.12509000000E+03  0.12509000000E+03 0.  0.
        -11    1    3    3    0    0 -0.56601712588E+01  0.12831807792E+02  0.43539114004E+02  0.45742182703E+02  0.51100000000E-03 0. -1.
         23    2    1    0    0    0 -0.69761834583E+00 -0.26411790424E+02  0.13444444177E+02  0.95445060736E+02  0.90724512646E+02 0.  0.
         11    1    3    3    0    0  0.49625529130E+01 -0.39243598217E+02 -0.30094669828E+02  0.49702878032E+02  0.51100000000E-03 0.  1.
         22    1    1    0    0    0  0.69761834583E+00  0.26411790424E+02 -0.13444444177E+02  0.29644939264E+02  0.00000000000E+00 0. -1.
</event>
<event>
 5    1  0.1043455E-009  0.9118800E+02  0.7561462E-02  0.1125453E+00
         25   -1    0    0    0    0  0.00000000000E+00  0.00000000000E+00  0.99999998245E-14  0.12509000000E+03  0.12509000000E+03 0.  0.
        -11    1    3    3    0    0 -0.45235303845E+02  0.20861802097E+02  0.14782269931E+02  0.51961168243E+02  0.51100000000E-03 0.  1.
         23    2    1    0    0    0 -0.23206165533E+02 -0.16206980071E+02  0.84933104383E+01  0.95537865662E+02  0.90852380988E+02 0.  0.
         11    1    3    3    0    0  0.22029138312E+02 -0.37068782168E+02 -0.62889594923E+01  0.43576697419E+02  0.51100000000E-03 0. -1.
         22    1    1    0    0    0  0.23206165533E+02  0.16206980071E+02 -0.84933104383E+01  0.29552134338E+02  0.00000000000E+00 0.  1.
</event>
<event>
 5    1  0.1043455E-009  0.9118800E+02  0.7561462E-02  0.1125453E+00
         25   -1    0    0    0    0  0.00000000000E+00  0.00000000000E+00  0.99999998245E-14  0.12509000000E+03  0.12509000000E+03 0.  0.
        -11    1    3    3    0    0  0.17656153531E+02  0.16303661035E+02  0.23310751806E+02  0.33480446095E+02  0.51100000000E-03 0.  1.
         23    2    1    0    0    0 -0.36416227829E+00 -0.88050101174E+01 -0.29297813411E+02  0.94495512131E+02  0.89405699622E+02 0.  0.
         11    1    3    3    0    0 -0.18020315809E+02 -0.25108671153E+02 -0.52608565217E+02  0.61015066036E+02  0.51100000000E-03 0. -1.
         22    1    1    0    0    0  0.36416227829E+00  0.88050101174E+01  0.29297813411E+02  0.30594487869E+02  0.00000000000E+00 0. -1.
</event>
<event>
 5    1  0.1043455E-009  0.9118800E+02  0.7561462E-02  0.1125453E+00
         25   -1    0    0    0    0  0.00000000000E+00  0.00000000000E+00  0.99999998245E-14  0.12509000000E+03  0.12509000000E+03 0.  0.
        -11    1    3    3    0    0 -0.40584517431E+02 -0.28509187235E+02 -0.98883690388E+00  0.49607001629E+02  0.51100000000E-03 0.  1.
         23    2    1    0    0    0 -0.16314434357E+02  0.52829406118E+00  0.24798027637E+02  0.95401920949E+02  0.90665012453E+02 0.  0.
         11    1    3    3    0    0  0.24270083074E+02  0.29037481296E+02  0.25786864541E+02  0.45794919320E+02  0.51100000000E-03 0. -1.
         22    1    1    0    0    0  0.16314434357E+02 -0.52829406118E+00 -0.24798027637E+02  0.29688079051E+02  0.00000000000E+00 0. -1.
</event>
<event>
 5    1  0.1043455E-009  0.9118800E+02  0.7561462E-02  0.1125453E+00
         25   -1    0    0    0    0  0.00000000000E+00  0.00000000000E+00  0.99999998245E-14  0.12509000000E+03  0.12509000000E+03 0.  0.
        -11    1    3    3    0    0  0.36655076790E+02 -0.20813182991E+02 -0.20265895405E+01  0.42200596039E+02  0.51100000000E-03 0.  1.
         23    2    1    0    0    0  0.11041571460E+02  0.25476811546E+02  0.83137141117E+01  0.96105485701E+02  0.91630575206E+02 0.  0.
         11    1    3    3    0    0 -0.25613505330E+02  0.46289994537E+02  0.10340303652E+02  0.53904889661E+02  0.51100000000E-03 0. -1.
         22    1    1    0    0    0 -0.11041571460E+02 -0.25476811546E+02 -0.83137141117E+01  0.28984514299E+02  0.00000000000E+00 0.  1.
</event>
<event>
 5    1  0.1043455E-009  0.9118800E+02  0.7561462E-02  0.1125453E+00
         25   -1    0    0    0    0  0.00000000000E+00  0.00000000000E+00  0.99999998245E-14  0.12509000000E+03  0.12509000000E+03 0.  0.
        -11    1    3    3    0    0 -0.43858931922E+02 -0.26442482649E+02  0.13352711078E+02  0.52925472992E+02  0.51100000000E-03 0.  1.
         23    2    1    0    0    0 -0.78662407574E+00 -0.27275041133E+02  0.95801771554E+01  0.96170690870E+02  0.91719547218E+02 0.  0.
         11    1    3    3    0    0  0.43072307847E+02 -0.83255848311E+00 -0.37725339223E+01  0.43245217878E+02  0.51100000000E-03 0. -1.
         22    1    1    0    0    0  0.78662407574E+00  0.27275041133E+02 -0.95801771554E+01  0.28919309130E+02  0.00000000000E+00 0.  1.
</event>
<event>
 5    1  0.1043455E-009  0.9118800E+02  0.7561462E-02  0.1125453E+00
         25   -1    0    0    0    0  0.00000000000E+00  0.00000000000E+00  0.99999998245E-14  0.12509000000E+03  0.12509000000E+03 0.  0.
        -11    1    3    3    0    0 -0.98967888659E+01 -0.18400332320E+02  0.25231028248E+02  0.32758562943E+02  0.51100000000E-03 0.  1.
         23    2    1    0    0    0 -0.26274966880E+01  0.13932729027E+02 -0.26987069887E+02  0.94605141167E+02  0.89558953305E+02 0.  0.
         11    1    3    3    0    0  0.72692921779E+01  0.32333061348E+02 -0.52218098135E+02  0.61846578224E+02  0.51100000000E-03 0. -1.
         22    1    1    0    0    0  0.26274966880E+01 -0.13932729027E+02  0.26987069887E+02  0.30484858833E+02  0.00000000000E+00 0. -1.
</event>
<event>
 5    1  0.1043455E-009  0.9118800E+02  0.7561462E-02  0.1125453E+00
         25   -1    0    0    0    0  0.00000000000E+00  0.00000000000E+00  0.99999998245E-14  0.12509000000E+03  0.12509000000E+03 0.  0.
        -11    1    3    3    0    0 -0.17519377657E+01 -0.24864695206E+01 -0.37894459564E+02  0.38016337048E+02  0.51100000000E-03 0.  1.
         23    2    1    0    0    0 -0.16122923447E+02 -0.17955963338E+02  0.16158915607E+02  0.96047344587E+02  0.91551169128E+02 0.  0.
         11    1    3    3    0    0 -0.14370985681E+02 -0.15469493817E+02  0.54053375171E+02  0.58031007539E+02  0.51100000000E-03 0. -1.
         22    1    1    0    0    0  0.16122923447E+02  0.17955963338E+02 -0.16158915607E+02  0.29042655413E+02  0.00000000000E+00 0. -1.
</event>
<event>
 5    1  0.1043455E-009  0.9118800E+02  0.7561462E-02  0.1125453E+00
         25   -1    0    0    0    0  0.00000000000E+00  0.00000000000E+00  0.99999998245E-14  0.12509000000E+03  0.12509000000E+03 0.  0.
        -11    1    3    3    0    0 -0.28540469548E+02 -0.47056310547E+01 -0.35244079158E+02  0.45594368968E+02  0.51100000000E-03 0. -1.
         23    2    1    0    0    0 -0.26064352527E+02 -0.40281088113E+01  0.14221308617E+02  0.95126326126E+02  0.90283975157E+02 0.  0.
         11    1    3    3    0    0  0.24761170207E+01  0.67752224340E+00  0.49465387775E+02  0.49531957158E+02  0.51100000000E-03 0.  1.
         22    1    1    0    0    0  0.26064352527E+02  0.40281088113E+01 -0.14221308617E+02  0.29963673874E+02  0.00000000000E+00 0.  1.
</event>
<event>
 5    1  0.1043455E-009  0.9118800E+02  0.7561462E-02  0.1125453E+00
         25   -1    0    0    0    0  0.00000000000E+00  0.00000000000E+00  0.99999998245E-14  0.12509000000E+03  0.12509000000E+03 0.  0.
        -11    1    3    3    0    0  0.24740537807E+02 -0.41642877994E+02  0.37112176471E+02  0.61020792697E+02  0.51100000000E-03 0.  1.
         23    2    1    0    0    0  0.13060582580E+02 -0.25399378380E+02  0.97625783329E+01  0.94906972068E+02  0.89979543075E+02 0.  0.
         11    1    3    3    0    0 -0.11679955227E+02  0.16243499614E+02 -0.27349598138E+02  0.33886179371E+02  0.51100000000E-03 0. -1.
         22    1    1    0    0    0 -0.13060582580E+02  0.25399378380E+02 -0.97625783329E+01  0.30183027932E+02  0.00000000000E+00 0.  1.
</event>
<event>
 5    1  0.1043455E-009  0.9118800E+02  0.7561462E-02  0.1125453E+00
         25   -1    0    0    0    0  0.00000000000E+00  0.00000000000E+00  0.99999998245E-14  0.12509000000E+03  0.12509000000E+03 0.  0.
        -11    1    3    3    0    0  0.23250800707E+01 -0.46036522394E+02 -0.28994603236E+02  0.54455985975E+02  0.51100000000E-03 0.  1.
         23    2    1    0    0    0  0.22554273698E+02 -0.19362121134E+02 -0.68778477537E+01  0.94579480723E+02  0.89523105326E+02 0.  0.
         11    1    3    3    0    0  0.20229193628E+02  0.26674401260E+02  0.22116755483E+02  0.40123494747E+02  0.51100000000E-03 0. -1.
         22    1    1    0    0    0 -0.22554273698E+02  0.19362121134E+02  0.68778477537E+01  0.30510519277E+02  0.00000000000E+00 0.  1.
</event>
<event>
 5    1  0.1043455E-009  0.9118800E+02  0.7561462E-02  0.1125453E+00
         25   -1    0    0    0    0  0.00000000000E+00  0.00000000000E+00  0.99999998245E-14  0.12509000000E+03  0.12509000000E+03 0.  0.
        -11    1    3    3    0    0 -0.10376250524E+01  0.37369979025E+01  0.46457114213E+02  0.46618722423E+02  0.51100000000E-03 0. -1.
         23    2    1    0    0    0  0.65921175828E+01 -0.27446152864E+02  0.10124208001E+02  0.95102554145E+02  0.90251032659E+02 0.  0.
         11    1    3    3    0    0  0.76297426352E+01 -0.31183150767E+02 -0.36332906212E+02  0.48483831722E+02  0.51100000000E-03 0.  1.
         22    1    1    0    0    0 -0.65921175828E+01  0.27446152864E+02 -0.10124208001E+02  0.29987445855E+02  0.00000000000E+00 0.  1.
</event>
<event>
 5    1  0.1043455E-009  0.9118800E+02  0.7561462E-02  0.1125453E+00
         25   -1    0    0    0    0  0.00000000000E+00  0.00000000000E+00  0.99999998245E-14  0.12509000000E+03  0.12509000000E+03 0.  0.
        -11    1    3    3    0    0  0.31111179006E+02 -0.17713845617E+02 -0.24417073083E+02  0.43334504081E+02  0.51100000000E-03 0. -1.
         23    2    1    0    0    0  0.17997685873E+02  0.11078037529E+02  0.18738821374E+02  0.96844946650E+02  0.92634554313E+02 0.  0.
         11    1    3    3    0    0 -0.13113493133E+02  0.28791883146E+02  0.43155894457E+02  0.53510442569E+02  0.51100000000E-03 0.  1.
         22    1    1    0    0    0 -0.17997685873E+02 -0.11078037529E+02 -0.18738821374E+02  0.28245053350E+02  0.00000000000E+00 0.  1.
</event>
<event>
 5    1  0.1043455E-009  0.9118800E+02  0.7561462E-02  0.1125453E+00
         25   -1    0    0    0    0  0.00000000000E+00  0.00000000000E+00  0.99999998245E-14  0.12509000000E+03  0.12509000000E+03 0.  0.
        -11    1    3    3    0    0 -0.38351600719E+02 -0.37848863857E+02  0.30660825371E+02  0.61995709413E+02  0.51100000000E-03 0. -1.
         23    2    1    0    0    0 -0.13906780012E+02 -0.21730616233E+02  0.12854359379E+02  0.96265483226E+02  0.91848737028E+02 0.  0.
         11    1    3    3    0    0  0.24444820706E+02  0.16118247624E+02 -0.17806465992E+02  0.34269773813E+02  0.51100000000E-03 0.  1.
         22    1    1    0    0    0  0.13906780012E+02  0.21730616233E+02 -0.12854359379E+02  0.28824516774E+02  0.00000000000E+00 0. -1.
</event>
<event>
 5    1  0.1043455E-009  0.9118800E+02  0.7561462E-02  0.1125453E+00
         25   -1    0    0    0    0  0.00000000000E+00  0.00000000000E+00  0.99999998245E-14  0.12509000000E+03  0.12509000000E+03 0.  0.
        -11    1    3    3    0    0 -0.35983313635E+02 -0.47603136956E+02  0.14100516188E+02  0.61316246340E+02  0.51100000000E-03 0. -1.
         23    2    1    0    0    0 -0.12443752454E+02 -0.30471728820E+02  0.98125452474E+01  0.90743831704E+02  0.83992759900E+02 0.  0.
         11    1    3    3    0    0  0.23539561181E+02  0.17131408136E+02 -0.42879709407E+01  0.29427585364E+02  0.51100000000E-03 0.  1.
         22    1    1    0    0    0  0.12443752454E+02  0.30471728820E+02 -0.98125452474E+01  0.34346168296E+02  0.00000000000E+00 0. -1.
</event>
<event>
 5    1  0.1043455E-009  0.9118800E+02  0.7561462E-02  0.1125453E+00
         25   -1    0    0    0    0  0.00000000000E+00  0.00000000000E+00  0.99999998245E-14  0.12509000000E+03  0.12509000000E+03 0.  0.
        -11    1    3    3    0    0 -0.10228431331E+02  0.32659127615E+01 -0.59811039241E+02  0.60767157322E+02  0.51100000000E-03 0.  1.
         23    2    1    0    0    0  0.42737482851E+00 -0.78212767229E+01 -0.26504694912E+02  0.97452093582E+02  0.93450824888E+02 0.  0.
         11    1    3    3    0    0  0.10655806160E+02 -0.11087189484E+02  0.33306344329E+02  0.36684936260E+02  0.51100000000E-03 0. -1.
         22    1    1    0    0    0 -0.42737482851E+00  0.78212767229E+01  0.26504694912E+02  0.27637906418E+02  0.00000000000E+00 0.  1.
</event>
<event>
 5    1  0.1043455E-009  0.9118800E+02  0.7561462E-02  0.1125453E+00
         25   -1    0    0    0    0  0.00000000000E+00  0.00000000000E+00  0.99999998245E-14  0.12509000000E+03  0.12509000000E+03 0.  0.
        -11    1    3    3    0    0  0.95791736439E+01 -0.10955044907E+01  0.58478478022E+02  0.59267976934E+02  0.51100000000E-03 0. -1.
         23    2    1    0    0    0  0.18610318140E+02 -0.25070255391E+01  0.25937575622E+02  0.93068336279E+02  0.87386087396E+02 0.  0.
         11    1    3    3    0    0  0.90311444960E+01 -0.14115210483E+01 -0.32540902401E+02  0.33800359345E+02  0.51100000000E-03 0.  1.
         22    1    1    0    0    0 -0.18610318140E+02  0.25070255391E+01 -0.25937575622E+02  0.32021663721E+02  0.00000000000E+00 0. -1.
</event>
<event>
 5    1  0.1043455E-009  0.9118800E+02  0.7561462E-02  0.1125453E+00
         25   -1    0    0    0    0  0.00000000000E+00  0.00000000000E+00  0.99999998245E-14  0.12509000000E+03  0.12509000000E+03 0.  0.
        -11    1    3    3    0    0 -0.23732683040E+01  0.56341128686E+02 -0.56476513093E+01  0.56673196043E+02  0.51100000000E-03 0. -1.
         23    2    1    0    0    0 -0.42452222134E+00  0.21006706134E+02  0.16460004077E+02  0.98399296451E+02  0.94710231159E+02 0.  0.
         11    1    3    3    0    0  0.19487460827E+01 -0.35334422552E+02  0.22107655386E+02  0.41726100409E+02  0.51100000000E-03 0.  1.
         22    1    1    0    0    0  0.42452222134E+00 -0.21006706134E+02 -0.16460004077E+02  0.26690703549E+02  0.00000000000E+00 0. -1.
</event>
<event>
 5    1  0.1043455E-009  0.9118800E+02  0.7561462E-02  0.1125453E+00
         25   -1    0    0    0    0  0.00000000000E+00  0.00000000000E+00  0.99999998245E-14  0.12509000000E+03  0.12509000000E+03 0.  0.
        -11    1    3    3    0    0  0.36082200191E+02  0.14053405170E+02 -0.32721751849E+01  0.38860397555E+02  0.51100000000E-03 0.  1.
         23    2    1    0    0    0 -0.51452071011E+01 -0.17190738497E+02  0.22219549324E+02  0.96529484978E+02  0.92207583483E+02 0.  0.
         11    1    3    3    0    0 -0.41227407292E+02 -0.31244143667E+02  0.25491724509E+02  0.57669087422E+02  0.51100000000E-03 0. -1.
         22    1    1    0    0    0  0.51452071011E+01  0.17190738497E+02 -0.22219549324E+02  0.28560515022E+02  0.00000000000E+00 0. -1.
</event>
<event>
 5    1  0.1043455E-009  0.9118800E+02  0.7561462E-02  0.1125453E+00
         25   -1    0    0    0    0  0.00000000000E+00  0.00000000000E+00  0.99999998245E-14  0.12509000000E+03  0.12509000000E+03 0.  0.
        -11    1    3    3    0    0 -0.23187326212E+02 -0.35938414478E+02 -0.73587527719E+01  0.43397845277E+02  0.51100000000E-03 0.  1.
         23    2    1    0    0    0  0.14954921709E+02 -0.76495405777E+01  0.20603584548E+02  0.98506680971E+02  0.94851954885E+02 0.  0.
         11    1    3    3    0    0  0.38142247921E+02  0.28288873900E+02  0.27962337320E+02  0.55108835695E+02  0.51100000000E-03 0. -1.
         22    1    1    0    0    0 -0.14954921709E+02  0.76495405777E+01 -0.20603584548E+02  0.26583319029E+02  0.00000000000E+00 0. -1.
</event>
<event>
 5    1  0.1043455E-009  0.9118800E+02  0.7561462E-02  0.1125453E+00
         25   -1    0    0    0    0  0.00000000000E+00  0.00000000000E+00  0.99999998245E-14  0.12509000000E+03  0.12509000000E+03 0.  0.
        -11    1    3    3    0    0  0.70797380265E+01  0.18092706967E+01  0.37817216881E+02  0.38516724209E+02  0.51100000000E-03 0. -1.
         23    2    1    0    0    0 -0.65145936906E+01  0.23599797991E+02 -0.14384510973E+02  0.96694497678E+02  0.92431170766E+02 0.  0.
         11    1    3    3    0    0 -0.13594331717E+02  0.21790527295E+02 -0.52201727853E+02  0.58177773469E+02  0.51100000000E-03 0.  1.
         22    1    1    0    0    0  0.65145936906E+01 -0.23599797991E+02  0.14384510973E+02  0.28395502322E+02  0.00000000000E+00 0.  1.
</event>
<event>
 5    1  0.1043455E-009  0.9118800E+02  0.7561462E-02  0.1125453E+00
         25   -1    0    0    0    0  0.00000000000E+00  0.00000000000E+00  0.99999998245E-14  0.12509000000E+03  0.12509000000E+03 0.  0.
        -11    1    3    3    0    0  0.19914317001E+02 -0.55948478908E+02  0.18304220911E+02  0.62143839736E+02  0.51100000000E-03 0.  1.
         23    2    1    0    0    0  0.45184937966E+01 -0.27437897294E+02  0.91918157479E+01  0.95802725103E+02  0.91216323464E+02 0.  0.
         11    1    3    3    0    0 -0.15395823204E+02  0.28510581613E+02 -0.91124051633E+01  0.33658885367E+02  0.51100000000E-03 0. -1.
         22    1    1    0    0    0 -0.45184937966E+01  0.27437897294E+02 -0.91918157479E+01  0.29287274897E+02  0.00000000000E+00 0.  1.
</event>
<event>
 5    1  0.1043455E-009  0.9118800E+02  0.7561462E-02  0.1125453E+00
         25   -1    0    0    0    0  0.00000000000E+00  0.00000000000E+00  0.99999998245E-14  0.12509000000E+03  0.12509000000E+03 0.  0.
        -11    1    3    3    0    0 -0.39581684262E+02  0.14782187813E+02 -0.40634979813E+02  0.58621023449E+02  0.51100000000E-03 0.  1.
         23    2    1    0    0    0 -0.22907093277E+02 -0.78828984540E+01 -0.15663740048E+02  0.96241641941E+02  0.91816261527E+02 0.  0.
         11    1    3    3    0    0  0.16674590986E+02 -0.22665086267E+02  0.24971239765E+02  0.37620618491E+02  0.51100000000E-03 0. -1.
         22    1    1    0    0    0  0.22907093277E+02  0.78828984540E+01  0.15663740048E+02  0.28848358059E+02  0.00000000000E+00 0.  1.
</event>
<event>
 5    1  0.1043455E-009  0.9118800E+02  0.7561462E-02  0.1125453E+00
         25   -1    0    0    0    0  0.00000000000E+00  0.00000000000E+00  0.99999998245E-14  0.12509000000E+03  0.12509000000E+03 0.  0.
        -11    1    3    3    0    0  0.32208694880E+02 -0.14210282307E+01  0.15052859335E+02  0.35581005066E+02  0.51100000000E-03 0. -1.
         23    2    1    0    0    0 -0.23289085847E+02  0.14203127420E+02 -0.63529065114E+01  0.97081612520E+02  0.92953589066E+02 0.  0.
         11    1    3    3    0    0 -0.55497780727E+02  0.15624155651E+02 -0.21405765847E+02  0.61500607453E+02  0.51100000000E-03 0.  1.
         22    1    1    0    0    0  0.23289085847E+02 -0.14203127420E+02  0.63529065114E+01  0.28008387480E+02  0.00000000000E+00 0.  1.
</event>
<event>
 5    1  0.1043455E-009  0.9118800E+02  0.7561462E-02  0.1125453E+00
         25   -1    0    0    0    0  0.00000000000E+00  0.00000000000E+00  0.99999998245E-14  0.12509000000E+03  0.12509000000E+03 0.  0.
        -11    1    3    3    0    0 -0.20974473315E+02 -0.32799389854E+02 -0.38288032924E+02  0.54604962880E+02  0.51100000000E-03 0. -1.
         23    2    1    0    0    0  0.70030991755E+01 -0.25252949541E+02 -0.55918186974E+01  0.98294043310E+02  0.94571114276E+02 0.  0.
         11    1    3    3    0    0  0.27977572490E+02  0.75464403130E+01  0.32696214226E+02  0.43689080430E+02  0.51100000000E-03 0.  1.
         22    1    1    0    0    0 -0.70030991755E+01  0.25252949541E+02  0.55918186974E+01  0.26795956690E+02  0.00000000000E+00 0. -1.
</event>
<event>
 5    1  0.1043455E-009  0.9118800E+02  0.7561462E-02  0.1125453E+00
         25   -1    0    0    0    0  0.00000000000E+00  0.00000000000E+00  0.99999998245E-14  0.12509000000E+03  0.12509000000E+03 0.  0.
        -11    1    3    3    0    0  0.36061951561E+02 -0.14252873691E+02  0.37938806835E+02  0.54249072095E+02  0.51100000000E-03 0.  1.
         23    2    1    0    0    0 -0.35430567884E+01 -0.60726660071E+01  0.28444364821E+02  0.95789617512E+02  0.91198346527E+02 0.  0.
         11    1    3    3    0    0 -0.39605008350E+02  0.81802076835E+01 -0.94944420138E+01  0.41540545417E+02  0.51100000000E-03 0. -1.
         22    1    1    0    0    0  0.35430567884E+01  0.60726660071E+01 -0.28444364821E+02  0.29300382488E+02  0.00000000000E+00 0.  1.
</event>
<event>
 5    1  0.1043455E-009  0.9118800E+02  0.7561462E-02  0.1125453E+00
         25   -1    0    0    0    0  0.00000000000E+00  0.00000000000E+00  0.99999998245E-14  0.12509000000E+03  0.12509000000E+03 0.  0.
        -11    1    3    3    0    0  0.45801379735E+02 -0.13219858827E+02 -0.28553523941E+02  0.55568289363E+02  0.51100000000E-03 0.  1.
         23    2    1    0    0    0  0.22891077293E+02 -0.15257796379E+02  0.58620539513E+01  0.96962336633E+02  0.92792937656E+02 0.  0.
         11    1    3    3    0    0 -0.22910302442E+02 -0.20379375515E+01  0.34415577892E+02  0.41394047270E+02  0.51100000000E-03 0. -1.
         22    1    1    0    0    0 -0.22891077293E+02  0.15257796379E+02 -0.58620539513E+01  0.28127663367E+02  0.00000000000E+00 0.  1.
</event>
<event>
 5    1  0.1043455E-009  0.9118800E+02  0.7561462E-02  0.1125453E+00
         25   -1    0    0    0    0  0.00000000000E+00  0.00000000000E+00  0.99999998245E-14  0.12509000000E+03  0.12509000000E+03 0.  0.
        -11    1    3    3    0    0  0.14913484762E+02  0.72152639238E+01 -0.38958806305E+02  0.42335099506E+02  0.51100000000E-03 0. -1.
         23    2    1    0    0    0  0.24428213620E+02 -0.10110552184E+02  0.11297913261E+02  0.96339282962E+02  0.91949190923E+02 0.  0.
         11    1    3    3    0    0  0.95147288578E+01 -0.17325816108E+02  0.50256719565E+02  0.54004183456E+02  0.51100000000E-03 0.  1.
         22    1    1    0    0    0 -0.24428213620E+02  0.10110552184E+02 -0.11297913261E+02  0.28750717038E+02  0.00000000000E+00 0.  1.
</event>
<event>
 5    1  0.1043455E-009  0.9118800E+02  0.7561462E-02  0.1125453E+00
         25   -1    0    0    0    0  0.00000000000E+00  0.00000000000E+00  0.99999998245E-14  0.12509000000E+03  0.12509000000E+03 0.  0.
        -11    1    3    3    0    0  0.47954839232E+02  0.69895077706E+01 -0.18863217712E+02  0.52003276890E+02  0.51100000000E-03 0.  1.
         23    2    1    0    0    0  0.17251773101E+02  0.18601742741E+02  0.11968931976E+02  0.97038193627E+02  0.92895140786E+02 0.  0.
         11    1    3    3    0    0 -0.30703066131E+02  0.11612234970E+02  0.30832149688E+02  0.45034916736E+02  0.51100000000E-03 0. -1.
         22    1    1    0    0    0 -0.17251773101E+02 -0.18601742741E+02 -0.11968931976E+02  0.28051806373E+02  0.00000000000E+00 0. -1.
</event>
<event>
 5    1  0.1043455E-009  0.9118800E+02  0.7561462E-02  0.1125453E+00
         25   -1    0    0    0    0  0.00000000000E+00  0.00000000000E+00  0.99999998245E-14  0.12509000000E+03  0.12509000000E+03 0.  0.
        -11    1    3    3    0    0  0.42734385691E+02  0.19473842602E+01 -0.45520255590E+02  0.62466900796E+02  0.51100000000E-03 0.  1.
         23    2    1    0    0    0  0.20405036451E+02  0.29804083154E+01 -0.23045670685E+02  0.94165070192E+02  0.88942167506E+02 0.  0.
         11    1    3    3    0    0 -0.22329349240E+02  0.10330240552E+01  0.22474584905E+02  0.31698169396E+02  0.51100000000E-03 0. -1.
         22    1    1    0    0    0 -0.20405036451E+02 -0.29804083154E+01  0.23045670685E+02  0.30924929808E+02  0.00000000000E+00 0.  1.
</event>
<event>
 5    1  0.1043455E-009  0.9118800E+02  0.7561462E-02  0.1125453E+00
         25   -1    0    0    0    0  0.00000000000E+00  0.00000000000E+00  0.99999998245E-14  0.12509000000E+03  0.12509000000E+03 0.  0.
        -11    1    3    3    0    0  0.46467508145E+02 -0.20247410543E+02 -0.13388951046E+02  0.52425670785E+02  0.51100000000E-03 0.  1.
         23    2    1    0    0    0  0.45387611916E+01 -0.45174064347E+01 -0.25484966826E+02  0.98812807453E+02  0.95254816511E+02 0.  0.
         11    1    3    3    0    0 -0.41928746953E+02  0.15730004108E+02 -0.12096015779E+02  0.46387136668E+02  0.51100000000E-03 0. -1.
         22    1    1    0    0    0 -0.45387611916E+01  0.45174064347E+01  0.25484966826E+02  0.26277192547E+02  0.00000000000E+00 0.  1.
</event>
<event>
 5    1  0.1043455E-009  0.9118800E+02  0.7561462E-02  0.1125453E+00
         25   -1    0    0    0    0  0.00000000000E+00  0.00000000000E+00  0.99999998245E-14  0.12509000000E+03  0.12509000000E+03 0.  0.
        -11    1    3    3    0    0 -0.33800046116E+02  0.27533340370E+02  0.14470002570E+02  0.45933744938E+02  0.51100000000E-03 0.  1.
         23    2    1    0    0    0 -0.26176579559E+02 -0.26708918273E+01 -0.19735643022E+02  0.92198624442E+02  0.86132129679E+02 0.  0.
         11    1    3    3    0    0  0.76234665566E+01 -0.30204232197E+02 -0.34205645592E+02  0.46264879505E+02  0.51100000000E-03 0. -1.
         22    1    1    0    0    0  0.26176579559E+02  0.26708918273E+01  0.19735643022E+02  0.32891375558E+02  0.00000000000E+00 0.  1.
</event>
<event>
 5    1  0.1043455E-009  0.9118800E+02  0.7561462E-02  0.1125453E+00
         25   -1    0    0    0    0  0.00000000000E+00  0.00000000000E+00  0.99999998245E-14  0.12509000000E+03  0.12509000000E+03 0.  0.
        -11    1    3    3    0    0  0.25272501260E+02 -0.28116203172E+02 -0.22424083405E+02  0.43955201257E+02  0.51100000000E-03 0.  1.
         23    2    1    0    0    0  0.22831944968E+02  0.14642766075E+02  0.83686410177E+01  0.96704396926E+02  0.92444566758E+02 0.  0.
         11    1    3    3    0    0 -0.24405562917E+01  0.42758969247E+02  0.30792724423E+02  0.52749195669E+02  0.51100000000E-03 0. -1.
         22    1    1    0    0    0 -0.22831944968E+02 -0.14642766075E+02 -0.83686410177E+01  0.28385603074E+02  0.00000000000E+00 0. -1.
</event>
<event>
 5    1  0.1043455E-009  0.9118800E+02  0.7561462E-02  0.1125453E+00
         25   -1    0    0    0    0  0.00000000000E+00  0.00000000000E+00  0.99999998245E-14  0.12509000000E+03  0.12509000000E+03 0.  0.
        -11    1    3    3    0    0  0.53963096986E+02  0.18789845657E+02  0.76655718031E+01  0.57652711363E+02  0.51100000000E-03 0. -1.
         23    2    1    0    0    0  0.32663758289E+02  0.59084609603E+00 -0.10182905025E+02  0.90870681488E+02  0.84181464674E+02 0.  0.
         11    1    3    3    0    0 -0.21299338697E+02 -0.18198999561E+02 -0.17848476828E+02  0.33217970126E+02  0.51100000000E-03 0.  1.
         22    1    1    0    0    0 -0.32663758289E+02 -0.59084609603E+00  0.10182905025E+02  0.34219318512E+02  0.00000000000E+00 0. -1.
</event>
<event>
 5    1  0.1043455E-009  0.9118800E+02  0.7561462E-02  0.1125453E+00
         25   -1    0    0    0    0  0.00000000000E+00  0.00000000000E+00  0.99999998245E-14  0.12509000000E+03  0.12509000000E+03 0.  0.
        -11    1    3    3    0    0 -0.86753367477E+01 -0.53865112562E+02 -0.21229263043E+02  0.58543944423E+02  0.51100000000E-03 0.  1.
         23    2    1    0    0    0  0.11193483645E+02 -0.25800426408E+02 -0.13968566733E+02  0.93688138024E+02  0.88268852213E+02 0.  0.
         11    1    3    3    0    0  0.19868820393E+02  0.28064686154E+02  0.72606963103E+01  0.35144193601E+02  0.51100000000E-03 0. -1.
         22    1    1    0    0    0 -0.11193483645E+02  0.25800426408E+02  0.13968566733E+02  0.31401861976E+02  0.00000000000E+00 0.  1.
</event>
<event>
 5    1  0.1043455E-009  0.9118800E+02  0.7561462E-02  0.1125453E+00
         25   -1    0    0    0    0  0.00000000000E+00  0.00000000000E+00  0.99999998245E-14  0.12509000000E+03  0.12509000000E+03 0.  0.
        -11    1    3    3    0    0  0.12538708078E+02  0.46062589986E+02  0.16451322900E+02  0.50493835484E+02  0.51100000000E-03 0.  1.
         23    2    1    0    0    0 -0.76857832275E+01  0.68421953245E+01  0.27282424709E+02  0.95931508978E+02  0.91392761290E+02 0.  0.
         11    1    3    3    0    0 -0.20224491305E+02 -0.39220394661E+02  0.10831101808E+02  0.45437673494E+02  0.51100000000E-03 0. -1.
         22    1    1    0    0    0  0.76857832275E+01 -0.68421953245E+01 -0.27282424709E+02  0.29158491022E+02  0.00000000000E+00 0.  1.
</event>
<event>
 5    1  0.1043455E-009  0.9118800E+02  0.7561462E-02  0.1125453E+00
         25   -1    0    0    0    0  0.00000000000E+00  0.00000000000E+00  0.99999998245E-14  0.12509000000E+03  0.12509000000E+03 0.  0.
        -11    1    3    3    0    0 -0.36732276913E+02  0.40824200325E+01 -0.14627187193E+02  0.39747715984E+02  0.51100000000E-03 0.  1.
         23    2    1    0    0    0  0.52112694673E+01  0.95785457462E+01  0.25064979562E+02  0.97755789411E+02  0.93856461125E+02 0.  0.
         11    1    3    3    0    0  0.41943546380E+02  0.54961257138E+01  0.39692166755E+02  0.58008073427E+02  0.51100000000E-03 0. -1.
         22    1    1    0    0    0 -0.52112694673E+01 -0.95785457462E+01 -0.25064979562E+02  0.27334210589E+02  0.00000000000E+00 0. -1.
</event>
<event>
 5    1  0.1043455E-009  0.9118800E+02  0.7561462E-02  0.1125453E+00
         25   -1    0    0    0    0  0.00000000000E+00  0.00000000000E+00  0.99999998245E-14  0.12509000000E+03  0.12509000000E+03 0.  0.
        -11    1    3    3    0    0  0.39909208793E+02  0.18933249831E+02  0.21590194193E+01  0.44225267221E+02  0.51100000000E-03 0.  1.
         23    2    1    0    0    0  0.19939908939E+02  0.13099291476E+02  0.34778906511E+02  0.82914607367E+02  0.71386752070E+02 0.  0.
         11    1    3    3    0    0 -0.19969299855E+02 -0.58339583558E+01  0.32619887092E+02  0.38689340146E+02  0.51100000000E-03 0. -1.
         22    1    1    0    0    0 -0.19939908939E+02 -0.13099291476E+02 -0.34778906511E+02  0.42175392633E+02  0.00000000000E+00 0.  1.
</event>
<event>
 5    1  0.1043455E-009  0.9118800E+02  0.7561462E-02  0.1125453E+00
         25   -1    0    0    0    0  0.00000000000E+00  0.00000000000E+00  0.99999998245E-14  0.12509000000E+03  0.12509000000E+03 0.  0.
        -11    1    3    3    0    0  0.12719867466E+02 -0.44671917099E+02 -0.60738690370E+01  0.46843004718E+02  0.51100000000E-03 0. -1.
         23    2    1    0    0    0 -0.16858231645E+02 -0.11908448566E+02  0.18508949569E+02  0.97366502104E+02  0.93336184818E+02 0.  0.
         11    1    3    3    0    0 -0.29578099111E+02  0.32763468533E+02  0.24582818606E+02  0.50523497386E+02  0.51100000000E-03 0.  1.
         22    1    1    0    0    0  0.16858231645E+02  0.11908448566E+02 -0.18508949569E+02  0.27723497896E+02  0.00000000000E+00 0.  1.
</event>
<event>
 5    1  0.1043455E-009  0.9118800E+02  0.7561462E-02  0.1125453E+00
         25   -1    0    0    0    0  0.00000000000E+00  0.00000000000E+00  0.99999998245E-14  0.12509000000E+03  0.12509000000E+03 0.  0.
        -11    1    3    3    0    0 -0.10046713358E+01  0.35920280667E+02 -0.25023917712E+02  0.43788952780E+02  0.51100000000E-03 0.  1.
         23    2    1    0    0    0  0.24826545694E+02  0.90337775129E+01  0.11766601091E+02  0.96169083547E+02  0.91717355074E+02 0.  0.
         11    1    3    3    0    0  0.25831217030E+02 -0.26886503154E+02  0.36790518802E+02  0.52380130767E+02  0.51100000000E-03 0. -1.
         22    1    1    0    0    0 -0.24826545694E+02 -0.90337775129E+01 -0.11766601091E+02  0.28920916453E+02  0.00000000000E+00 0. -1.
</event>
<event>
 5    1  0.1043455E-009  0.9118800E+02  0.7561462E-02  0.1125453E+00
         25   -1    0    0    0    0  0.00000000000E+00  0.00000000000E+00  0.99999998245E-14  0.12509000000E+03  0.12509000000E+03 0.  0.
        -11    1    3    3    0    0 -0.16595937323E+02  0.43150085671E+02  0.10682795682E+02  0.47449732906E+02  0.51100000000E-03 0. -1.
         23    2    1    0    0    0 -0.19929823379E+02 -0.37008115553E+01  0.21386702813E+02  0.95623325208E+02  0.90969969773E+02 0.  0.
         11    1    3    3    0    0 -0.33338860561E+01 -0.46850897226E+02  0.10703907131E+02  0.48173592302E+02  0.51100000000E-03 0.  1.
         22    1    1    0    0    0  0.19929823379E+02  0.37008115553E+01 -0.21386702813E+02  0.29466674792E+02  0.00000000000E+00 0. -1.
</event>
<event>
 5    1  0.1043455E-009  0.9118800E+02  0.7561462E-02  0.1125453E+00
         25   -1    0    0    0    0  0.00000000000E+00  0.00000000000E+00  0.99999998245E-14  0.12509000000E+03  0.12509000000E+03 0.  0.
        -11    1    3    3    0    0 -0.20138131270E+02  0.11665230691E+02 -0.24544765748E+02  0.33824066343E+02  0.51100000000E-03 0.  1.
         23    2    1    0    0    0  0.25734825342E+02 -0.17768749845E+02  0.51397342441E+00  0.93812629984E+02  0.88445099748E+02 0.  0.
         11    1    3    3    0    0  0.45872956611E+02 -0.29433980537E+02  0.25058739172E+02  0.59988563641E+02  0.51100000000E-03 0. -1.
         22    1    1    0    0    0 -0.25734825342E+02  0.17768749845E+02 -0.51397342441E+00  0.31277370016E+02  0.00000000000E+00 0. -1.
</event>
<event>
 5    1  0.1043455E-009  0.9118800E+02  0.7561462E-02  0.1125453E+00
         25   -1    0    0    0    0  0.00000000000E+00  0.00000000000E+00  0.99999998245E-14  0.12509000000E+03  0.12509000000E+03 0.  0.
        -11    1    3    3    0    0 -0.42149057790E+02 -0.25252735090E+02  0.31149568386E+02  0.58176793595E+02  0.51100000000E-03 0.  1.
         23    2    1    0    0    0 -0.93681097900E+01 -0.24137053745E+02  0.93410154760E+01  0.97565221805E+02  0.93602131874E+02 0.  0.
         11    1    3    3    0    0  0.32780948000E+02  0.11156813443E+01 -0.21808552910E+02  0.39388428211E+02  0.51100000000E-03 0. -1.
         22    1    1    0    0    0  0.93681097900E+01  0.24137053745E+02 -0.93410154760E+01  0.27524778195E+02  0.00000000000E+00 0.  1.
</event>
<event>
 5    1  0.1043455E-009  0.9118800E+02  0.7561462E-02  0.1125453E+00
         25   -1    0    0    0    0  0.00000000000E+00  0.00000000000E+00  0.99999998245E-14  0.12509000000E+03  0.12509000000E+03 0.  0.
        -11    1    3    3    0    0  0.27380423761E+01 -0.52452618590E+02 -0.17484167239E+01  0.52553125829E+02  0.51100000000E-03 0. -1.
         23    2    1    0    0    0  0.92556154744E+01 -0.18592551298E+02  0.22318335577E+02  0.94602994826E+02  0.89555955388E+02 0.  0.
         11    1    3    3    0    0  0.65175730983E+01  0.33860067292E+02  0.24066752301E+02  0.42049868997E+02  0.51100000000E-03 0.  1.
         22    1    1    0    0    0 -0.92556154744E+01  0.18592551298E+02 -0.22318335577E+02  0.30487005174E+02  0.00000000000E+00 0.  1.
</event>
<event>
 5    1  0.1043455E-009  0.9118800E+02  0.7561462E-02  0.1125453E+00
         25   -1    0    0    0    0  0.00000000000E+00  0.00000000000E+00  0.99999998245E-14  0.12509000000E+03  0.12509000000E+03 0.  0.
        -11    1    3    3    0    0 -0.41609900035E+02  0.61117158726E+00  0.31109179430E+02  0.51957081872E+02  0.51100000000E-03 0. -1.
         23    2    1    0    0    0 -0.27524913782E+02 -0.49552187272E+00 -0.10289747319E+02  0.95700455592E+02  0.91075967632E+02 0.  0.
         11    1    3    3    0    0  0.14084986253E+02 -0.11066934600E+01 -0.41398926749E+02  0.43743373720E+02  0.51100000000E-03 0.  1.
         22    1    1    0    0    0  0.27524913782E+02  0.49552187272E+00  0.10289747319E+02  0.29389544408E+02  0.00000000000E+00 0. -1.
</event>
<event>
 5    1  0.1043455E-009  0.9118800E+02  0.7561462E-02  0.1125453E+00
         25   -1    0    0    0    0  0.00000000000E+00  0.00000000000E+00  0.99999998245E-14  0.12509000000E+03  0.12509000000E+03 0.  0.
        -11    1    3    3    0    0 -0.29480681852E+01 -0.50676176469E+02 -0.10143919368E+02  0.51765481432E+02  0.51100000000E-03 0.  1.
         23    2    1    0    0    0 -0.19706321235E+02 -0.45678260482E+02  0.52533938833E+01  0.75065598709E+02  0.55967878153E+02 0.  0.
         11    1    3    3    0    0 -0.16758253049E+02  0.49979159867E+01  0.15397313251E+02  0.23300117276E+02  0.51100000000E-03 0. -1.
         22    1    1    0    0    0  0.19706321235E+02  0.45678260482E+02 -0.52533938833E+01  0.50024401291E+02  0.00000000000E+00 0.  1.
</event>
<event>
 5    1  0.1043455E-009  0.9118800E+02  0.7561462E-02  0.1125453E+00
         25   -1    0    0    0    0  0.00000000000E+00  0.00000000000E+00  0.99999998245E-14  0.12509000000E+03  0.12509000000E+03 0.  0.
        -11    1    3    3    0    0  0.45918057710E+02 -0.34260946138E+02  0.15859119040E+01  0.57313136112E+02  0.51100000000E-03 0.  1.
         23    2    1    0    0    0  0.10586204421E+02 -0.23997429453E+02  0.12974365324E+02  0.95827763244E+02  0.91250653194E+02 0.  0.
         11    1    3    3    0    0 -0.35331853289E+02  0.10263516685E+02  0.11388453420E+02  0.38514627132E+02  0.51100000000E-03 0. -1.
         22    1    1    0    0    0 -0.10586204421E+02  0.23997429453E+02 -0.12974365324E+02  0.29262236756E+02  0.00000000000E+00 0.  1.
</event>
<event>
 5    1  0.1043455E-009  0.9118800E+02  0.7561462E-02  0.1125453E+00
         25   -1    0    0    0    0  0.00000000000E+00  0.00000000000E+00  0.99999998245E-14  0.12509000000E+03  0.12509000000E+03 0.  0.
        -11    1    3    3    0    0  0.14461664334E+02 -0.10107415136E+02 -0.47074991635E+02  0.50272799939E+02  0.51100000000E-03 0.  1.
         23    2    1    0    0    0 -0.18400567475E+02 -0.15902121241E+02 -0.15254805343E+02  0.96381683619E+02  0.92006855766E+02 0.  0.
         11    1    3    3    0    0 -0.32862231809E+02 -0.57947061050E+01  0.31820186292E+02  0.46108883680E+02  0.51100000000E-03 0. -1.
         22    1    1    0    0    0  0.18400567475E+02  0.15902121241E+02  0.15254805343E+02  0.28708316381E+02  0.00000000000E+00 0.  1.
</event>
<event>
 5    1  0.1043455E-009  0.9118800E+02  0.7561462E-02  0.1125453E+00
         25   -1    0    0    0    0  0.00000000000E+00  0.00000000000E+00  0.99999998245E-14  0.12509000000E+03  0.12509000000E+03 0.  0.
        -11    1    3    3    0    0  0.20359701249E+02  0.34521466188E+02  0.97156755292E+00  0.40089811754E+02  0.51100000000E-03 0.  1.
         23    2    1    0    0    0 -0.25250126207E+02  0.41685914671E+01 -0.12647258804E+02  0.96543560930E+02  0.92226677125E+02 0.  0.
         11    1    3    3    0    0 -0.45609827456E+02 -0.30352874721E+02 -0.13618826357E+02  0.56453749176E+02  0.51100000000E-03 0. -1.
         22    1    1    0    0    0  0.25250126207E+02 -0.41685914671E+01  0.12647258804E+02  0.28546439070E+02  0.00000000000E+00 0. -1.
</event>
<event>
 5    1  0.1043455E-009  0.9118800E+02  0.7561462E-02  0.1125453E+00
         25   -1    0    0    0    0  0.00000000000E+00  0.00000000000E+00  0.99999998245E-14  0.12509000000E+03  0.12509000000E+03 0.  0.
        -11    1    3    3    0    0 -0.55748478749E+02 -0.16465001075E+02  0.55562364301E+01  0.58394014306E+02  0.51100000000E-03 0.  1.
         23    2    1    0    0    0 -0.24514484635E+02 -0.72336694324E+01 -0.13557000299E+02  0.96157696471E+02  0.91701823336E+02 0.  0.
         11    1    3    3    0    0  0.31233994114E+02  0.92313316429E+01 -0.19113236729E+02  0.37763682166E+02  0.51100000000E-03 0. -1.
         22    1    1    0    0    0  0.24514484635E+02  0.72336694324E+01  0.13557000299E+02  0.28932303529E+02  0.00000000000E+00 0.  1.
</event>
<event>
 5    1  0.1043455E-009  0.9118800E+02  0.7561462E-02  0.1125453E+00
         25   -1    0    0    0    0  0.00000000000E+00  0.00000000000E+00  0.99999998245E-14  0.12509000000E+03  0.12509000000E+03 0.  0.
        -11    1    3    3    0    0 -0.38154571577E+02 -0.26995563523E+02  0.52953066761E+00  0.46741974553E+02  0.51100000000E-03 0.  1.
         23    2    1    0    0    0  0.46959043221E+01 -0.16355809634E+02  0.23156134157E+02  0.96353775904E+02  0.91968905374E+02 0.  0.
         11    1    3    3    0    0  0.42850475899E+02  0.10639753888E+02  0.22626603489E+02  0.49611801351E+02  0.51100000000E-03 0. -1.
         22    1    1    0    0    0 -0.46959043221E+01  0.16355809634E+02 -0.23156134157E+02  0.28736224096E+02  0.00000000000E+00 0.  1.
</event>
<event>
 5    1  0.1043455E-009  0.9118800E+02  0.7561462E-02  0.1125453E+00
         25   -1    0    0    0    0  0.00000000000E+00  0.00000000000E+00  0.99999998245E-14  0.12509000000E+03  0.12509000000E+03 0.  0.
        -11    1    3    3    0    0  0.83946846051E+00  0.28061594482E+02  0.32544202050E+01  0.28262148596E+02  0.51100000000E-03 0.  1.
         23    2    1    0    0    0  0.37908388748E+02 -0.13163191143E+02  0.88916743993E+01  0.83987963406E+02  0.73243433733E+02 0.  0.
         11    1    3    3    0    0  0.37068920287E+02 -0.41224785625E+02  0.56372541943E+01  0.55725814810E+02  0.51100000000E-03 0. -1.
         22    1    1    0    0    0 -0.37908388748E+02  0.13163191143E+02 -0.88916743993E+01  0.41102036594E+02  0.00000000000E+00 0.  1.
</event>
<event>
 5    1  0.1043455E-009  0.9118800E+02  0.7561462E-02  0.1125453E+00
         25   -1    0    0    0    0  0.00000000000E+00  0.00000000000E+00  0.99999998245E-14  0.12509000000E+03  0.12509000000E+03 0.  0.
        -11    1    3    3    0    0 -0.32050287081E+02  0.38240802352E+02 -0.58798625839E+00  0.49899154247E+02  0.51100000000E-03 0.  1.
         23    2    1    0    0    0 -0.10455857835E+02  0.11412613929E+02  0.26961280496E+02  0.94001684418E+02  0.88712080957E+02 0.  0.
         11    1    3    3    0    0  0.21594429246E+02 -0.26828188423E+02  0.27549266754E+02  0.44102530171E+02  0.51100000000E-03 0. -1.
         22    1    1    0    0    0  0.10455857835E+02 -0.11412613929E+02 -0.26961280496E+02  0.31088315582E+02  0.00000000000E+00 0.  1.
</event>
<event>
 5    1  0.1043455E-009  0.9118800E+02  0.7561462E-02  0.1125453E+00
         25   -1    0    0    0    0  0.00000000000E+00  0.00000000000E+00  0.99999998245E-14  0.12509000000E+03  0.12509000000E+03 0.  0.
        -11    1    3    3    0    0  0.19503461071E+02  0.18108392931E+02  0.55876433125E+02  0.61890828620E+02  0.51100000000E-03 0. -1.
         23    2    1    0    0    0  0.43429530706E+01  0.12713047722E+02  0.25843565212E+02  0.95963162090E+02  0.91436074892E+02 0.  0.
         11    1    3    3    0    0 -0.15160508001E+02 -0.53953452088E+01 -0.30032867913E+02  0.34072333470E+02  0.51100000000E-03 0.  1.
         22    1    1    0    0    0 -0.43429530706E+01 -0.12713047722E+02 -0.25843565212E+02  0.29126837910E+02  0.00000000000E+00 0. -1.
</event>
<event>
 5    1  0.1043455E-009  0.9118800E+02  0.7561462E-02  0.1125453E+00
         25   -1    0    0    0    0  0.00000000000E+00  0.00000000000E+00  0.99999998245E-14  0.12509000000E+03  0.12509000000E+03 0.  0.
        -11    1    3    3    0    0 -0.32800791981E+02 -0.16512618580E+02  0.85026069915E+01  0.37694201846E+02  0.51100000000E-03 0. -1.
         23    2    1    0    0    0  0.23409287520E+02 -0.50532143605E+01  0.17047816363E+02  0.95693439652E+02  0.91066330946E+02 0.  0.
         11    1    3    3    0    0  0.56210079500E+02  0.11459404220E+02  0.85452093718E+01  0.57999237805E+02  0.51100000000E-03 0.  1.
         22    1    1    0    0    0 -0.23409287520E+02  0.50532143605E+01 -0.17047816363E+02  0.29396560348E+02  0.00000000000E+00 0.  1.
</event>
<event>
 5    1  0.1043455E-009  0.9118800E+02  0.7561462E-02  0.1125453E+00
         25   -1    0    0    0    0  0.00000000000E+00  0.00000000000E+00  0.99999998245E-14  0.12509000000E+03  0.12509000000E+03 0.  0.
        -11    1    3    3    0    0 -0.76822835098E+01 -0.36387016566E+02 -0.10086366049E+02  0.38532677494E+02  0.51100000000E-03 0.  1.
         23    2    1    0    0    0  0.22746145386E+02  0.62239359773E+01  0.15560543492E+02  0.96836592723E+02  0.92623272818E+02 0.  0.
         11    1    3    3    0    0  0.30428428896E+02  0.42610952543E+02  0.25646909541E+02  0.58303915229E+02  0.51100000000E-03 0. -1.
         22    1    1    0    0    0 -0.22746145386E+02 -0.62239359773E+01 -0.15560543492E+02  0.28253407277E+02  0.00000000000E+00 0. -1.
</event>
<event>
 5    1  0.1043455E-009  0.9118800E+02  0.7561462E-02  0.1125453E+00
         25   -1    0    0    0    0  0.00000000000E+00  0.00000000000E+00  0.99999998245E-14  0.12509000000E+03  0.12509000000E+03 0.  0.
        -11    1    3    3    0    0  0.20934220501E+02 -0.34742182173E+01 -0.45208334102E+02  0.49941017738E+02  0.51100000000E-03 0. -1.
         23    2    1    0    0    0  0.66568143026E+01 -0.28094262778E+02 -0.11615844685E+02  0.93968807455E+02  0.88665710109E+02 0.  0.
         11    1    3    3    0    0 -0.14277406198E+02 -0.24620044560E+02  0.33592489417E+02  0.44027789717E+02  0.51100000000E-03 0.  1.
         22    1    1    0    0    0 -0.66568143026E+01  0.28094262778E+02  0.11615844685E+02  0.31121192545E+02  0.00000000000E+00 0. -1.
</event>
<event>
 5    1  0.1043455E-009  0.9118800E+02  0.7561462E-02  0.1125453E+00
         25   -1    0    0    0    0  0.00000000000E+00  0.00000000000E+00  0.99999998245E-14  0.12509000000E+03  0.12509000000E+03 0.  0.
        -11    1    3    3    0    0  0.38216291496E+02 -0.17102705469E+02 -0.45668018435E+02  0.61956076200E+02  0.51100000000E-03 0.  1.
         23    2    1    0    0    0  0.13685068115E+02 -0.86803222664E+01 -0.25776824989E+02  0.94642113530E+02  0.89610578968E+02 0.  0.
         11    1    3    3    0    0 -0.24531223381E+02  0.84223832024E+01  0.19891193446E+02  0.32686037330E+02  0.51100000000E-03 0. -1.
         22    1    1    0    0    0 -0.13685068115E+02  0.86803222664E+01  0.25776824989E+02  0.30447886470E+02  0.00000000000E+00 0.  1.
</event>
<event>
 5    1  0.1043455E-009  0.9118800E+02  0.7561462E-02  0.1125453E+00
         25   -1    0    0    0    0  0.00000000000E+00  0.00000000000E+00  0.99999998245E-14  0.12509000000E+03  0.12509000000E+03 0.  0.
        -11    1    3    3    0    0  0.34507041359E+02  0.37828162735E+02 -0.55798082083E+01  0.51505728411E+02  0.51100000000E-03 0.  1.
         23    2    1    0    0    0  0.66785582143E+01  0.11108149362E+02 -0.26643617323E+02  0.95461019827E+02  0.90746514204E+02 0.  0.
         11    1    3    3    0    0 -0.27828483145E+02 -0.26720013373E+02 -0.21063809114E+02  0.43955291416E+02  0.51100000000E-03 0. -1.
         22    1    1    0    0    0 -0.66785582143E+01 -0.11108149362E+02  0.26643617323E+02  0.29628980173E+02  0.00000000000E+00 0.  1.
</event>
<event>
 5    1  0.1043455E-009  0.9118800E+02  0.7561462E-02  0.1125453E+00
         25   -1    0    0    0    0  0.00000000000E+00  0.00000000000E+00  0.99999998245E-14  0.12509000000E+03  0.12509000000E+03 0.  0.
        -11    1    3    3    0    0 -0.25683769888E+02 -0.33585045839E+02  0.37650262930E+02  0.56614076329E+02  0.51100000000E-03 0. -1.
         23    2    1    0    0    0 -0.14822779929E+02  0.31119833619E+01  0.22911935498E+02  0.97624457341E+02  0.93681260867E+02 0.  0.
         11    1    3    3    0    0  0.10860989959E+02  0.36697029200E+02 -0.14738327432E+02  0.41010381012E+02  0.51100000000E-03 0.  1.
         22    1    1    0    0    0  0.14822779929E+02 -0.31119833619E+01 -0.22911935498E+02  0.27465542659E+02  0.00000000000E+00 0. -1.
</event>
<event>
 5    1  0.1043455E-009  0.9118800E+02  0.7561462E-02  0.1125453E+00
         25   -1    0    0    0    0  0.00000000000E+00  0.00000000000E+00  0.99999998245E-14  0.12509000000E+03  0.12509000000E+03 0.  0.
        -11    1    3    3    0    0 -0.20155884979E+02 -0.11794394771E+02 -0.33629673182E+02  0.40942915943E+02  0.51100000000E-03 0.  1.
         23    2    1    0    0    0  0.27283359367E+02  0.27067265788E+01 -0.98198829794E+01  0.95967188171E+02  0.91441582645E+02 0.  0.
         11    1    3    3    0    0  0.47439244346E+02  0.14501121350E+02  0.23809790202E+02  0.55024272228E+02  0.51100000000E-03 0. -1.
         22    1    1    0    0    0 -0.27283359367E+02 -0.27067265788E+01  0.98198829794E+01  0.29122811829E+02  0.00000000000E+00 0. -1.
</event>
<event>
 5    1  0.1043455E-009  0.9118800E+02  0.7561462E-02  0.1125453E+00
         25   -1    0    0    0    0  0.00000000000E+00  0.00000000000E+00  0.99999998245E-14  0.12509000000E+03  0.12509000000E+03 0.  0.
        -11    1    3    3    0    0 -0.20845453955E+02 -0.35864786034E+02  0.90148380550E+01  0.42450949733E+02  0.51100000000E-03 0.  1.
         23    2    1    0    0    0  0.24929274633E+02 -0.16914209222E+02 -0.63122352376E+01  0.94310079256E+02  0.89145877797E+02 0.  0.
         11    1    3    3    0    0  0.45774728588E+02  0.18950576812E+02 -0.15327073293E+02  0.51859129522E+02  0.51100000000E-03 0. -1.
         22    1    1    0    0    0 -0.24929274633E+02  0.16914209222E+02  0.63122352376E+01  0.30779920744E+02  0.00000000000E+00 0. -1.
</event>
<event>
 5    1  0.1043455E-009  0.9118800E+02  0.7561462E-02  0.1125453E+00
         25   -1    0    0    0    0  0.00000000000E+00  0.00000000000E+00  0.99999998245E-14  0.12509000000E+03  0.12509000000E+03 0.  0.
        -11    1    3    3    0    0 -0.30969911496E+02  0.43691704811E+01  0.13132047213E+02  0.33921611593E+02  0.51100000000E-03 0. -1.
         23    2    1    0    0    0  0.27571393458E+02 -0.10137820178E+02  0.89603173383E+01  0.94377715455E+02  0.89240734827E+02 0.  0.
         11    1    3    3    0    0  0.58541304955E+02 -0.14506990659E+02 -0.41717298746E+01  0.60456103862E+02  0.51100000000E-03 0.  1.
         22    1    1    0    0    0 -0.27571393458E+02  0.10137820178E+02 -0.89603173383E+01  0.30712284545E+02  0.00000000000E+00 0.  1.
</event>
<event>
 5    1  0.1043455E-009  0.9118800E+02  0.7561462E-02  0.1125453E+00
         25   -1    0    0    0    0  0.00000000000E+00  0.00000000000E+00  0.99999998245E-14  0.12509000000E+03  0.12509000000E+03 0.  0.
        -11    1    3    3    0    0  0.41126725690E+02  0.34338762227E+02  0.13460100676E+02  0.55242487885E+02  0.51100000000E-03 0.  1.
         23    2    1    0    0    0  0.28882688831E+02 -0.30919888152E+01  0.76554939882E+01  0.95050414498E+02  0.90178736957E+02 0.  0.
         11    1    3    3    0    0 -0.12244036859E+02 -0.37430751042E+02 -0.58046066877E+01  0.39807926613E+02  0.51100000000E-03 0. -1.
         22    1    1    0    0    0 -0.28882688831E+02  0.30919888152E+01 -0.76554939882E+01  0.30039585502E+02  0.00000000000E+00 0.  1.
</event>
<event>
 5    1  0.1043455E-009  0.9118800E+02  0.7561462E-02  0.1125453E+00
         25   -1    0    0    0    0  0.00000000000E+00  0.00000000000E+00  0.99999998245E-14  0.12509000000E+03  0.12509000000E+03 0.  0.
        -11    1    3    3    0    0 -0.10910980008E+02  0.38562191076E+02  0.11310990627E+02  0.41641692743E+02  0.51100000000E-03 0.  1.
         23    2    1    0    0    0  0.31134565389E+01  0.20411332123E+02 -0.29869098103E+02  0.88779132314E+02  0.81013919929E+02 0.  0.
         11    1    3    3    0    0  0.14024436547E+02 -0.18150858953E+02 -0.41180088730E+02  0.47137439570E+02  0.51100000000E-03 0. -1.
         22    1    1    0    0    0 -0.31134565389E+01 -0.20411332123E+02  0.29869098103E+02  0.36310867686E+02  0.00000000000E+00 0. -1.
</event>
<event>
 5    1  0.1043455E-009  0.9118800E+02  0.7561462E-02  0.1125453E+00
         25   -1    0    0    0    0  0.00000000000E+00  0.00000000000E+00  0.99999998245E-14  0.12509000000E+03  0.12509000000E+03 0.  0.
        -11    1    3    3    0    0  0.13774463346E+01  0.39614779883E+02 -0.11616476781E+01  0.39655738162E+02  0.51100000000E-03 0. -1.
         23    2    1    0    0    0  0.19249053341E+02 -0.92209295624E+01 -0.20841903321E+02  0.95258195989E+02  0.90466498620E+02 0.  0.
         11    1    3    3    0    0  0.17871607006E+02 -0.48835709445E+02 -0.19680255643E+02  0.55602457827E+02  0.51100000000E-03 0.  1.
         22    1    1    0    0    0 -0.19249053341E+02  0.92209295624E+01  0.20841903321E+02  0.29831804011E+02  0.00000000000E+00 0.  1.
</event>
<event>
 5    1  0.1043455E-009  0.9118800E+02  0.7561462E-02  0.1125453E+00
         25   -1    0    0    0    0  0.00000000000E+00  0.00000000000E+00  0.99999998245E-14  0.12509000000E+03  0.12509000000E+03 0.  0.
        -11    1    3    3    0    0  0.12846609650E+02  0.14404664947E+02  0.47436633795E+02  0.51212927839E+02  0.51100000000E-03 0.  1.
         23    2    1    0    0    0  0.30457048934E+01 -0.19971819537E+02  0.22801520497E+02  0.94625935418E+02  0.89587992626E+02 0.  0.
         11    1    3    3    0    0 -0.98009047567E+01 -0.34376484484E+02 -0.24635113299E+02  0.43413007579E+02  0.51100000000E-03 0. -1.
         22    1    1    0    0    0 -0.30457048934E+01  0.19971819537E+02 -0.22801520497E+02  0.30464064582E+02  0.00000000000E+00 0.  1.
</event>
<event>
 5    1  0.1043455E-009  0.9118800E+02  0.7561462E-02  0.1125453E+00
         25   -1    0    0    0    0  0.00000000000E+00  0.00000000000E+00  0.99999998245E-14  0.12509000000E+03  0.12509000000E+03 0.  0.
        -11    1    3    3    0    0  0.41250623308E+02 -0.29885182153E+02 -0.74944000725E+01  0.51486931044E+02  0.51100000000E-03 0. -1.
         23    2    1    0    0    0  0.13142465147E+02 -0.10968710216E+02 -0.28855154966E+02  0.91539188355E+02  0.85169043922E+02 0.  0.
         11    1    3    3    0    0 -0.28108158161E+02  0.18916471938E+02 -0.21360754894E+02  0.40052257311E+02  0.51100000000E-03 0.  1.
         22    1    1    0    0    0 -0.13142465147E+02  0.10968710216E+02  0.28855154966E+02  0.33550811645E+02  0.00000000000E+00 0.  1.
</event>
<event>
 5    1  0.1043455E-009  0.9118800E+02  0.7561462E-02  0.1125453E+00
         25   -1    0    0    0    0  0.00000000000E+00  0.00000000000E+00  0.99999998245E-14  0.12509000000E+03  0.12509000000E+03 0.  0.
        -11    1    3    3    0    0 -0.27318860481E+02 -0.12130721688E+02 -0.28493046054E+02  0.41295619869E+02  0.51100000000E-03 0.  1.
         23    2    1    0    0    0 -0.12730753772E+02  0.25786423739E+02  0.72775536663E+01  0.95425635382E+02  0.90697725218E+02 0.  0.
         11    1    3    3    0    0  0.14588106710E+02  0.37917145427E+02  0.35770599721E+02  0.54130015512E+02  0.51100000000E-03 0. -1.
         22    1    1    0    0    0  0.12730753772E+02 -0.25786423739E+02 -0.72775536663E+01  0.29664364618E+02  0.00000000000E+00 0. -1.
</event>
<event>
 5    1  0.1043455E-009  0.9118800E+02  0.7561462E-02  0.1125453E+00
         25   -1    0    0    0    0  0.00000000000E+00  0.00000000000E+00  0.99999998245E-14  0.12509000000E+03  0.12509000000E+03 0.  0.
        -11    1    3    3    0    0  0.33550859600E+02  0.45133854779E+02  0.26848608813E+02  0.62318318515E+02  0.51100000000E-03 0.  1.
         23    2    1    0    0    0  0.13275318614E+02  0.22367031982E+02  0.15266041184E+02  0.94930918161E+02  0.90012826894E+02 0.  0.
         11    1    3    3    0    0 -0.20275540986E+02 -0.22766822797E+02 -0.11582567629E+02  0.32612599646E+02  0.51100000000E-03 0. -1.
         22    1    1    0    0    0 -0.13275318614E+02 -0.22367031982E+02 -0.15266041184E+02  0.30159081839E+02  0.00000000000E+00 0.  1.
</event>
<event>
 5    1  0.1043455E-009  0.9118800E+02  0.7561462E-02  0.1125453E+00
         25   -1    0    0    0    0  0.00000000000E+00  0.00000000000E+00  0.99999998245E-14  0.12509000000E+03  0.12509000000E+03 0.  0.
        -11    1    3    3    0    0  0.50223412382E+02  0.16764251987E+02  0.30603622684E+02  0.61155645836E+02  0.51100000000E-03 0. -1.
         23    2    1    0    0    0  0.22619824602E+02  0.16673782634E+02  0.11491368015E+02  0.94730108182E+02  0.89733329176E+02 0.  0.
         11    1    3    3    0    0 -0.27603587780E+02 -0.90469353040E-01 -0.19112254669E+02  0.33574462346E+02  0.51100000000E-03 0.  1.
         22    1    1    0    0    0 -0.22619824602E+02 -0.16673782634E+02 -0.11491368015E+02  0.30359891818E+02  0.00000000000E+00 0. -1.
</event>
<event>
 5    1  0.1043455E-009  0.9118800E+02  0.7561462E-02  0.1125453E+00
         25   -1    0    0    0    0  0.00000000000E+00  0.00000000000E+00  0.99999998245E-14  0.12509000000E+03  0.12509000000E+03 0.  0.
        -11    1    3    3    0    0 -0.15430883045E+02 -0.40820509546E+01  0.42735656952E+02  0.45619202831E+02  0.51100000000E-03 0.  1.
         23    2    1    0    0    0  0.19100214345E+02 -0.14673501205E+02  0.76460471615E+00  0.10099198253E+03  0.98074798440E+02 0.  0.
         11    1    3    3    0    0  0.34531097390E+02 -0.10591450251E+02 -0.41971052236E+02  0.55372779698E+02  0.51100000000E-03 0. -1.
         22    1    1    0    0    0 -0.19100214345E+02  0.14673501205E+02 -0.76460471615E+00  0.24098017471E+02  0.00000000000E+00 0. -1.
</event>
<event>
 5    1  0.1043455E-009  0.9118800E+02  0.7561462E-02  0.1125453E+00
         25   -1    0    0    0    0  0.00000000000E+00  0.00000000000E+00  0.99999998245E-14  0.12509000000E+03  0.12509000000E+03 0.  0.
        -11    1    3    3    0    0  0.13751087618E+02  0.37497882521E+02  0.15443164187E+02  0.42821430669E+02  0.51100000000E-03 0. -1.
         23    2    1    0    0    0 -0.18198055825E+02  0.11480047892E+02 -0.18893135838E+02  0.96455906384E+02  0.92107711725E+02 0.  0.
         11    1    3    3    0    0 -0.31949143443E+02 -0.26017834629E+02 -0.34336300025E+02  0.53634475715E+02  0.51100000000E-03 0.  1.
         22    1    1    0    0    0  0.18198055825E+02 -0.11480047892E+02  0.18893135838E+02  0.28634093616E+02  0.00000000000E+00 0.  1.
</event>
<event>
 5    1  0.1043455E-009  0.9118800E+02  0.7561462E-02  0.1125453E+00
         25   -1    0    0    0    0  0.00000000000E+00  0.00000000000E+00  0.99999998245E-14  0.12509000000E+03  0.12509000000E+03 0.  0.
        -11    1    3    3    0    0 -0.83330561052E+01  0.93190455036E+01  0.32322064480E+02  0.34655451024E+02  0.51100000000E-03 0.  1.
         23    2    1    0    0    0  0.15243084886E+01  0.28259679670E+01 -0.28397435267E+02  0.96511617592E+02  0.92183341169E+02 0.  0.
         11    1    3    3    0    0  0.98573645938E+01 -0.64930775366E+01 -0.60719499747E+02  0.61856166568E+02  0.51100000000E-03 0. -1.
         22    1    1    0    0    0 -0.15243084886E+01 -0.28259679670E+01  0.28397435267E+02  0.28578382408E+02  0.00000000000E+00 0. -1.
</event>
<event>
 5    1  0.1043455E-009  0.9118800E+02  0.7561462E-02  0.1125453E+00
         25   -1    0    0    0    0  0.00000000000E+00  0.00000000000E+00  0.99999998245E-14  0.12509000000E+03  0.12509000000E+03 0.  0.
        -11    1    3    3    0    0  0.11306548671E+02 -0.31601258905E+02  0.43255579481E+02  0.54749637110E+02  0.51100000000E-03 0.  1.
         23    2    1    0    0    0 -0.10254178652E+02 -0.16848542601E+02 -0.97869045704E-01  0.10536612751E+03  0.10350357327E+03 0.  0.
         11    1    3    3    0    0 -0.21560727323E+02  0.14752716304E+02 -0.43353448526E+02  0.50616490400E+02  0.51100000000E-03 0. -1.
         22    1    1    0    0    0  0.10254178652E+02  0.16848542601E+02  0.97869045704E-01  0.19723872489E+02  0.00000000000E+00 0.  1.
</event>
<event>
 5    1  0.1043455E-009  0.9118800E+02  0.7561462E-02  0.1125453E+00
         25   -1    0    0    0    0  0.00000000000E+00  0.00000000000E+00  0.99999998245E-14  0.12509000000E+03  0.12509000000E+03 0.  0.
        -11    1    3    3    0    0 -0.11429755517E+02  0.17523492971E+02 -0.51876146946E+02  0.55936095138E+02  0.51100000000E-03 0. -1.
         23    2    1    0    0    0  0.12305114299E+02  0.15007460937E+02 -0.34664689955E+02  0.85362422030E+02  0.75554368792E+02 0.  0.
         11    1    3    3    0    0  0.23734869815E+02 -0.25160320341E+01  0.17211456991E+02  0.29426326892E+02  0.51100000000E-03 0.  1.
         22    1    1    0    0    0 -0.12305114299E+02 -0.15007460937E+02  0.34664689955E+02  0.39727577970E+02  0.00000000000E+00 0. -1.
</event>
<event>
 5    1  0.1043455E-009  0.9118800E+02  0.7561462E-02  0.1125453E+00
         25   -1    0    0    0    0  0.00000000000E+00  0.00000000000E+00  0.99999998245E-14  0.12509000000E+03  0.12509000000E+03 0.  0.
        -11    1    3    3    0    0 -0.13776696127E+02 -0.41658702318E+02 -0.71782578902E+01  0.44460906666E+02  0.51100000000E-03 0. -1.
         23    2    1    0    0    0 -0.11933112706E+02  0.72194732373E+01 -0.24953347956E+02  0.96503472633E+02  0.92172288045E+02 0.  0.
         11    1    3    3    0    0  0.18435834210E+01  0.48878175555E+02 -0.17775090066E+02  0.52042565968E+02  0.51100000000E-03 0.  1.
         22    1    1    0    0    0  0.11933112706E+02 -0.72194732373E+01  0.24953347956E+02  0.28586527367E+02  0.00000000000E+00 0. -1.
</event>
<event>
 5    1  0.1043455E-009  0.9118800E+02  0.7561462E-02  0.1125453E+00
         25   -1    0    0    0    0  0.00000000000E+00  0.00000000000E+00  0.99999998245E-14  0.12509000000E+03  0.12509000000E+03 0.  0.
        -11    1    3    3    0    0 -0.33709646756E+02  0.15546397254E+02  0.11432884224E+02  0.38842523012E+02  0.51100000000E-03 0. -1.
         23    2    1    0    0    0  0.87483332527E+01  0.25253275503E+02 -0.19279902891E+02  0.92135851341E+02  0.86040915781E+02 0.  0.
         11    1    3    3    0    0  0.42457980009E+02  0.97068782497E+01 -0.30712787115E+02  0.53293328329E+02  0.51100000000E-03 0.  1.
         22    1    1    0    0    0 -0.87483332527E+01 -0.25253275503E+02  0.19279902891E+02  0.32954148659E+02  0.00000000000E+00 0.  1.
</event>
<event>
 5    1  0.1043455E-009  0.9118800E+02  0.7561462E-02  0.1125453E+00
         25   -1    0    0    0    0  0.00000000000E+00  0.00000000000E+00  0.99999998245E-14  0.12509000000E+03  0.12509000000E+03 0.  0.
        -11    1    3    3    0    0 -0.33706421880E+02  0.12003399439E+01  0.37354425797E+02  0.50328091747E+02  0.51100000000E-03 0.  1.
         23    2    1    0    0    0 -0.25048206000E+02 -0.11443377262E+02 -0.65103037448E+01  0.96792516687E+02  0.92563727911E+02 0.  0.
         11    1    3    3    0    0  0.86582158798E+01 -0.12643717206E+02 -0.43864729542E+02  0.46464424941E+02  0.51100000000E-03 0. -1.
         22    1    1    0    0    0  0.25048206000E+02  0.11443377262E+02  0.65103037448E+01  0.28297483313E+02  0.00000000000E+00 0.  1.
</event>
<event>
 5    1  0.1043455E-009  0.9118800E+02  0.7561462E-02  0.1125453E+00
         25   -1    0    0    0    0  0.00000000000E+00  0.00000000000E+00  0.99999998245E-14  0.12509000000E+03  0.12509000000E+03 0.  0.
        -11    1    3    3    0    0 -0.52785417894E+01  0.37624267937E+02 -0.21923633235E+02  0.43864498580E+02  0.51100000000E-03 0.  1.
         23    2    1    0    0    0  0.28204742553E+02  0.76321259166E+01 -0.21491350495E+02  0.88818316904E+02  0.81074400541E+02 0.  0.
         11    1    3    3    0    0  0.33483284342E+02 -0.29992142020E+02  0.43228274016E+00  0.44953818324E+02  0.51100000000E-03 0. -1.
         22    1    1    0    0    0 -0.28204742553E+02 -0.76321259166E+01  0.21491350495E+02  0.36271683096E+02  0.00000000000E+00 0.  1.
</event>
<event>
 5    1  0.1043455E-009  0.9118800E+02  0.7561462E-02  0.1125453E+00
         25   -1    0    0    0    0  0.00000000000E+00  0.00000000000E+00  0.99999998245E-14  0.12509000000E+03  0.12509000000E+03 0.  0.
        -11    1    3    3    0    0  0.11511185889E+02 -0.15218880051E+02  0.36908501570E+02  0.41549478926E+02  0.51100000000E-03 0.  1.
         23    2    1    0    0    0 -0.26564035166E+02  0.40072954117E+01 -0.40695279049E+00  0.98222324414E+02  0.94476203469E+02 0.  0.
         11    1    3    3    0    0 -0.38075221055E+02  0.19226175463E+02 -0.37315454361E+02  0.56672845488E+02  0.51100000000E-03 0. -1.
         22    1    1    0    0    0  0.26564035166E+02 -0.40072954117E+01  0.40695279049E+00  0.26867675586E+02  0.00000000000E+00 0. -1.
</event>
<event>
 5    1  0.1043455E-009  0.9118800E+02  0.7561462E-02  0.1125453E+00
         25   -1    0    0    0    0  0.00000000000E+00  0.00000000000E+00  0.99999998245E-14  0.12509000000E+03  0.12509000000E+03 0.  0.
        -11    1    3    3    0    0 -0.20530314520E+02 -0.91054620639E+01  0.34539211263E+02  0.41199033588E+02  0.51100000000E-03 0.  1.
         23    2    1    0    0    0  0.25102161497E+02  0.99115645134E+01  0.13251133017E+02  0.95024236262E+02  0.90142416919E+02 0.  0.
         11    1    3    3    0    0  0.45632476016E+02  0.19017026577E+02 -0.21288078246E+02  0.53825202674E+02  0.51100000000E-03 0. -1.
         22    1    1    0    0    0 -0.25102161497E+02 -0.99115645134E+01 -0.13251133017E+02  0.30065763738E+02  0.00000000000E+00 0. -1.
</event>
<event>
 5    1  0.1043455E-009  0.9118800E+02  0.7561462E-02  0.1125453E+00
         25   -1    0    0    0    0  0.00000000000E+00  0.00000000000E+00  0.99999998245E-14  0.12509000000E+03  0.12509000000E+03 0.  0.
        -11    1    3    3    0    0  0.22763378440E+02 -0.15258221015E+02 -0.22056766989E+02  0.35177914617E+02  0.51100000000E-03 0. -1.
         23    2    1    0    0    0 -0.93411350103E+01  0.29525466092E+01  0.26884020935E+02  0.96476630461E+02  0.92135852461E+02 0.  0.
         11    1    3    3    0    0 -0.32104513450E+02  0.18210767624E+02  0.48940787924E+02  0.61298715844E+02  0.51100000000E-03 0.  1.
         22    1    1    0    0    0  0.93411350103E+01 -0.29525466092E+01 -0.26884020935E+02  0.28613369539E+02  0.00000000000E+00 0.  1.
</event>
<event>
 5    1  0.1043455E-009  0.9118800E+02  0.7561462E-02  0.1125453E+00
         25   -1    0    0    0    0  0.00000000000E+00  0.00000000000E+00  0.99999998245E-14  0.12509000000E+03  0.12509000000E+03 0.  0.
        -11    1    3    3    0    0 -0.53538661866E+02 -0.13886624402E+02  0.23657124909E+02  0.60157179213E+02  0.51100000000E-03 0.  1.
         23    2    1    0    0    0 -0.22132875523E+02 -0.13292529890E+02  0.21233975579E+02  0.91661909287E+02  0.85349097040E+02 0.  0.
         11    1    3    3    0    0  0.31405786343E+02  0.59409451244E+00 -0.24231493295E+01  0.31504730074E+02  0.51100000000E-03 0. -1.
         22    1    1    0    0    0  0.22132875523E+02  0.13292529890E+02 -0.21233975579E+02  0.33428090713E+02  0.00000000000E+00 0.  1.
</event>
<event>
 5    1  0.1043455E-009  0.9118800E+02  0.7561462E-02  0.1125453E+00
         25   -1    0    0    0    0  0.00000000000E+00  0.00000000000E+00  0.99999998245E-14  0.12509000000E+03  0.12509000000E+03 0.  0.
        -11    1    3    3    0    0 -0.11293297142E+02 -0.13017164852E+02 -0.34818072291E+02  0.38849495485E+02  0.51100000000E-03 0.  1.
         23    2    1    0    0    0  0.29577499694E+02  0.29530040289E+01  0.78277560855E+00  0.95355147410E+02  0.90600456284E+02 0.  0.
         11    1    3    3    0    0  0.40870796836E+02  0.15970168881E+02  0.35600847899E+02  0.56505651925E+02  0.51100000000E-03 0. -1.
         22    1    1    0    0    0 -0.29577499694E+02 -0.29530040289E+01 -0.78277560855E+00  0.29734852590E+02  0.00000000000E+00 0. -1.
</event>
<event>
 5    1  0.1043455E-009  0.9118800E+02  0.7561462E-02  0.1125453E+00
         25   -1    0    0    0    0  0.00000000000E+00  0.00000000000E+00  0.99999998245E-14  0.12509000000E+03  0.12509000000E+03 0.  0.
        -11    1    3    3    0    0  0.42928408521E+02  0.12591412984E+02 -0.45174028378E+01  0.44964417796E+02  0.51100000000E-03 0.  1.
         23    2    1    0    0    0  0.15907793425E+02 -0.26864797567E+02  0.42423816622E+01  0.93581698838E+02  0.88117883062E+02 0.  0.
         11    1    3    3    0    0 -0.27020615096E+02 -0.39456210551E+02  0.87597845000E+01  0.48617281042E+02  0.51100000000E-03 0. -1.
         22    1    1    0    0    0 -0.15907793425E+02  0.26864797567E+02 -0.42423816622E+01  0.31508301162E+02  0.00000000000E+00 0. -1.
</event>
<event>
 5    1  0.1043455E-009  0.9118800E+02  0.7561462E-02  0.1125453E+00
         25   -1    0    0    0    0  0.00000000000E+00  0.00000000000E+00  0.99999998245E-14  0.12509000000E+03  0.12509000000E+03 0.  0.
        -11    1    3    3    0    0 -0.28655588935E+02 -0.24432313670E+02 -0.15150526204E+01  0.37687877536E+02  0.51100000000E-03 0.  1.
         23    2    1    0    0    0  0.13411554195E+02  0.86213696977E+01 -0.24453906317E+02  0.95897683622E+02  0.91346452522E+02 0.  0.
         11    1    3    3    0    0  0.42067143131E+02  0.33053683367E+02 -0.22938853696E+02  0.58209806085E+02  0.51100000000E-03 0. -1.
         22    1    1    0    0    0 -0.13411554195E+02 -0.86213696977E+01  0.24453906317E+02  0.29192316378E+02  0.00000000000E+00 0.  1.
</event>
<event>
 5    1  0.1043455E-009  0.9118800E+02  0.7561462E-02  0.1125453E+00
         25   -1    0    0    0    0  0.00000000000E+00  0.00000000000E+00  0.99999998245E-14  0.12509000000E+03  0.12509000000E+03 0.  0.
        -11    1    3    3    0    0 -0.43703056242E+01  0.24834180581E+02  0.15656544110E+02  0.29681028792E+02  0.51100000000E-03 0.  1.
         23    2    1    0    0    0 -0.78868928439E+01 -0.78232732572E+01 -0.34057837436E+02  0.89266223343E+02  0.81762556564E+02 0.  0.
         11    1    3    3    0    0 -0.35165872197E+01 -0.32657453839E+02 -0.49714381546E+02  0.59585194551E+02  0.51100000000E-03 0. -1.
         22    1    1    0    0    0  0.78868928439E+01  0.78232732572E+01  0.34057837436E+02  0.35823776657E+02  0.00000000000E+00 0. -1.
</event>
<event>
 5    1  0.1043455E-009  0.9118800E+02  0.7561462E-02  0.1125453E+00
         25   -1    0    0    0    0  0.00000000000E+00  0.00000000000E+00  0.99999998245E-14  0.12509000000E+03  0.12509000000E+03 0.  0.
        -11    1    3    3    0    0  0.24143259793E+02  0.32497743696E+02  0.93252918829E+01  0.41544691692E+02  0.51100000000E-03 0. -1.
         23    2    1    0    0    0 -0.23502761243E+02  0.91827597107E+01  0.16306320222E+02  0.95046715540E+02  0.90173605860E+02 0.  0.
         11    1    3    3    0    0 -0.47646021037E+02 -0.23314983986E+02  0.69810283392E+01  0.53502023848E+02  0.51100000000E-03 0.  1.
         22    1    1    0    0    0  0.23502761243E+02 -0.91827597107E+01 -0.16306320222E+02  0.30043284460E+02  0.00000000000E+00 0. -1.
</event>
<event>
 5    1  0.1043455E-009  0.9118800E+02  0.7561462E-02  0.1125453E+00
         25   -1    0    0    0    0  0.00000000000E+00  0.00000000000E+00  0.99999998245E-14  0.12509000000E+03  0.12509000000E+03 0.  0.
        -11    1    3    3    0    0 -0.35294547791E+01  0.43111599491E+01 -0.52557205486E+02  0.52851707634E+02  0.51100000000E-03 0.  1.
         23    2    1    0    0    0 -0.49538383577E+01 -0.21891911591E+02 -0.17575085390E+02  0.96582458296E+02  0.92279419788E+02 0.  0.
         11    1    3    3    0    0 -0.14243835786E+01 -0.26203071540E+02  0.34982120096E+02  0.43730750661E+02  0.51100000000E-03 0. -1.
         22    1    1    0    0    0  0.49538383577E+01  0.21891911591E+02  0.17575085390E+02  0.28507541704E+02  0.00000000000E+00 0.  1.
</event>
<event>
 5    1  0.1043455E-009  0.9118800E+02  0.7561462E-02  0.1125453E+00
         25   -1    0    0    0    0  0.00000000000E+00  0.00000000000E+00  0.99999998245E-14  0.12509000000E+03  0.12509000000E+03 0.  0.
        -11    1    3    3    0    0 -0.11796514007E+02 -0.22400693678E+02 -0.27298955032E+02  0.37231462046E+02  0.51100000000E-03 0.  1.
         23    2    1    0    0    0  0.16696127209E+02  0.21841929308E+02  0.21128248750E+01  0.97516560450E+02  0.93537078175E+02 0.  0.
         11    1    3    3    0    0  0.28492641216E+02  0.44242622985E+02  0.29411779907E+02  0.60285098404E+02  0.51100000000E-03 0. -1.
         22    1    1    0    0    0 -0.16696127209E+02 -0.21841929308E+02 -0.21128248750E+01  0.27573439550E+02  0.00000000000E+00 0. -1.
</event>
<event>
 5    1  0.1043455E-009  0.9118800E+02  0.7561462E-02  0.1125453E+00
         25   -1    0    0    0    0  0.00000000000E+00  0.00000000000E+00  0.99999998245E-14  0.12509000000E+03  0.12509000000E+03 0.  0.
        -11    1    3    3    0    0 -0.20744911897E+02  0.44714871122E+02  0.54881277385E+01  0.49597284355E+02  0.51100000000E-03 0.  1.
         23    2    1    0    0    0  0.17744602058E+02  0.19190985696E+02  0.12163942832E+02  0.96260738140E+02  0.91842274405E+02 0.  0.
         11    1    3    3    0    0  0.38489513955E+02 -0.25523885426E+02  0.66758150936E+01  0.46663453785E+02  0.51100000000E-03 0. -1.
         22    1    1    0    0    0 -0.17744602058E+02 -0.19190985696E+02 -0.12163942832E+02  0.28829261860E+02  0.00000000000E+00 0.  1.
</event>
<event>
 5    1  0.1043455E-009  0.9118800E+02  0.7561462E-02  0.1125453E+00
         25   -1    0    0    0    0  0.00000000000E+00  0.00000000000E+00  0.99999998245E-14  0.12509000000E+03  0.12509000000E+03 0.  0.
        -11    1    3    3    0    0  0.37961279257E+01 -0.38481536484E+02 -0.19262616689E+02  0.43200551378E+02  0.51100000000E-03 0.  1.
         23    2    1    0    0    0  0.20065741239E+02  0.12186948474E+02 -0.16319481678E+02  0.96498372434E+02  0.92165366140E+02 0.  0.
         11    1    3    3    0    0  0.16269613314E+02  0.50668484959E+02  0.29431350106E+01  0.53297821056E+02  0.51100000000E-03 0. -1.
         22    1    1    0    0    0 -0.20065741239E+02 -0.12186948474E+02  0.16319481678E+02  0.28591627566E+02  0.00000000000E+00 0. -1.
</event>
<event>
 5    1  0.1043455E-009  0.9118800E+02  0.7561462E-02  0.1125453E+00
         25   -1    0    0    0    0  0.00000000000E+00  0.00000000000E+00  0.99999998245E-14  0.12509000000E+03  0.12509000000E+03 0.  0.
        -11    1    3    3    0    0 -0.27881991224E+02  0.16715590150E+02 -0.85722992216E+01  0.33619945015E+02  0.51100000000E-03 0. -1.
         23    2    1    0    0    0  0.15670066000E+02 -0.25711454739E+02 -0.32822416556E+00  0.94977915974E+02  0.90078115647E+02 0.  0.
         11    1    3    3    0    0  0.43552057224E+02 -0.42427044889E+02  0.82440750560E+01  0.61357970959E+02  0.51100000000E-03 0.  1.
         22    1    1    0    0    0 -0.15670066000E+02  0.25711454739E+02  0.32822416556E+00  0.30112084026E+02  0.00000000000E+00 0.  1.
</event>
<event>
 5    1  0.1043455E-009  0.9118800E+02  0.7561462E-02  0.1125453E+00
         25   -1    0    0    0    0  0.00000000000E+00  0.00000000000E+00  0.99999998245E-14  0.12509000000E+03  0.12509000000E+03 0.  0.
        -11    1    3    3    0    0 -0.33522258466E+02 -0.17974475430E+02 -0.48828485772E+02  0.61895432810E+02  0.51100000000E-03 0. -1.
         23    2    1    0    0    0 -0.11138618876E+02 -0.12454750625E+02 -0.24718513115E+02  0.95253871997E+02  0.90460519544E+02 0.  0.
         11    1    3    3    0    0  0.22383639590E+02  0.55197248044E+01  0.24109972657E+02  0.33358439187E+02  0.51100000000E-03 0.  1.
         22    1    1    0    0    0  0.11138618876E+02  0.12454750625E+02  0.24718513115E+02  0.29836128003E+02  0.00000000000E+00 0. -1.
</event>
<event>
 5    1  0.1043455E-009  0.9118800E+02  0.7561462E-02  0.1125453E+00
         25   -1    0    0    0    0  0.00000000000E+00  0.00000000000E+00  0.99999998245E-14  0.12509000000E+03  0.12509000000E+03 0.  0.
        -11    1    3    3    0    0 -0.55661069143E+02 -0.16590447935E+02  0.72357173338E+01  0.58529934105E+02  0.51100000000E-03 0.  1.
         23    2    1    0    0    0 -0.28098351606E+02  0.79870851867E+01  0.41048077749E+01  0.95591519706E+02  0.90926224491E+02 0.  0.
         11    1    3    3    0    0  0.27562717537E+02  0.24577533122E+02 -0.31309095589E+01  0.37061585601E+02  0.51100000000E-03 0. -1.
         22    1    1    0    0    0  0.28098351606E+02 -0.79870851867E+01 -0.41048077749E+01  0.29498480294E+02  0.00000000000E+00 0.  1.
</event>
<event>
 5    1  0.1043455E-009  0.9118800E+02  0.7561462E-02  0.1125453E+00
         25   -1    0    0    0    0  0.00000000000E+00  0.00000000000E+00  0.99999998245E-14  0.12509000000E+03  0.12509000000E+03 0.  0.
        -11    1    3    3    0    0 -0.46692701912E+02  0.33785853878E+01  0.39750600859E+02  0.61414440647E+02  0.51100000000E-03 0.  1.
         23    2    1    0    0    0 -0.28090246702E+02  0.44711037306E+00  0.12986837075E+02  0.94139720443E+02  0.88906507975E+02 0.  0.
         11    1    3    3    0    0  0.18602455210E+02 -0.29314750148E+01 -0.26763763783E+02  0.32725279796E+02  0.51100000000E-03 0. -1.
         22    1    1    0    0    0  0.28090246702E+02 -0.44711037306E+00 -0.12986837075E+02  0.30950279557E+02  0.00000000000E+00 0.  1.
</event>
<event>
 5    1  0.1043455E-009  0.9118800E+02  0.7561462E-02  0.1125453E+00
         25   -1    0    0    0    0  0.00000000000E+00  0.00000000000E+00  0.99999998245E-14  0.12509000000E+03  0.12509000000E+03 0.  0.
        -11    1    3    3    0    0 -0.35756410321E+02  0.15115984263E+02 -0.36052437677E+02  0.52979166868E+02  0.51100000000E-03 0.  1.
         23    2    1    0    0    0 -0.50485750822E+01  0.27651105165E+02 -0.96534162956E+01  0.95370306641E+02  0.90621383875E+02 0.  0.
         11    1    3    3    0    0  0.30707835239E+02  0.12535120902E+02  0.26399021382E+02  0.42391139773E+02  0.51100000000E-03 0. -1.
         22    1    1    0    0    0  0.50485750822E+01 -0.27651105165E+02  0.96534162956E+01  0.29719693359E+02  0.00000000000E+00 0.  1.
</event>
<event>
 5    1  0.1043455E-009  0.9118800E+02  0.7561462E-02  0.1125453E+00
         25   -1    0    0    0    0  0.00000000000E+00  0.00000000000E+00  0.99999998245E-14  0.12509000000E+03  0.12509000000E+03 0.  0.
        -11    1    3    3    0    0 -0.46972250500E+01 -0.32197567861E+02 -0.15080994147E+02  0.35863403130E+02  0.51100000000E-03 0.  1.
         23    2    1    0    0    0  0.13976997581E+02  0.11110353769E+02  0.22640939178E+02  0.96255844054E+02  0.91835608375E+02 0.  0.
         11    1    3    3    0    0  0.18674222631E+02  0.43307921630E+02  0.37721933325E+02  0.60392440924E+02  0.51100000000E-03 0. -1.
         22    1    1    0    0    0 -0.13976997581E+02 -0.11110353769E+02 -0.22640939178E+02  0.28834155946E+02  0.00000000000E+00 0. -1.
</event>
<event>
 5    1  0.1043455E-009  0.9118800E+02  0.7561462E-02  0.1125453E+00
         25   -1    0    0    0    0  0.00000000000E+00  0.00000000000E+00  0.99999998245E-14  0.12509000000E+03  0.12509000000E+03 0.  0.
        -11    1    3    3    0    0  0.16842941560E+02  0.30045725090E+02  0.85710365815E+01  0.35494970699E+02  0.51100000000E-03 0.  1.
         23    2    1    0    0    0 -0.18700688610E+02 -0.15966036655E+02 -0.12711758631E+02  0.97409340896E+02  0.93393580108E+02 0.  0.
         11    1    3    3    0    0 -0.35543630170E+02 -0.46011761745E+02 -0.21282795213E+02  0.61914370197E+02  0.51100000000E-03 0. -1.
         22    1    1    0    0    0  0.18700688610E+02  0.15966036655E+02  0.12711758631E+02  0.27680659104E+02  0.00000000000E+00 0. -1.
</event>
<event>
 5    1  0.1043455E-009  0.9118800E+02  0.7561462E-02  0.1125453E+00
         25   -1    0    0    0    0  0.00000000000E+00  0.00000000000E+00  0.99999998245E-14  0.12509000000E+03  0.12509000000E+03 0.  0.
        -11    1    3    3    0    0 -0.33443981082E+02  0.18425755936E+02 -0.40724159556E+00  0.38186047169E+02  0.51100000000E-03 0. -1.
         23    2    1    0    0    0 -0.94455193757E+01  0.44183957391E+02 -0.16623624525E+02  0.76946622269E+02  0.60024976961E+02 0.  0.
         11    1    3    3    0    0  0.23998461706E+02  0.25758201456E+02 -0.16216382930E+02  0.38760575100E+02  0.51100000000E-03 0.  1.
         22    1    1    0    0    0  0.94455193757E+01 -0.44183957391E+02  0.16623624525E+02  0.48143377731E+02  0.00000000000E+00 0.  1.
</event>
<event>
 5    1  0.1043455E-009  0.9118800E+02  0.7561462E-02  0.1125453E+00
         25   -1    0    0    0    0  0.00000000000E+00  0.00000000000E+00  0.99999998245E-14  0.12509000000E+03  0.12509000000E+03 0.  0.
        -11    1    3    3    0    0  0.13471303451E+01  0.32232652725E+02  0.12678632246E+02  0.34662752022E+02  0.51100000000E-03 0.  1.
         23    2    1    0    0    0 -0.20911280036E+02 -0.12875633119E+02 -0.18941156676E+02  0.94076600039E+02  0.88817654200E+02 0.  0.
         11    1    3    3    0    0 -0.22258410381E+02 -0.45108285844E+02 -0.31619788922E+02  0.59413848017E+02  0.51100000000E-03 0. -1.
         22    1    1    0    0    0  0.20911280036E+02  0.12875633119E+02  0.18941156676E+02  0.31013399961E+02  0.00000000000E+00 0. -1.
</event>
<event>
 5    1  0.1043455E-009  0.9118800E+02  0.7561462E-02  0.1125453E+00
         25   -1    0    0    0    0  0.00000000000E+00  0.00000000000E+00  0.99999998245E-14  0.12509000000E+03  0.12509000000E+03 0.  0.
        -11    1    3    3    0    0 -0.33045253228E+02  0.32375957676E+02 -0.12902324565E+02  0.48027714664E+02  0.51100000000E-03 0.  1.
         23    2    1    0    0    0 -0.25654832625E+02 -0.12238196825E+02  0.41625077490E+01  0.96362480627E+02  0.91980744198E+02 0.  0.
         11    1    3    3    0    0  0.73904206030E+01 -0.44614154502E+02  0.17064832314E+02  0.48334765963E+02  0.51100000000E-03 0. -1.
         22    1    1    0    0    0  0.25654832625E+02  0.12238196825E+02 -0.41625077490E+01  0.28727519373E+02  0.00000000000E+00 0. -1.
</event>
<event>
 5    1  0.1043455E-009  0.9118800E+02  0.7561462E-02  0.1125453E+00
         25   -1    0    0    0    0  0.00000000000E+00  0.00000000000E+00  0.99999998245E-14  0.12509000000E+03  0.12509000000E+03 0.  0.
        -11    1    3    3    0    0 -0.10208689596E+02  0.54062681548E+01 -0.54003368123E+02  0.55225074446E+02  0.51100000000E-03 0.  1.
         23    2    1    0    0    0 -0.15523185513E+02 -0.15863528217E+02 -0.23796811584E+02  0.92549117136E+02  0.86639656193E+02 0.  0.
         11    1    3    3    0    0 -0.53144959172E+01 -0.21269796372E+02  0.30206556539E+02  0.37324042691E+02  0.51100000000E-03 0. -1.
         22    1    1    0    0    0  0.15523185513E+02  0.15863528217E+02  0.23796811584E+02  0.32540882864E+02  0.00000000000E+00 0.  1.
</event>
<event>
 5    1  0.1043455E-009  0.9118800E+02  0.7561462E-02  0.1125453E+00
         25   -1    0    0    0    0  0.00000000000E+00  0.00000000000E+00  0.99999998245E-14  0.12509000000E+03  0.12509000000E+03 0.  0.
        -11    1    3    3    0    0 -0.19197153537E+02  0.50859968189E+01  0.37139772040E+02  0.42116038928E+02  0.51100000000E-03 0. -1.
         23    2    1    0    0    0 -0.25116429528E+02  0.95395846842E+00 -0.15705476799E+02  0.95452067035E+02  0.90734172343E+02 0.  0.
         11    1    3    3    0    0 -0.59192759912E+01 -0.41320383505E+01 -0.52845248838E+02  0.53336028107E+02  0.51100000000E-03 0.  1.
         22    1    1    0    0    0  0.25116429528E+02 -0.95395846842E+00  0.15705476799E+02  0.29637932965E+02  0.00000000000E+00 0.  1.
</event>
<event>
 5    1  0.1043455E-009  0.9118800E+02  0.7561462E-02  0.1125453E+00
         25   -1    0    0    0    0  0.00000000000E+00  0.00000000000E+00  0.99999998245E-14  0.12509000000E+03  0.12509000000E+03 0.  0.
        -11    1    3    3    0    0  0.32051179734E+02 -0.33279011879E+02  0.35620551815E+02  0.58340333096E+02  0.51100000000E-03 0. -1.
         23    2    1    0    0    0  0.30618808771E+01 -0.26073557123E+02  0.13096947456E+02  0.95751705431E+02  0.91146330506E+02 0.  0.
         11    1    3    3    0    0 -0.28989298857E+02  0.72054547563E+01 -0.22523604358E+02  0.37411372335E+02  0.51100000000E-03 0.  1.
         22    1    1    0    0    0 -0.30618808771E+01  0.26073557123E+02 -0.13096947456E+02  0.29338294569E+02  0.00000000000E+00 0. -1.
</event>
<event>
 5    1  0.1043455E-009  0.9118800E+02  0.7561462E-02  0.1125453E+00
         25   -1    0    0    0    0  0.00000000000E+00  0.00000000000E+00  0.99999998245E-14  0.12509000000E+03  0.12509000000E+03 0.  0.
        -11    1    3    3    0    0  0.48157237248E+01 -0.37346021436E+02  0.16864019077E+02  0.41259079628E+02  0.51100000000E-03 0. -1.
         23    2    1    0    0    0 -0.24367314417E+02 -0.74749736396E+01 -0.16514156324E+02  0.94719642710E+02  0.89718738919E+02 0.  0.
         11    1    3    3    0    0 -0.29183038142E+02  0.29871047796E+02 -0.33378175401E+02  0.53460563082E+02  0.51100000000E-03 0.  1.
         22    1    1    0    0    0  0.24367314417E+02  0.74749736396E+01  0.16514156324E+02  0.30370357290E+02  0.00000000000E+00 0. -1.
</event>
<event>
 5    1  0.1043455E-009  0.9118800E+02  0.7561462E-02  0.1125453E+00
         25   -1    0    0    0    0  0.00000000000E+00  0.00000000000E+00  0.99999998245E-14  0.12509000000E+03  0.12509000000E+03 0.  0.
        -11    1    3    3    0    0 -0.32014823796E+02  0.12751696023E+02 -0.42221030429E+02  0.54499267013E+02  0.51100000000E-03 0.  1.
         23    2    1    0    0    0 -0.29107822334E+02 -0.27824495971E+01 -0.43601083891E+01  0.95526206402E+02  0.90836326530E+02 0.  0.
         11    1    3    3    0    0  0.29070014622E+01 -0.15534145621E+02  0.37860922040E+02  0.41026939389E+02  0.51100000000E-03 0. -1.
         22    1    1    0    0    0  0.29107822334E+02  0.27824495971E+01  0.43601083891E+01  0.29563793598E+02  0.00000000000E+00 0.  1.
</event>
<event>
 5    1  0.1043455E-009  0.9118800E+02  0.7561462E-02  0.1125453E+00
         25   -1    0    0    0    0  0.00000000000E+00  0.00000000000E+00  0.99999998245E-14  0.12509000000E+03  0.12509000000E+03 0.  0.
        -11    1    3    3    0    0  0.38888627426E+01 -0.23669268293E+02 -0.46628131419E+02  0.52436057774E+02  0.51100000000E-03 0. -1.
         23    2    1    0    0    0  0.18311258686E+02  0.83520868190E+01 -0.21636692972E+02  0.95539940243E+02  0.90855237328E+02 0.  0.
         11    1    3    3    0    0  0.14422395943E+02  0.32021355112E+02  0.24991438447E+02  0.43103882469E+02  0.51100000000E-03 0.  1.
         22    1    1    0    0    0 -0.18311258686E+02 -0.83520868190E+01  0.21636692972E+02  0.29550059757E+02  0.00000000000E+00 0.  1.
</event>
<event>
 5    1  0.1043455E-009  0.9118800E+02  0.7561462E-02  0.1125453E+00
         25   -1    0    0    0    0  0.00000000000E+00  0.00000000000E+00  0.99999998245E-14  0.12509000000E+03  0.12509000000E+03 0.  0.
        -11    1    3    3    0    0  0.26429118635E+02  0.59834195287E+00  0.26995248212E+02  0.37783591031E+02  0.51100000000E-03 0.  1.
         23    2    1    0    0    0 -0.13848430874E+01  0.22790961224E+02 -0.18614012961E+02  0.95631093326E+02  0.90980650846E+02 0.  0.
         11    1    3    3    0    0 -0.27813961722E+02  0.22192619271E+02 -0.45609261173E+02  0.57847502295E+02  0.51100000000E-03 0. -1.
         22    1    1    0    0    0  0.13848430874E+01 -0.22790961224E+02  0.18614012961E+02  0.29458906674E+02  0.00000000000E+00 0. -1.
</event>
<event>
 5    1  0.1043455E-009  0.9118800E+02  0.7561462E-02  0.1125453E+00
         25   -1    0    0    0    0  0.00000000000E+00  0.00000000000E+00  0.99999998245E-14  0.12509000000E+03  0.12509000000E+03 0.  0.
        -11    1    3    3    0    0 -0.22125766879E+02  0.49657812341E+02 -0.55018955184E+01  0.54641730766E+02  0.51100000000E-03 0.  1.
         23    2    1    0    0    0 -0.13644219781E+02  0.20491985187E+02  0.19261836933E+02  0.93831328365E+02  0.88471541359E+02 0.  0.
         11    1    3    3    0    0  0.84815470986E+01 -0.29165827155E+02  0.24763732452E+02  0.39189597600E+02  0.51100000000E-03 0. -1.
         22    1    1    0    0    0  0.13644219781E+02 -0.20491985187E+02 -0.19261836933E+02  0.31258671635E+02  0.00000000000E+00 0.  1.
</event>
<event>
 5    1  0.1043455E-009  0.9118800E+02  0.7561462E-02  0.1125453E+00
         25   -1    0    0    0    0  0.00000000000E+00  0.00000000000E+00  0.99999998245E-14  0.12509000000E+03  0.12509000000E+03 0.  0.
        -11    1    3    3    0    0  0.32957586949E+02 -0.67711384148E+01  0.15635559558E+02  0.37101503687E+02  0.51100000000E-03 0.  1.
         23    2    1    0    0    0 -0.98096987985E+01  0.26287503075E+02 -0.77245441508E+01  0.95987910887E+02  0.91469926455E+02 0.  0.
         11    1    3    3    0    0 -0.42767285747E+02  0.33058641489E+02 -0.23360103709E+02  0.58886407199E+02  0.51100000000E-03 0. -1.
         22    1    1    0    0    0  0.98096987985E+01 -0.26287503075E+02  0.77245441508E+01  0.29102089113E+02  0.00000000000E+00 0. -1.
</event>
<event>
 4    1  0.1043455E-009  0.9118800E+02  0.7561462E-02  0.1125453E+00
         25   -1    0    0    0    0  0.00000000000E+00  0.00000000000E+00  0.99999998245E-14  0.12509000000E+03  0.12509000000E+03 0.  0.
        -11    1    1    0    0    0 -0.21579616462E+02 -0.14823455347E+02 -0.48101849704E+02  0.54764976219E+02  0.51100000000E-03 0. -1.
         11    1    1    0    0    0 -0.86183775432E+01  0.15749698412E+02  0.69012465653E+01  0.19234256834E+02  0.51100000000E-03 0.  1.
         22    1    1    0    0    0  0.30197994005E+02 -0.92624306490E+00  0.41200603139E+02  0.51090766946E+02  0.00000000000E+00 0. -1.
</event>
<event>
 5    1  0.1043455E-009  0.9118800E+02  0.7561462E-02  0.1125453E+00
         25   -1    0    0    0    0  0.00000000000E+00  0.00000000000E+00  0.99999998245E-14  0.12509000000E+03  0.12509000000E+03 0.  0.
        -11    1    3    3    0    0  0.27138804882E+02  0.40104137815E+02  0.41123073563E+01  0.48598021280E+02  0.51100000000E-03 0. -1.
         23    2    1    0    0    0 -0.12130744923E+02  0.21866981185E+02 -0.15003697162E+02  0.95927853868E+02  0.91387758374E+02 0.  0.
         11    1    3    3    0    0 -0.39269549804E+02 -0.18237156630E+02 -0.19116004518E+02  0.47329832588E+02  0.51100000000E-03 0.  1.
         22    1    1    0    0    0  0.12130744923E+02 -0.21866981185E+02  0.15003697162E+02  0.29162146132E+02  0.00000000000E+00 0.  1.
</event>
<event>
 5    1  0.1043455E-009  0.9118800E+02  0.7561462E-02  0.1125453E+00
         25   -1    0    0    0    0  0.00000000000E+00  0.00000000000E+00  0.99999998245E-14  0.12509000000E+03  0.12509000000E+03 0.  0.
        -11    1    3    3    0    0  0.73747683371E+01  0.24371951383E+02  0.16114960233E+02  0.30134219184E+02  0.51100000000E-03 0.  1.
         23    2    1    0    0    0  0.11763571318E+02 -0.33207535806E+02  0.91117448112E+00  0.89848656618E+02  0.82648828259E+02 0.  0.
         11    1    3    3    0    0  0.43888029808E+01 -0.57579487189E+02 -0.15203785752E+02  0.59714437434E+02  0.51100000000E-03 0. -1.
         22    1    1    0    0    0 -0.11763571318E+02  0.33207535806E+02 -0.91117448112E+00  0.35241343382E+02  0.00000000000E+00 0. -1.
</event>
<event>
 5    1  0.1043455E-009  0.9118800E+02  0.7561462E-02  0.1125453E+00
         25   -1    0    0    0    0  0.00000000000E+00  0.00000000000E+00  0.99999998245E-14  0.12509000000E+03  0.12509000000E+03 0.  0.
        -11    1    3    3    0    0 -0.15430254584E+02  0.46991273532E+02  0.10730616470E+02  0.50610460132E+02  0.51100000000E-03 0. -1.
         23    2    1    0    0    0 -0.16206921681E+02  0.51251425516E+01  0.25008998852E+02  0.94851259614E+02  0.89902057986E+02 0.  0.
         11    1    3    3    0    0 -0.77666709660E+00 -0.41866130981E+02  0.14278382382E+02  0.44240799482E+02  0.51100000000E-03 0.  1.
         22    1    1    0    0    0  0.16206921681E+02 -0.51251425516E+01 -0.25008998852E+02  0.30238740386E+02  0.00000000000E+00 0. -1.
</event>
<event>
 5    1  0.1043455E-009  0.9118800E+02  0.7561462E-02  0.1125453E+00
         25   -1    0    0    0    0  0.00000000000E+00  0.00000000000E+00  0.99999998245E-14  0.12509000000E+03  0.12509000000E+03 0.  0.
        -11    1    3    3    0    0 -0.20303999612E+01  0.53511305336E+02  0.39596441992E+01  0.53696006418E+02  0.51100000000E-03 0. -1.
         23    2    1    0    0    0 -0.23553176310E+02  0.17547144990E+02  0.17881115939E+01  0.95664640959E+02  0.91026764060E+02 0.  0.
         11    1    3    3    0    0 -0.21522776349E+02 -0.35964160346E+02 -0.21715326053E+01  0.41968634541E+02  0.51100000000E-03 0.  1.
         22    1    1    0    0    0  0.23553176310E+02 -0.17547144990E+02 -0.17881115939E+01  0.29425359041E+02  0.00000000000E+00 0.  1.
</event>
<event>
 5    1  0.1043455E-009  0.9118800E+02  0.7561462E-02  0.1125453E+00
         25   -1    0    0    0    0  0.00000000000E+00  0.00000000000E+00  0.99999998245E-14  0.12509000000E+03  0.12509000000E+03 0.  0.
        -11    1    3    3    0    0 -0.24263529133E+02 -0.31412209454E+02 -0.86946948856E+01  0.40633034198E+02  0.51100000000E-03 0. -1.
         23    2    1    0    0    0  0.14925020383E+02 -0.84156261413E+01  0.23273356824E+02  0.96189686253E+02  0.91745450061E+02 0.  0.
         11    1    3    3    0    0  0.39188549516E+02  0.22996583313E+02  0.31968051710E+02  0.55556652055E+02  0.51100000000E-03 0.  1.
         22    1    1    0    0    0 -0.14925020383E+02  0.84156261413E+01 -0.23273356824E+02  0.28900313747E+02  0.00000000000E+00 0.  1.
</event>
<event>
 5    1  0.1043455E-009  0.9118800E+02  0.7561462E-02  0.1125453E+00
         25   -1    0    0    0    0  0.00000000000E+00  0.00000000000E+00  0.99999998245E-14  0.12509000000E+03  0.12509000000E+03 0.  0.
        -11    1    3    3    0    0  0.33554388864E+02  0.20133035271E+02  0.28241716339E+02  0.48257959585E+02  0.51100000000E-03 0. -1.
         23    2    1    0    0    0  0.26127149201E+02 -0.14649793536E+02 -0.21746149802E+01  0.95057129236E+02  0.90188050717E+02 0.  0.
         11    1    3    3    0    0 -0.74272396628E+01 -0.34782828807E+02 -0.30416331319E+02  0.46799169651E+02  0.51100000000E-03 0.  1.
         22    1    1    0    0    0 -0.26127149201E+02  0.14649793536E+02  0.21746149802E+01  0.30032870764E+02  0.00000000000E+00 0. -1.
</event>
<event>
 5    1  0.1043455E-009  0.9118800E+02  0.7561462E-02  0.1125453E+00
         25   -1    0    0    0    0  0.00000000000E+00  0.00000000000E+00  0.99999998245E-14  0.12509000000E+03  0.12509000000E+03 0.  0.
        -11    1    3    3    0    0  0.34184041912E+02  0.15289257059E+02  0.11268265500E+02  0.39106059767E+02  0.51100000000E-03 0. -1.
         23    2    1    0    0    0 -0.19074336378E+00 -0.23208135745E+02 -0.15436398605E+02  0.97216422015E+02  0.93134828930E+02 0.  0.
         11    1    3    3    0    0 -0.34374785276E+02 -0.38497392804E+02 -0.26704664104E+02  0.58110362248E+02  0.51100000000E-03 0.  1.
         22    1    1    0    0    0  0.19074336378E+00  0.23208135745E+02  0.15436398605E+02  0.27873577985E+02  0.00000000000E+00 0.  1.
</event>
<event>
 5    1  0.1043455E-009  0.9118800E+02  0.7561462E-02  0.1125453E+00
         25   -1    0    0    0    0  0.00000000000E+00  0.00000000000E+00  0.99999998245E-14  0.12509000000E+03  0.12509000000E+03 0.  0.
        -11    1    3    3    0    0 -0.38796158492E+01  0.57084746012E+02 -0.11350479701E+02  0.58331406944E+02  0.51100000000E-03 0.  1.
         23    2    1    0    0    0 -0.12256579122E+02  0.25694647671E+02  0.71761681137E+01  0.95731252760E+02  0.91118256763E+02 0.  0.
         11    1    3    3    0    0 -0.83769632728E+01 -0.31390098341E+02  0.18526647815E+02  0.37399845816E+02  0.51100000000E-03 0. -1.
         22    1    1    0    0    0  0.12256579122E+02 -0.25694647671E+02 -0.71761681137E+01  0.29358747240E+02  0.00000000000E+00 0.  1.
</event>
<event>
 5    1  0.1043455E-009  0.9118800E+02  0.7561462E-02  0.1125453E+00
         25   -1    0    0    0    0  0.00000000000E+00  0.00000000000E+00  0.99999998245E-14  0.12509000000E+03  0.12509000000E+03 0.  0.
        -11    1    3    3    0    0 -0.18230185430E+01 -0.18789589954E+01 -0.45632422910E+02  0.45707460052E+02  0.51100000000E-03 0.  1.
         23    2    1    0    0    0 -0.28599942669E+02  0.41485496121E+01 -0.35165063431E+01  0.95977579946E+02  0.91455797251E+02 0.  0.
         11    1    3    3    0    0 -0.26776924126E+02  0.60275086075E+01  0.42115916567E+02  0.50270119894E+02  0.51100000000E-03 0. -1.
         22    1    1    0    0    0  0.28599942669E+02 -0.41485496121E+01  0.35165063431E+01  0.29112420054E+02  0.00000000000E+00 0. -1.
</event>
<event>
 5    1  0.1043455E-009  0.9118800E+02  0.7561462E-02  0.1125453E+00
         25   -1    0    0    0    0  0.00000000000E+00  0.00000000000E+00  0.99999998245E-14  0.12509000000E+03  0.12509000000E+03 0.  0.
        -11    1    3    3    0    0 -0.22488623870E+02 -0.57938551083E+02  0.38166647912E+01  0.62267012419E+02  0.51100000000E-03 0.  1.
         23    2    1    0    0    0 -0.75516442783E+01 -0.27379470113E+02 -0.12714856951E+01  0.96659745149E+02  0.92384127108E+02 0.  0.
         11    1    3    3    0    0  0.14936979591E+02  0.30559080970E+02 -0.50881504863E+01  0.34392732731E+02  0.51100000000E-03 0. -1.
         22    1    1    0    0    0  0.75516442783E+01  0.27379470113E+02  0.12714856951E+01  0.28430254851E+02  0.00000000000E+00 0.  1.
</event>
<event>
 5    1  0.1043455E-009  0.9118800E+02  0.7561462E-02  0.1125453E+00
         25   -1    0    0    0    0  0.00000000000E+00  0.00000000000E+00  0.99999998245E-14  0.12509000000E+03  0.12509000000E+03 0.  0.
        -11    1    3    3    0    0  0.49445114890E+02  0.82509810341E+01  0.25261011724E+02  0.56133918338E+02  0.51100000000E-03 0.  1.
         23    2    1    0    0    0  0.11540603027E+02  0.12686061642E+02  0.25573568661E+02  0.94298295074E+02  0.89129340632E+02 0.  0.
         11    1    3    3    0    0 -0.37904511862E+02  0.44350806077E+01  0.31255693724E+00  0.38164376735E+02  0.51100000000E-03 0. -1.
         22    1    1    0    0    0 -0.11540603027E+02 -0.12686061642E+02 -0.25573568661E+02  0.30791704926E+02  0.00000000000E+00 0.  1.
</event>
<event>
 5    1  0.1043455E-009  0.9118800E+02  0.7561462E-02  0.1125453E+00
         25   -1    0    0    0    0  0.00000000000E+00  0.00000000000E+00  0.99999998245E-14  0.12509000000E+03  0.12509000000E+03 0.  0.
        -11    1    3    3    0    0 -0.11484520142E+02  0.30101845554E+02  0.38592616129E+02  0.50273306323E+02  0.51100000000E-03 0.  1.
         23    2    1    0    0    0  0.19980969146E+02  0.13784698388E+01  0.20090642355E+02  0.96721474882E+02  0.92467672654E+02 0.  0.
         11    1    3    3    0    0  0.31465489289E+02 -0.28723375715E+02 -0.18501973774E+02  0.46448168559E+02  0.51100000000E-03 0. -1.
         22    1    1    0    0    0 -0.19980969146E+02 -0.13784698388E+01 -0.20090642355E+02  0.28368525118E+02  0.00000000000E+00 0. -1.
</event>
<event>
 5    1  0.1043455E-009  0.9118800E+02  0.7561462E-02  0.1125453E+00
         25   -1    0    0    0    0  0.00000000000E+00  0.00000000000E+00  0.99999998245E-14  0.12509000000E+03  0.12509000000E+03 0.  0.
        -11    1    3    3    0    0  0.14104852311E+02 -0.34649865189E+02 -0.28245744649E+01  0.37517172568E+02  0.51100000000E-03 0.  1.
         23    2    1    0    0    0  0.80851624060E+01  0.16036173321E+02  0.23949164445E+02  0.95155217831E+02  0.90323996241E+02 0.  0.
         11    1    3    3    0    0 -0.60196899048E+01  0.50686038509E+02  0.26773738910E+02  0.57638045263E+02  0.51100000000E-03 0. -1.
         22    1    1    0    0    0 -0.80851624060E+01 -0.16036173321E+02 -0.23949164445E+02  0.29934782169E+02  0.00000000000E+00 0. -1.
</event>
<event>
 5    1  0.1043455E-009  0.9118800E+02  0.7561462E-02  0.1125453E+00
         25   -1    0    0    0    0  0.00000000000E+00  0.00000000000E+00  0.99999998245E-14  0.12509000000E+03  0.12509000000E+03 0.  0.
        -11    1    3    3    0    0  0.20101304126E+02  0.96146249641E+01  0.26972467185E+02  0.34985960428E+02  0.51100000000E-03 0.  1.
         23    2    1    0    0    0 -0.29826336971E+02 -0.10991140397E+02  0.72509113512E+01  0.92486453264E+02  0.86549135048E+02 0.  0.
         11    1    3    3    0    0 -0.49927641097E+02 -0.20605765361E+02 -0.19721555834E+02  0.57500492836E+02  0.51100000000E-03 0. -1.
         22    1    1    0    0    0  0.29826336971E+02  0.10991140397E+02 -0.72509113512E+01  0.32603546736E+02  0.00000000000E+00 0. -1.
</event>
<event>
 5    1  0.1043455E-009  0.9118800E+02  0.7561462E-02  0.1125453E+00
         25   -1    0    0    0    0  0.00000000000E+00  0.00000000000E+00  0.99999998245E-14  0.12509000000E+03  0.12509000000E+03 0.  0.
        -11    1    3    3    0    0 -0.52818994790E-01  0.34540337963E+02  0.12607946110E+02  0.36769525994E+02  0.51100000000E-03 0.  1.
         23    2    1    0    0    0  0.15109347415E+02 -0.20378128356E+02  0.17980957539E+02  0.93995381034E+02  0.88703192317E+02 0.  0.
         11    1    3    3    0    0  0.15162166410E+02 -0.54918466319E+02  0.53730114292E+01  0.57225855040E+02  0.51100000000E-03 0. -1.
         22    1    1    0    0    0 -0.15109347415E+02  0.20378128356E+02 -0.17980957539E+02  0.31094618966E+02  0.00000000000E+00 0. -1.
</event>
<event>
 5    1  0.1043455E-009  0.9118800E+02  0.7561462E-02  0.1125453E+00
         25   -1    0    0    0    0  0.00000000000E+00  0.00000000000E+00  0.99999998245E-14  0.12509000000E+03  0.12509000000E+03 0.  0.
        -11    1    3    3    0    0 -0.19863267179E+02 -0.52513299011E+02  0.26714968293E+02  0.62176245361E+02  0.51100000000E-03 0.  1.
         23    2    1    0    0    0 -0.12852767984E+02 -0.22835786195E+02  0.15358115582E+02  0.94716681278E+02  0.89714609858E+02 0.  0.
         11    1    3    3    0    0  0.70104991955E+01  0.29677512816E+02 -0.11356852711E+02  0.32540435917E+02  0.51100000000E-03 0. -1.
         22    1    1    0    0    0  0.12852767984E+02  0.22835786195E+02 -0.15358115582E+02  0.30373318722E+02  0.00000000000E+00 0.  1.
</event>
<event>
 5    1  0.1043455E-009  0.9118800E+02  0.7561462E-02  0.1125453E+00
         25   -1    0    0    0    0  0.00000000000E+00  0.00000000000E+00  0.99999998245E-14  0.12509000000E+03  0.12509000000E+03 0.  0.
        -11    1    3    3    0    0  0.36195760902E+02 -0.12275085362E+02 -0.31905281514E+02  0.49787125009E+02  0.51100000000E-03 0.  1.
         23    2    1    0    0    0 -0.22656114816E+01  0.10795755260E+02 -0.28222568920E+02  0.94788271939E+02  0.89814373982E+02 0.  0.
         11    1    3    3    0    0 -0.38461372384E+02  0.23070840623E+02  0.36827125944E+01  0.45001146930E+02  0.51100000000E-03 0. -1.
         22    1    1    0    0    0  0.22656114816E+01 -0.10795755260E+02  0.28222568920E+02  0.30301728061E+02  0.00000000000E+00 0.  1.
</event>
<event>
 5    1  0.1043455E-009  0.9118800E+02  0.7561462E-02  0.1125453E+00
         25   -1    0    0    0    0  0.00000000000E+00  0.00000000000E+00  0.99999998245E-14  0.12509000000E+03  0.12509000000E+03 0.  0.
        -11    1    3    3    0    0  0.56395328832E+01 -0.10793162826E+02  0.59659666641E+02  0.60889839209E+02  0.51100000000E-03 0.  1.
         23    2    1    0    0    0  0.95691840430E+01 -0.12240203704E+02  0.26055910123E+02  0.94753514998E+02  0.89765952800E+02 0.  0.
         11    1    3    3    0    0  0.39296511597E+01 -0.14470408779E+01 -0.33603756518E+02  0.33863675789E+02  0.51100000000E-03 0. -1.
         22    1    1    0    0    0 -0.95691840430E+01  0.12240203704E+02 -0.26055910123E+02  0.30336485002E+02  0.00000000000E+00 0.  1.
</event>
<event>
 5    1  0.1043455E-009  0.9118800E+02  0.7561462E-02  0.1125453E+00
         25   -1    0    0    0    0  0.00000000000E+00  0.00000000000E+00  0.99999998245E-14  0.12509000000E+03  0.12509000000E+03 0.  0.
        -11    1    3    3    0    0 -0.36378562757E+02  0.60121336301E+00  0.11355109075E+02  0.38114298999E+02  0.51100000000E-03 0.  1.
         23    2    1    0    0    0  0.16097981918E+02 -0.21986554623E+02  0.12157046212E+02  0.95251310709E+02  0.90456977692E+02 0.  0.
         11    1    3    3    0    0  0.52476544676E+02 -0.22587767986E+02  0.80193713711E+00  0.57137011710E+02  0.51100000000E-03 0. -1.
         22    1    1    0    0    0 -0.16097981918E+02  0.21986554623E+02 -0.12157046212E+02  0.29838689291E+02  0.00000000000E+00 0. -1.
</event>
<event>
 5    1  0.1043455E-009  0.9118800E+02  0.7561462E-02  0.1125453E+00
         25   -1    0    0    0    0  0.00000000000E+00  0.00000000000E+00  0.99999998245E-14  0.12509000000E+03  0.12509000000E+03 0.  0.
        -11    1    3    3    0    0  0.25188934393E+02  0.19723995990E+02 -0.82327986191E+01  0.33034790858E+02  0.51100000000E-03 0. -1.
         23    2    1    0    0    0  0.83102855283E+01 -0.10595492394E+02  0.34484012441E+02  0.88070107798E+02  0.79911647892E+02 0.  0.
         11    1    3    3    0    0 -0.16878648864E+02 -0.30319488384E+02  0.42716811060E+02  0.55035316940E+02  0.51100000000E-03 0.  1.
         22    1    1    0    0    0 -0.83102855283E+01  0.10595492394E+02 -0.34484012441E+02  0.37019892202E+02  0.00000000000E+00 0.  1.
</event>
<event>
 5    1  0.1043455E-009  0.9118800E+02  0.7561462E-02  0.1125453E+00
         25   -1    0    0    0    0  0.00000000000E+00  0.00000000000E+00  0.99999998245E-14  0.12509000000E+03  0.12509000000E+03 0.  0.
        -11    1    3    3    0    0 -0.90972391881E+01  0.26559748175E+02 -0.40569535119E+02  0.49336266215E+02  0.51100000000E-03 0.  1.
         23    2    1    0    0    0  0.11537115605E+02  0.32368448650E+02 -0.57153537315E+01  0.90254862958E+02  0.83261356672E+02 0.  0.
         11    1    3    3    0    0  0.20634354793E+02  0.58087004744E+01  0.34854181388E+02  0.40918596743E+02  0.51100000000E-03 0. -1.
         22    1    1    0    0    0 -0.11537115605E+02 -0.32368448650E+02  0.57153537315E+01  0.34835137042E+02  0.00000000000E+00 0.  1.
</event>
<event>
 5    1  0.1043455E-009  0.9118800E+02  0.7561462E-02  0.1125453E+00
         25   -1    0    0    0    0  0.00000000000E+00  0.00000000000E+00  0.99999998245E-14  0.12509000000E+03  0.12509000000E+03 0.  0.
        -11    1    3    3    0    0  0.21603599296E+02  0.39878472219E+02  0.11817146633E+01  0.45369642922E+02  0.51100000000E-03 0. -1.
         23    2    1    0    0    0 -0.23606005611E+02  0.10856684273E+02 -0.57222585178E-01  0.99107036953E+02  0.95640422442E+02 0.  0.
         11    1    3    3    0    0 -0.45209604907E+02 -0.29021787946E+02 -0.12389372484E+01  0.53737394030E+02  0.51100000000E-03 0.  1.
         22    1    1    0    0    0  0.23606005611E+02 -0.10856684273E+02  0.57222585178E-01  0.25982963047E+02  0.00000000000E+00 0.  1.
</event>
<event>
 5    1  0.1043455E-009  0.9118800E+02  0.7561462E-02  0.1125453E+00
         25   -1    0    0    0    0  0.00000000000E+00  0.00000000000E+00  0.99999998245E-14  0.12509000000E+03  0.12509000000E+03 0.  0.
        -11    1    3    3    0    0 -0.13002153750E+01 -0.34138695098E+01 -0.42301997201E+02  0.42459439851E+02  0.51100000000E-03 0.  1.
         23    2    1    0    0    0 -0.60985235228E+01  0.28882316707E+02 -0.41592226100E+00  0.95567920147E+02  0.90893752054E+02 0.  0.
         11    1    3    3    0    0 -0.47983081478E+01  0.32296186216E+02  0.41886074940E+02  0.53108480296E+02  0.51100000000E-03 0. -1.
         22    1    1    0    0    0  0.60985235228E+01 -0.28882316707E+02  0.41592226100E+00  0.29522079853E+02  0.00000000000E+00 0. -1.
</event>
<event>
 5    1  0.1043455E-009  0.9118800E+02  0.7561462E-02  0.1125453E+00
         25   -1    0    0    0    0  0.00000000000E+00  0.00000000000E+00  0.99999998245E-14  0.12509000000E+03  0.12509000000E+03 0.  0.
        -11    1    3    3    0    0  0.23228362417E+02 -0.45257117509E+02  0.16574263375E+02  0.53502053349E+02  0.51100000000E-03 0.  1.
         23    2    1    0    0    0 -0.43359638099E+01 -0.15189843407E+02  0.25345786990E+02  0.95224621332E+02  0.90420062291E+02 0.  0.
         11    1    3    3    0    0 -0.27564326227E+02  0.30067274103E+02  0.87715236144E+01  0.41722567983E+02  0.51100000000E-03 0. -1.
         22    1    1    0    0    0  0.43359638099E+01  0.15189843407E+02 -0.25345786990E+02  0.29865378668E+02  0.00000000000E+00 0. -1.
</event>
<event>
 5    1  0.1043455E-009  0.9118800E+02  0.7561462E-02  0.1125453E+00
         25   -1    0    0    0    0  0.00000000000E+00  0.00000000000E+00  0.99999998245E-14  0.12509000000E+03  0.12509000000E+03 0.  0.
        -11    1    3    3    0    0  0.50023894769E+02 -0.17107237825E+01 -0.96972025757E+01  0.50983844125E+02  0.51100000000E-03 0.  1.
         23    2    1    0    0    0  0.11567947037E+02 -0.23894381200E+02 -0.13055105665E+02  0.95506311327E+02  0.90808925045E+02 0.  0.
         11    1    3    3    0    0 -0.38455947732E+02 -0.22183657417E+02 -0.33579030896E+01  0.44522467202E+02  0.51100000000E-03 0. -1.
         22    1    1    0    0    0 -0.11567947037E+02  0.23894381200E+02  0.13055105665E+02  0.29583688673E+02  0.00000000000E+00 0.  1.
</event>
<event>
 5    1  0.1043455E-009  0.9118800E+02  0.7561462E-02  0.1125453E+00
         25   -1    0    0    0    0  0.00000000000E+00  0.00000000000E+00  0.99999998245E-14  0.12509000000E+03  0.12509000000E+03 0.  0.
        -11    1    3    3    0    0  0.39849680972E+02 -0.15258451346E+02  0.15794958081E+02  0.45500528701E+02  0.51100000000E-03 0. -1.
         23    2    1    0    0    0 -0.10031435877E+02 -0.14929113287E+02  0.22991251710E+02  0.95899148959E+02  0.91348459137E+02 0.  0.
         11    1    3    3    0    0 -0.49881116849E+02  0.32933805978E+00  0.71962936287E+01  0.50398620258E+02  0.51100000000E-03 0.  1.
         22    1    1    0    0    0  0.10031435877E+02  0.14929113287E+02 -0.22991251710E+02  0.29190851041E+02  0.00000000000E+00 0.  1.
</event>
<event>
 5    1  0.1043455E-009  0.9118800E+02  0.7561462E-02  0.1125453E+00
         25   -1    0    0    0    0  0.00000000000E+00  0.00000000000E+00  0.99999998245E-14  0.12509000000E+03  0.12509000000E+03 0.  0.
        -11    1    3    3    0    0 -0.16934864290E+02  0.31666872964E+02 -0.20113869680E+02  0.41160031895E+02  0.51100000000E-03 0.  1.
         23    2    1    0    0    0 -0.21314984192E+02 -0.12250835722E+02  0.13869327971E+02  0.96862889178E+02  0.92658780019E+02 0.  0.
         11    1    3    3    0    0 -0.43801199021E+01 -0.43917708686E+02  0.33983197651E+02  0.55702857283E+02  0.51100000000E-03 0. -1.
         22    1    1    0    0    0  0.21314984192E+02  0.12250835722E+02 -0.13869327971E+02  0.28227110822E+02  0.00000000000E+00 0. -1.
</event>
<event>
 5    1  0.1043455E-009  0.9118800E+02  0.7561462E-02  0.1125453E+00
         25   -1    0    0    0    0  0.00000000000E+00  0.00000000000E+00  0.99999998245E-14  0.12509000000E+03  0.12509000000E+03 0.  0.
        -11    1    3    3    0    0  0.47738474622E+02  0.19993045532E+02 -0.17528252360E+02  0.54643604017E+02  0.51100000000E-03 0.  1.
         23    2    1    0    0    0  0.45349918064E+01  0.24225118792E+02 -0.39383358606E+01  0.10013137383E+03  0.96970918340E+02 0.  0.
         11    1    3    3    0    0 -0.43203482815E+02  0.42320732600E+01  0.13589916499E+02  0.45487769809E+02  0.51100000000E-03 0. -1.
         22    1    1    0    0    0 -0.45349918064E+01 -0.24225118792E+02  0.39383358606E+01  0.24958626175E+02  0.00000000000E+00 0.  1.
</event>
<event>
 5    1  0.1043455E-009  0.9118800E+02  0.7561462E-02  0.1125453E+00
         25   -1    0    0    0    0  0.00000000000E+00  0.00000000000E+00  0.99999998245E-14  0.12509000000E+03  0.12509000000E+03 0.  0.
        -11    1    3    3    0    0 -0.17942963035E+02 -0.11583470175E+02  0.41156729053E+02  0.46368125371E+02  0.51100000000E-03 0.  1.
         23    2    1    0    0    0 -0.29519328657E+02  0.48407831722E+01 -0.31426539900E+01  0.95011765009E+02  0.90125108987E+02 0.  0.
         11    1    3    3    0    0 -0.11576365622E+02  0.16424253347E+02 -0.44299383043E+02  0.48643639639E+02  0.51100000000E-03 0. -1.
         22    1    1    0    0    0  0.29519328657E+02 -0.48407831722E+01  0.31426539900E+01  0.30078234991E+02  0.00000000000E+00 0. -1.
</event>
<event>
 5    1  0.1043455E-009  0.9118800E+02  0.7561462E-02  0.1125453E+00
         25   -1    0    0    0    0  0.00000000000E+00  0.00000000000E+00  0.99999998245E-14  0.12509000000E+03  0.12509000000E+03 0.  0.
        -11    1    3    3    0    0 -0.22298751541E+02 -0.22778386165E+02  0.84680960636E+01  0.32981780543E+02  0.51100000000E-03 0. -1.
         23    2    1    0    0    0  0.69298897021E+01  0.30188847061E+02 -0.32617557977E+00  0.94114263549E+02  0.88870683325E+02 0.  0.
         11    1    3    3    0    0  0.29228641243E+02  0.52967233226E+02 -0.87942716433E+01  0.61132483007E+02  0.51100000000E-03 0.  1.
         22    1    1    0    0    0 -0.69298897021E+01 -0.30188847061E+02  0.32617557977E+00  0.30975736451E+02  0.00000000000E+00 0.  1.
</event>
<event>
 5    1  0.1043455E-009  0.9118800E+02  0.7561462E-02  0.1125453E+00
         25   -1    0    0    0    0  0.00000000000E+00  0.00000000000E+00  0.99999998245E-14  0.12509000000E+03  0.12509000000E+03 0.  0.
        -11    1    3    3    0    0  0.24276844870E+02  0.10080712679E+02 -0.30076759973E+02  0.39944930288E+02  0.51100000000E-03 0.  1.
         23    2    1    0    0    0 -0.27263499303E+02  0.33007880114E+01 -0.74887290203E+01  0.96624676217E+02  0.92336630846E+02 0.  0.
         11    1    3    3    0    0 -0.51540344173E+02 -0.67799246675E+01  0.22588030953E+02  0.56679745929E+02  0.51100000000E-03 0. -1.
         22    1    1    0    0    0  0.27263499303E+02 -0.33007880114E+01  0.74887290203E+01  0.28465323783E+02  0.00000000000E+00 0. -1.
</event>
<event>
 5    1  0.1043455E-009  0.9118800E+02  0.7561462E-02  0.1125453E+00
         25   -1    0    0    0    0  0.00000000000E+00  0.00000000000E+00  0.99999998245E-14  0.12509000000E+03  0.12509000000E+03 0.  0.
        -11    1    3    3    0    0 -0.27393638849E+02 -0.30422799672E+02 -0.10131592437E+02  0.42173538562E+02  0.51100000000E-03 0.  1.
         23    2    1    0    0    0  0.15489889464E+01  0.86869205446E+01 -0.29316979279E+02  0.94473873051E+02  0.89375418656E+02 0.  0.
         11    1    3    3    0    0  0.28942627795E+02  0.39109720217E+02 -0.19185386842E+02  0.52300334489E+02  0.51100000000E-03 0. -1.
         22    1    1    0    0    0 -0.15489889464E+01 -0.86869205446E+01  0.29316979279E+02  0.30616126949E+02  0.00000000000E+00 0. -1.
</event>
<event>
 5    1  0.1043455E-009  0.9118800E+02  0.7561462E-02  0.1125453E+00
         25   -1    0    0    0    0  0.00000000000E+00  0.00000000000E+00  0.99999998245E-14  0.12509000000E+03  0.12509000000E+03 0.  0.
        -11    1    3    3    0    0 -0.10926842552E+02 -0.34648708748E+02 -0.27354062803E+01  0.36433656883E+02  0.51100000000E-03 0.  1.
         23    2    1    0    0    0 -0.12756868147E+02  0.23739646770E+02 -0.12014602449E+02  0.95583065465E+02  0.90914592987E+02 0.  0.
         11    1    3    3    0    0 -0.18300255945E+01  0.58388355518E+02 -0.92791961683E+01  0.59149408582E+02  0.51100000000E-03 0. -1.
         22    1    1    0    0    0  0.12756868147E+02 -0.23739646770E+02  0.12014602449E+02  0.29506934535E+02  0.00000000000E+00 0. -1.
</event>
<event>
 5    1  0.1043455E-009  0.9118800E+02  0.7561462E-02  0.1125453E+00
         25   -1    0    0    0    0  0.00000000000E+00  0.00000000000E+00  0.99999998245E-14  0.12509000000E+03  0.12509000000E+03 0.  0.
        -11    1    3    3    0    0 -0.37970429626E+02 -0.48056444219E+01  0.40304710737E+02  0.55581628729E+02  0.51100000000E-03 0. -1.
         23    2    1    0    0    0 -0.16240447772E+02 -0.22391842865E+02  0.13502935664E+02  0.94308901217E+02  0.89144224751E+02 0.  0.
         11    1    3    3    0    0  0.21729981854E+02 -0.17586198443E+02 -0.26801775073E+02  0.38727272488E+02  0.51100000000E-03 0.  1.
         22    1    1    0    0    0  0.16240447772E+02  0.22391842865E+02 -0.13502935664E+02  0.30781098783E+02  0.00000000000E+00 0. -1.
</event>
<event>
 5    1  0.1043455E-009  0.9118800E+02  0.7561462E-02  0.1125453E+00
         25   -1    0    0    0    0  0.00000000000E+00  0.00000000000E+00  0.99999998245E-14  0.12509000000E+03  0.12509000000E+03 0.  0.
        -11    1    3    3    0    0 -0.38019961620E+02  0.26223681865E+01 -0.44819298719E-01  0.38110317573E+02  0.51100000000E-03 0.  1.
         23    2    1    0    0    0  0.14319783111E+02 -0.60079478083E+01  0.24121390859E+02  0.96402143298E+02  0.92034667981E+02 0.  0.
         11    1    3    3    0    0  0.52339744731E+02 -0.86303159948E+01  0.24166210157E+02  0.58291825725E+02  0.51100000000E-03 0. -1.
         22    1    1    0    0    0 -0.14319783111E+02  0.60079478083E+01 -0.24121390859E+02  0.28687856702E+02  0.00000000000E+00 0. -1.
</event>
<event>
 5    1  0.1043455E-009  0.9118800E+02  0.7561462E-02  0.1125453E+00
         25   -1    0    0    0    0  0.00000000000E+00  0.00000000000E+00  0.99999998245E-14  0.12509000000E+03  0.12509000000E+03 0.  0.
        -11    1    3    3    0    0  0.35403240279E+02 -0.45308943919E+02 -0.23193785857E+02  0.62001947743E+02  0.51100000000E-03 0.  1.
         23    2    1    0    0    0  0.11245883397E+02 -0.23244225253E+02 -0.12326290453E+02  0.96477042493E+02  0.92136411862E+02 0.  0.
         11    1    3    3    0    0 -0.24157356882E+02  0.22064718666E+02  0.10867495404E+02  0.34475094749E+02  0.51100000000E-03 0. -1.
         22    1    1    0    0    0 -0.11245883397E+02  0.23244225253E+02  0.12326290453E+02  0.28612957507E+02  0.00000000000E+00 0.  1.
</event>
<event>
 5    1  0.1043455E-009  0.9118800E+02  0.7561462E-02  0.1125453E+00
         25   -1    0    0    0    0  0.00000000000E+00  0.00000000000E+00  0.99999998245E-14  0.12509000000E+03  0.12509000000E+03 0.  0.
        -11    1    3    3    0    0 -0.15653649284E+02 -0.15788757407E+02 -0.23743535686E+02  0.32528096831E+02  0.51100000000E-03 0.  1.
         23    2    1    0    0    0  0.28345768825E+02  0.71017283255E+01  0.11830219726E+02  0.93564276309E+02  0.88093146992E+02 0.  0.
         11    1    3    3    0    0  0.43999418108E+02  0.22890485732E+02  0.35573755411E+02  0.61036179478E+02  0.51100000000E-03 0. -1.
         22    1    1    0    0    0 -0.28345768825E+02 -0.71017283255E+01 -0.11830219726E+02  0.31525723691E+02  0.00000000000E+00 0. -1.
</event>
<event>
 5    1  0.1043455E-009  0.9118800E+02  0.7561462E-02  0.1125453E+00
         25   -1    0    0    0    0  0.00000000000E+00  0.00000000000E+00  0.99999998245E-14  0.12509000000E+03  0.12509000000E+03 0.  0.
        -11    1    3    3    0    0 -0.41648858292E+02 -0.35139139250E+01  0.10403577856E+02  0.43072142047E+02  0.51100000000E-03 0.  1.
         23    2    1    0    0    0 -0.78733267263E+01  0.63101049810E+01 -0.28105555038E+02  0.95228169470E+02  0.90424970766E+02 0.  0.
         11    1    3    3    0    0  0.33775531565E+02  0.98240189060E+01 -0.38509132894E+02  0.52156027423E+02  0.51100000000E-03 0. -1.
         22    1    1    0    0    0  0.78733267263E+01 -0.63101049810E+01  0.28105555038E+02  0.29861830530E+02  0.00000000000E+00 0. -1.
</event>
<event>
 5    1  0.1043455E-009  0.9118800E+02  0.7561462E-02  0.1125453E+00
         25   -1    0    0    0    0  0.00000000000E+00  0.00000000000E+00  0.99999998245E-14  0.12509000000E+03  0.12509000000E+03 0.  0.
        -11    1    3    3    0    0 -0.40877739243E+02  0.13223681094E+02  0.31018291756E+02  0.52990468303E+02  0.51100000000E-03 0.  1.
         23    2    1    0    0    0 -0.13242381423E+02 -0.17228893293E+02  0.19984223062E+02  0.95567727031E+02  0.90893486283E+02 0.  0.
         11    1    3    3    0    0  0.27635357820E+02 -0.30452574386E+02 -0.11034068693E+02  0.42577258728E+02  0.51100000000E-03 0. -1.
         22    1    1    0    0    0  0.13242381423E+02  0.17228893293E+02 -0.19984223062E+02  0.29522272969E+02  0.00000000000E+00 0. -1.
</event>
<event>
 5    1  0.1043455E-009  0.9118800E+02  0.7561462E-02  0.1125453E+00
         25   -1    0    0    0    0  0.00000000000E+00  0.00000000000E+00  0.99999998245E-14  0.12509000000E+03  0.12509000000E+03 0.  0.
        -11    1    3    3    0    0  0.38316351657E+02 -0.25199763910E+02  0.92454491246E+01  0.46783001563E+02  0.51100000000E-03 0. -1.
         23    2    1    0    0    0  0.72183624614E+01 -0.10751470574E+02 -0.26053667284E+02  0.95995456610E+02  0.91480245052E+02 0.  0.
         11    1    3    3    0    0 -0.31097989196E+02  0.14448293336E+02 -0.35299116408E+02  0.49212455047E+02  0.51100000000E-03 0.  1.
         22    1    1    0    0    0 -0.72183624614E+01  0.10751470574E+02  0.26053667284E+02  0.29094543390E+02  0.00000000000E+00 0. -1.
</event>
<event>
 5    1  0.1043455E-009  0.9118800E+02  0.7561462E-02  0.1125453E+00
         25   -1    0    0    0    0  0.00000000000E+00  0.00000000000E+00  0.99999998245E-14  0.12509000000E+03  0.12509000000E+03 0.  0.
        -11    1    3    3    0    0 -0.21261358013E+02  0.50001126388E+01  0.20923620825E+01  0.21941386700E+02  0.51100000000E-03 0.  1.
         23    2    1    0    0    0  0.38984336444E+02 -0.57190383789E+01 -0.10275416595E+02  0.84370593397E+02  0.73894025171E+02 0.  0.
         11    1    3    3    0    0  0.60245694457E+02 -0.10719151018E+02 -0.12367778678E+02  0.62429206697E+02  0.51100000000E-03 0. -1.
         22    1    1    0    0    0 -0.38984336444E+02  0.57190383789E+01  0.10275416595E+02  0.40719406603E+02  0.00000000000E+00 0. -1.
</event>
<event>
 5    1  0.1043455E-009  0.9118800E+02  0.7561462E-02  0.1125453E+00
         25   -1    0    0    0    0  0.00000000000E+00  0.00000000000E+00  0.99999998245E-14  0.12509000000E+03  0.12509000000E+03 0.  0.
        -11    1    3    3    0    0 -0.39942001502E+01 -0.35051864303E+01  0.50896759194E+02  0.51173431227E+02  0.51100000000E-03 0.  1.
         23    2    1    0    0    0 -0.19816843960E+02  0.17180417333E+02  0.17347416496E+02  0.93644699820E+02  0.88207272382E+02 0.  0.
         11    1    3    3    0    0 -0.15822643810E+02  0.20685603764E+02 -0.33549342698E+02  0.42471268594E+02  0.51100000000E-03 0. -1.
         22    1    1    0    0    0  0.19816843960E+02 -0.17180417333E+02 -0.17347416496E+02  0.31445300180E+02  0.00000000000E+00 0.  1.
</event>
<event>
 5    1  0.1043455E-009  0.9118800E+02  0.7561462E-02  0.1125453E+00
         25   -1    0    0    0    0  0.00000000000E+00  0.00000000000E+00  0.99999998245E-14  0.12509000000E+03  0.12509000000E+03 0.  0.
        -11    1    3    3    0    0  0.38884004811E+02 -0.18539941591E+01  0.23904555550E+02  0.45681844323E+02  0.51100000000E-03 0.  1.
         23    2    1    0    0    0  0.20551170736E+02 -0.93682444976E+01 -0.20677664625E+02  0.94468431818E+02  0.89367802772E+02 0.  0.
         11    1    3    3    0    0 -0.18332834076E+02 -0.75142503384E+01 -0.44582220175E+02  0.48786587495E+02  0.51100000000E-03 0. -1.
         22    1    1    0    0    0 -0.20551170736E+02  0.93682444976E+01  0.20677664625E+02  0.30621568182E+02  0.00000000000E+00 0. -1.
</event>
<event>
 5    1  0.1043455E-009  0.9118800E+02  0.7561462E-02  0.1125453E+00
         25   -1    0    0    0    0  0.00000000000E+00  0.00000000000E+00  0.99999998245E-14  0.12509000000E+03  0.12509000000E+03 0.  0.
        -11    1    3    3    0    0 -0.18671148197E+02 -0.46865618062E+02  0.14330143780E+02  0.52443788501E+02  0.51100000000E-03 0.  1.
         23    2    1    0    0    0  0.56529046805E+01 -0.27787031811E+02 -0.13175164273E+02  0.93822454176E+02  0.88458993244E+02 0.  0.
         11    1    3    3    0    0  0.24324052877E+02  0.19078586251E+02 -0.27505308053E+02  0.41378665675E+02  0.51100000000E-03 0. -1.
         22    1    1    0    0    0 -0.56529046805E+01  0.27787031811E+02  0.13175164273E+02  0.31267545824E+02  0.00000000000E+00 0.  1.
</event>
<event>
 5    1  0.1043455E-009  0.9118800E+02  0.7561462E-02  0.1125453E+00
         25   -1    0    0    0    0  0.00000000000E+00  0.00000000000E+00  0.99999998245E-14  0.12509000000E+03  0.12509000000E+03 0.  0.
        -11    1    3    3    0    0  0.40105055541E+01 -0.36906839303E+02  0.64180074999E+01  0.37674789484E+02  0.51100000000E-03 0.  1.
         23    2    1    0    0    0 -0.43300057843E+01  0.18883824626E+01 -0.31902867409E+02  0.92839296328E+02  0.87057607682E+02 0.  0.
         11    1    3    3    0    0 -0.83405113384E+01  0.38795221766E+02 -0.38320874909E+02  0.55164506844E+02  0.51100000000E-03 0. -1.
         22    1    1    0    0    0  0.43300057843E+01 -0.18883824626E+01  0.31902867409E+02  0.32250703672E+02  0.00000000000E+00 0. -1.
</event>
<event>
 5    1  0.1043455E-009  0.9118800E+02  0.7561462E-02  0.1125453E+00
         25   -1    0    0    0    0  0.00000000000E+00  0.00000000000E+00  0.99999998245E-14  0.12509000000E+03  0.12509000000E+03 0.  0.
        -11    1    3    3    0    0 -0.17699459573E+01  0.19273636913E+01 -0.43327512558E+02  0.43406460167E+02  0.51100000000E-03 0.  1.
         23    2    1    0    0    0 -0.24116107193E+02 -0.16300960678E+02  0.62475135981E+00  0.95974741811E+02  0.91451915268E+02 0.  0.
         11    1    3    3    0    0 -0.22346161236E+02 -0.18228324369E+02  0.43952263918E+02  0.52568281644E+02  0.51100000000E-03 0. -1.
         22    1    1    0    0    0  0.24116107193E+02  0.16300960678E+02 -0.62475135981E+00  0.29115258189E+02  0.00000000000E+00 0. -1.
</event>
<event>
 5    1  0.1043455E-009  0.9118800E+02  0.7561462E-02  0.1125453E+00
         25   -1    0    0    0    0  0.00000000000E+00  0.00000000000E+00  0.99999998245E-14  0.12509000000E+03  0.12509000000E+03 0.  0.
        -11    1    3    3    0    0  0.26069450758E+02  0.40185731598E+01  0.31928175338E+02  0.41414654094E+02  0.51100000000E-03 0. -1.
         23    2    1    0    0    0 -0.21434769046E+02 -0.15006671484E+02  0.10300956521E+02  0.96969558710E+02  0.92802672904E+02 0.  0.
         11    1    3    3    0    0 -0.47504219804E+02 -0.19025244643E+02 -0.21627218817E+02  0.55554904617E+02  0.51100000000E-03 0.  1.
         22    1    1    0    0    0  0.21434769046E+02  0.15006671484E+02 -0.10300956521E+02  0.28120441290E+02  0.00000000000E+00 0.  1.
</event>
<event>
 5    1  0.1043455E-009  0.9118800E+02  0.7561462E-02  0.1125453E+00
         25   -1    0    0    0    0  0.00000000000E+00  0.00000000000E+00  0.99999998245E-14  0.12509000000E+03  0.12509000000E+03 0.  0.
        -11    1    3    3    0    0 -0.22724980724E+01 -0.33190314894E+02 -0.44985520495E+01  0.33570794168E+02  0.51100000000E-03 0.  1.
         23    2    1    0    0    0 -0.96260646130E+01  0.28082256452E+02 -0.20969851420E+01  0.95329764886E+02  0.90565404428E+02 0.  0.
         11    1    3    3    0    0 -0.73535665406E+01  0.61272571346E+02  0.24015669075E+01  0.61758970718E+02  0.51100000000E-03 0. -1.
         22    1    1    0    0    0  0.96260646130E+01 -0.28082256452E+02  0.20969851420E+01  0.29760235114E+02  0.00000000000E+00 0. -1.
</event>
<event>
 5    1  0.1043455E-009  0.9118800E+02  0.7561462E-02  0.1125453E+00
         25   -1    0    0    0    0  0.00000000000E+00  0.00000000000E+00  0.99999998245E-14  0.12509000000E+03  0.12509000000E+03 0.  0.
        -11    1    3    3    0    0 -0.19117460393E+02  0.45765653973E+02 -0.33475800187E+02  0.59838128094E+02  0.51100000000E-03 0. -1.
         23    2    1    0    0    0  0.45840245060E+01  0.21115038269E+02 -0.15719729133E+02  0.98369820252E+02  0.94671292009E+02 0.  0.
         11    1    3    3    0    0  0.23701484899E+02 -0.24650615704E+02  0.17756071055E+02  0.38531692158E+02  0.51100000000E-03 0.  1.
         22    1    1    0    0    0 -0.45840245060E+01 -0.21115038269E+02  0.15719729133E+02  0.26720179748E+02  0.00000000000E+00 0. -1.
</event>
<event>
 5    1  0.1043455E-009  0.9118800E+02  0.7561462E-02  0.1125453E+00
         25   -1    0    0    0    0  0.00000000000E+00  0.00000000000E+00  0.99999998245E-14  0.12509000000E+03  0.12509000000E+03 0.  0.
        -11    1    3    3    0    0 -0.14688364784E+02  0.14108148665E+02  0.62965655440E+01  0.21317473038E+02  0.51100000000E-03 0. -1.
         23    2    1    0    0    0  0.30758160445E+02 -0.25386633293E+02 -0.10543942957E+02  0.83838087111E+02  0.72987016198E+02 0.  0.
         11    1    3    3    0    0  0.45446525229E+02 -0.39494781958E+02 -0.16840508501E+02  0.62520614074E+02  0.51100000000E-03 0.  1.
         22    1    1    0    0    0 -0.30758160445E+02  0.25386633293E+02  0.10543942957E+02  0.41251912889E+02  0.00000000000E+00 0.  1.
</event>
<event>
 5    1  0.1043455E-009  0.9118800E+02  0.7561462E-02  0.1125453E+00
         25   -1    0    0    0    0  0.00000000000E+00  0.00000000000E+00  0.99999998245E-14  0.12509000000E+03  0.12509000000E+03 0.  0.
        -11    1    3    3    0    0  0.36997076555E+02  0.75239632847E+01  0.22714802667E+02  0.44060821118E+02  0.51100000000E-03 0.  1.
         23    2    1    0    0    0 -0.15094962633E+02 -0.10997691727E+02  0.17334454540E+02  0.99608821958E+02  0.96294480514E+02 0.  0.
         11    1    3    3    0    0 -0.52092039188E+02 -0.18521655011E+02 -0.53803481276E+01  0.55548000840E+02  0.51100000000E-03 0. -1.
         22    1    1    0    0    0  0.15094962633E+02  0.10997691727E+02 -0.17334454540E+02  0.25481178042E+02  0.00000000000E+00 0. -1.
</event>
<event>
 5    1  0.1043455E-009  0.9118800E+02  0.7561462E-02  0.1125453E+00
         25   -1    0    0    0    0  0.00000000000E+00  0.00000000000E+00  0.99999998245E-14  0.12509000000E+03  0.12509000000E+03 0.  0.
        -11    1    3    3    0    0  0.15880745237E+02 -0.55989911416E+02  0.12887398458E+02  0.59608332378E+02  0.51100000000E-03 0.  1.
         23    2    1    0    0    0  0.19856268352E+02 -0.23475264902E+02  0.14334906094E+01  0.94309903340E+02  0.89145630950E+02 0.  0.
         11    1    3    3    0    0  0.39755231148E+01  0.32514646513E+02 -0.11453907848E+02  0.34701570961E+02  0.51100000000E-03 0. -1.
         22    1    1    0    0    0 -0.19856268352E+02  0.23475264902E+02 -0.14334906094E+01  0.30780096660E+02  0.00000000000E+00 0.  1.
</event>
<event>
 5    1  0.1043455E-009  0.9118800E+02  0.7561462E-02  0.1125453E+00
         25   -1    0    0    0    0  0.00000000000E+00  0.00000000000E+00  0.99999998245E-14  0.12509000000E+03  0.12509000000E+03 0.  0.
        -11    1    3    3    0    0  0.30246163278E+02  0.15707765790E+02 -0.47554245262E+00  0.34085047162E+02  0.51100000000E-03 0.  1.
         23    2    1    0    0    0 -0.29677467283E+02  0.63335873375E+01 -0.63048237545E+00  0.94737670585E+02  0.89743870692E+02 0.  0.
         11    1    3    3    0    0 -0.59923630562E+02 -0.93741784523E+01 -0.15493992283E+00  0.60652623422E+02  0.51100000000E-03 0. -1.
         22    1    1    0    0    0  0.29677467283E+02 -0.63335873375E+01  0.63048237545E+00  0.30352329415E+02  0.00000000000E+00 0. -1.
</event>
<event>
 5    1  0.1043455E-009  0.9118800E+02  0.7561462E-02  0.1125453E+00
         25   -1    0    0    0    0  0.00000000000E+00  0.00000000000E+00  0.99999998245E-14  0.12509000000E+03  0.12509000000E+03 0.  0.
        -11    1    3    3    0    0 -0.45807703614E+01  0.91143022293E+01  0.53141914639E+02  0.54112078634E+02  0.51100000000E-03 0. -1.
         23    2    1    0    0    0 -0.23879414415E+02  0.24174279016E+01  0.16828827805E+02  0.95776524673E+02  0.91180386283E+02 0.  0.
         11    1    3    3    0    0 -0.19298644053E+02 -0.66968743277E+01 -0.36313086835E+02  0.41664446039E+02  0.51100000000E-03 0.  1.
         22    1    1    0    0    0  0.23879414415E+02 -0.24174279016E+01 -0.16828827805E+02  0.29313475327E+02  0.00000000000E+00 0. -1.
</event>
<event>
 5    1  0.1043455E-009  0.9118800E+02  0.7561462E-02  0.1125453E+00
         25   -1    0    0    0    0  0.00000000000E+00  0.00000000000E+00  0.99999998245E-14  0.12509000000E+03  0.12509000000E+03 0.  0.
        -11    1    3    3    0    0  0.41821318049E+02  0.65538473694E+01  0.21023024321E+02  0.47264607378E+02  0.51100000000E-03 0.  1.
         23    2    1    0    0    0  0.15650115165E+02 -0.25933266704E+02 -0.16692396039E+01  0.94754430326E+02  0.89767228312E+02 0.  0.
         11    1    3    3    0    0 -0.26171202885E+02 -0.32487114074E+02 -0.22692263925E+02  0.47489822947E+02  0.51100000000E-03 0. -1.
         22    1    1    0    0    0 -0.15650115165E+02  0.25933266704E+02  0.16692396039E+01  0.30335569674E+02  0.00000000000E+00 0.  1.
</event>
<event>
 5    1  0.1043455E-009  0.9118800E+02  0.7561462E-02  0.1125453E+00
         25   -1    0    0    0    0  0.00000000000E+00  0.00000000000E+00  0.99999998245E-14  0.12509000000E+03  0.12509000000E+03 0.  0.
        -11    1    3    3    0    0 -0.12877329562E+02 -0.34322055184E+02 -0.15158848737E+02  0.39668876767E+02  0.51100000000E-03 0.  1.
         23    2    1    0    0    0  0.10803435746E+02  0.15113331658E+02 -0.23520641227E+02  0.95117552962E+02  0.90271818969E+02 0.  0.
         11    1    3    3    0    0  0.23680765308E+02  0.49435386842E+02 -0.83617924902E+01  0.55448676194E+02  0.51100000000E-03 0. -1.
         22    1    1    0    0    0 -0.10803435746E+02 -0.15113331658E+02  0.23520641227E+02  0.29972447038E+02  0.00000000000E+00 0. -1.
</event>
<event>
 5    1  0.1043455E-009  0.9118800E+02  0.7561462E-02  0.1125453E+00
         25   -1    0    0    0    0  0.00000000000E+00  0.00000000000E+00  0.99999998245E-14  0.12509000000E+03  0.12509000000E+03 0.  0.
        -11    1    3    3    0    0  0.38032678179E+02  0.41648288502E+02 -0.25311447499E+02  0.61820174048E+02  0.51100000000E-03 0.  1.
         23    2    1    0    0    0  0.11718056040E+02  0.20388444182E+02 -0.15044364881E+02  0.97173438460E+02  0.93077079531E+02 0.  0.
         11    1    3    3    0    0 -0.26314622139E+02 -0.21259844320E+02  0.10267082618E+02  0.35353264412E+02  0.51100000000E-03 0. -1.
         22    1    1    0    0    0 -0.11718056040E+02 -0.20388444182E+02  0.15044364881E+02  0.27916561540E+02  0.00000000000E+00 0.  1.
</event>
<event>
 5    1  0.1043455E-009  0.9118800E+02  0.7561462E-02  0.1125453E+00
         25   -1    0    0    0    0  0.00000000000E+00  0.00000000000E+00  0.99999998245E-14  0.12509000000E+03  0.12509000000E+03 0.  0.
        -11    1    3    3    0    0  0.52758087496E+02  0.27353096344E+02 -0.17729724519E+02  0.62015730324E+02  0.51100000000E-03 0. -1.
         23    2    1    0    0    0  0.20968995613E+02  0.14632315903E+02 -0.12415803118E+02  0.96665439973E+02  0.92391837694E+02 0.  0.
         11    1    3    3    0    0 -0.31789091884E+02 -0.12720780442E+02  0.53139214006E+01  0.34649709649E+02  0.51100000000E-03 0.  1.
         22    1    1    0    0    0 -0.20968995613E+02 -0.14632315903E+02  0.12415803118E+02  0.28424560027E+02  0.00000000000E+00 0. -1.
</event>
<event>
 5    1  0.1043455E-009  0.9118800E+02  0.7561462E-02  0.1125453E+00
         25   -1    0    0    0    0  0.00000000000E+00  0.00000000000E+00  0.99999998245E-14  0.12509000000E+03  0.12509000000E+03 0.  0.
        -11    1    3    3    0    0  0.48579915049E+02 -0.87160606811E+00  0.23704885701E+02  0.54061903866E+02  0.51100000000E-03 0.  1.
         23    2    1    0    0    0  0.24680540997E+02 -0.14091721047E+02 -0.76639301277E+01  0.95654621100E+02  0.91012993616E+02 0.  0.
         11    1    3    3    0    0 -0.23899374052E+02 -0.13220114979E+02 -0.31368815829E+02  0.41592717234E+02  0.51100000000E-03 0. -1.
         22    1    1    0    0    0 -0.24680540997E+02  0.14091721047E+02  0.76639301277E+01  0.29435378900E+02  0.00000000000E+00 0. -1.
</event>
<event>
 5    1  0.1043455E-009  0.9118800E+02  0.7561462E-02  0.1125453E+00
         25   -1    0    0    0    0  0.00000000000E+00  0.00000000000E+00  0.99999998245E-14  0.12509000000E+03  0.12509000000E+03 0.  0.
        -11    1    3    3    0    0  0.22559436009E+02  0.18721767653E+02 -0.25684681591E+02  0.38976090181E+02  0.51100000000E-03 0. -1.
         23    2    1    0    0    0 -0.28255074834E+02  0.65530328759E+00 -0.86295456541E+01  0.95539234621E+02  0.90854265819E+02 0.  0.
         11    1    3    3    0    0 -0.50814510843E+02 -0.18066464366E+02  0.17055135937E+02  0.56563144440E+02  0.51100000000E-03 0.  1.
         22    1    1    0    0    0  0.28255074834E+02 -0.65530328759E+00  0.86295456541E+01  0.29550765379E+02  0.00000000000E+00 0.  1.
</event>
<event>
 5    1  0.1043455E-009  0.9118800E+02  0.7561462E-02  0.1125453E+00
         25   -1    0    0    0    0  0.00000000000E+00  0.00000000000E+00  0.99999998245E-14  0.12509000000E+03  0.12509000000E+03 0.  0.
        -11    1    3    3    0    0 -0.52453474355E+02 -0.15385999343E+02 -0.22326856566E+02  0.59047307068E+02  0.51100000000E-03 0.  1.
         23    2    1    0    0    0 -0.30026124694E+02 -0.22180330694E+02 -0.68342407225E+01  0.87139478526E+02  0.78441357955E+02 0.  0.
         11    1    3    3    0    0  0.22427349660E+02 -0.67943313516E+01  0.15492615843E+02  0.28092171458E+02  0.51100000000E-03 0. -1.
         22    1    1    0    0    0  0.30026124694E+02  0.22180330694E+02  0.68342407225E+01  0.37950521474E+02  0.00000000000E+00 0. -1.
</event>
<event>
 5    1  0.1043455E-009  0.9118800E+02  0.7561462E-02  0.1125453E+00
         25   -1    0    0    0    0  0.00000000000E+00  0.00000000000E+00  0.99999998245E-14  0.12509000000E+03  0.12509000000E+03 0.  0.
        -11    1    3    3    0    0 -0.26860125716E+02 -0.14422936640E+02 -0.27144219453E+02  0.40820290357E+02  0.51100000000E-03 0.  1.
         23    2    1    0    0    0  0.25149656656E+02 -0.79062085350E+01 -0.15477126939E+02  0.94519510609E+02  0.89439270257E+02 0.  0.
         11    1    3    3    0    0  0.52009782373E+02  0.65167281054E+01  0.11667092514E+02  0.53699220252E+02  0.51100000000E-03 0. -1.
         22    1    1    0    0    0 -0.25149656656E+02  0.79062085350E+01  0.15477126939E+02  0.30570489391E+02  0.00000000000E+00 0. -1.
</event>
<event>
 5    1  0.1043455E-009  0.9118800E+02  0.7561462E-02  0.1125453E+00
         25   -1    0    0    0    0  0.00000000000E+00  0.00000000000E+00  0.99999998245E-14  0.12509000000E+03  0.12509000000E+03 0.  0.
        -11    1    3    3    0    0 -0.41803574799E+01  0.35266748783E+02 -0.29046986222E+02  0.45879694498E+02  0.51100000000E-03 0.  1.
         23    2    1    0    0    0  0.23621410873E+02  0.12952392662E+02  0.76942026970E+01  0.97073285660E+02  0.92942382723E+02 0.  0.
         11    1    3    3    0    0  0.27801768352E+02 -0.22314356121E+02  0.36741188919E+02  0.51193591162E+02  0.51100000000E-03 0. -1.
         22    1    1    0    0    0 -0.23621410873E+02 -0.12952392662E+02 -0.76942026970E+01  0.28016714340E+02  0.00000000000E+00 0. -1.
</event>
<event>
 5    1  0.1043455E-009  0.9118800E+02  0.7561462E-02  0.1125453E+00
         25   -1    0    0    0    0  0.00000000000E+00  0.00000000000E+00  0.99999998245E-14  0.12509000000E+03  0.12509000000E+03 0.  0.
        -11    1    3    3    0    0 -0.31287757267E+02 -0.27352256449E+00  0.49745863620E+02  0.58767759162E+02  0.51100000000E-03 0. -1.
         23    2    1    0    0    0 -0.49908358823E+01 -0.12293156915E+02  0.24837705940E+02  0.96930777957E+02  0.92750385062E+02 0.  0.
         11    1    3    3    0    0  0.26296921385E+02 -0.12019634350E+02 -0.24908157680E+02  0.38163018795E+02  0.51100000000E-03 0.  1.
         22    1    1    0    0    0  0.49908358823E+01  0.12293156915E+02 -0.24837705940E+02  0.28159222043E+02  0.00000000000E+00 0. -1.
</event>
<event>
 5    1  0.1043455E-009  0.9118800E+02  0.7561462E-02  0.1125453E+00
         25   -1    0    0    0    0  0.00000000000E+00  0.00000000000E+00  0.99999998245E-14  0.12509000000E+03  0.12509000000E+03 0.  0.
        -11    1    3    3    0    0 -0.23854881920E+02 -0.48827173257E+02  0.29329311763E+02  0.61752382694E+02  0.51100000000E-03 0.  1.
         23    2    1    0    0    0 -0.14339729133E+02 -0.16206563522E+02  0.15657676944E+02  0.98379639088E+02  0.94684264833E+02 0.  0.
         11    1    3    3    0    0  0.95151527869E+01  0.32620609735E+02 -0.13671634819E+02  0.36627256394E+02  0.51100000000E-03 0. -1.
         22    1    1    0    0    0  0.14339729133E+02  0.16206563522E+02 -0.15657676944E+02  0.26710360912E+02  0.00000000000E+00 0.  1.
</event>
<event>
 5    1  0.1043455E-009  0.9118800E+02  0.7561462E-02  0.1125453E+00
         25   -1    0    0    0    0  0.00000000000E+00  0.00000000000E+00  0.99999998245E-14  0.12509000000E+03  0.12509000000E+03 0.  0.
        -11    1    3    3    0    0  0.20895439462E+02 -0.35326870170E+02 -0.19631537293E+02  0.45497301053E+02  0.51100000000E-03 0.  1.
         23    2    1    0    0    0 -0.22991890766E+02 -0.11146255025E+02 -0.14091778365E+02  0.95910482191E+02  0.91363977226E+02 0.  0.
         11    1    3    3    0    0 -0.43887330228E+02  0.24180615145E+02  0.55397589283E+01  0.50413181139E+02  0.51100000000E-03 0. -1.
         22    1    1    0    0    0  0.22991890766E+02  0.11146255025E+02  0.14091778365E+02  0.29179517809E+02  0.00000000000E+00 0. -1.
</event>
<event>
 5    1  0.1043455E-009  0.9118800E+02  0.7561462E-02  0.1125453E+00
         25   -1    0    0    0    0  0.00000000000E+00  0.00000000000E+00  0.99999998245E-14  0.12509000000E+03  0.12509000000E+03 0.  0.
        -11    1    3    3    0    0  0.46121241379E+02 -0.18108866190E+02  0.33713656215E+02  0.59930881494E+02  0.51100000000E-03 0. -1.
         23    2    1    0    0    0  0.27998645589E+02 -0.98549019361E+01  0.48250740873E+01  0.95018009927E+02  0.90133776264E+02 0.  0.
         11    1    3    3    0    0 -0.18122595790E+02  0.82539642540E+01 -0.28888582128E+02  0.35087128433E+02  0.51100000000E-03 0.  1.
         22    1    1    0    0    0 -0.27998645589E+02  0.98549019361E+01 -0.48250740873E+01  0.30071990073E+02  0.00000000000E+00 0. -1.
</event>
<event>
 5    1  0.1043455E-009  0.9118800E+02  0.7561462E-02  0.1125453E+00
         25   -1    0    0    0    0  0.00000000000E+00  0.00000000000E+00  0.99999998245E-14  0.12509000000E+03  0.12509000000E+03 0.  0.
        -11    1    3    3    0    0  0.37151647829E+02 -0.31433347077E+02  0.35669225641E+02  0.60337334238E+02  0.51100000000E-03 0.  1.
         23    2    1    0    0    0  0.22419236212E+02 -0.15687195629E+02  0.58955442195E+01  0.97099506959E+02  0.92977666947E+02 0.  0.
         11    1    3    3    0    0 -0.14732411616E+02  0.15746151448E+02 -0.29773681422E+02  0.36762172720E+02  0.51100000000E-03 0. -1.
         22    1    1    0    0    0 -0.22419236212E+02  0.15687195629E+02 -0.58955442195E+01  0.27990493041E+02  0.00000000000E+00 0.  1.
</event>
<event>
 5    1  0.1043455E-009  0.9118800E+02  0.7561462E-02  0.1125453E+00
         25   -1    0    0    0    0  0.00000000000E+00  0.00000000000E+00  0.99999998245E-14  0.12509000000E+03  0.12509000000E+03 0.  0.
        -11    1    3    3    0    0 -0.31913037282E+01  0.21851437498E+02 -0.26453962073E+02  0.34459858530E+02  0.51100000000E-03 0. -1.
         23    2    1    0    0    0 -0.13185946534E+02 -0.23741363606E+02  0.12442645278E+02  0.95217923517E+02  0.90410795846E+02 0.  0.
         11    1    3    3    0    0 -0.99946428061E+01 -0.45592801104E+02  0.38896607351E+02  0.60758064988E+02  0.51100000000E-03 0.  1.
         22    1    1    0    0    0  0.13185946534E+02  0.23741363606E+02 -0.12442645278E+02  0.29872076483E+02  0.00000000000E+00 0.  1.
</event>
<event>
 5    1  0.1043455E-009  0.9118800E+02  0.7561462E-02  0.1125453E+00
         25   -1    0    0    0    0  0.00000000000E+00  0.00000000000E+00  0.99999998245E-14  0.12509000000E+03  0.12509000000E+03 0.  0.
        -11    1    3    3    0    0 -0.29298752783E+02 -0.51872622059E+02 -0.14388977102E+02  0.61288077929E+02  0.51100000000E-03 0.  1.
         23    2    1    0    0    0 -0.59905972656E+01 -0.27202942616E+02 -0.99267688012E+01  0.95519269853E+02  0.90826773761E+02 0.  0.
         11    1    3    3    0    0  0.23308155517E+02  0.24669679443E+02  0.44622083009E+01  0.34231191925E+02  0.51100000000E-03 0. -1.
         22    1    1    0    0    0  0.59905972656E+01  0.27202942616E+02  0.99267688012E+01  0.29570730147E+02  0.00000000000E+00 0.  1.
</event>
<event>
 5    1  0.1043455E-009  0.9118800E+02  0.7561462E-02  0.1125453E+00
         25   -1    0    0    0    0  0.00000000000E+00  0.00000000000E+00  0.99999998245E-14  0.12509000000E+03  0.12509000000E+03 0.  0.
        -11    1    3    3    0    0  0.10919501349E+02 -0.53523850694E+02 -0.16211096755E+02  0.56981029835E+02  0.51100000000E-03 0.  1.
         23    2    1    0    0    0  0.15251616120E+02 -0.15314000725E+02 -0.20027046229E+02  0.95624545768E+02  0.90971648112E+02 0.  0.
         11    1    3    3    0    0  0.43321147708E+01  0.38209849968E+02 -0.38159494737E+01  0.38643515933E+02  0.51100000000E-03 0. -1.
         22    1    1    0    0    0 -0.15251616120E+02  0.15314000725E+02  0.20027046229E+02  0.29465454232E+02  0.00000000000E+00 0.  1.
</event>
<event>
 5    1  0.1043455E-009  0.9118800E+02  0.7561462E-02  0.1125453E+00
         25   -1    0    0    0    0  0.00000000000E+00  0.00000000000E+00  0.99999998245E-14  0.12509000000E+03  0.12509000000E+03 0.  0.
        -11    1    3    3    0    0  0.47941101051E+02 -0.17233873309E+02  0.33024939323E+02  0.60712454874E+02  0.51100000000E-03 0.  1.
         23    2    1    0    0    0  0.20858616188E+02  0.12534260680E+01  0.20509136699E+02  0.95810696144E+02  0.91227253939E+02 0.  0.
         11    1    3    3    0    0 -0.27082484864E+02  0.18487299377E+02 -0.12515802625E+02  0.35098241270E+02  0.51100000000E-03 0. -1.
         22    1    1    0    0    0 -0.20858616188E+02 -0.12534260680E+01 -0.20509136699E+02  0.29279303856E+02  0.00000000000E+00 0.  1.
</event>
<event>
 5    1  0.1043455E-009  0.9118800E+02  0.7561462E-02  0.1125453E+00
         25   -1    0    0    0    0  0.00000000000E+00  0.00000000000E+00  0.99999998245E-14  0.12509000000E+03  0.12509000000E+03 0.  0.
        -11    1    3    3    0    0 -0.33096747819E+02 -0.11240239369E+02  0.20000397911E+02  0.40271002149E+02  0.51100000000E-03 0.  1.
         23    2    1    0    0    0  0.17433655178E+02  0.13046786501E+02  0.18759111303E+02  0.96348823480E+02  0.91962169169E+02 0.  0.
         11    1    3    3    0    0  0.50530402996E+02  0.24287025869E+02 -0.12412866078E+01  0.56077821331E+02  0.51100000000E-03 0. -1.
         22    1    1    0    0    0 -0.17433655178E+02 -0.13046786501E+02 -0.18759111303E+02  0.28741176520E+02  0.00000000000E+00 0. -1.
</event>
<event>
 5    1  0.1043455E-009  0.9118800E+02  0.7561462E-02  0.1125453E+00
         25   -1    0    0    0    0  0.00000000000E+00  0.00000000000E+00  0.99999998245E-14  0.12509000000E+03  0.12509000000E+03 0.  0.
        -11    1    3    3    0    0 -0.18278800209E+02  0.57612734144E+02 -0.70240104198E+01  0.60849637593E+02  0.51100000000E-03 0.  1.
         23    2    1    0    0    0  0.17462396153E+01  0.26883037265E+02 -0.24613563025E+00  0.98149182861E+02  0.94379311653E+02 0.  0.
         11    1    3    3    0    0  0.20025039824E+02 -0.30729696879E+02  0.67778747896E+01  0.37299545267E+02  0.51100000000E-03 0. -1.
         22    1    1    0    0    0 -0.17462396153E+01 -0.26883037265E+02  0.24613563025E+00  0.26940817139E+02  0.00000000000E+00 0.  1.
</event>
<event>
 5    1  0.1043455E-009  0.9118800E+02  0.7561462E-02  0.1125453E+00
         25   -1    0    0    0    0  0.00000000000E+00  0.00000000000E+00  0.99999998245E-14  0.12509000000E+03  0.12509000000E+03 0.  0.
        -11    1    3    3    0    0  0.41093719637E+02 -0.29612612482E+01 -0.30478439767E+02  0.51248396586E+02  0.51100000000E-03 0.  1.
         23    2    1    0    0    0  0.27176121026E+02 -0.21574040497E+01  0.11515642766E+02  0.95495980763E+02  0.90794693498E+02 0.  0.
         11    1    3    3    0    0 -0.13917598611E+02  0.80385719841E+00  0.41994082533E+02  0.44247584177E+02  0.51100000000E-03 0. -1.
         22    1    1    0    0    0 -0.27176121026E+02  0.21574040497E+01 -0.11515642766E+02  0.29594019237E+02  0.00000000000E+00 0.  1.
</event>
<event>
 5    1  0.1043455E-009  0.9118800E+02  0.7561462E-02  0.1125453E+00
         25   -1    0    0    0    0  0.00000000000E+00  0.00000000000E+00  0.99999998245E-14  0.12509000000E+03  0.12509000000E+03 0.  0.
        -11    1    3    3    0    0 -0.36962467404E+02 -0.33462632827E+02 -0.28528053210E+02  0.57444073780E+02  0.51100000000E-03 0.  1.
         23    2    1    0    0    0 -0.29448820109E+02 -0.69125979994E+01 -0.36042841472E+01  0.94626778222E+02  0.89589169409E+02 0.  0.
         11    1    3    3    0    0  0.75136472947E+01  0.26550034828E+02  0.24923769063E+02  0.37182704441E+02  0.51100000000E-03 0. -1.
         22    1    1    0    0    0  0.29448820109E+02  0.69125979994E+01  0.36042841472E+01  0.30463221778E+02  0.00000000000E+00 0.  1.
</event>
<event>
 5    1  0.1043455E-009  0.9118800E+02  0.7561462E-02  0.1125453E+00
         25   -1    0    0    0    0  0.00000000000E+00  0.00000000000E+00  0.99999998245E-14  0.12509000000E+03  0.12509000000E+03 0.  0.
        -11    1    3    3    0    0 -0.16053132157E+01  0.18691397546E+02  0.35056118804E+02  0.39760241934E+02  0.51100000000E-03 0.  1.
         23    2    1    0    0    0 -0.23101518027E+02  0.31383496476E+01 -0.15665191666E+02  0.97002144909E+02  0.92846585901E+02 0.  0.
         11    1    3    3    0    0 -0.21496204811E+02 -0.15553047899E+02 -0.50721310470E+02  0.57241902976E+02  0.51100000000E-03 0. -1.
         22    1    1    0    0    0  0.23101518027E+02 -0.31383496476E+01  0.15665191666E+02  0.28087855091E+02  0.00000000000E+00 0. -1.
</event>
