<event>
 5    1  0.1692171E-003  0.9118800E+02  0.7818608E-02  0.1130116E+00
         25   -1    0    0    0    0  0.00000000000E+00  0.00000000000E+00  0.99999998245E-14  0.12500000000E+03  0.12500000000E+03 0.  0.
        -11    1    3    3    0    0  0.44652037181E+02 -0.10423930564E+02  0.86792186539E+01  0.46666814649E+02  0.51100000000E-03 0.  1.
         23    2    1    0    0    0  0.11297613296E+02 -0.70818427362E+01 -0.26546299974E+02  0.95293189248E+02  0.90544449372E+02 0.  0.
         11    1    3    3    0    0 -0.33354423885E+02  0.33420878281E+01 -0.35225518628E+02  0.48626374599E+02  0.51100000000E-03 0. -1.
         22    1    1    0    0    0 -0.11297613296E+02  0.70818427362E+01  0.26546299974E+02  0.29706810752E+02  0.00000000000E+00 0. -1.
</event>
<event>
 5    1  0.1692171E-003  0.9118800E+02  0.7818608E-02  0.1130116E+00
         25   -1    0    0    0    0  0.00000000000E+00  0.00000000000E+00  0.99999998245E-14  0.12500000000E+03  0.12500000000E+03 0.  0.
        -11    1    3    3    0    0 -0.11234868571E+02 -0.35697017008E+02 -0.10270378541E+01  0.37437335671E+02  0.51100000000E-03 0.  1.
         23    2    1    0    0    0  0.71412926870E+00  0.12495931844E+02 -0.28277788337E+02  0.94076035078E+02  0.88848234476E+02 0.  0.
         11    1    3    3    0    0  0.11948997840E+02  0.48192948852E+02 -0.27250750483E+02  0.56638699408E+02  0.51100000000E-03 0. -1.
         22    1    1    0    0    0 -0.71412926870E+00 -0.12495931844E+02  0.28277788337E+02  0.30923964922E+02  0.00000000000E+00 0. -1.
</event>
<event>
 5    1  0.1692171E-003  0.9118800E+02  0.7818608E-02  0.1130116E+00
         25   -1    0    0    0    0  0.00000000000E+00  0.00000000000E+00  0.99999998245E-14  0.12500000000E+03  0.12500000000E+03 0.  0.
        -11    1    3    3    0    0  0.10217098224E+02 -0.25621746605E+02 -0.23062021335E+02  0.35954413130E+02  0.51100000000E-03 0. -1.
         23    2    1    0    0    0 -0.14742121794E+02  0.25055340072E+02 -0.35789456491E+01  0.95709915106E+02  0.91117938830E+02 0.  0.
         11    1    3    3    0    0 -0.24959220019E+02  0.50677086677E+02  0.19483075686E+02  0.59755501976E+02  0.51100000000E-03 0.  1.
         22    1    1    0    0    0  0.14742121794E+02 -0.25055340072E+02  0.35789456491E+01  0.29290084894E+02  0.00000000000E+00 0.  1.
</event>
<event>
 5    1  0.1692171E-003  0.9118800E+02  0.7818608E-02  0.1130116E+00
         25   -1    0    0    0    0  0.00000000000E+00  0.00000000000E+00  0.99999998245E-14  0.12500000000E+03  0.12500000000E+03 0.  0.
        -11    1    3    3    0    0 -0.70395333695E+01 -0.52553219969E+02  0.31200391041E+02  0.61521218783E+02  0.51100000000E-03 0.  1.
         23    2    1    0    0    0 -0.65583386468E+01 -0.27123374249E+02  0.79414094781E+01  0.95986981871E+02  0.91497242952E+02 0.  0.
         11    1    3    3    0    0  0.48119472273E+00  0.25429845720E+02 -0.23258981562E+02  0.34465763089E+02  0.51100000000E-03 0. -1.
         22    1    1    0    0    0  0.65583386468E+01  0.27123374249E+02 -0.79414094781E+01  0.29013018129E+02  0.00000000000E+00 0.  1.
</event>
<event>
 5    1  0.1692171E-003  0.9118800E+02  0.7818608E-02  0.1130116E+00
         25   -1    0    0    0    0  0.00000000000E+00  0.00000000000E+00  0.99999998245E-14  0.12500000000E+03  0.12500000000E+03 0.  0.
        -11    1    3    3    0    0  0.22356345879E+02  0.24618235312E+01  0.25165572922E+02  0.33751634581E+02  0.51100000000E-03 0.  1.
         23    2    1    0    0    0 -0.14843521804E+02 -0.11352774530E+02 -0.22485960041E+02  0.95762455164E+02  0.91189987339E+02 0.  0.
         11    1    3    3    0    0 -0.37199867684E+02 -0.13814598061E+02 -0.47651532963E+02  0.62010820582E+02  0.51100000000E-03 0. -1.
         22    1    1    0    0    0  0.14843521804E+02  0.11352774530E+02  0.22485960041E+02  0.29237544836E+02  0.00000000000E+00 0. -1.
</event>
<event>
 5    1  0.1692171E-003  0.9118800E+02  0.7818608E-02  0.1130116E+00
         25   -1    0    0    0    0  0.00000000000E+00  0.00000000000E+00  0.99999998245E-14  0.12500000000E+03  0.12500000000E+03 0.  0.
        -11    1    3    3    0    0  0.33667687475E+02 -0.66411308625E+01 -0.24204397896E+00  0.34317289878E+02  0.51100000000E-03 0.  1.
         23    2    1    0    0    0 -0.27810133522E+02  0.38581213871E+01 -0.31144250892E+01  0.96751313822E+02  0.92535552386E+02 0.  0.
         11    1    3    3    0    0 -0.61477820997E+02  0.10499252250E+02 -0.28723811102E+01  0.62434023944E+02  0.51100000000E-03 0. -1.
         22    1    1    0    0    0  0.27810133522E+02 -0.38581213871E+01  0.31144250892E+01  0.28248686178E+02  0.00000000000E+00 0. -1.
</event>
<event>
 5    1  0.1692171E-003  0.9118800E+02  0.7818608E-02  0.1130116E+00
         25   -1    0    0    0    0  0.00000000000E+00  0.00000000000E+00  0.99999998245E-14  0.12500000000E+03  0.12500000000E+03 0.  0.
        -11    1    3    3    0    0  0.37305587580E+02 -0.69172064852E+01 -0.36348236977E+01  0.38115174849E+02  0.51100000000E-03 0. -1.
         23    2    1    0    0    0 -0.75558441266E+01  0.16947891036E+02  0.22968738404E+02  0.95472305628E+02  0.90791389498E+02 0.  0.
         11    1    3    3    0    0 -0.44861431706E+02  0.23865097521E+02  0.26603562102E+02  0.57357130779E+02  0.51100000000E-03 0.  1.
         22    1    1    0    0    0  0.75558441266E+01 -0.16947891036E+02 -0.22968738404E+02  0.29527694372E+02  0.00000000000E+00 0.  1.
</event>
<event>
 5    1  0.1692171E-003  0.9118800E+02  0.7818608E-02  0.1130116E+00
         25   -1    0    0    0    0  0.00000000000E+00  0.00000000000E+00  0.99999998245E-14  0.12500000000E+03  0.12500000000E+03 0.  0.
        -11    1    3    3    0    0 -0.16396918549E+02  0.37764988813E+02  0.29377111394E+02  0.50577346630E+02  0.51100000000E-03 0.  1.
         23    2    1    0    0    0 -0.16187584409E+02  0.21305891100E+02 -0.12421012616E+02  0.95499823068E+02  0.90829267128E+02 0.  0.
         11    1    3    3    0    0  0.20933413976E+00 -0.16459097713E+02 -0.41798124011E+02  0.44922476439E+02  0.51100000000E-03 0. -1.
         22    1    1    0    0    0  0.16187584409E+02 -0.21305891100E+02  0.12421012616E+02  0.29500176932E+02  0.00000000000E+00 0.  1.
</event>
<event>
 5    1  0.1692171E-003  0.9118800E+02  0.7818608E-02  0.1130116E+00
         25   -1    0    0    0    0  0.00000000000E+00  0.00000000000E+00  0.99999998245E-14  0.12500000000E+03  0.12500000000E+03 0.  0.
        -11    1    3    3    0    0 -0.17581921475E+02 -0.44231774700E+02  0.16144265424E+02  0.50261428175E+02  0.51100000000E-03 0.  1.
         23    2    1    0    0    0 -0.29239224923E+02 -0.17056362325E+02 -0.99698137933E+01  0.89711914802E+02  0.82480171560E+02 0.  0.
         11    1    3    3    0    0 -0.11657303449E+02  0.27175412375E+02 -0.26114079217E+02  0.39450486627E+02  0.51100000000E-03 0. -1.
         22    1    1    0    0    0  0.29239224923E+02  0.17056362325E+02  0.99698137933E+01  0.35288085198E+02  0.00000000000E+00 0.  1.
</event>
<event>
 5    1  0.1692171E-003  0.9118800E+02  0.7818608E-02  0.1130116E+00
         25   -1    0    0    0    0  0.00000000000E+00  0.00000000000E+00  0.99999998245E-14  0.12500000000E+03  0.12500000000E+03 0.  0.
        -11    1    3    3    0    0 -0.14090550096E+02  0.30118772036E+02 -0.46140433319E+02  0.56873751574E+02  0.51100000000E-03 0.  1.
         23    2    1    0    0    0 -0.11441355692E+02 -0.34442714016E+01 -0.26694068772E+02  0.95753787712E+02  0.91178105530E+02 0.  0.
         11    1    3    3    0    0  0.26491944045E+01 -0.33563043437E+02  0.19446364547E+02  0.38880036138E+02  0.51100000000E-03 0. -1.
         22    1    1    0    0    0  0.11441355692E+02  0.34442714016E+01  0.26694068772E+02  0.29246212288E+02  0.00000000000E+00 0.  1.
</event>
<event>
 5    1  0.1692171E-003  0.9118800E+02  0.7818608E-02  0.1130116E+00
         25   -1    0    0    0    0  0.00000000000E+00  0.00000000000E+00  0.99999998245E-14  0.12500000000E+03  0.12500000000E+03 0.  0.
        -11    1    3    3    0    0  0.32850903695E+02  0.16405217500E+02 -0.10823021820E+02  0.38281207353E+02  0.51100000000E-03 0.  1.
         23    2    1    0    0    0 -0.24828543941E+02  0.11102632256E+02  0.24076949381E+01  0.97695750657E+02  0.93802652757E+02 0.  0.
         11    1    3    3    0    0 -0.57679447636E+02 -0.53025852437E+01  0.13230716759E+02  0.59414543304E+02  0.51100000000E-03 0. -1.
         22    1    1    0    0    0  0.24828543941E+02 -0.11102632256E+02 -0.24076949381E+01  0.27304249343E+02  0.00000000000E+00 0. -1.
</event>
<event>
 5    1  0.1692171E-003  0.9118800E+02  0.7818608E-02  0.1130116E+00
         25   -1    0    0    0    0  0.00000000000E+00  0.00000000000E+00  0.99999998245E-14  0.12500000000E+03  0.12500000000E+03 0.  0.
        -11    1    3    3    0    0 -0.39185231451E+02  0.11098288299E+01 -0.39800290432E+02  0.55863916821E+02  0.51100000000E-03 0. -1.
         23    2    1    0    0    0 -0.13084530286E+01  0.58052019167E+01 -0.28810529469E+02  0.95581315004E+02  0.90941347862E+02 0.  0.
         11    1    3    3    0    0  0.37876778422E+02  0.46953730868E+01  0.10989760963E+02  0.39717398182E+02  0.51100000000E-03 0.  1.
         22    1    1    0    0    0  0.13084530286E+01 -0.58052019167E+01  0.28810529469E+02  0.29418684996E+02  0.00000000000E+00 0. -1.
</event>
<event>
 5    1  0.1692171E-003  0.9118800E+02  0.7818608E-02  0.1130116E+00
         25   -1    0    0    0    0  0.00000000000E+00  0.00000000000E+00  0.99999998245E-14  0.12500000000E+03  0.12500000000E+03 0.  0.
        -11    1    3    3    0    0  0.10279677850E+02  0.41780908682E+02  0.14745047027E+02  0.45483321329E+02  0.51100000000E-03 0. -1.
         23    2    1    0    0    0 -0.26346625069E+02  0.12975480986E+02 -0.32889108837E+01  0.95447932490E+02  0.90757826783E+02 0.  0.
         11    1    3    3    0    0 -0.36626302919E+02 -0.28805427697E+02 -0.18033957910E+02  0.49964611161E+02  0.51100000000E-03 0.  1.
         22    1    1    0    0    0  0.26346625069E+02 -0.12975480986E+02  0.32889108837E+01  0.29552067510E+02  0.00000000000E+00 0.  1.
</event>
<event>
 5    1  0.1692171E-003  0.9118800E+02  0.7818608E-02  0.1130116E+00
         25   -1    0    0    0    0  0.00000000000E+00  0.00000000000E+00  0.99999998245E-14  0.12500000000E+03  0.12500000000E+03 0.  0.
        -11    1    3    3    0    0  0.30053912734E+02  0.12723197059E+02  0.92407111339E+01  0.33919141447E+02  0.51100000000E-03 0.  1.
         23    2    1    0    0    0 -0.26528425161E+02  0.18250904771E+02 -0.47091036615E+01  0.92457281555E+02  0.86540859649E+02 0.  0.
         11    1    3    3    0    0 -0.56582337895E+02  0.55277077120E+01 -0.13949814795E+02  0.58538140108E+02  0.51100000000E-03 0. -1.
         22    1    1    0    0    0  0.26528425161E+02 -0.18250904771E+02  0.47091036615E+01  0.32542718445E+02  0.00000000000E+00 0. -1.
</event>
<event>
 5    1  0.1692171E-003  0.9118800E+02  0.7818608E-02  0.1130116E+00
         25   -1    0    0    0    0  0.00000000000E+00  0.00000000000E+00  0.99999998245E-14  0.12500000000E+03  0.12500000000E+03 0.  0.
        -11    1    3    3    0    0  0.28046499633E+01 -0.36282276977E+02  0.28873307246E+02  0.46453606487E+02  0.51100000000E-03 0.  1.
         23    2    1    0    0    0 -0.68642342887E+01  0.87494970708E+01  0.30495308425E+02  0.92540251891E+02  0.86660619504E+02 0.  0.
         11    1    3    3    0    0 -0.96688842519E+01  0.45031774048E+02  0.16220011790E+01  0.46086645404E+02  0.51100000000E-03 0. -1.
         22    1    1    0    0    0  0.68642342887E+01 -0.87494970708E+01 -0.30495308425E+02  0.32459748109E+02  0.00000000000E+00 0.  1.
</event>
<event>
 5    1  0.1692171E-003  0.9118800E+02  0.7818608E-02  0.1130116E+00
         25   -1    0    0    0    0  0.00000000000E+00  0.00000000000E+00  0.99999998245E-14  0.12500000000E+03  0.12500000000E+03 0.  0.
        -11    1    3    3    0    0  0.60194981226E+00  0.48361674147E+01 -0.61249717733E+02  0.61443297287E+02  0.51100000000E-03 0. -1.
         23    2    1    0    0    0  0.49758257561E+01 -0.44304955222E+01 -0.21591637490E+02  0.10240382904E+03  0.99879713958E+02 0.  0.
         11    1    3    3    0    0  0.43738759439E+01 -0.92666629369E+01  0.39658080243E+02  0.40960531754E+02  0.51100000000E-03 0.  1.
         22    1    1    0    0    0 -0.49758257561E+01  0.44304955222E+01  0.21591637490E+02  0.22596170959E+02  0.00000000000E+00 0. -1.
</event>
<event>
 5    1  0.1692171E-003  0.9118800E+02  0.7818608E-02  0.1130116E+00
         25   -1    0    0    0    0  0.00000000000E+00  0.00000000000E+00  0.99999998245E-14  0.12500000000E+03  0.12500000000E+03 0.  0.
        -11    1    3    3    0    0  0.53419184256E+02 -0.19450900860E+02  0.15869503809E+02  0.59023621901E+02  0.51100000000E-03 0. -1.
         23    2    1    0    0    0  0.15096374208E+02 -0.20769448713E+02  0.71239735059E+01  0.98353771138E+02  0.94675460307E+02 0.  0.
         11    1    3    3    0    0 -0.38322810048E+02 -0.13185478528E+01 -0.87455303031E+01  0.39330149237E+02  0.51100000000E-03 0.  1.
         22    1    1    0    0    0 -0.15096374208E+02  0.20769448713E+02 -0.71239735059E+01  0.26646228862E+02  0.00000000000E+00 0. -1.
</event>
<event>
 5    1  0.1692171E-003  0.9118800E+02  0.7818608E-02  0.1130116E+00
         25   -1    0    0    0    0  0.00000000000E+00  0.00000000000E+00  0.99999998245E-14  0.12500000000E+03  0.12500000000E+03 0.  0.
        -11    1    3    3    0    0  0.19219959516E+02  0.22726725774E+02 -0.18148789380E+02  0.34861002057E+02  0.51100000000E-03 0. -1.
         23    2    1    0    0    0 -0.16363623428E+02 -0.74189381519E+01  0.22137904436E+02  0.96488675447E+02  0.92180089291E+02 0.  0.
         11    1    3    3    0    0 -0.35583582943E+02 -0.30145663926E+02  0.40286693815E+02  0.61627673390E+02  0.51100000000E-03 0.  1.
         22    1    1    0    0    0  0.16363623428E+02  0.74189381519E+01 -0.22137904436E+02  0.28511324553E+02  0.00000000000E+00 0.  1.
</event>
<event>
 5    1  0.1692171E-003  0.9118800E+02  0.7818608E-02  0.1130116E+00
         25   -1    0    0    0    0  0.00000000000E+00  0.00000000000E+00  0.99999998245E-14  0.12500000000E+03  0.12500000000E+03 0.  0.
        -11    1    3    3    0    0  0.43383793992E+02  0.52147752823E+01 -0.17324116806E+01  0.43730409475E+02  0.51100000000E-03 0. -1.
         23    2    1    0    0    0  0.34123294270E+01 -0.14203965187E+02 -0.26599141138E+02  0.94653485728E+02  0.89656965329E+02 0.  0.
         11    1    3    3    0    0 -0.39971464565E+02 -0.19418740470E+02 -0.24866729458E+02  0.50923076253E+02  0.51100000000E-03 0.  1.
         22    1    1    0    0    0 -0.34123294270E+01  0.14203965187E+02  0.26599141138E+02  0.30346514272E+02  0.00000000000E+00 0.  1.
</event>
<event>
 5    1  0.1692171E-003  0.9118800E+02  0.7818608E-02  0.1130116E+00
         25   -1    0    0    0    0  0.00000000000E+00  0.00000000000E+00  0.99999998245E-14  0.12500000000E+03  0.12500000000E+03 0.  0.
        -11    1    3    3    0    0  0.12335918838E+02 -0.97755047932E+01  0.23072568728E+02  0.27929891076E+02  0.51100000000E-03 0.  1.
         23    2    1    0    0    0 -0.28877645387E+02 -0.24350834153E+02 -0.13459149749E+02  0.84899747644E+02  0.74832726203E+02 0.  0.
         11    1    3    3    0    0 -0.41213564226E+02 -0.14575329360E+02 -0.36531718477E+02  0.56969856567E+02  0.51100000000E-03 0. -1.
         22    1    1    0    0    0  0.28877645387E+02  0.24350834153E+02  0.13459149749E+02  0.40100252356E+02  0.00000000000E+00 0. -1.
</event>
<event>
 5    1  0.1692171E-003  0.9118800E+02  0.7818608E-02  0.1130116E+00
         25   -1    0    0    0    0  0.00000000000E+00  0.00000000000E+00  0.99999998245E-14  0.12500000000E+03  0.12500000000E+03 0.  0.
        -11    1    3    3    0    0 -0.71901496130E+01  0.29574455053E+02  0.16792842580E+02  0.34761274507E+02  0.51100000000E-03 0.  1.
         23    2    1    0    0    0 -0.27146389813E+01 -0.22111587914E+02 -0.17260145548E+02  0.96818371069E+02  0.92626091180E+02 0.  0.
         11    1    3    3    0    0  0.44755106318E+01 -0.51686042967E+02 -0.34052988128E+02  0.62057096562E+02  0.51100000000E-03 0. -1.
         22    1    1    0    0    0  0.27146389813E+01  0.22111587914E+02  0.17260145548E+02  0.28181628931E+02  0.00000000000E+00 0. -1.
</event>
<event>
 5    1  0.1692171E-003  0.9118800E+02  0.7818608E-02  0.1130116E+00
         25   -1    0    0    0    0  0.00000000000E+00  0.00000000000E+00  0.99999998245E-14  0.12500000000E+03  0.12500000000E+03 0.  0.
        -11    1    3    3    0    0 -0.56371487968E+01  0.28914816792E+02  0.33287816593E+02  0.44451353303E+02  0.51100000000E-03 0.  1.
         23    2    1    0    0    0  0.13120143359E+02 -0.17122528738E+02  0.19201966144E+02  0.96120341832E+02  0.91679253149E+02 0.  0.
         11    1    3    3    0    0  0.18757292155E+02 -0.46037345530E+02 -0.14085850449E+02  0.51668988529E+02  0.51100000000E-03 0. -1.
         22    1    1    0    0    0 -0.13120143359E+02  0.17122528738E+02 -0.19201966144E+02  0.28879658168E+02  0.00000000000E+00 0. -1.
</event>
<event>
 5    1  0.1692171E-003  0.9118800E+02  0.7818608E-02  0.1130116E+00
         25   -1    0    0    0    0  0.00000000000E+00  0.00000000000E+00  0.99999998245E-14  0.12500000000E+03  0.12500000000E+03 0.  0.
        -11    1    3    3    0    0 -0.22003929892E+02  0.37282929115E+02 -0.27475053619E+02  0.51274441057E+02  0.51100000000E-03 0. -1.
         23    2    1    0    0    0 -0.12675428433E+02  0.20837732933E+02  0.14015494725E+02  0.96869737077E+02  0.92695384293E+02 0.  0.
         11    1    3    3    0    0  0.93285014588E+01 -0.16445196182E+02  0.41490548344E+02  0.45595296019E+02  0.51100000000E-03 0.  1.
         22    1    1    0    0    0  0.12675428433E+02 -0.20837732933E+02 -0.14015494725E+02  0.28130262923E+02  0.00000000000E+00 0. -1.
</event>
<event>
 5    1  0.1692171E-003  0.9118800E+02  0.7818608E-02  0.1130116E+00
         25   -1    0    0    0    0  0.00000000000E+00  0.00000000000E+00  0.99999998245E-14  0.12500000000E+03  0.12500000000E+03 0.  0.
        -11    1    3    3    0    0 -0.76321264173E+00 -0.15735885471E+02 -0.32519023039E+02  0.36134297347E+02  0.51100000000E-03 0. -1.
         23    2    1    0    0    0  0.16272374479E+02 -0.73217234181E+01  0.23617773945E+02  0.95399374143E+02  0.90690923116E+02 0.  0.
         11    1    3    3    0    0  0.17035587121E+02  0.84141620527E+01  0.56136796985E+02  0.59265076795E+02  0.51100000000E-03 0.  1.
         22    1    1    0    0    0 -0.16272374479E+02  0.73217234181E+01 -0.23617773945E+02  0.29600625857E+02  0.00000000000E+00 0.  1.
</event>
<event>
 5    1  0.1692171E-003  0.9118800E+02  0.7818608E-02  0.1130116E+00
         25   -1    0    0    0    0  0.00000000000E+00  0.00000000000E+00  0.99999998245E-14  0.12500000000E+03  0.12500000000E+03 0.  0.
        -11    1    3    3    0    0  0.17578128641E+02  0.18001074133E+02 -0.18081145790E+02  0.30983174625E+02  0.51100000000E-03 0. -1.
         23    2    1    0    0    0 -0.59660844830E+01 -0.34267829797E+02 -0.42229880193E+01  0.89961279263E+02  0.82857225490E+02 0.  0.
         11    1    3    3    0    0 -0.23544213124E+02 -0.52268903930E+02  0.13858157771E+02  0.58978104639E+02  0.51100000000E-03 0.  1.
         22    1    1    0    0    0  0.59660844830E+01  0.34267829797E+02  0.42229880193E+01  0.35038720737E+02  0.00000000000E+00 0.  1.
</event>
<event>
 5    1  0.1692171E-003  0.9118800E+02  0.7818608E-02  0.1130116E+00
         25   -1    0    0    0    0  0.00000000000E+00  0.00000000000E+00  0.99999998245E-14  0.12500000000E+03  0.12500000000E+03 0.  0.
        -11    1    3    3    0    0 -0.17426940650E+02  0.29339552464E+02 -0.37320864436E+02  0.50570292877E+02  0.51100000000E-03 0. -1.
         23    2    1    0    0    0  0.19396426874E+02  0.10927948516E+02 -0.19396041124E+02  0.95472930292E+02  0.90792249520E+02 0.  0.
         11    1    3    3    0    0  0.36823367524E+02 -0.18411603948E+02  0.17924823311E+02  0.44902637415E+02  0.51100000000E-03 0.  1.
         22    1    1    0    0    0 -0.19396426874E+02 -0.10927948516E+02  0.19396041124E+02  0.29527069708E+02  0.00000000000E+00 0. -1.
</event>
<event>
 5    1  0.1692171E-003  0.9118800E+02  0.7818608E-02  0.1130116E+00
         25   -1    0    0    0    0  0.00000000000E+00  0.00000000000E+00  0.99999998245E-14  0.12500000000E+03  0.12500000000E+03 0.  0.
        -11    1    3    3    0    0 -0.23161202723E+02 -0.25418548039E+02  0.41212474331E+01  0.34634211073E+02  0.51100000000E-03 0.  1.
         23    2    1    0    0    0  0.79253009544E+01  0.27509033849E+02 -0.18919615571E+01  0.96309638255E+02  0.91936986919E+02 0.  0.
         11    1    3    3    0    0  0.31086503678E+02  0.52927581888E+02 -0.60132089902E+01  0.61675427182E+02  0.51100000000E-03 0. -1.
         22    1    1    0    0    0 -0.79253009544E+01 -0.27509033849E+02  0.18919615571E+01  0.28690361745E+02  0.00000000000E+00 0. -1.
</event>
<event>
 5    1  0.1692171E-003  0.9118800E+02  0.7818608E-02  0.1130116E+00
         25   -1    0    0    0    0  0.00000000000E+00  0.00000000000E+00  0.99999998245E-14  0.12500000000E+03  0.12500000000E+03 0.  0.
        -11    1    3    3    0    0  0.24527404820E+02 -0.54500071334E+02 -0.41930768273E+01  0.59911879090E+02  0.51100000000E-03 0.  1.
         23    2    1    0    0    0  0.75076517497E+01 -0.27024517006E+02 -0.13952695265E+02  0.93673221370E+02  0.88279699492E+02 0.  0.
         11    1    3    3    0    0 -0.17019753070E+02  0.27475554328E+02 -0.97596184378E+01  0.33761342279E+02  0.51100000000E-03 0. -1.
         22    1    1    0    0    0 -0.75076517497E+01  0.27024517006E+02  0.13952695265E+02  0.31326778630E+02  0.00000000000E+00 0.  1.
</event>
<event>
 5    1  0.1692171E-003  0.9118800E+02  0.7818608E-02  0.1130116E+00
         25   -1    0    0    0    0  0.00000000000E+00  0.00000000000E+00  0.99999998245E-14  0.12500000000E+03  0.12500000000E+03 0.  0.
        -11    1    3    3    0    0  0.54979729994E+02  0.23508888536E+02 -0.13655234667E+02  0.61334362183E+02  0.51100000000E-03 0.  1.
         23    2    1    0    0    0  0.29653974710E+02  0.53589514348E+01 -0.13457865503E+01  0.94835654855E+02  0.89910587329E+02 0.  0.
         11    1    3    3    0    0 -0.25325755284E+02 -0.18149937101E+02  0.12309448117E+02  0.33501292672E+02  0.51100000000E-03 0. -1.
         22    1    1    0    0    0 -0.29653974710E+02 -0.53589514348E+01  0.13457865503E+01  0.30164345145E+02  0.00000000000E+00 0.  1.
</event>
<event>
 5    1  0.1692171E-003  0.9118800E+02  0.7818608E-02  0.1130116E+00
         25   -1    0    0    0    0  0.00000000000E+00  0.00000000000E+00  0.99999998245E-14  0.12500000000E+03  0.12500000000E+03 0.  0.
        -11    1    3    3    0    0  0.49262269048E+02  0.15589293682E+02  0.15485897904E+02  0.53940803325E+02  0.51100000000E-03 0. -1.
         23    2    1    0    0    0  0.99569650960E+01  0.25940483929E+02  0.65823966475E+00  0.97206419089E+02  0.93148294521E+02 0.  0.
         11    1    3    3    0    0 -0.39305303952E+02  0.10351190247E+02 -0.14827658239E+02  0.43265615763E+02  0.51100000000E-03 0.  1.
         22    1    1    0    0    0 -0.99569650960E+01 -0.25940483929E+02 -0.65823966475E+00  0.27793580911E+02  0.00000000000E+00 0. -1.
</event>
<event>
 5    1  0.1692171E-003  0.9118800E+02  0.7818608E-02  0.1130116E+00
         25   -1    0    0    0    0  0.00000000000E+00  0.00000000000E+00  0.99999998245E-14  0.12500000000E+03  0.12500000000E+03 0.  0.
        -11    1    3    3    0    0  0.12938712876E+02 -0.26233276603E+02  0.18523995290E+02  0.34622730885E+02  0.51100000000E-03 0.  1.
         23    2    1    0    0    0  0.15712248603E+02  0.28804519245E+02  0.11764869377E+02  0.90143332968E+02  0.83131421508E+02 0.  0.
         11    1    3    3    0    0  0.27735357269E+01  0.55037795848E+02 -0.67591259132E+01  0.55520602083E+02  0.51100000000E-03 0. -1.
         22    1    1    0    0    0 -0.15712248603E+02 -0.28804519245E+02 -0.11764869377E+02  0.34856667032E+02  0.00000000000E+00 0. -1.
</event>
<event>
 5    1  0.1692171E-003  0.9118800E+02  0.7818608E-02  0.1130116E+00
         25   -1    0    0    0    0  0.00000000000E+00  0.00000000000E+00  0.99999998245E-14  0.12500000000E+03  0.12500000000E+03 0.  0.
        -11    1    3    3    0    0 -0.27497978861E+02 -0.13261048261E+02 -0.18910687356E+02  0.35911117206E+02  0.51100000000E-03 0. -1.
         23    2    1    0    0    0  0.26417175976E+02  0.88699645532E+01 -0.16254431885E+00  0.97132996602E+02  0.93049713329E+02 0.  0.
         11    1    3    3    0    0  0.53915154837E+02  0.22131012814E+02  0.18748143037E+02  0.61221879397E+02  0.51100000000E-03 0.  1.
         22    1    1    0    0    0 -0.26417175976E+02 -0.88699645532E+01  0.16254431885E+00  0.27867003398E+02  0.00000000000E+00 0.  1.
</event>
<event>
 5    1  0.1692171E-003  0.9118800E+02  0.7818608E-02  0.1130116E+00
         25   -1    0    0    0    0  0.00000000000E+00  0.00000000000E+00  0.99999998245E-14  0.12500000000E+03  0.12500000000E+03 0.  0.
        -11    1    3    3    0    0  0.70749296082E+01 -0.24841952950E+02 -0.34241177528E+02  0.42890972175E+02  0.51100000000E-03 0.  1.
         23    2    1    0    0    0  0.14724600187E+02 -0.15115244682E+02  0.18421919559E+02  0.96988366833E+02  0.92855219068E+02 0.  0.
         11    1    3    3    0    0  0.76496705792E+01  0.97267082679E+01  0.52663097087E+02  0.54097394658E+02  0.51100000000E-03 0. -1.
         22    1    1    0    0    0 -0.14724600187E+02  0.15115244682E+02 -0.18421919559E+02  0.28011633167E+02  0.00000000000E+00 0.  1.
</event>
<event>
 5    1  0.1692171E-003  0.9118800E+02  0.7818608E-02  0.1130116E+00
         25   -1    0    0    0    0  0.00000000000E+00  0.00000000000E+00  0.99999998245E-14  0.12500000000E+03  0.12500000000E+03 0.  0.
        -11    1    3    3    0    0 -0.16724450354E+02 -0.13354840934E+02  0.51616526306E+02  0.55877766636E+02  0.51100000000E-03 0. -1.
         23    2    1    0    0    0  0.14361499003E+01 -0.23153774286E+02  0.16773773263E+02  0.96372753194E+02  0.92022759677E+02 0.  0.
         11    1    3    3    0    0  0.18160600254E+02 -0.97989333517E+01 -0.34842753044E+02  0.40494986558E+02  0.51100000000E-03 0.  1.
         22    1    1    0    0    0 -0.14361499003E+01  0.23153774286E+02 -0.16773773263E+02  0.28627246806E+02  0.00000000000E+00 0. -1.
</event>
<event>
 5    1  0.1692171E-003  0.9118800E+02  0.7818608E-02  0.1130116E+00
         25   -1    0    0    0    0  0.00000000000E+00  0.00000000000E+00  0.99999998245E-14  0.12500000000E+03  0.12500000000E+03 0.  0.
        -11    1    3    3    0    0 -0.44410828587E+02 -0.25435758778E+02 -0.29375004298E+02  0.59010087257E+02  0.51100000000E-03 0.  1.
         23    2    1    0    0    0 -0.21598083569E+02  0.12450771419E+01 -0.20448933991E+02  0.95231118055E+02  0.90458717179E+02 0.  0.
         11    1    3    3    0    0  0.22812745018E+02  0.26680835920E+02  0.89260703076E+01  0.36221030797E+02  0.51100000000E-03 0. -1.
         22    1    1    0    0    0  0.21598083569E+02 -0.12450771419E+01  0.20448933991E+02  0.29768881945E+02  0.00000000000E+00 0.  1.
</event>
<event>
 5    1  0.1692171E-003  0.9118800E+02  0.7818608E-02  0.1130116E+00
         25   -1    0    0    0    0  0.00000000000E+00  0.00000000000E+00  0.99999998245E-14  0.12500000000E+03  0.12500000000E+03 0.  0.
        -11    1    3    3    0    0  0.18527697776E+02  0.21787688499E+02  0.34437903101E+02  0.44765479169E+02  0.51100000000E-03 0.  1.
         23    2    1    0    0    0  0.17288404076E+02 -0.22380808103E+02  0.13183149591E+02  0.93797677651E+02  0.88455748331E+02 0.  0.
         11    1    3    3    0    0 -0.12392936996E+01 -0.44168496601E+02 -0.21254753511E+02  0.49032198482E+02  0.51100000000E-03 0. -1.
         22    1    1    0    0    0 -0.17288404076E+02  0.22380808103E+02 -0.13183149591E+02  0.31202322349E+02  0.00000000000E+00 0. -1.
</event>
<event>
 5    1  0.1692171E-003  0.9118800E+02  0.7818608E-02  0.1130116E+00
         25   -1    0    0    0    0  0.00000000000E+00  0.00000000000E+00  0.99999998245E-14  0.12500000000E+03  0.12500000000E+03 0.  0.
        -11    1    3    3    0    0 -0.16271028306E+02  0.36575626635E+02 -0.33708142880E+02  0.52333179940E+02  0.51100000000E-03 0. -1.
         23    2    1    0    0    0 -0.14305004838E+02  0.23549138802E+02  0.81911312298E+01  0.96254744173E+02  0.91862321130E+02 0.  0.
         11    1    3    3    0    0  0.19660234682E+01 -0.13026487834E+02  0.41899274110E+02  0.43921564234E+02  0.51100000000E-03 0.  1.
         22    1    1    0    0    0  0.14305004838E+02 -0.23549138802E+02 -0.81911312298E+01  0.28745255827E+02  0.00000000000E+00 0. -1.
</event>
<event>
 5    1  0.1692171E-003  0.9118800E+02  0.7818608E-02  0.1130116E+00
         25   -1    0    0    0    0  0.00000000000E+00  0.00000000000E+00  0.99999998245E-14  0.12500000000E+03  0.12500000000E+03 0.  0.
        -11    1    3    3    0    0  0.14455313882E+01 -0.29838082333E+02 -0.17586147939E+02  0.34665160002E+02  0.51100000000E-03 0. -1.
         23    2    1    0    0    0 -0.10117764320E+02  0.21699036624E+02  0.15019411586E+02  0.96736948685E+02  0.92516145462E+02 0.  0.
         11    1    3    3    0    0 -0.11563295708E+02  0.51537118957E+02  0.32605559526E+02  0.62071788683E+02  0.51100000000E-03 0.  1.
         22    1    1    0    0    0  0.10117764320E+02 -0.21699036624E+02 -0.15019411586E+02  0.28263051315E+02  0.00000000000E+00 0.  1.
</event>
<event>
 5    1  0.1692171E-003  0.9118800E+02  0.7818608E-02  0.1130116E+00
         25   -1    0    0    0    0  0.00000000000E+00  0.00000000000E+00  0.99999998245E-14  0.12500000000E+03  0.12500000000E+03 0.  0.
        -11    1    3    3    0    0  0.24617812658E+02  0.43198919377E+02 -0.12456812070E+02  0.51257736027E+02  0.51100000000E-03 0. -1.
         23    2    1    0    0    0  0.15373672224E+02  0.15493721394E+01 -0.24897340352E+02  0.95697646711E+02  0.91101106896E+02 0.  0.
         11    1    3    3    0    0 -0.92441404342E+01 -0.41649547237E+02 -0.12440528282E+02  0.44439910684E+02  0.51100000000E-03 0.  1.
         22    1    1    0    0    0 -0.15373672224E+02 -0.15493721394E+01  0.24897340352E+02  0.29302353289E+02  0.00000000000E+00 0. -1.
</event>
<event>
 5    1  0.1692171E-003  0.9118800E+02  0.7818608E-02  0.1130116E+00
         25   -1    0    0    0    0  0.00000000000E+00  0.00000000000E+00  0.99999998245E-14  0.12500000000E+03  0.12500000000E+03 0.  0.
        -11    1    3    3    0    0 -0.28508336295E+02 -0.32883934410E+02  0.24445630098E+01  0.43589611941E+02  0.51100000000E-03 0.  1.
         23    2    1    0    0    0 -0.24452881753E+02  0.13842732718E+02  0.16325024083E+02  0.92502752633E+02  0.86606513371E+02 0.  0.
         11    1    3    3    0    0  0.40554545415E+01  0.46726667129E+02  0.13880461073E+02  0.48913140692E+02  0.51100000000E-03 0. -1.
         22    1    1    0    0    0  0.24452881753E+02 -0.13842732718E+02 -0.16325024083E+02  0.32497247367E+02  0.00000000000E+00 0. -1.
</event>
<event>
 5    1  0.1692171E-003  0.9118800E+02  0.7818608E-02  0.1130116E+00
         25   -1    0    0    0    0  0.00000000000E+00  0.00000000000E+00  0.99999998245E-14  0.12500000000E+03  0.12500000000E+03 0.  0.
        -11    1    3    3    0    0 -0.15895942261E+02 -0.16998962698E+02 -0.27540386524E+02  0.36057157449E+02  0.51100000000E-03 0.  1.
         23    2    1    0    0    0  0.67539594558E+01  0.30083737285E+02 -0.23004933418E+01  0.94081728914E+02  0.88856244735E+02 0.  0.
         11    1    3    3    0    0  0.22649901717E+02  0.47082699983E+02  0.25239893182E+02  0.58024571464E+02  0.51100000000E-03 0. -1.
         22    1    1    0    0    0 -0.67539594558E+01 -0.30083737285E+02  0.23004933418E+01  0.30918271086E+02  0.00000000000E+00 0. -1.
</event>
<event>
 5    1  0.1692171E-003  0.9118800E+02  0.7818608E-02  0.1130116E+00
         25   -1    0    0    0    0  0.00000000000E+00  0.00000000000E+00  0.99999998245E-14  0.12500000000E+03  0.12500000000E+03 0.  0.
        -11    1    3    3    0    0  0.71128078809E+01 -0.24958919689E+02  0.23109548234E+02  0.34750409031E+02  0.51100000000E-03 0. -1.
         23    2    1    0    0    0 -0.23576182862E+02  0.20093485157E+02 -0.16353429513E+00  0.94022406685E+02  0.88772752978E+02 0.  0.
         11    1    3    3    0    0 -0.30688990743E+02  0.45052404846E+02 -0.23273082529E+02  0.59271997654E+02  0.51100000000E-03 0.  1.
         22    1    1    0    0    0  0.23576182862E+02 -0.20093485157E+02  0.16353429513E+00  0.30977593315E+02  0.00000000000E+00 0.  1.
</event>
<event>
 5    1  0.1692171E-003  0.9118800E+02  0.7818608E-02  0.1130116E+00
         25   -1    0    0    0    0  0.00000000000E+00  0.00000000000E+00  0.99999998245E-14  0.12500000000E+03  0.12500000000E+03 0.  0.
        -11    1    3    3    0    0  0.16972453745E+02 -0.33110772661E+02  0.29263128552E+02  0.47336224450E+02  0.51100000000E-03 0.  1.
         23    2    1    0    0    0  0.29290369812E+02  0.21576612394E+00 -0.32903779244E+01  0.95524605081E+02  0.90863365942E+02 0.  0.
         11    1    3    3    0    0  0.12317916067E+02  0.33326538785E+02 -0.32553506476E+02  0.48188380631E+02  0.51100000000E-03 0. -1.
         22    1    1    0    0    0 -0.29290369812E+02 -0.21576612394E+00  0.32903779244E+01  0.29475394919E+02  0.00000000000E+00 0.  1.
</event>
<event>
 5    1  0.1692171E-003  0.9118800E+02  0.7818608E-02  0.1130116E+00
         25   -1    0    0    0    0  0.00000000000E+00  0.00000000000E+00  0.99999998245E-14  0.12500000000E+03  0.12500000000E+03 0.  0.
        -11    1    3    3    0    0 -0.29331279907E+01 -0.47985375660E+02 -0.78573861180E+01  0.48712811804E+02  0.51100000000E-03 0.  1.
         23    2    1    0    0    0 -0.94928248161E+01 -0.83821119025E+01 -0.28471457609E+02  0.93839168475E+02  0.88514361088E+02 0.  0.
         11    1    3    3    0    0 -0.65596968254E+01  0.39603263757E+02 -0.20614071491E+02  0.45126356671E+02  0.51100000000E-03 0. -1.
         22    1    1    0    0    0  0.94928248161E+01  0.83821119025E+01  0.28471457609E+02  0.31160831525E+02  0.00000000000E+00 0.  1.
</event>
<event>
 5    1  0.1692171E-003  0.9118800E+02  0.7818608E-02  0.1130116E+00
         25   -1    0    0    0    0  0.00000000000E+00  0.00000000000E+00  0.99999998245E-14  0.12500000000E+03  0.12500000000E+03 0.  0.
        -11    1    3    3    0    0  0.11849449628E+02  0.29799360687E+02 -0.26427169530E+02  0.41554863054E+02  0.51100000000E-03 0.  1.
         23    2    1    0    0    0 -0.15751682388E+02 -0.15998115603E+02 -0.19094444961E+02  0.95527079730E+02  0.90866770233E+02 0.  0.
         11    1    3    3    0    0 -0.27601132016E+02 -0.45797476289E+02  0.73327245695E+01  0.53972216676E+02  0.51100000000E-03 0. -1.
         22    1    1    0    0    0  0.15751682388E+02  0.15998115603E+02  0.19094444961E+02  0.29472920270E+02  0.00000000000E+00 0. -1.
</event>
<event>
 5    1  0.1692171E-003  0.9118800E+02  0.7818608E-02  0.1130116E+00
         25   -1    0    0    0    0  0.00000000000E+00  0.00000000000E+00  0.99999998245E-14  0.12500000000E+03  0.12500000000E+03 0.  0.
        -11    1    3    3    0    0  0.34782566738E+01 -0.44598767701E+02 -0.37972443286E+02  0.58677549364E+02  0.51100000000E-03 0.  1.
         23    2    1    0    0    0 -0.13764002369E+02 -0.17705157917E+02 -0.16057735744E+02  0.97417917858E+02  0.93431683408E+02 0.  0.
         11    1    3    3    0    0 -0.17242259042E+02  0.26893609784E+02  0.21914707543E+02  0.38740368494E+02  0.51100000000E-03 0. -1.
         22    1    1    0    0    0  0.13764002369E+02  0.17705157917E+02  0.16057735744E+02  0.27582082142E+02  0.00000000000E+00 0.  1.
</event>
<event>
 5    1  0.1692171E-003  0.9118800E+02  0.7818608E-02  0.1130116E+00
         25   -1    0    0    0    0  0.00000000000E+00  0.00000000000E+00  0.99999998245E-14  0.12500000000E+03  0.12500000000E+03 0.  0.
        -11    1    3    3    0    0 -0.30949396995E+02 -0.26148093352E+01 -0.16912579835E+02  0.35365771010E+02  0.51100000000E-03 0. -1.
         23    2    1    0    0    0  0.26692665969E+02  0.10585229786E+02 -0.81914711839E+01  0.95139562858E+02  0.90332113417E+02 0.  0.
         11    1    3    3    0    0  0.57642062964E+02  0.13200039121E+02  0.87211086506E+01  0.59773791848E+02  0.51100000000E-03 0.  1.
         22    1    1    0    0    0 -0.26692665969E+02 -0.10585229786E+02  0.81914711839E+01  0.29860437142E+02  0.00000000000E+00 0.  1.
</event>
<event>
 5    1  0.1692171E-003  0.9118800E+02  0.7818608E-02  0.1130116E+00
         25   -1    0    0    0    0  0.00000000000E+00  0.00000000000E+00  0.99999998245E-14  0.12500000000E+03  0.12500000000E+03 0.  0.
        -11    1    3    3    0    0 -0.13896303779E+02 -0.57542821026E+02  0.10938838583E+02  0.60199183550E+02  0.51100000000E-03 0.  1.
         23    2    1    0    0    0  0.52698768356E+01 -0.28869845036E+02  0.39585837645E+01  0.95387334810E+02  0.90674327692E+02 0.  0.
         11    1    3    3    0    0  0.19166180615E+02  0.28672975990E+02 -0.69802548180E+01  0.35188151260E+02  0.51100000000E-03 0. -1.
         22    1    1    0    0    0 -0.52698768356E+01  0.28869845036E+02 -0.39585837645E+01  0.29612665190E+02  0.00000000000E+00 0.  1.
</event>
<event>
 5    1  0.1692171E-003  0.9118800E+02  0.7818608E-02  0.1130116E+00
         25   -1    0    0    0    0  0.00000000000E+00  0.00000000000E+00  0.99999998245E-14  0.12500000000E+03  0.12500000000E+03 0.  0.
        -11    1    3    3    0    0 -0.25851741169E+02  0.24267900521E+02 -0.48596675251E+02  0.60157130607E+02  0.51100000000E-03 0.  1.
         23    2    1    0    0    0 -0.19229652565E+02  0.15447734140E+02 -0.13637236092E+02  0.96815141723E+02  0.92621733037E+02 0.  0.
         11    1    3    3    0    0  0.66220886038E+01 -0.88201663812E+01  0.34959439159E+02  0.36658011116E+02  0.51100000000E-03 0. -1.
         22    1    1    0    0    0  0.19229652565E+02 -0.15447734140E+02  0.13637236092E+02  0.28184858277E+02  0.00000000000E+00 0.  1.
</event>
<event>
 5    1  0.1692171E-003  0.9118800E+02  0.7818608E-02  0.1130116E+00
         25   -1    0    0    0    0  0.00000000000E+00  0.00000000000E+00  0.99999998245E-14  0.12500000000E+03  0.12500000000E+03 0.  0.
        -11    1    3    3    0    0 -0.28860530606E+01 -0.32210404952E+02 -0.79321874236E+01  0.33298034282E+02  0.51100000000E-03 0. -1.
         23    2    1    0    0    0  0.19039942312E+01  0.25639657208E+02  0.14444848396E+02  0.95509817550E+02  0.90843020576E+02 0.  0.
         11    1    3    3    0    0  0.47900472919E+01  0.57850062160E+02  0.22377035819E+02  0.62211783268E+02  0.51100000000E-03 0.  1.
         22    1    1    0    0    0 -0.19039942312E+01 -0.25639657208E+02 -0.14444848396E+02  0.29490182450E+02  0.00000000000E+00 0.  1.
</event>
<event>
 5    1  0.1692171E-003  0.9118800E+02  0.7818608E-02  0.1130116E+00
         25   -1    0    0    0    0  0.00000000000E+00  0.00000000000E+00  0.99999998245E-14  0.12500000000E+03  0.12500000000E+03 0.  0.
        -11    1    3    3    0    0 -0.11652952201E+02  0.24234598751E+02 -0.29841026575E+02  0.40169564834E+02  0.51100000000E-03 0. -1.
         23    2    1    0    0    0 -0.18818445494E+02 -0.20996230300E+02  0.31769566172E+01  0.96626268645E+02  0.92366482889E+02 0.  0.
         11    1    3    3    0    0 -0.71654932935E+01 -0.45230829052E+02  0.33017983193E+02  0.56456703811E+02  0.51100000000E-03 0.  1.
         22    1    1    0    0    0  0.18818445494E+02  0.20996230300E+02 -0.31769566172E+01  0.28373731355E+02  0.00000000000E+00 0.  1.
</event>
<event>
 5    1  0.1692171E-003  0.9118800E+02  0.7818608E-02  0.1130116E+00
         25   -1    0    0    0    0  0.00000000000E+00  0.00000000000E+00  0.99999998245E-14  0.12500000000E+03  0.12500000000E+03 0.  0.
        -11    1    3    3    0    0 -0.30822135345E+02  0.23511321585E+02  0.14324160973E+02  0.41327567770E+02  0.51100000000E-03 0. -1.
         23    2    1    0    0    0  0.90083324254E+01 -0.11378075866E+02  0.25699529789E+02  0.95485994937E+02  0.90810234744E+02 0.  0.
         11    1    3    3    0    0  0.39830467771E+02 -0.34889397451E+02  0.11375368816E+02  0.54158427168E+02  0.51100000000E-03 0.  1.
         22    1    1    0    0    0 -0.90083324254E+01  0.11378075866E+02 -0.25699529789E+02  0.29514005063E+02  0.00000000000E+00 0.  1.
</event>
<event>
 5    1  0.1692171E-003  0.9118800E+02  0.7818608E-02  0.1130116E+00
         25   -1    0    0    0    0  0.00000000000E+00  0.00000000000E+00  0.99999998245E-14  0.12500000000E+03  0.12500000000E+03 0.  0.
        -11    1    3    3    0    0 -0.64165209576E+01  0.46356057928E+02 -0.59222702654E+01  0.47171274449E+02  0.51100000000E-03 0.  1.
         23    2    1    0    0    0 -0.24575809798E+02  0.25329279190E+01 -0.15865132120E+02  0.95638655203E+02  0.91020128547E+02 0.  0.
         11    1    3    3    0    0 -0.18159288841E+02 -0.43823130009E+02 -0.99428618551E+01  0.48467380754E+02  0.51100000000E-03 0. -1.
         22    1    1    0    0    0  0.24575809798E+02 -0.25329279190E+01  0.15865132120E+02  0.29361344797E+02  0.00000000000E+00 0. -1.
</event>
<event>
 5    1  0.1692171E-003  0.9118800E+02  0.7818608E-02  0.1130116E+00
         25   -1    0    0    0    0  0.00000000000E+00  0.00000000000E+00  0.99999998245E-14  0.12500000000E+03  0.12500000000E+03 0.  0.
        -11    1    3    3    0    0  0.36549723278E+02 -0.19091574115E+02  0.45611108868E+02  0.61487752653E+02  0.51100000000E-03 0.  1.
         23    2    1    0    0    0  0.18626236027E+02 -0.21938469463E+01  0.25824952890E+02  0.93083267324E+02  0.87440361567E+02 0.  0.
         11    1    3    3    0    0 -0.17923487251E+02  0.16897727169E+02 -0.19786155978E+02  0.31595514671E+02  0.51100000000E-03 0. -1.
         22    1    1    0    0    0 -0.18626236027E+02  0.21938469463E+01 -0.25824952890E+02  0.31916732676E+02  0.00000000000E+00 0.  1.
</event>
<event>
 5    1  0.1692171E-003  0.9118800E+02  0.7818608E-02  0.1130116E+00
         25   -1    0    0    0    0  0.00000000000E+00  0.00000000000E+00  0.99999998245E-14  0.12500000000E+03  0.12500000000E+03 0.  0.
        -11    1    3    3    0    0 -0.95831951685E+01 -0.16473691323E+02 -0.32116943124E+02  0.37345925766E+02  0.51100000000E-03 0. -1.
         23    2    1    0    0    0 -0.76041036432E+01  0.23104721985E+02  0.13020426011E+02  0.97410471847E+02  0.93421721038E+02 0.  0.
         11    1    3    3    0    0  0.19790915253E+01  0.39578413307E+02  0.45137369135E+02  0.60064546081E+02  0.51100000000E-03 0.  1.
         22    1    1    0    0    0  0.76041036432E+01 -0.23104721985E+02 -0.13020426011E+02  0.27589528153E+02  0.00000000000E+00 0.  1.
</event>
<event>
 4    1  0.1692171E-003  0.9118800E+02  0.7818608E-02  0.1130116E+00
         25   -1    0    0    0    0  0.00000000000E+00  0.00000000000E+00  0.99999998245E-14  0.12500000000E+03  0.12500000000E+03 0.  0.
        -11    1    1    0    0    0 -0.53104852547E+01  0.66714167703E+01 -0.17861321567E+02  0.19792318301E+02  0.51100000000E-03 0.  1.
         11    1    1    0    0    0  0.18814287574E+02 -0.32737415270E+02 -0.30564355452E+02  0.48578756673E+02  0.51100000000E-03 0. -1.
         22    1    1    0    0    0 -0.13503802319E+02  0.26065998500E+02  0.48425677019E+02  0.56628925026E+02  0.00000000000E+00 0.  1.
</event>
<event>
 5    1  0.1692171E-003  0.9118800E+02  0.7818608E-02  0.1130116E+00
         25   -1    0    0    0    0  0.00000000000E+00  0.00000000000E+00  0.99999998245E-14  0.12500000000E+03  0.12500000000E+03 0.  0.
        -11    1    3    3    0    0 -0.51330606473E+02  0.13296287549E+02 -0.22136306251E+02  0.57459885817E+02  0.51100000000E-03 0. -1.
         23    2    1    0    0    0 -0.14233619221E+02  0.87311915564E+01 -0.24988976436E+02  0.94945406916E+02  0.90063043081E+02 0.  0.
         11    1    3    3    0    0  0.37096987252E+02 -0.45650959929E+01 -0.28526701851E+01  0.37485521099E+02  0.51100000000E-03 0.  1.
         22    1    1    0    0    0  0.14233619221E+02 -0.87311915564E+01  0.24988976436E+02  0.30054593084E+02  0.00000000000E+00 0. -1.
</event>
<event>
 5    1  0.1692171E-003  0.9118800E+02  0.7818608E-02  0.1130116E+00
         25   -1    0    0    0    0  0.00000000000E+00  0.00000000000E+00  0.99999998245E-14  0.12500000000E+03  0.12500000000E+03 0.  0.
        -11    1    3    3    0    0  0.22198616706E+02  0.26710706782E+02  0.28440020837E+02  0.44889589282E+02  0.51100000000E-03 0. -1.
         23    2    1    0    0    0 -0.12040960511E+02  0.25446553500E+02 -0.88110727105E+01  0.95501748910E+02  0.90831917449E+02 0.  0.
         11    1    3    3    0    0 -0.34239577217E+02 -0.12641532812E+01 -0.37251093547E+02  0.50612159628E+02  0.51100000000E-03 0.  1.
         22    1    1    0    0    0  0.12040960511E+02 -0.25446553500E+02  0.88110727105E+01  0.29498251090E+02  0.00000000000E+00 0.  1.
</event>
<event>
 5    1  0.1692171E-003  0.9118800E+02  0.7818608E-02  0.1130116E+00
         25   -1    0    0    0    0  0.00000000000E+00  0.00000000000E+00  0.99999998245E-14  0.12500000000E+03  0.12500000000E+03 0.  0.
        -11    1    3    3    0    0 -0.59227731468E+01 -0.21626898120E+02  0.52424364084E+02  0.57018557628E+02  0.51100000000E-03 0.  1.
         23    2    1    0    0    0 -0.20267753571E+02 -0.50744215296E+01  0.20543508485E+02  0.95698680413E+02  0.91102525229E+02 0.  0.
         11    1    3    3    0    0 -0.14344980425E+02  0.16552476590E+02 -0.31880855600E+02  0.38680122785E+02  0.51100000000E-03 0. -1.
         22    1    1    0    0    0  0.20267753571E+02  0.50744215296E+01 -0.20543508485E+02  0.29301319587E+02  0.00000000000E+00 0.  1.
</event>
<event>
 5    1  0.1692171E-003  0.9118800E+02  0.7818608E-02  0.1130116E+00
         25   -1    0    0    0    0  0.00000000000E+00  0.00000000000E+00  0.99999998245E-14  0.12500000000E+03  0.12500000000E+03 0.  0.
        -11    1    3    3    0    0  0.12497078788E+02 -0.30791065690E+02  0.11500467079E+02  0.35164292227E+02  0.51100000000E-03 0. -1.
         23    2    1    0    0    0 -0.89826981645E+01  0.14232278983E+02 -0.23494328462E+02  0.96099652230E+02  0.91651039587E+02 0.  0.
         11    1    3    3    0    0 -0.21479776952E+02  0.45023344672E+02 -0.34994795541E+02  0.60935360003E+02  0.51100000000E-03 0.  1.
         22    1    1    0    0    0  0.89826981645E+01 -0.14232278983E+02  0.23494328462E+02  0.28900347770E+02  0.00000000000E+00 0.  1.
</event>
<event>
 5    1  0.1692171E-003  0.9118800E+02  0.7818608E-02  0.1130116E+00
         25   -1    0    0    0    0  0.00000000000E+00  0.00000000000E+00  0.99999998245E-14  0.12500000000E+03  0.12500000000E+03 0.  0.
        -11    1    3    3    0    0 -0.14206908521E+02 -0.10059051629E+02  0.33648981147E+02  0.37885019491E+02  0.51100000000E-03 0.  1.
         23    2    1    0    0    0  0.79920368268E+01 -0.16158879072E+02 -0.21082336275E+02  0.97261093599E+02  0.93221635899E+02 0.  0.
         11    1    3    3    0    0  0.22198945348E+02 -0.60998274436E+01 -0.54731317422E+02  0.59376074107E+02  0.51100000000E-03 0. -1.
         22    1    1    0    0    0 -0.79920368268E+01  0.16158879072E+02  0.21082336275E+02  0.27738906401E+02  0.00000000000E+00 0. -1.
</event>
<event>
 5    1  0.1692171E-003  0.9118800E+02  0.7818608E-02  0.1130116E+00
         25   -1    0    0    0    0  0.00000000000E+00  0.00000000000E+00  0.99999998245E-14  0.12500000000E+03  0.12500000000E+03 0.  0.
        -11    1    3    3    0    0  0.34799746557E+02 -0.52441845400E-01  0.42143499441E+01  0.35054041940E+02  0.51100000000E-03 0. -1.
         23    2    1    0    0    0 -0.18256430186E+02  0.75572121143E+01 -0.22595200984E+02  0.94984140766E+02  0.90116786402E+02 0.  0.
         11    1    3    3    0    0 -0.53056176744E+02  0.76096539597E+01 -0.26809550928E+02  0.59930098826E+02  0.51100000000E-03 0.  1.
         22    1    1    0    0    0  0.18256430186E+02 -0.75572121143E+01  0.22595200984E+02  0.30015859234E+02  0.00000000000E+00 0.  1.
</event>
<event>
 5    1  0.1692171E-003  0.9118800E+02  0.7818608E-02  0.1130116E+00
         25   -1    0    0    0    0  0.00000000000E+00  0.00000000000E+00  0.99999998245E-14  0.12500000000E+03  0.12500000000E+03 0.  0.
        -11    1    3    3    0    0  0.28095533563E+02  0.46529483585E+02 -0.21573010632E+02  0.58478599819E+02  0.51100000000E-03 0. -1.
         23    2    1    0    0    0  0.24842756456E+02  0.10877515624E+02 -0.88315795154E+01  0.96478434629E+02  0.92166201274E+02 0.  0.
         11    1    3    3    0    0 -0.32527771066E+01 -0.35651967961E+02  0.12741431117E+02  0.37999834809E+02  0.51100000000E-03 0.  1.
         22    1    1    0    0    0 -0.24842756456E+02 -0.10877515624E+02  0.88315795154E+01  0.28521565371E+02  0.00000000000E+00 0. -1.
</event>
<event>
 5    1  0.1692171E-003  0.9118800E+02  0.7818608E-02  0.1130116E+00
         25   -1    0    0    0    0  0.00000000000E+00  0.00000000000E+00  0.99999998245E-14  0.12500000000E+03  0.12500000000E+03 0.  0.
        -11    1    3    3    0    0 -0.56677893598E+02  0.57701184216E+01  0.13934652292E+02  0.58650255106E+02  0.51100000000E-03 0.  1.
         23    2    1    0    0    0 -0.20304060827E+02  0.15695473637E+02  0.12680679810E+02  0.96374793988E+02  0.92025531767E+02 0.  0.
         11    1    3    3    0    0  0.36373832771E+02  0.99253552154E+01 -0.12539724811E+01  0.37724538882E+02  0.51100000000E-03 0. -1.
         22    1    1    0    0    0  0.20304060827E+02 -0.15695473637E+02 -0.12680679810E+02  0.28625206012E+02  0.00000000000E+00 0.  1.
</event>
<event>
 5    1  0.1692171E-003  0.9118800E+02  0.7818608E-02  0.1130116E+00
         25   -1    0    0    0    0  0.00000000000E+00  0.00000000000E+00  0.99999998245E-14  0.12500000000E+03  0.12500000000E+03 0.  0.
        -11    1    3    3    0    0 -0.22270870780E+02 -0.29619545703E+02 -0.12288116197E+02  0.39042374068E+02  0.51100000000E-03 0. -1.
         23    2    1    0    0    0  0.17581814361E+02 -0.44534721432E+00  0.20243574243E+02  0.98183571668E+02  0.94450478648E+02 0.  0.
         11    1    3    3    0    0  0.39852685140E+02  0.29174198488E+02  0.32531690441E+02  0.59141197600E+02  0.51100000000E-03 0.  1.
         22    1    1    0    0    0 -0.17581814361E+02  0.44534721432E+00 -0.20243574243E+02  0.26816428332E+02  0.00000000000E+00 0.  1.
</event>
<event>
 5    1  0.1692171E-003  0.9118800E+02  0.7818608E-02  0.1130116E+00
         25   -1    0    0    0    0  0.00000000000E+00  0.00000000000E+00  0.99999998245E-14  0.12500000000E+03  0.12500000000E+03 0.  0.
        -11    1    3    3    0    0 -0.22842061823E+02  0.22004637193E+02 -0.19049662638E+02  0.36998020126E+02  0.51100000000E-03 0. -1.
         23    2    1    0    0    0 -0.14485573034E+02 -0.27316272312E+02  0.68528321081E+01  0.93330268914E+02  0.87792751572E+02 0.  0.
         11    1    3    3    0    0  0.83564887892E+01 -0.49320909505E+02  0.25902494747E+02  0.56332248789E+02  0.51100000000E-03 0.  1.
         22    1    1    0    0    0  0.14485573034E+02  0.27316272312E+02 -0.68528321081E+01  0.31669731086E+02  0.00000000000E+00 0.  1.
</event>
<event>
 5    1  0.1692171E-003  0.9118800E+02  0.7818608E-02  0.1130116E+00
         25   -1    0    0    0    0  0.00000000000E+00  0.00000000000E+00  0.99999998245E-14  0.12500000000E+03  0.12500000000E+03 0.  0.
        -11    1    3    3    0    0  0.10304091668E+02  0.57267087063E+02 -0.17997360560E+02  0.60906473820E+02  0.51100000000E-03 0.  1.
         23    2    1    0    0    0  0.92168799708E+01  0.22993937363E+02 -0.16511774251E+02  0.95229028891E+02  0.90455830231E+02 0.  0.
         11    1    3    3    0    0 -0.10872116974E+01 -0.34273149701E+02  0.14855863086E+01  0.34322555071E+02  0.51100000000E-03 0. -1.
         22    1    1    0    0    0 -0.92168799708E+01 -0.22993937363E+02  0.16511774251E+02  0.29770971109E+02  0.00000000000E+00 0.  1.
</event>
<event>
 5    1  0.1692171E-003  0.9118800E+02  0.7818608E-02  0.1130116E+00
         25   -1    0    0    0    0  0.00000000000E+00  0.00000000000E+00  0.99999998245E-14  0.12500000000E+03  0.12500000000E+03 0.  0.
        -11    1    3    3    0    0 -0.13240365484E+02 -0.43714410048E+02 -0.34276990050E+02  0.57106645595E+02  0.51100000000E-03 0.  1.
         23    2    1    0    0    0 -0.13641401538E+02 -0.25352809110E+02  0.24398400798E+00  0.96209163022E+02  0.91800276446E+02 0.  0.
         11    1    3    3    0    0 -0.40103605412E+00  0.18361600938E+02  0.34520974058E+02  0.39102517427E+02  0.51100000000E-03 0. -1.
         22    1    1    0    0    0  0.13641401538E+02  0.25352809110E+02 -0.24398400798E+00  0.28790836978E+02  0.00000000000E+00 0.  1.
</event>
<event>
 5    1  0.1692171E-003  0.9118800E+02  0.7818608E-02  0.1130116E+00
         25   -1    0    0    0    0  0.00000000000E+00  0.00000000000E+00  0.99999998245E-14  0.12500000000E+03  0.12500000000E+03 0.  0.
        -11    1    3    3    0    0  0.42979177923E+01  0.33814407663E+02  0.45746335269E+01  0.34392056279E+02  0.51100000000E-03 0. -1.
         23    2    1    0    0    0 -0.21092010663E+02 -0.20279645932E+02 -0.61440567949E+01  0.95102067181E+02  0.90280212645E+02 0.  0.
         11    1    3    3    0    0 -0.25389928456E+02 -0.54094053594E+02 -0.10718690322E+02  0.60710010902E+02  0.51100000000E-03 0.  1.
         22    1    1    0    0    0  0.21092010663E+02  0.20279645932E+02  0.61440567949E+01  0.29897932819E+02  0.00000000000E+00 0.  1.
</event>
<event>
 5    1  0.1692171E-003  0.9118800E+02  0.7818608E-02  0.1130116E+00
         25   -1    0    0    0    0  0.00000000000E+00  0.00000000000E+00  0.99999998245E-14  0.12500000000E+03  0.12500000000E+03 0.  0.
        -11    1    3    3    0    0  0.23508710363E+02 -0.76328004485E+01  0.29628166332E+02  0.38584288850E+02  0.51100000000E-03 0.  1.
         23    2    1    0    0    0  0.21700959058E+02 -0.16381445363E+02 -0.21406394822E+02  0.90394839756E+02  0.83508741692E+02 0.  0.
         11    1    3    3    0    0 -0.18077513049E+01 -0.87486449144E+01 -0.51034561155E+02  0.51810550906E+02  0.51100000000E-03 0. -1.
         22    1    1    0    0    0 -0.21700959058E+02  0.16381445363E+02  0.21406394822E+02  0.34605160244E+02  0.00000000000E+00 0. -1.
</event>
<event>
 5    1  0.1692171E-003  0.9118800E+02  0.7818608E-02  0.1130116E+00
         25   -1    0    0    0    0  0.00000000000E+00  0.00000000000E+00  0.99999998245E-14  0.12500000000E+03  0.12500000000E+03 0.  0.
        -11    1    3    3    0    0  0.13432209340E+02  0.32265820540E+02 -0.15343329926E+02  0.38169689497E+02  0.51100000000E-03 0.  1.
         23    2    1    0    0    0 -0.11853406915E+02 -0.21858392480E+02  0.10331169556E+01  0.10011305748E+03  0.96970430391E+02 0.  0.
         11    1    3    3    0    0 -0.25285616255E+02 -0.54124213020E+02  0.16376446882E+02  0.61943367983E+02  0.51100000000E-03 0. -1.
         22    1    1    0    0    0  0.11853406915E+02  0.21858392480E+02 -0.10331169556E+01  0.24886942519E+02  0.00000000000E+00 0. -1.
</event>
<event>
 5    1  0.1692171E-003  0.9118800E+02  0.7818608E-02  0.1130116E+00
         25   -1    0    0    0    0  0.00000000000E+00  0.00000000000E+00  0.99999998245E-14  0.12500000000E+03  0.12500000000E+03 0.  0.
        -11    1    3    3    0    0 -0.47042260663E+02 -0.25646556905E+02  0.14902213699E+02  0.55612913453E+02  0.51100000000E-03 0.  1.
         23    2    1    0    0    0 -0.22910667271E+02 -0.16135516537E+02 -0.13344687238E+02  0.93962373702E+02  0.88688180868E+02 0.  0.
         11    1    3    3    0    0  0.24131593392E+02  0.95110403685E+01 -0.28246900938E+02  0.38349460249E+02  0.51100000000E-03 0. -1.
         22    1    1    0    0    0  0.22910667271E+02  0.16135516537E+02  0.13344687238E+02  0.31037626298E+02  0.00000000000E+00 0.  1.
</event>
<event>
 5    1  0.1692171E-003  0.9118800E+02  0.7818608E-02  0.1130116E+00
         25   -1    0    0    0    0  0.00000000000E+00  0.00000000000E+00  0.99999998245E-14  0.12500000000E+03  0.12500000000E+03 0.  0.
        -11    1    3    3    0    0  0.95830238332E+01 -0.33512684352E+02 -0.50042117503E+02  0.60984816821E+02  0.51100000000E-03 0.  1.
         23    2    1    0    0    0  0.33949432036E+01 -0.26160789295E+02 -0.21926858380E+02  0.90696943951E+02  0.83959728368E+02 0.  0.
         11    1    3    3    0    0 -0.61880806297E+01  0.73518950565E+01  0.28115259122E+02  0.29712127130E+02  0.51100000000E-03 0. -1.
         22    1    1    0    0    0 -0.33949432036E+01  0.26160789295E+02  0.21926858380E+02  0.34303056049E+02  0.00000000000E+00 0.  1.
</event>
<event>
 5    1  0.1692171E-003  0.9118800E+02  0.7818608E-02  0.1130116E+00
         25   -1    0    0    0    0  0.00000000000E+00  0.00000000000E+00  0.99999998245E-14  0.12500000000E+03  0.12500000000E+03 0.  0.
        -11    1    3    3    0    0  0.53520867268E+01 -0.57207592613E+01 -0.42633486506E+02  0.43347273165E+02  0.51100000000E-03 0.  1.
         23    2    1    0    0    0  0.22110509572E+02 -0.20653113061E+02  0.33920952741E+01  0.94554441654E+02  0.89518771292E+02 0.  0.
         11    1    3    3    0    0  0.16758422845E+02 -0.14932353800E+02  0.46025581780E+02  0.51207168490E+02  0.51100000000E-03 0. -1.
         22    1    1    0    0    0 -0.22110509572E+02  0.20653113061E+02 -0.33920952741E+01  0.30445558346E+02  0.00000000000E+00 0. -1.
</event>
<event>
 5    1  0.1692171E-003  0.9118800E+02  0.7818608E-02  0.1130116E+00
         25   -1    0    0    0    0  0.00000000000E+00  0.00000000000E+00  0.99999998245E-14  0.12500000000E+03  0.12500000000E+03 0.  0.
        -11    1    3    3    0    0 -0.48826807670E+01  0.78615145563E+01  0.54543639687E+02  0.55323165249E+02  0.51100000000E-03 0.  1.
         23    2    1    0    0    0  0.16149027571E+02 -0.42956990677E+01  0.11612781367E+02  0.10465053286E+03  0.10265297470E+03 0.  0.
         11    1    3    3    0    0  0.21031708338E+02 -0.12157213624E+02 -0.42930858319E+02  0.49327367607E+02  0.51100000000E-03 0. -1.
         22    1    1    0    0    0 -0.16149027571E+02  0.42956990677E+01 -0.11612781367E+02  0.20349467145E+02  0.00000000000E+00 0.  1.
</event>
<event>
 5    1  0.1692171E-003  0.9118800E+02  0.7818608E-02  0.1130116E+00
         25   -1    0    0    0    0  0.00000000000E+00  0.00000000000E+00  0.99999998245E-14  0.12500000000E+03  0.12500000000E+03 0.  0.
        -11    1    3    3    0    0  0.33712751091E+02 -0.18467901508E+02 -0.56928824265E+01  0.38859000024E+02  0.51100000000E-03 0. -1.
         23    2    1    0    0    0 -0.14430544891E+02 -0.70387523598E+01  0.23671280738E+02  0.96397304456E+02  0.92056103078E+02 0.  0.
         11    1    3    3    0    0 -0.48143295982E+02  0.11429149149E+02  0.29364163164E+02  0.57538304432E+02  0.51100000000E-03 0.  1.
         22    1    1    0    0    0  0.14430544891E+02  0.70387523598E+01 -0.23671280738E+02  0.28602695544E+02  0.00000000000E+00 0.  1.
</event>
<event>
 5    1  0.1692171E-003  0.9118800E+02  0.7818608E-02  0.1130116E+00
         25   -1    0    0    0    0  0.00000000000E+00  0.00000000000E+00  0.99999998245E-14  0.12500000000E+03  0.12500000000E+03 0.  0.
        -11    1    3    3    0    0 -0.44619893410E+02  0.20537981025E+01  0.13988842660E+01  0.44689035031E+02  0.51100000000E-03 0.  1.
         23    2    1    0    0    0 -0.78758209569E+01 -0.26948190469E+02 -0.13545895644E+02  0.93827499072E+02  0.88497880020E+02 0.  0.
         11    1    3    3    0    0  0.36744072453E+02 -0.29001988571E+02 -0.14944779910E+02  0.49138464041E+02  0.51100000000E-03 0. -1.
         22    1    1    0    0    0  0.78758209569E+01  0.26948190469E+02  0.13545895644E+02  0.31172500928E+02  0.00000000000E+00 0. -1.
</event>
<event>
 5    1  0.1692171E-003  0.9118800E+02  0.7818608E-02  0.1130116E+00
         25   -1    0    0    0    0  0.00000000000E+00  0.00000000000E+00  0.99999998245E-14  0.12500000000E+03  0.12500000000E+03 0.  0.
        -11    1    3    3    0    0 -0.23713313112E+02  0.19156854678E+02 -0.37881608054E+02  0.48624299778E+02  0.51100000000E-03 0. -1.
         23    2    1    0    0    0  0.16599965671E+02  0.14762105258E+02 -0.25834436054E+02  0.90928065829E+02  0.84303122464E+02 0.  0.
         11    1    3    3    0    0  0.40313278782E+02 -0.43947494197E+01  0.12047171999E+02  0.42303766051E+02  0.51100000000E-03 0.  1.
         22    1    1    0    0    0 -0.16599965671E+02 -0.14762105258E+02  0.25834436054E+02  0.34071934171E+02  0.00000000000E+00 0.  1.
</event>
<event>
 5    1  0.1692171E-003  0.9118800E+02  0.7818608E-02  0.1130116E+00
         25   -1    0    0    0    0  0.00000000000E+00  0.00000000000E+00  0.99999998245E-14  0.12500000000E+03  0.12500000000E+03 0.  0.
        -11    1    3    3    0    0  0.56050293603E+02  0.15581583282E+02  0.96423022050E+01  0.58969442448E+02  0.51100000000E-03 0. -1.
         23    2    1    0    0    0  0.27565632955E+02  0.22416632049E+01 -0.94611122978E+01  0.95769847416E+02  0.91200119814E+02 0.  0.
         11    1    3    3    0    0 -0.28484660648E+02 -0.13339920077E+02 -0.19103414503E+02  0.36800404968E+02  0.51100000000E-03 0.  1.
         22    1    1    0    0    0 -0.27565632955E+02 -0.22416632049E+01  0.94611122978E+01  0.29230152584E+02  0.00000000000E+00 0. -1.
</event>
<event>
 5    1  0.1692171E-003  0.9118800E+02  0.7818608E-02  0.1130116E+00
         25   -1    0    0    0    0  0.00000000000E+00  0.00000000000E+00  0.99999998245E-14  0.12500000000E+03  0.12500000000E+03 0.  0.
        -11    1    3    3    0    0  0.23405546688E+02  0.28632351525E+02  0.11631859736E+02  0.38767658309E+02  0.51100000000E-03 0. -1.
         23    2    1    0    0    0  0.16552546794E+02 -0.19139738617E+02 -0.16653765505E+02  0.94707025481E+02  0.89731579560E+02 0.  0.
         11    1    3    3    0    0 -0.68529998940E+01 -0.47772090142E+02 -0.28285625241E+02  0.55939367172E+02  0.51100000000E-03 0.  1.
         22    1    1    0    0    0 -0.16552546794E+02  0.19139738617E+02  0.16653765505E+02  0.30292974519E+02  0.00000000000E+00 0.  1.
</event>
<event>
 5    1  0.1692171E-003  0.9118800E+02  0.7818608E-02  0.1130116E+00
         25   -1    0    0    0    0  0.00000000000E+00  0.00000000000E+00  0.99999998245E-14  0.12500000000E+03  0.12500000000E+03 0.  0.
        -11    1    3    3    0    0  0.61618540909E+01  0.36850924159E+02  0.66557137887E+01  0.37950725731E+02  0.51100000000E-03 0.  1.
         23    2    1    0    0    0  0.36958092546E+02  0.40951930111E+01  0.17045478855E+02  0.84094993462E+02  0.73476175496E+02 0.  0.
         11    1    3    3    0    0  0.30796238455E+02 -0.32755731148E+02  0.10389765066E+02  0.46144267731E+02  0.51100000000E-03 0. -1.
         22    1    1    0    0    0 -0.36958092546E+02 -0.40951930111E+01 -0.17045478855E+02  0.40905006538E+02  0.00000000000E+00 0.  1.
</event>
<event>
 5    1  0.1692171E-003  0.9118800E+02  0.7818608E-02  0.1130116E+00
         25   -1    0    0    0    0  0.00000000000E+00  0.00000000000E+00  0.99999998245E-14  0.12500000000E+03  0.12500000000E+03 0.  0.
        -11    1    3    3    0    0  0.11548878564E+02 -0.59578607219E+02 -0.92000662313E+01  0.61381008897E+02  0.51100000000E-03 0. -1.
         23    2    1    0    0    0  0.31164051024E+01 -0.29357743735E+02  0.35835432240E+01  0.95260617357E+02  0.90499471486E+02 0.  0.
         11    1    3    3    0    0 -0.84324734619E+01  0.30220863485E+02  0.12783609455E+02  0.33879608460E+02  0.51100000000E-03 0.  1.
         22    1    1    0    0    0 -0.31164051024E+01  0.29357743735E+02 -0.35835432240E+01  0.29739382643E+02  0.00000000000E+00 0. -1.
</event>
<event>
 5    1  0.1692171E-003  0.9118800E+02  0.7818608E-02  0.1130116E+00
         25   -1    0    0    0    0  0.00000000000E+00  0.00000000000E+00  0.99999998245E-14  0.12500000000E+03  0.12500000000E+03 0.  0.
        -11    1    3    3    0    0  0.33622806502E+02  0.16366201484E+02  0.54473545743E+01  0.37789143152E+02  0.51100000000E-03 0. -1.
         23    2    1    0    0    0 -0.22161007334E+02  0.12364813439E+02  0.16408335171E+02  0.94780266042E+02  0.89833548914E+02 0.  0.
         11    1    3    3    0    0 -0.55783813835E+02 -0.40013880451E+01  0.10960980596E+02  0.56991122890E+02  0.51100000000E-03 0.  1.
         22    1    1    0    0    0  0.22161007334E+02 -0.12364813439E+02 -0.16408335171E+02  0.30219733958E+02  0.00000000000E+00 0.  1.
</event>
<event>
 5    1  0.1692171E-003  0.9118800E+02  0.7818608E-02  0.1130116E+00
         25   -1    0    0    0    0  0.00000000000E+00  0.00000000000E+00  0.99999998245E-14  0.12500000000E+03  0.12500000000E+03 0.  0.
        -11    1    3    3    0    0 -0.16128987380E+02  0.48644002684E+02  0.29902469996E+02  0.59334146519E+02  0.51100000000E-03 0. -1.
         23    2    1    0    0    0  0.52000852869E+01  0.25677581229E+02  0.78755440590E+01  0.97643040026E+02  0.93732385047E+02 0.  0.
         11    1    3    3    0    0  0.21329072666E+02 -0.22966421455E+02 -0.22026925937E+02  0.38308893507E+02  0.51100000000E-03 0.  1.
         22    1    1    0    0    0 -0.52000852869E+01 -0.25677581229E+02 -0.78755440590E+01  0.27356959974E+02  0.00000000000E+00 0. -1.
</event>
<event>
 5    1  0.1692171E-003  0.9118800E+02  0.7818608E-02  0.1130116E+00
         25   -1    0    0    0    0  0.00000000000E+00  0.00000000000E+00  0.99999998245E-14  0.12500000000E+03  0.12500000000E+03 0.  0.
        -11    1    3    3    0    0  0.51333119473E+02 -0.28119784038E-01 -0.33058877332E+02  0.61057180711E+02  0.51100000000E-03 0.  1.
         23    2    1    0    0    0  0.26855320383E+02  0.68976857587E+01 -0.96092258214E+01  0.95655093754E+02  0.91042701182E+02 0.  0.
         11    1    3    3    0    0 -0.24477799091E+02  0.69258055427E+01  0.23449651511E+02  0.34597913044E+02  0.51100000000E-03 0. -1.
         22    1    1    0    0    0 -0.26855320383E+02 -0.68976857587E+01  0.96092258214E+01  0.29344906246E+02  0.00000000000E+00 0.  1.
</event>
<event>
 5    1  0.1692171E-003  0.9118800E+02  0.7818608E-02  0.1130116E+00
         25   -1    0    0    0    0  0.00000000000E+00  0.00000000000E+00  0.99999998245E-14  0.12500000000E+03  0.12500000000E+03 0.  0.
        -11    1    3    3    0    0  0.48369787647E+02 -0.34893637901E+02  0.74695213049E+01  0.60108203033E+02  0.51100000000E-03 0.  1.
         23    2    1    0    0    0  0.30960650077E+02 -0.72795595296E+01  0.30663225930E+01  0.93047595171E+02  0.87389351712E+02 0.  0.
         11    1    3    3    0    0 -0.17409137570E+02  0.27614078372E+02 -0.44031987119E+01  0.32939392138E+02  0.51100000000E-03 0. -1.
         22    1    1    0    0    0 -0.30960650077E+02  0.72795595296E+01 -0.30663225930E+01  0.31952404829E+02  0.00000000000E+00 0.  1.
</event>
<event>
 5    1  0.1692171E-003  0.9118800E+02  0.7818608E-02  0.1130116E+00
         25   -1    0    0    0    0  0.00000000000E+00  0.00000000000E+00  0.99999998245E-14  0.12500000000E+03  0.12500000000E+03 0.  0.
        -11    1    3    3    0    0 -0.32319515000E+02 -0.78020353981E+01  0.12591271501E+02  0.35552256250E+02  0.51100000000E-03 0.  1.
         23    2    1    0    0    0  0.25292073199E+02  0.18694906226E+01 -0.93724395331E+01  0.97962496700E+02  0.94157443545E+02 0.  0.
         11    1    3    3    0    0  0.57611588199E+02  0.96715260207E+01 -0.21963711035E+02  0.62410240450E+02  0.51100000000E-03 0. -1.
         22    1    1    0    0    0 -0.25292073199E+02 -0.18694906226E+01  0.93724395331E+01  0.27037503300E+02  0.00000000000E+00 0. -1.
</event>
<event>
 5    1  0.1692171E-003  0.9118800E+02  0.7818608E-02  0.1130116E+00
         25   -1    0    0    0    0  0.00000000000E+00  0.00000000000E+00  0.99999998245E-14  0.12500000000E+03  0.12500000000E+03 0.  0.
        -11    1    3    3    0    0 -0.13763922429E+01 -0.45134609414E+02  0.22860525708E+02  0.50612558308E+02  0.51100000000E-03 0. -1.
         23    2    1    0    0    0  0.21760995051E+02 -0.18428209148E+02 -0.55458592541E+01  0.95950105803E+02  0.91446850414E+02 0.  0.
         11    1    3    3    0    0  0.23137387294E+02  0.26706400266E+02 -0.28406384963E+02  0.45337547495E+02  0.51100000000E-03 0.  1.
         22    1    1    0    0    0 -0.21760995051E+02  0.18428209148E+02  0.55458592541E+01  0.29049894197E+02  0.00000000000E+00 0. -1.
</event>
<event>
 5    1  0.1692171E-003  0.9118800E+02  0.7818608E-02  0.1130116E+00
         25   -1    0    0    0    0  0.00000000000E+00  0.00000000000E+00  0.99999998245E-14  0.12500000000E+03  0.12500000000E+03 0.  0.
        -11    1    3    3    0    0 -0.11874303916E+02 -0.33356260815E+01  0.59524514125E+02  0.60788923966E+02  0.51100000000E-03 0. -1.
         23    2    1    0    0    0 -0.69799708441E+01  0.86457918149E+01  0.29011464745E+02  0.93933381327E+02  0.88647308655E+02 0.  0.
         11    1    3    3    0    0  0.48943330722E+01  0.11981417896E+02 -0.30513049380E+02  0.33144457361E+02  0.51100000000E-03 0.  1.
         22    1    1    0    0    0  0.69799708441E+01 -0.86457918149E+01 -0.29011464745E+02  0.31066618673E+02  0.00000000000E+00 0. -1.
</event>
<event>
 5    1  0.1692171E-003  0.9118800E+02  0.7818608E-02  0.1130116E+00
         25   -1    0    0    0    0  0.00000000000E+00  0.00000000000E+00  0.99999998245E-14  0.12500000000E+03  0.12500000000E+03 0.  0.
        -11    1    3    3    0    0 -0.92388871133E+01  0.53540800096E+02  0.28576288268E+02  0.61388749470E+02  0.51100000000E-03 0. -1.
         23    2    1    0    0    0 -0.34371234638E+00  0.26313307989E+02  0.56329056603E+01  0.98088330752E+02  0.94324348331E+02 0.  0.
         11    1    3    3    0    0  0.88951747669E+01 -0.27227492107E+02 -0.22943382608E+02  0.36699581282E+02  0.51100000000E-03 0.  1.
         22    1    1    0    0    0  0.34371234638E+00 -0.26313307989E+02 -0.56329056603E+01  0.26911669248E+02  0.00000000000E+00 0. -1.
</event>
<event>
 5    1  0.1692171E-003  0.9118800E+02  0.7818608E-02  0.1130116E+00
         25   -1    0    0    0    0  0.00000000000E+00  0.00000000000E+00  0.99999998245E-14  0.12500000000E+03  0.12500000000E+03 0.  0.
        -11    1    3    3    0    0 -0.32076559246E+02  0.18507029407E+02  0.12607565887E+02  0.39119899136E+02  0.51100000000E-03 0.  1.
         23    2    1    0    0    0  0.94762508403E+01  0.37750505545E+02  0.89799160804E+01  0.85055802778E+02  0.75092947035E+02 0.  0.
         11    1    3    3    0    0  0.41552810087E+02  0.19243476138E+02 -0.36276498063E+01  0.45935903642E+02  0.51100000000E-03 0. -1.
         22    1    1    0    0    0 -0.94762508403E+01 -0.37750505545E+02 -0.89799160804E+01  0.39944197222E+02  0.00000000000E+00 0. -1.
</event>
<event>
 5    1  0.1692171E-003  0.9118800E+02  0.7818608E-02  0.1130116E+00
         25   -1    0    0    0    0  0.00000000000E+00  0.00000000000E+00  0.99999998245E-14  0.12500000000E+03  0.12500000000E+03 0.  0.
        -11    1    3    3    0    0  0.60219551729E+01 -0.42736123400E+02  0.24793764217E+02  0.49773194911E+02  0.51100000000E-03 0.  1.
         23    2    1    0    0    0 -0.21934840938E+02 -0.18896245669E+02 -0.30710831846E+01  0.95885795575E+02  0.91358901558E+02 0.  0.
         11    1    3    3    0    0 -0.27956796111E+02  0.23839877731E+02 -0.27864847402E+02  0.46112600664E+02  0.51100000000E-03 0. -1.
         22    1    1    0    0    0  0.21934840938E+02  0.18896245669E+02  0.30710831846E+01  0.29114204425E+02  0.00000000000E+00 0.  1.
</event>
<event>
 5    1  0.1692171E-003  0.9118800E+02  0.7818608E-02  0.1130116E+00
         25   -1    0    0    0    0  0.00000000000E+00  0.00000000000E+00  0.99999998245E-14  0.12500000000E+03  0.12500000000E+03 0.  0.
        -11    1    3    3    0    0  0.21056333950E+02  0.42765687185E+02  0.22072328152E+01  0.47719441288E+02  0.51100000000E-03 0.  1.
         23    2    1    0    0    0  0.20025512220E+02 -0.20569693101E+00  0.22179814562E+02  0.95116766826E+02  0.90300563158E+02 0.  0.
         11    1    3    3    0    0 -0.10308217301E+01 -0.42971384116E+02  0.19972581747E+02  0.47397325539E+02  0.51100000000E-03 0. -1.
         22    1    1    0    0    0 -0.20025512220E+02  0.20569693101E+00 -0.22179814562E+02  0.29883233174E+02  0.00000000000E+00 0. -1.
</event>
<event>
 5    1  0.1692171E-003  0.9118800E+02  0.7818608E-02  0.1130116E+00
         25   -1    0    0    0    0  0.00000000000E+00  0.00000000000E+00  0.99999998245E-14  0.12500000000E+03  0.12500000000E+03 0.  0.
        -11    1    3    3    0    0 -0.24313145816E+02 -0.47603654928E+02  0.29862000443E+02  0.61228882831E+02  0.51100000000E-03 0.  1.
         23    2    1    0    0    0 -0.25128319078E+02 -0.32072061707E+02  0.22808628697E+02  0.78306498259E+02  0.62861948464E+02 0.  0.
         11    1    3    3    0    0 -0.81517326249E+00  0.15531593222E+02 -0.70533717464E+01  0.17077615428E+02  0.51100000000E-03 0. -1.
         22    1    1    0    0    0  0.25128319078E+02  0.32072061707E+02 -0.22808628697E+02  0.46693501741E+02  0.00000000000E+00 0.  1.
</event>
<event>
 5    1  0.1692171E-003  0.9118800E+02  0.7818608E-02  0.1130116E+00
         25   -1    0    0    0    0  0.00000000000E+00  0.00000000000E+00  0.99999998245E-14  0.12500000000E+03  0.12500000000E+03 0.  0.
        -11    1    3    3    0    0 -0.11117219917E+02 -0.16412798811E+02 -0.41551787647E+02  0.46038284073E+02  0.51100000000E-03 0.  1.
         23    2    1    0    0    0 -0.94521911159E+01 -0.28328606321E+02  0.55259300178E+01  0.94629129819E+02  0.89623001818E+02 0.  0.
         11    1    3    3    0    0  0.16650288011E+01 -0.11915807510E+02  0.47077717665E+02  0.48590845746E+02  0.51100000000E-03 0. -1.
         22    1    1    0    0    0  0.94521911159E+01  0.28328606321E+02 -0.55259300178E+01  0.30370870181E+02  0.00000000000E+00 0.  1.
</event>
<event>
 5    1  0.1692171E-003  0.9118800E+02  0.7818608E-02  0.1130116E+00
         25   -1    0    0    0    0  0.00000000000E+00  0.00000000000E+00  0.99999998245E-14  0.12500000000E+03  0.12500000000E+03 0.  0.
        -11    1    3    3    0    0  0.10819387950E+01  0.12398876743E+01 -0.27311515704E+02  0.27361045362E+02  0.51100000000E-03 0.  1.
         23    2    1    0    0    0 -0.23900349879E+02  0.49293998355E+01  0.27815472611E+02  0.87996943050E+02  0.79838811129E+02 0.  0.
         11    1    3    3    0    0 -0.24982288674E+02  0.36895121611E+01  0.55126988316E+02  0.60635897687E+02  0.51100000000E-03 0. -1.
         22    1    1    0    0    0  0.23900349879E+02 -0.49293998355E+01 -0.27815472611E+02  0.37003056950E+02  0.00000000000E+00 0. -1.
</event>
<event>
 5    1  0.1692171E-003  0.9118800E+02  0.7818608E-02  0.1130116E+00
         25   -1    0    0    0    0  0.00000000000E+00  0.00000000000E+00  0.99999998245E-14  0.12500000000E+03  0.12500000000E+03 0.  0.
        -11    1    3    3    0    0 -0.37007352799E+02 -0.42925756149E+02  0.10694205573E+00  0.56676063193E+02  0.51100000000E-03 0. -1.
         23    2    1    0    0    0 -0.16958759112E+02 -0.16211549352E+02 -0.18691747669E+02  0.95003412295E+02  0.90143513765E+02 0.  0.
         11    1    3    3    0    0  0.20048593688E+02  0.26714206797E+02 -0.18798689725E+02  0.38327349103E+02  0.51100000000E-03 0.  1.
         22    1    1    0    0    0  0.16958759112E+02  0.16211549352E+02  0.18691747669E+02  0.29996587705E+02  0.00000000000E+00 0.  1.
</event>
<event>
 4    1  0.1692171E-003  0.9118800E+02  0.7818608E-02  0.1130116E+00
         25   -1    0    0    0    0  0.00000000000E+00  0.00000000000E+00  0.99999998245E-14  0.12500000000E+03  0.12500000000E+03 0.  0.
        -11    1    1    0    0    0  0.20012013346E+02  0.39649692642E+02 -0.16412657088E+02  0.47349277901E+02  0.51100000000E-03 0. -1.
         11    1    1    0    0    0 -0.21803054014E+00  0.16182841715E+02  0.10043440780E-01  0.16184313529E+02  0.51100000000E-03 0.  1.
         22    1    1    0    0    0 -0.19793982806E+02 -0.55832534357E+02  0.16402613648E+02  0.61466408570E+02  0.00000000000E+00 0. -1.
</event>
<event>
 5    1  0.1692171E-003  0.9118800E+02  0.7818608E-02  0.1130116E+00
         25   -1    0    0    0    0  0.00000000000E+00  0.00000000000E+00  0.99999998245E-14  0.12500000000E+03  0.12500000000E+03 0.  0.
        -11    1    3    3    0    0 -0.37017250699E+02  0.52355689565E+01 -0.46708611547E+02  0.59827940166E+02  0.51100000000E-03 0. -1.
         23    2    1    0    0    0 -0.25929013426E+02 -0.52996263476E+00 -0.12574700878E+02  0.96177826248E+02  0.91757596753E+02 0.  0.
         11    1    3    3    0    0  0.11088237274E+02 -0.57655315913E+01  0.34133910668E+02  0.36349886082E+02  0.51100000000E-03 0.  1.
         22    1    1    0    0    0  0.25929013426E+02  0.52996263476E+00  0.12574700878E+02  0.28822173752E+02  0.00000000000E+00 0. -1.
</event>
<event>
 5    1  0.1692171E-003  0.9118800E+02  0.7818608E-02  0.1130116E+00
         25   -1    0    0    0    0  0.00000000000E+00  0.00000000000E+00  0.99999998245E-14  0.12500000000E+03  0.12500000000E+03 0.  0.
        -11    1    3    3    0    0  0.15945603180E+02  0.75603095217E+01  0.39022180954E+02  0.42826990876E+02  0.51100000000E-03 0.  1.
         23    2    1    0    0    0  0.17722079673E+02  0.26024424526E+02 -0.72602055874E+01  0.92688185365E+02  0.86873737926E+02 0.  0.
         11    1    3    3    0    0  0.17764764931E+01  0.18464115004E+02 -0.46282386542E+02  0.49861194489E+02  0.51100000000E-03 0. -1.
         22    1    1    0    0    0 -0.17722079673E+02 -0.26024424526E+02  0.72602055874E+01  0.32311814635E+02  0.00000000000E+00 0. -1.
</event>
<event>
 5    1  0.1692171E-003  0.9118800E+02  0.7818608E-02  0.1130116E+00
         25   -1    0    0    0    0  0.00000000000E+00  0.00000000000E+00  0.99999998245E-14  0.12500000000E+03  0.12500000000E+03 0.  0.
        -11    1    3    3    0    0 -0.79718740508E+01  0.42952644848E+01  0.20194075757E+02  0.22131442990E+02  0.51100000000E-03 0.  1.
         23    2    1    0    0    0 -0.89848960928E+01 -0.40150647051E+02 -0.17375860308E+02  0.80337674290E+02  0.66778878191E+02 0.  0.
         11    1    3    3    0    0 -0.10130220420E+01 -0.44445911536E+02 -0.37569936065E+02  0.58206231300E+02  0.51100000000E-03 0. -1.
         22    1    1    0    0    0  0.89848960928E+01  0.40150647051E+02  0.17375860308E+02  0.44662325710E+02  0.00000000000E+00 0. -1.
</event>
<event>
 5    1  0.1692171E-003  0.9118800E+02  0.7818608E-02  0.1130116E+00
         25   -1    0    0    0    0  0.00000000000E+00  0.00000000000E+00  0.99999998245E-14  0.12500000000E+03  0.12500000000E+03 0.  0.
        -11    1    3    3    0    0  0.40181800722E+01 -0.42740443575E+02 -0.62127185069E+01  0.43376135830E+02  0.51100000000E-03 0.  1.
         23    2    1    0    0    0 -0.28270170864E+02 -0.39345929413E+01  0.71071207465E+01  0.95585807038E+02  0.90947522008E+02 0.  0.
         11    1    3    3    0    0 -0.32288350936E+02  0.38805850634E+02  0.13319839253E+02  0.52209671207E+02  0.51100000000E-03 0. -1.
         22    1    1    0    0    0  0.28270170864E+02  0.39345929413E+01 -0.71071207465E+01  0.29414192962E+02  0.00000000000E+00 0. -1.
</event>
<event>
 5    1  0.1692171E-003  0.9118800E+02  0.7818608E-02  0.1130116E+00
         25   -1    0    0    0    0  0.00000000000E+00  0.00000000000E+00  0.99999998245E-14  0.12500000000E+03  0.12500000000E+03 0.  0.
        -11    1    3    3    0    0 -0.41497305584E+02 -0.28025911305E+02 -0.19707239013E+02  0.53813133573E+02  0.51100000000E-03 0. -1.
         23    2    1    0    0    0 -0.15831374682E+02 -0.17304219862E+02  0.14132574267E+02  0.97617558459E+02  0.93698397077E+02 0.  0.
         11    1    3    3    0    0  0.25665930902E+02  0.10721691443E+02  0.33839813280E+02  0.43804424886E+02  0.51100000000E-03 0.  1.
         22    1    1    0    0    0  0.15831374682E+02  0.17304219862E+02 -0.14132574267E+02  0.27382441541E+02  0.00000000000E+00 0.  1.
</event>
<event>
 5    1  0.1692171E-003  0.9118800E+02  0.7818608E-02  0.1130116E+00
         25   -1    0    0    0    0  0.00000000000E+00  0.00000000000E+00  0.99999998245E-14  0.12500000000E+03  0.12500000000E+03 0.  0.
        -11    1    3    3    0    0  0.17719111793E+02 -0.20722198514E+02  0.32691760754E+02  0.42569092725E+02  0.51100000000E-03 0. -1.
         23    2    1    0    0    0 -0.99784388136E+01 -0.24078179726E+02 -0.12821391037E+02  0.95953209330E+02  0.91451092571E+02 0.  0.
         11    1    3    3    0    0 -0.27697550606E+02 -0.33559812128E+01 -0.45513151791E+02  0.53384116605E+02  0.51100000000E-03 0.  1.
         22    1    1    0    0    0  0.99784388136E+01  0.24078179726E+02  0.12821391037E+02  0.29046790670E+02  0.00000000000E+00 0.  1.
</event>
<event>
 5    1  0.1692171E-003  0.9118800E+02  0.7818608E-02  0.1130116E+00
         25   -1    0    0    0    0  0.00000000000E+00  0.00000000000E+00  0.99999998245E-14  0.12500000000E+03  0.12500000000E+03 0.  0.
        -11    1    3    3    0    0  0.33688578631E+02  0.50588953061E+02 -0.22701740929E+00  0.60780046390E+02  0.51100000000E-03 0.  1.
         23    2    1    0    0    0  0.22507371070E+02  0.19822883158E+02 -0.69850427534E+01  0.94205207072E+02  0.89029780232E+02 0.  0.
         11    1    3    3    0    0 -0.11181207562E+02 -0.30766069903E+02 -0.67580253441E+01  0.33425160682E+02  0.51100000000E-03 0. -1.
         22    1    1    0    0    0 -0.22507371070E+02 -0.19822883158E+02  0.69850427534E+01  0.30794792928E+02  0.00000000000E+00 0.  1.
</event>
<event>
 5    1  0.1692171E-003  0.9118800E+02  0.7818608E-02  0.1130116E+00
         25   -1    0    0    0    0  0.00000000000E+00  0.00000000000E+00  0.99999998245E-14  0.12500000000E+03  0.12500000000E+03 0.  0.
        -11    1    3    3    0    0  0.34717146488E+02 -0.13210703646E+02  0.10475619036E+02  0.38594579225E+02  0.51100000000E-03 0.  1.
         23    2    1    0    0    0 -0.96928090577E+01  0.21805304661E+02  0.17253463310E+02  0.95553372774E+02  0.90902932810E+02 0.  0.
         11    1    3    3    0    0 -0.44409955546E+02  0.35016008307E+02  0.67778442741E+01  0.56958793549E+02  0.51100000000E-03 0. -1.
         22    1    1    0    0    0  0.96928090577E+01 -0.21805304661E+02 -0.17253463310E+02  0.29446627226E+02  0.00000000000E+00 0. -1.
</event>
<event>
 5    1  0.1692171E-003  0.9118800E+02  0.7818608E-02  0.1130116E+00
         25   -1    0    0    0    0  0.00000000000E+00  0.00000000000E+00  0.99999998245E-14  0.12500000000E+03  0.12500000000E+03 0.  0.
        -11    1    3    3    0    0 -0.21446259065E+02  0.28225127345E+02  0.12632892876E+02  0.37632297621E+02  0.51100000000E-03 0. -1.
         23    2    1    0    0    0  0.27520120057E+02 -0.25901549797E+01  0.10190736197E+02  0.95539568655E+02  0.90883948879E+02 0.  0.
         11    1    3    3    0    0  0.48966379122E+02 -0.30815282325E+02 -0.24421566797E+01  0.57907271034E+02  0.51100000000E-03 0.  1.
         22    1    1    0    0    0 -0.27520120057E+02  0.25901549797E+01 -0.10190736197E+02  0.29460431345E+02  0.00000000000E+00 0.  1.
</event>
<event>
 5    1  0.1692171E-003  0.9118800E+02  0.7818608E-02  0.1130116E+00
         25   -1    0    0    0    0  0.00000000000E+00  0.00000000000E+00  0.99999998245E-14  0.12500000000E+03  0.12500000000E+03 0.  0.
        -11    1    3    3    0    0  0.68459897803E+01  0.57285577287E+02 -0.88237750461E+01  0.58364063836E+02  0.51100000000E-03 0.  1.
         23    2    1    0    0    0  0.49075426644E+01  0.20240781179E+02 -0.18976817120E+02  0.96823896903E+02  0.92633548057E+02 0.  0.
         11    1    3    3    0    0 -0.19384471159E+01 -0.37044796108E+02 -0.10153042074E+02  0.38459833067E+02  0.51100000000E-03 0. -1.
         22    1    1    0    0    0 -0.49075426644E+01 -0.20240781179E+02  0.18976817120E+02  0.28176103097E+02  0.00000000000E+00 0.  1.
</event>
<event>
 5    1  0.1692171E-003  0.9118800E+02  0.7818608E-02  0.1130116E+00
         25   -1    0    0    0    0  0.00000000000E+00  0.00000000000E+00  0.99999998245E-14  0.12500000000E+03  0.12500000000E+03 0.  0.
        -11    1    3    3    0    0 -0.22259915572E+02  0.37316779455E+01 -0.41475409649E+02  0.47219051953E+02  0.51100000000E-03 0. -1.
         23    2    1    0    0    0 -0.24123545876E+02  0.18676018868E+02  0.31620072800E+01  0.94328556662E+02  0.89202797968E+02 0.  0.
         11    1    3    3    0    0 -0.18636303043E+01  0.14944340923E+02  0.44637416929E+02  0.47109504708E+02  0.51100000000E-03 0.  1.
         22    1    1    0    0    0  0.24123545876E+02 -0.18676018868E+02 -0.31620072800E+01  0.30671443338E+02  0.00000000000E+00 0.  1.
</event>
<event>
 5    1  0.1692171E-003  0.9118800E+02  0.7818608E-02  0.1130116E+00
         25   -1    0    0    0    0  0.00000000000E+00  0.00000000000E+00  0.99999998245E-14  0.12500000000E+03  0.12500000000E+03 0.  0.
        -11    1    3    3    0    0 -0.29075564693E+02 -0.39617674088E+02 -0.34469187510E+02  0.60025606621E+02  0.51100000000E-03 0.  1.
         23    2    1    0    0    0 -0.27090454714E+01 -0.21109462946E+02 -0.21486347244E+02  0.94757455941E+02  0.89801803909E+02 0.  0.
         11    1    3    3    0    0  0.26366519222E+02  0.18508211141E+02  0.12982840267E+02  0.34731849320E+02  0.51100000000E-03 0. -1.
         22    1    1    0    0    0  0.27090454714E+01  0.21109462946E+02  0.21486347244E+02  0.30242544059E+02  0.00000000000E+00 0.  1.
</event>
<event>
 5    1  0.1692171E-003  0.9118800E+02  0.7818608E-02  0.1130116E+00
         25   -1    0    0    0    0  0.00000000000E+00  0.00000000000E+00  0.99999998245E-14  0.12500000000E+03  0.12500000000E+03 0.  0.
        -11    1    3    3    0    0  0.67740541160E+01  0.39541111853E+02 -0.12306462917E+01  0.40136041487E+02  0.51100000000E-03 0. -1.
         23    2    1    0    0    0 -0.20541749385E+02 -0.89987286435E+01 -0.15628902952E+02  0.97664982303E+02  0.93761642348E+02 0.  0.
         11    1    3    3    0    0 -0.27315803501E+02 -0.48539840496E+02 -0.14398256660E+02  0.57528940816E+02  0.51100000000E-03 0.  1.
         22    1    1    0    0    0  0.20541749385E+02  0.89987286435E+01  0.15628902952E+02  0.27335017697E+02  0.00000000000E+00 0.  1.
</event>
<event>
 5    1  0.1692171E-003  0.9118800E+02  0.7818608E-02  0.1130116E+00
         25   -1    0    0    0    0  0.00000000000E+00  0.00000000000E+00  0.99999998245E-14  0.12500000000E+03  0.12500000000E+03 0.  0.
        -11    1    3    3    0    0 -0.16573614132E+02  0.47634019210E+02  0.23656201460E+02  0.55707273666E+02  0.51100000000E-03 0.  1.
         23    2    1    0    0    0  0.93009844772E+01  0.29759584901E+02  0.22700314224E+01  0.93738294218E+02  0.88371791622E+02 0.  0.
         11    1    3    3    0    0  0.25874598609E+02 -0.17874434309E+02 -0.21386170038E+02  0.38031020552E+02  0.51100000000E-03 0. -1.
         22    1    1    0    0    0 -0.93009844772E+01 -0.29759584901E+02 -0.22700314224E+01  0.31261705782E+02  0.00000000000E+00 0.  1.
</event>
<event>
 5    1  0.1692171E-003  0.9118800E+02  0.7818608E-02  0.1130116E+00
         25   -1    0    0    0    0  0.00000000000E+00  0.00000000000E+00  0.99999998245E-14  0.12500000000E+03  0.12500000000E+03 0.  0.
        -11    1    3    3    0    0  0.17578538853E+02 -0.30631194103E+02  0.64948729964E+01  0.35909030283E+02  0.51100000000E-03 0.  1.
         23    2    1    0    0    0 -0.10462292769E+02  0.17280459549E+02 -0.19244298124E+02  0.97099877016E+02  0.93005210898E+02 0.  0.
         11    1    3    3    0    0 -0.28040831623E+02  0.47911653652E+02 -0.25739171120E+02  0.61190846733E+02  0.51100000000E-03 0. -1.
         22    1    1    0    0    0  0.10462292769E+02 -0.17280459549E+02  0.19244298124E+02  0.27900122984E+02  0.00000000000E+00 0. -1.
</event>
<event>
 5    1  0.1692171E-003  0.9118800E+02  0.7818608E-02  0.1130116E+00
         25   -1    0    0    0    0  0.00000000000E+00  0.00000000000E+00  0.99999998245E-14  0.12500000000E+03  0.12500000000E+03 0.  0.
        -11    1    3    3    0    0 -0.35106084248E+02 -0.43523340933E+02 -0.17165795203E+02  0.58492588269E+02  0.51100000000E-03 0.  1.
         23    2    1    0    0    0 -0.97540379435E+01 -0.27764307409E+02  0.42993197517E+01  0.95259755004E+02  0.90498280376E+02 0.  0.
         11    1    3    3    0    0  0.25352046305E+02  0.15759033524E+02  0.21465114954E+02  0.36767166735E+02  0.51100000000E-03 0. -1.
         22    1    1    0    0    0  0.97540379435E+01  0.27764307409E+02 -0.42993197517E+01  0.29740244996E+02  0.00000000000E+00 0.  1.
</event>
<event>
 5    1  0.1692171E-003  0.9118800E+02  0.7818608E-02  0.1130116E+00
         25   -1    0    0    0    0  0.00000000000E+00  0.00000000000E+00  0.99999998245E-14  0.12500000000E+03  0.12500000000E+03 0.  0.
        -11    1    3    3    0    0  0.34167250738E+02 -0.92540667499E+00 -0.17874452934E+02  0.38571407395E+02  0.51100000000E-03 0. -1.
         23    2    1    0    0    0 -0.15444272491E+02 -0.24333303436E+02 -0.12139916817E+02  0.93726803982E+02  0.88355537435E+02 0.  0.
         11    1    3    3    0    0 -0.49611523229E+02 -0.23407896761E+02  0.57345361167E+01  0.55155396586E+02  0.51100000000E-03 0.  1.
         22    1    1    0    0    0  0.15444272491E+02  0.24333303436E+02  0.12139916817E+02  0.31273196018E+02  0.00000000000E+00 0.  1.
</event>
<event>
 5    1  0.1692171E-003  0.9118800E+02  0.7818608E-02  0.1130116E+00
         25   -1    0    0    0    0  0.00000000000E+00  0.00000000000E+00  0.99999998245E-14  0.12500000000E+03  0.12500000000E+03 0.  0.
        -11    1    3    3    0    0 -0.47121801523E+02 -0.23823868488E+02 -0.79725476199E+01  0.53400397043E+02  0.51100000000E-03 0. -1.
         23    2    1    0    0    0 -0.60794229665E+01 -0.20781746843E+02 -0.19201497504E+02  0.96059753079E+02  0.91596606213E+02 0.  0.
         11    1    3    3    0    0  0.41042378557E+02  0.30421216450E+01 -0.11228949884E+02  0.42659356036E+02  0.51100000000E-03 0.  1.
         22    1    1    0    0    0  0.60794229665E+01  0.20781746843E+02  0.19201497504E+02  0.28940246921E+02  0.00000000000E+00 0. -1.
</event>
<event>
 5    1  0.1692171E-003  0.9118800E+02  0.7818608E-02  0.1130116E+00
         25   -1    0    0    0    0  0.00000000000E+00  0.00000000000E+00  0.99999998245E-14  0.12500000000E+03  0.12500000000E+03 0.  0.
        -11    1    3    3    0    0 -0.29711750357E+02  0.41211699070E+01  0.11088885738E+01  0.30016691770E+02  0.51100000000E-03 0.  1.
         23    2    1    0    0    0  0.32493418436E+02  0.30045168811E+01 -0.19749217540E+01  0.92308262829E+02  0.86325347999E+02 0.  0.
         11    1    3    3    0    0  0.62205168793E+02 -0.11166530259E+01 -0.30838103277E+01  0.62291571059E+02  0.51100000000E-03 0. -1.
         22    1    1    0    0    0 -0.32493418436E+02 -0.30045168811E+01  0.19749217540E+01  0.32691737171E+02  0.00000000000E+00 0. -1.
</event>
<event>
 5    1  0.1692171E-003  0.9118800E+02  0.7818608E-02  0.1130116E+00
         25   -1    0    0    0    0  0.00000000000E+00  0.00000000000E+00  0.99999998245E-14  0.12500000000E+03  0.12500000000E+03 0.  0.
        -11    1    3    3    0    0  0.34368013938E+01 -0.98096609307E+01  0.33351154176E+02  0.34933372819E+02  0.51100000000E-03 0. -1.
         23    2    1    0    0    0  0.14802712400E+02 -0.20805146494E+02 -0.21251221478E+02  0.91779692516E+02  0.85556549305E+02 0.  0.
         11    1    3    3    0    0  0.11365911006E+02 -0.10995485564E+02 -0.54602375654E+02  0.56846319697E+02  0.51100000000E-03 0.  1.
         22    1    1    0    0    0 -0.14802712400E+02  0.20805146494E+02  0.21251221478E+02  0.33220307484E+02  0.00000000000E+00 0.  1.
</event>
<event>
 5    1  0.1692171E-003  0.9118800E+02  0.7818608E-02  0.1130116E+00
         25   -1    0    0    0    0  0.00000000000E+00  0.00000000000E+00  0.99999998245E-14  0.12500000000E+03  0.12500000000E+03 0.  0.
        -11    1    3    3    0    0  0.27617036315E+02 -0.18964546959E+02 -0.46261799519E+02  0.57118375600E+02  0.51100000000E-03 0. -1.
         23    2    1    0    0    0  0.22827622042E+02 -0.16143834676E+02 -0.78092655506E+01  0.95970560554E+02  0.91474806031E+02 0.  0.
         11    1    3    3    0    0 -0.47894142733E+01  0.28207122829E+01  0.38452533968E+02  0.38852184954E+02  0.51100000000E-03 0.  1.
         22    1    1    0    0    0 -0.22827622042E+02  0.16143834676E+02  0.78092655506E+01  0.29029439446E+02  0.00000000000E+00 0. -1.
</event>
<event>
 5    1  0.1692171E-003  0.9118800E+02  0.7818608E-02  0.1130116E+00
         25   -1    0    0    0    0  0.00000000000E+00  0.00000000000E+00  0.99999998245E-14  0.12500000000E+03  0.12500000000E+03 0.  0.
        -11    1    3    3    0    0 -0.47069491043E+02  0.17601744051E+02 -0.14810767232E+02  0.52390048740E+02  0.51100000000E-03 0.  1.
         23    2    1    0    0    0 -0.19704627182E+02  0.12215134006E+02  0.18142457919E+02  0.95561409502E+02  0.90913983388E+02 0.  0.
         11    1    3    3    0    0  0.27364863861E+02 -0.53866100450E+01  0.32953225152E+02  0.43171360762E+02  0.51100000000E-03 0. -1.
         22    1    1    0    0    0  0.19704627182E+02 -0.12215134006E+02 -0.18142457919E+02  0.29438590498E+02  0.00000000000E+00 0.  1.
</event>
<event>
 5    1  0.1692171E-003  0.9118800E+02  0.7818608E-02  0.1130116E+00
         25   -1    0    0    0    0  0.00000000000E+00  0.00000000000E+00  0.99999998245E-14  0.12500000000E+03  0.12500000000E+03 0.  0.
        -11    1    3    3    0    0 -0.42014657185E+02  0.10404962182E+02  0.41962115873E+02  0.60285270383E+02  0.51100000000E-03 0. -1.
         23    2    1    0    0    0 -0.21678076687E+02  0.16002021868E+02  0.16278940753E+02  0.93519726419E+02  0.88062089486E+02 0.  0.
         11    1    3    3    0    0  0.20336580498E+02  0.55970596868E+01 -0.25683175120E+02  0.33234456036E+02  0.51100000000E-03 0.  1.
         22    1    1    0    0    0  0.21678076687E+02 -0.16002021868E+02 -0.16278940753E+02  0.31480273581E+02  0.00000000000E+00 0. -1.
</event>
<event>
 5    1  0.1692171E-003  0.9118800E+02  0.7818608E-02  0.1130116E+00
         25   -1    0    0    0    0  0.00000000000E+00  0.00000000000E+00  0.99999998245E-14  0.12500000000E+03  0.12500000000E+03 0.  0.
        -11    1    3    3    0    0 -0.49785595669E+02 -0.28838627840E+02 -0.11675197186E+02  0.58707599349E+02  0.51100000000E-03 0. -1.
         23    2    1    0    0    0 -0.27688164107E+02 -0.46299366054E+01  0.64969778938E+01  0.96185394913E+02  0.91767906853E+02 0.  0.
         11    1    3    3    0    0  0.22097431562E+02  0.24208691234E+02  0.18172175080E+02  0.37477795564E+02  0.51100000000E-03 0.  1.
         22    1    1    0    0    0  0.27688164107E+02  0.46299366054E+01 -0.64969778938E+01  0.28814605087E+02  0.00000000000E+00 0. -1.
</event>
<event>
 5    1  0.1692171E-003  0.9118800E+02  0.7818608E-02  0.1130116E+00
         25   -1    0    0    0    0  0.00000000000E+00  0.00000000000E+00  0.99999998245E-14  0.12500000000E+03  0.12500000000E+03 0.  0.
        -11    1    3    3    0    0  0.16004931602E+02  0.19696752678E+02  0.15898525778E+02  0.29948005340E+02  0.51100000000E-03 0. -1.
         23    2    1    0    0    0 -0.35051538205E+02  0.11479709296E+02  0.22053007016E+02  0.82026413060E+02  0.69868471180E+02 0.  0.
         11    1    3    3    0    0 -0.51056469807E+02 -0.82170433815E+01  0.61544812380E+01  0.52078407720E+02  0.51100000000E-03 0.  1.
         22    1    1    0    0    0  0.35051538205E+02 -0.11479709296E+02 -0.22053007016E+02  0.42973586940E+02  0.00000000000E+00 0. -1.
</event>
<event>
 5    1  0.1692171E-003  0.9118800E+02  0.7818608E-02  0.1130116E+00
         25   -1    0    0    0    0  0.00000000000E+00  0.00000000000E+00  0.99999998245E-14  0.12500000000E+03  0.12500000000E+03 0.  0.
        -11    1    3    3    0    0 -0.10693999398E+02  0.27124119412E+02 -0.31399214775E+02  0.42848455815E+02  0.51100000000E-03 0.  1.
         23    2    1    0    0    0  0.27890028142E+02  0.13129790404E+02 -0.59081812813E+00  0.94168293400E+02  0.88977937435E+02 0.  0.
         11    1    3    3    0    0  0.38584027540E+02 -0.13994329009E+02  0.30808396646E+02  0.51319837585E+02  0.51100000000E-03 0. -1.
         22    1    1    0    0    0 -0.27890028142E+02 -0.13129790404E+02  0.59081812813E+00  0.30831706600E+02  0.00000000000E+00 0. -1.
</event>
<event>
 5    1  0.1692171E-003  0.9118800E+02  0.7818608E-02  0.1130116E+00
         25   -1    0    0    0    0  0.00000000000E+00  0.00000000000E+00  0.99999998245E-14  0.12500000000E+03  0.12500000000E+03 0.  0.
        -11    1    3    3    0    0  0.10860963743E+01  0.20116380505E+02  0.48318983462E+02  0.52350477868E+02  0.51100000000E-03 0.  1.
         23    2    1    0    0    0 -0.21412591306E+02  0.10412641265E+02  0.40409247116E+02  0.78097660857E+02  0.62445297776E+02 0.  0.
         11    1    3    3    0    0 -0.22498687681E+02 -0.97037392398E+01 -0.79097363455E+01  0.25747182990E+02  0.51100000000E-03 0. -1.
         22    1    1    0    0    0  0.21412591306E+02 -0.10412641265E+02 -0.40409247116E+02  0.46902339143E+02  0.00000000000E+00 0.  1.
</event>
<event>
 5    1  0.1692171E-003  0.9118800E+02  0.7818608E-02  0.1130116E+00
         25   -1    0    0    0    0  0.00000000000E+00  0.00000000000E+00  0.99999998245E-14  0.12500000000E+03  0.12500000000E+03 0.  0.
        -11    1    3    3    0    0  0.20928957907E+02  0.26407883481E+02  0.26981897540E+02  0.43167353221E+02  0.51100000000E-03 0.  1.
         23    2    1    0    0    0 -0.78442968383E+00 -0.22406117606E+02  0.15305714986E+02  0.97853833653E+02  0.94013075757E+02 0.  0.
         11    1    3    3    0    0 -0.21713387591E+02 -0.48814001086E+02 -0.11676182554E+02  0.54686480432E+02  0.51100000000E-03 0. -1.
         22    1    1    0    0    0  0.78442968383E+00  0.22406117606E+02 -0.15305714986E+02  0.27146166347E+02  0.00000000000E+00 0. -1.
</event>
<event>
 5    1  0.1692171E-003  0.9118800E+02  0.7818608E-02  0.1130116E+00
         25   -1    0    0    0    0  0.00000000000E+00  0.00000000000E+00  0.99999998245E-14  0.12500000000E+03  0.12500000000E+03 0.  0.
        -11    1    3    3    0    0  0.44081576622E+02  0.14290392087E+02  0.16008573427E+02  0.49027289614E+02  0.51100000000E-03 0.  1.
         23    2    1    0    0    0 -0.60779437960E+01  0.22540387090E+02  0.67628645979E+01  0.10069471686E+03  0.97717343471E+02 0.  0.
         11    1    3    3    0    0 -0.50159520418E+02  0.82499950028E+01 -0.92457088286E+01  0.51667427245E+02  0.51100000000E-03 0. -1.
         22    1    1    0    0    0  0.60779437960E+01 -0.22540387090E+02 -0.67628645979E+01  0.24305283140E+02  0.00000000000E+00 0.  1.
</event>
<event>
 5    1  0.1692171E-003  0.9118800E+02  0.7818608E-02  0.1130116E+00
         25   -1    0    0    0    0  0.00000000000E+00  0.00000000000E+00  0.99999998245E-14  0.12500000000E+03  0.12500000000E+03 0.  0.
        -11    1    3    3    0    0 -0.24479621466E+02 -0.14523279506E+02 -0.20505610635E+02  0.35080729504E+02  0.51100000000E-03 0. -1.
         23    2    1    0    0    0  0.49514124101E+01  0.11151936470E+02  0.26279860311E+02  0.96025645307E+02  0.91550048208E+02 0.  0.
         11    1    3    3    0    0  0.29431033876E+02  0.25675215976E+02  0.46785470946E+02  0.60944915804E+02  0.51100000000E-03 0.  1.
         22    1    1    0    0    0 -0.49514124101E+01 -0.11151936470E+02 -0.26279860311E+02  0.28974354693E+02  0.00000000000E+00 0.  1.
</event>
<event>
 5    1  0.1692171E-003  0.9118800E+02  0.7818608E-02  0.1130116E+00
         25   -1    0    0    0    0  0.00000000000E+00  0.00000000000E+00  0.99999998245E-14  0.12500000000E+03  0.12500000000E+03 0.  0.
        -11    1    3    3    0    0 -0.14638322510E+02 -0.27278886698E+02 -0.40695442150E+02  0.51132544993E+02  0.51100000000E-03 0.  1.
         23    2    1    0    0    0  0.18602033927E+02 -0.19589630480E+02 -0.13296220218E+02  0.94890553631E+02  0.89986879087E+02 0.  0.
         11    1    3    3    0    0  0.33240356437E+02  0.76892562181E+01  0.27399221932E+02  0.43758008638E+02  0.51100000000E-03 0. -1.
         22    1    1    0    0    0 -0.18602033927E+02  0.19589630480E+02  0.13296220218E+02  0.30109446369E+02  0.00000000000E+00 0. -1.
</event>
<event>
 5    1  0.1692171E-003  0.9118800E+02  0.7818608E-02  0.1130116E+00
         25   -1    0    0    0    0  0.00000000000E+00  0.00000000000E+00  0.99999998245E-14  0.12500000000E+03  0.12500000000E+03 0.  0.
        -11    1    3    3    0    0  0.19502853573E+02 -0.28300298688E+02 -0.10314635392E+02  0.35883978415E+02  0.51100000000E-03 0. -1.
         23    2    1    0    0    0  0.13105990645E+00  0.17649781718E+02  0.23113258272E+02  0.95918138310E+02  0.91403143149E+02 0.  0.
         11    1    3    3    0    0 -0.19371793667E+02  0.45950080406E+02  0.33427893664E+02  0.60034159895E+02  0.51100000000E-03 0.  1.
         22    1    1    0    0    0 -0.13105990645E+00 -0.17649781718E+02 -0.23113258272E+02  0.29081861690E+02  0.00000000000E+00 0.  1.
</event>
<event>
 5    1  0.1692171E-003  0.9118800E+02  0.7818608E-02  0.1130116E+00
         25   -1    0    0    0    0  0.00000000000E+00  0.00000000000E+00  0.99999998245E-14  0.12500000000E+03  0.12500000000E+03 0.  0.
        -11    1    3    3    0    0 -0.41455950669E+02 -0.17237444250E+02  0.37996821704E+02  0.58817376600E+02  0.51100000000E-03 0.  1.
         23    2    1    0    0    0 -0.25609902707E+02 -0.14684196959E+02  0.56277735285E+01  0.94947303085E+02  0.90065674767E+02 0.  0.
         11    1    3    3    0    0  0.15846047962E+02  0.25532472903E+01 -0.32369048176E+02  0.36129926485E+02  0.51100000000E-03 0. -1.
         22    1    1    0    0    0  0.25609902707E+02  0.14684196959E+02 -0.56277735285E+01  0.30052696915E+02  0.00000000000E+00 0.  1.
</event>
<event>
 5    1  0.1692171E-003  0.9118800E+02  0.7818608E-02  0.1130116E+00
         25   -1    0    0    0    0  0.00000000000E+00  0.00000000000E+00  0.99999998245E-14  0.12500000000E+03  0.12500000000E+03 0.  0.
        -11    1    3    3    0    0 -0.24379816786E+02 -0.12567392018E+01 -0.36201778843E+02  0.43663756728E+02  0.51100000000E-03 0. -1.
         23    2    1    0    0    0 -0.16449602708E+02  0.23320411289E+02  0.84423930234E+01  0.95239203439E+02  0.90469889244E+02 0.  0.
         11    1    3    3    0    0  0.79302140780E+01  0.24577150491E+02  0.44644171866E+02  0.51575446711E+02  0.51100000000E-03 0.  1.
         22    1    1    0    0    0  0.16449602708E+02 -0.23320411289E+02 -0.84423930234E+01  0.29760796561E+02  0.00000000000E+00 0.  1.
</event>
<event>
 5    1  0.1692171E-003  0.9118800E+02  0.7818608E-02  0.1130116E+00
         25   -1    0    0    0    0  0.00000000000E+00  0.00000000000E+00  0.99999998245E-14  0.12500000000E+03  0.12500000000E+03 0.  0.
        -11    1    3    3    0    0 -0.34559639035E+02  0.40998917494E+02  0.21835238848E+02  0.57896956239E+02  0.51100000000E-03 0.  1.
         23    2    1    0    0    0 -0.12723806739E+02  0.26781971751E+02 -0.45763483648E+01  0.94998129506E+02  0.90136187940E+02 0.  0.
         11    1    3    3    0    0  0.21835832296E+02 -0.14216945743E+02 -0.26411587213E+02  0.37101173266E+02  0.51100000000E-03 0. -1.
         22    1    1    0    0    0  0.12723806739E+02 -0.26781971751E+02  0.45763483648E+01  0.30001870494E+02  0.00000000000E+00 0.  1.
</event>
<event>
 5    1  0.1692171E-003  0.9118800E+02  0.7818608E-02  0.1130116E+00
         25   -1    0    0    0    0  0.00000000000E+00  0.00000000000E+00  0.99999998245E-14  0.12500000000E+03  0.12500000000E+03 0.  0.
        -11    1    3    3    0    0 -0.26293952705E+02  0.23557208260E+02  0.19373287864E+02  0.40269570308E+02  0.51100000000E-03 0.  1.
         23    2    1    0    0    0  0.97872987575E+01 -0.18795764127E+02  0.19927714677E+02  0.95910727436E+02  0.91393007714E+02 0.  0.
         11    1    3    3    0    0  0.36081251463E+02 -0.42352972387E+02  0.55442681249E+00  0.55641157128E+02  0.51100000000E-03 0. -1.
         22    1    1    0    0    0 -0.97872987575E+01  0.18795764127E+02 -0.19927714677E+02  0.29089272564E+02  0.00000000000E+00 0. -1.
</event>
<event>
 5    1  0.1692171E-003  0.9118800E+02  0.7818608E-02  0.1130116E+00
         25   -1    0    0    0    0  0.00000000000E+00  0.00000000000E+00  0.99999998245E-14  0.12500000000E+03  0.12500000000E+03 0.  0.
        -11    1    3    3    0    0  0.98791985586E+01  0.49564392426E+01 -0.29516491181E+02  0.31518059998E+02  0.51100000000E-03 0.  1.
         23    2    1    0    0    0  0.21461231930E+02 -0.26517403626E+01  0.27398611287E+02  0.90095844039E+02  0.83059984407E+02 0.  0.
         11    1    3    3    0    0  0.11582033371E+02 -0.76081796052E+01  0.56915102468E+02  0.58577784041E+02  0.51100000000E-03 0. -1.
         22    1    1    0    0    0 -0.21461231930E+02  0.26517403626E+01 -0.27398611287E+02  0.34904155961E+02  0.00000000000E+00 0. -1.
</event>
<event>
 5    1  0.1692171E-003  0.9118800E+02  0.7818608E-02  0.1130116E+00
         25   -1    0    0    0    0  0.00000000000E+00  0.00000000000E+00  0.99999998245E-14  0.12500000000E+03  0.12500000000E+03 0.  0.
        -11    1    3    3    0    0 -0.95933427375E+01  0.46564540908E+02 -0.13406008859E+00  0.47542682583E+02  0.51100000000E-03 0.  1.
         23    2    1    0    0    0  0.60697445586E+01  0.12588143237E+02  0.27565955768E+02  0.94093931558E+02  0.88873409350E+02 0.  0.
         11    1    3    3    0    0  0.15663087296E+02 -0.33976397671E+02  0.27700015857E+02  0.46551248974E+02  0.51100000000E-03 0. -1.
         22    1    1    0    0    0 -0.60697445586E+01 -0.12588143237E+02 -0.27565955768E+02  0.30906068442E+02  0.00000000000E+00 0. -1.
</event>
<event>
 5    1  0.1692171E-003  0.9118800E+02  0.7818608E-02  0.1130116E+00
         25   -1    0    0    0    0  0.00000000000E+00  0.00000000000E+00  0.99999998245E-14  0.12500000000E+03  0.12500000000E+03 0.  0.
        -11    1    3    3    0    0  0.15951135030E+01  0.27120905610E+02  0.21875911145E+02  0.34880415664E+02  0.51100000000E-03 0.  1.
         23    2    1    0    0    0 -0.10997573862E+02 -0.27523100027E+02 -0.75587565570E+00  0.95351407893E+02  0.90624786749E+02 0.  0.
         11    1    3    3    0    0 -0.12592687365E+02 -0.54644005637E+02 -0.22631786801E+02  0.60470992229E+02  0.51100000000E-03 0. -1.
         22    1    1    0    0    0  0.10997573862E+02  0.27523100027E+02  0.75587565570E+00  0.29648592107E+02  0.00000000000E+00 0. -1.
</event>
<event>
 5    1  0.1692171E-003  0.9118800E+02  0.7818608E-02  0.1130116E+00
         25   -1    0    0    0    0  0.00000000000E+00  0.00000000000E+00  0.99999998245E-14  0.12500000000E+03  0.12500000000E+03 0.  0.
        -11    1    3    3    0    0 -0.86858076523E+01  0.68690928462E+01  0.49733155453E+02  0.50951098542E+02  0.51100000000E-03 0. -1.
         23    2    1    0    0    0  0.22828797139E+02  0.21106596749E+01  0.19050727374E+02  0.95191627409E+02  0.90404130725E+02 0.  0.
         11    1    3    3    0    0  0.31514604791E+02 -0.47584331713E+01 -0.30682428078E+02  0.44240528867E+02  0.51100000000E-03 0.  1.
         22    1    1    0    0    0 -0.22828797139E+02 -0.21106596749E+01 -0.19050727374E+02  0.29808372591E+02  0.00000000000E+00 0. -1.
</event>
<event>
 5    1  0.1692171E-003  0.9118800E+02  0.7818608E-02  0.1130116E+00
         25   -1    0    0    0    0  0.00000000000E+00  0.00000000000E+00  0.99999998245E-14  0.12500000000E+03  0.12500000000E+03 0.  0.
        -11    1    3    3    0    0  0.32711492971E+02 -0.48579386995E+01  0.20420497271E+02  0.38866927456E+02  0.51100000000E-03 0.  1.
         23    2    1    0    0    0 -0.18019803244E+02  0.30329819013E+01 -0.15097608714E+02  0.10129662309E+03  0.98484292006E+02 0.  0.
         11    1    3    3    0    0 -0.50731296215E+02  0.78909206008E+01 -0.35518105985E+02  0.62429695632E+02  0.51100000000E-03 0. -1.
         22    1    1    0    0    0  0.18019803244E+02 -0.30329819013E+01  0.15097608714E+02  0.23703376912E+02  0.00000000000E+00 0. -1.
</event>
<event>
 5    1  0.1692171E-003  0.9118800E+02  0.7818608E-02  0.1130116E+00
         25   -1    0    0    0    0  0.00000000000E+00  0.00000000000E+00  0.99999998245E-14  0.12500000000E+03  0.12500000000E+03 0.  0.
        -11    1    3    3    0    0  0.23668001272E+02 -0.11229216436E+02 -0.22053470421E+02  0.34243614644E+02  0.51100000000E-03 0. -1.
         23    2    1    0    0    0 -0.27536540312E+02  0.66610525932E+01  0.70597386765E+01  0.95802901100E+02  0.91245412351E+02 0.  0.
         11    1    3    3    0    0 -0.51204541584E+02  0.17890269029E+02  0.29113209098E+02  0.61559286456E+02  0.51100000000E-03 0.  1.
         22    1    1    0    0    0  0.27536540312E+02 -0.66610525932E+01 -0.70597386765E+01  0.29197098900E+02  0.00000000000E+00 0.  1.
</event>
<event>
 5    1  0.1692171E-003  0.9118800E+02  0.7818608E-02  0.1130116E+00
         25   -1    0    0    0    0  0.00000000000E+00  0.00000000000E+00  0.99999998245E-14  0.12500000000E+03  0.12500000000E+03 0.  0.
        -11    1    3    3    0    0  0.38618875253E+02 -0.17509080030E+02  0.36623862614E+02  0.56029391593E+02  0.51100000000E-03 0. -1.
         23    2    1    0    0    0  0.31819609816E+01 -0.22021109410E+02  0.18374406446E+02  0.96143927025E+02  0.91711404723E+02 0.  0.
         11    1    3    3    0    0 -0.35436914271E+02 -0.45120293794E+01 -0.18249456168E+02  0.40114535431E+02  0.51100000000E-03 0.  1.
         22    1    1    0    0    0 -0.31819609816E+01  0.22021109410E+02 -0.18374406446E+02  0.28856072975E+02  0.00000000000E+00 0. -1.
</event>
<event>
 5    1  0.1692171E-003  0.9118800E+02  0.7818608E-02  0.1130116E+00
         25   -1    0    0    0    0  0.00000000000E+00  0.00000000000E+00  0.99999998245E-14  0.12500000000E+03  0.12500000000E+03 0.  0.
        -11    1    3    3    0    0  0.18478433249E+02 -0.31416356733E+02 -0.24056032144E+01  0.36527070685E+02  0.51100000000E-03 0. -1.
         23    2    1    0    0    0 -0.20128535036E+02  0.14573436947E+02 -0.12115701855E+02  0.97353423023E+02  0.93345357440E+02 0.  0.
         11    1    3    3    0    0 -0.38606968285E+02  0.45989793680E+02 -0.97100986405E+01  0.60826352338E+02  0.51100000000E-03 0.  1.
         22    1    1    0    0    0  0.20128535036E+02 -0.14573436947E+02  0.12115701855E+02  0.27646576977E+02  0.00000000000E+00 0.  1.
</event>
<event>
 5    1  0.1692171E-003  0.9118800E+02  0.7818608E-02  0.1130116E+00
         25   -1    0    0    0    0  0.00000000000E+00  0.00000000000E+00  0.99999998245E-14  0.12500000000E+03  0.12500000000E+03 0.  0.
        -11    1    3    3    0    0  0.57644342594E+01  0.32139121250E+02 -0.18066381978E+01  0.32701922863E+02  0.51100000000E-03 0.  1.
         23    2    1    0    0    0 -0.10261078042E+02 -0.26114043843E+02  0.11683511998E+02  0.94606950449E+02  0.89592062217E+02 0.  0.
         11    1    3    3    0    0 -0.16025512301E+02 -0.58253165093E+02  0.13490150196E+02  0.61905027586E+02  0.51100000000E-03 0. -1.
         22    1    1    0    0    0  0.10261078042E+02  0.26114043843E+02 -0.11683511998E+02  0.30393049551E+02  0.00000000000E+00 0. -1.
</event>
<event>
 5    1  0.1692171E-003  0.9118800E+02  0.7818608E-02  0.1130116E+00
         25   -1    0    0    0    0  0.00000000000E+00  0.00000000000E+00  0.99999998245E-14  0.12500000000E+03  0.12500000000E+03 0.  0.
        -11    1    3    3    0    0  0.34840987465E+02 -0.21231676189E+02  0.38516442455E+02  0.56108776684E+02  0.51100000000E-03 0. -1.
         23    2    1    0    0    0  0.32189470008E+02 -0.19987126495E+01  0.88624909481E+01  0.91553018411E+02  0.85224729995E+02 0.  0.
         11    1    3    3    0    0 -0.26515174575E+01  0.19232963539E+02 -0.29653951507E+02  0.35444241727E+02  0.51100000000E-03 0.  1.
         22    1    1    0    0    0 -0.32189470008E+02  0.19987126495E+01 -0.88624909481E+01  0.33446981589E+02  0.00000000000E+00 0. -1.
</event>
<event>
 5    1  0.1692171E-003  0.9118800E+02  0.7818608E-02  0.1130116E+00
         25   -1    0    0    0    0  0.00000000000E+00  0.00000000000E+00  0.99999998245E-14  0.12500000000E+03  0.12500000000E+03 0.  0.
        -11    1    3    3    0    0 -0.73711581015E+01  0.18146801254E+02  0.26679728838E+02  0.33097557291E+02  0.51100000000E-03 0. -1.
         23    2    1    0    0    0  0.24827499934E+02 -0.18892977345E+02 -0.75092397914E+01  0.92910468558E+02  0.87192987903E+02 0.  0.
         11    1    3    3    0    0  0.32198658035E+02 -0.37039778599E+02 -0.34188968630E+02  0.59812911266E+02  0.51100000000E-03 0.  1.
         22    1    1    0    0    0 -0.24827499934E+02  0.18892977345E+02  0.75092397914E+01  0.32089531442E+02  0.00000000000E+00 0.  1.
</event>
<event>
 5    1  0.1692171E-003  0.9118800E+02  0.7818608E-02  0.1130116E+00
         25   -1    0    0    0    0  0.00000000000E+00  0.00000000000E+00  0.99999998245E-14  0.12500000000E+03  0.12500000000E+03 0.  0.
        -11    1    3    3    0    0 -0.32656530941E+02  0.12238204946E+02 -0.47402300121E+02  0.58848965414E+02  0.51100000000E-03 0. -1.
         23    2    1    0    0    0 -0.68429207619E+01 -0.52822734520E+01 -0.28250818256E+02  0.95456189997E+02  0.90769199066E+02 0.  0.
         11    1    3    3    0    0  0.25813610179E+02 -0.17520478398E+02  0.19151481865E+02  0.36607224582E+02  0.51100000000E-03 0.  1.
         22    1    1    0    0    0  0.68429207619E+01  0.52822734520E+01  0.28250818256E+02  0.29543810003E+02  0.00000000000E+00 0. -1.
</event>
<event>
 5    1  0.1692171E-003  0.9118800E+02  0.7818608E-02  0.1130116E+00
         25   -1    0    0    0    0  0.00000000000E+00  0.00000000000E+00  0.99999998245E-14  0.12500000000E+03  0.12500000000E+03 0.  0.
        -11    1    3    3    0    0 -0.49961146665E+02  0.29962569610E+02 -0.13926134283E+02  0.59898321930E+02  0.51100000000E-03 0.  1.
         23    2    1    0    0    0 -0.14248054658E+02  0.23088413002E+02 -0.77152109369E+01  0.96793505069E+02  0.92592528139E+02 0.  0.
         11    1    3    3    0    0  0.35713092007E+02 -0.68741566080E+01  0.62109233463E+01  0.36895183139E+02  0.51100000000E-03 0. -1.
         22    1    1    0    0    0  0.14248054658E+02 -0.23088413002E+02  0.77152109369E+01  0.28206494931E+02  0.00000000000E+00 0.  1.
</event>
<event>
 5    1  0.1692171E-003  0.9118800E+02  0.7818608E-02  0.1130116E+00
         25   -1    0    0    0    0  0.00000000000E+00  0.00000000000E+00  0.99999998245E-14  0.12500000000E+03  0.12500000000E+03 0.  0.
        -11    1    3    3    0    0 -0.39486873958E+02 -0.14584828338E+02  0.41304480385E+02  0.58974490525E+02  0.51100000000E-03 0.  1.
         23    2    1    0    0    0 -0.11543659974E+02 -0.19494575464E+02  0.22864690077E+02  0.92811669654E+02  0.87051234418E+02 0.  0.
         11    1    3    3    0    0  0.27943213984E+02 -0.49097471260E+01 -0.18439790307E+02  0.33837179129E+02  0.51100000000E-03 0. -1.
         22    1    1    0    0    0  0.11543659974E+02  0.19494575464E+02 -0.22864690077E+02  0.32188330346E+02  0.00000000000E+00 0.  1.
</event>
<event>
 5    1  0.1692171E-003  0.9118800E+02  0.7818608E-02  0.1130116E+00
         25   -1    0    0    0    0  0.00000000000E+00  0.00000000000E+00  0.99999998245E-14  0.12500000000E+03  0.12500000000E+03 0.  0.
        -11    1    3    3    0    0 -0.53007336234E+01  0.55916752560E+02 -0.26951169025E+02  0.62298848351E+02  0.51100000000E-03 0.  1.
         23    2    1    0    0    0  0.10950618570E+01  0.25832277669E+02 -0.12497588453E+02  0.96282488840E+02  0.91900066431E+02 0.  0.
         11    1    3    3    0    0  0.63957954804E+01 -0.30084474891E+02  0.14453580572E+02  0.33983640489E+02  0.51100000000E-03 0. -1.
         22    1    1    0    0    0 -0.10950618570E+01 -0.25832277669E+02  0.12497588453E+02  0.28717511160E+02  0.00000000000E+00 0.  1.
</event>
<event>
 5    1  0.1692171E-003  0.9118800E+02  0.7818608E-02  0.1130116E+00
         25   -1    0    0    0    0  0.00000000000E+00  0.00000000000E+00  0.99999998245E-14  0.12500000000E+03  0.12500000000E+03 0.  0.
        -11    1    3    3    0    0 -0.55763636314E+02  0.10715861586E+02 -0.11178121231E+01  0.56794914638E+02  0.51100000000E-03 0.  1.
         23    2    1    0    0    0 -0.21180797458E+02 -0.14255494389E+02  0.10507302384E+00  0.99468522535E+02  0.96136000716E+02 0.  0.
         11    1    3    3    0    0  0.34582838856E+02 -0.24971355975E+02  0.12228851469E+01  0.42673607897E+02  0.51100000000E-03 0. -1.
         22    1    1    0    0    0  0.21180797458E+02  0.14255494389E+02 -0.10507302384E+00  0.25531477465E+02  0.00000000000E+00 0.  1.
</event>
<event>
 5    1  0.1692171E-003  0.9118800E+02  0.7818608E-02  0.1130116E+00
         25   -1    0    0    0    0  0.00000000000E+00  0.00000000000E+00  0.99999998245E-14  0.12500000000E+03  0.12500000000E+03 0.  0.
        -11    1    3    3    0    0 -0.10911288549E+02 -0.78114897443E+01 -0.50753130700E+02  0.52497198648E+02  0.51100000000E-03 0. -1.
         23    2    1    0    0    0 -0.19994635179E+02  0.15107067283E+02 -0.15437040475E+02  0.95566836112E+02  0.90921444270E+02 0.  0.
         11    1    3    3    0    0 -0.90833466297E+01  0.22918557027E+02  0.35316090225E+02  0.43069637464E+02  0.51100000000E-03 0.  1.
         22    1    1    0    0    0  0.19994635179E+02 -0.15107067283E+02  0.15437040475E+02  0.29433163888E+02  0.00000000000E+00 0. -1.
</event>
<event>
 5    1  0.1692171E-003  0.9118800E+02  0.7818608E-02  0.1130116E+00
         25   -1    0    0    0    0  0.00000000000E+00  0.00000000000E+00  0.99999998245E-14  0.12500000000E+03  0.12500000000E+03 0.  0.
        -11    1    3    3    0    0  0.30285231543E+00  0.17219816287E+02 -0.30121699657E+02  0.34697702848E+02  0.51100000000E-03 0.  1.
         23    2    1    0    0    0  0.15759857015E+02 -0.40271824719E+01  0.24662237778E+02  0.95456519095E+02  0.90769652272E+02 0.  0.
         11    1    3    3    0    0  0.15457004699E+02 -0.21246998759E+02  0.54783937435E+02  0.60758816246E+02  0.51100000000E-03 0. -1.
         22    1    1    0    0    0 -0.15759857015E+02  0.40271824719E+01 -0.24662237778E+02  0.29543480905E+02  0.00000000000E+00 0. -1.
</event>
<event>
 5    1  0.1692171E-003  0.9118800E+02  0.7818608E-02  0.1130116E+00
         25   -1    0    0    0    0  0.00000000000E+00  0.00000000000E+00  0.99999998245E-14  0.12500000000E+03  0.12500000000E+03 0.  0.
        -11    1    3    3    0    0  0.16896090248E+02  0.33054522065E+02  0.32567613336E+02  0.49383486444E+02  0.51100000000E-03 0.  1.
         23    2    1    0    0    0 -0.17415149575E+02  0.24259225233E+02  0.40372431468E+01  0.94865355887E+02  0.89951870307E+02 0.  0.
         11    1    3    3    0    0 -0.34311239823E+02 -0.87952968328E+01 -0.28530370190E+02  0.45481869443E+02  0.51100000000E-03 0. -1.
         22    1    1    0    0    0  0.17415149575E+02 -0.24259225233E+02 -0.40372431468E+01  0.30134644113E+02  0.00000000000E+00 0.  1.
</event>
<event>
 5    1  0.1692171E-003  0.9118800E+02  0.7818608E-02  0.1130116E+00
         25   -1    0    0    0    0  0.00000000000E+00  0.00000000000E+00  0.99999998245E-14  0.12500000000E+03  0.12500000000E+03 0.  0.
        -11    1    3    3    0    0  0.15044032037E+02  0.43456010485E+02 -0.62732870850E+01  0.46412303093E+02  0.51100000000E-03 0.  1.
         23    2    1    0    0    0  0.16572445063E+02  0.43657922712E+01  0.23740800076E+02  0.95719773468E+02  0.91131462004E+02 0.  0.
         11    1    3    3    0    0  0.15284130257E+01 -0.39090218214E+02  0.30014087161E+02  0.49307470375E+02  0.51100000000E-03 0. -1.
         22    1    1    0    0    0 -0.16572445063E+02 -0.43657922712E+01 -0.23740800076E+02  0.29280226532E+02  0.00000000000E+00 0. -1.
</event>
<event>
 5    1  0.1692171E-003  0.9118800E+02  0.7818608E-02  0.1130116E+00
         25   -1    0    0    0    0  0.00000000000E+00  0.00000000000E+00  0.99999998245E-14  0.12500000000E+03  0.12500000000E+03 0.  0.
        -11    1    3    3    0    0  0.21231799030E+02 -0.10119389597E+02 -0.41831087207E+02  0.47989907200E+02  0.51100000000E-03 0.  1.
         23    2    1    0    0    0 -0.12749856292E+02  0.15987926677E+02 -0.21180676308E+02  0.95558639914E+02  0.90910175329E+02 0.  0.
         11    1    3    3    0    0 -0.33981655322E+02  0.26107316274E+02  0.20650410899E+02  0.47568732714E+02  0.51100000000E-03 0. -1.
         22    1    1    0    0    0  0.12749856292E+02 -0.15987926677E+02  0.21180676308E+02  0.29441360086E+02  0.00000000000E+00 0. -1.
</event>
<event>
 5    1  0.1692171E-003  0.9118800E+02  0.7818608E-02  0.1130116E+00
         25   -1    0    0    0    0  0.00000000000E+00  0.00000000000E+00  0.99999998245E-14  0.12500000000E+03  0.12500000000E+03 0.  0.
        -11    1    3    3    0    0 -0.49537462020E+02 -0.19866333834E+02 -0.11433846728E+02  0.54583552602E+02  0.51100000000E-03 0. -1.
         23    2    1    0    0    0 -0.11018927527E+02 -0.68284009313E+01 -0.24487777982E+02  0.97292688806E+02  0.93263991988E+02 0.  0.
         11    1    3    3    0    0  0.38518534493E+02  0.13037932902E+02 -0.13053931253E+02  0.42709136204E+02  0.51100000000E-03 0.  1.
         22    1    1    0    0    0  0.11018927527E+02  0.68284009313E+01  0.24487777982E+02  0.27707311194E+02  0.00000000000E+00 0. -1.
</event>
<event>
 5    1  0.1692171E-003  0.9118800E+02  0.7818608E-02  0.1130116E+00
         25   -1    0    0    0    0  0.00000000000E+00  0.00000000000E+00  0.99999998245E-14  0.12500000000E+03  0.12500000000E+03 0.  0.
        -11    1    3    3    0    0  0.91943618055E+01  0.30700989588E+02  0.11230886962E+02  0.33959091167E+02  0.51100000000E-03 0.  1.
         23    2    1    0    0    0 -0.55919494131E+01 -0.24317882626E+02 -0.14134939340E+02  0.96322032433E+02  0.91953836832E+02 0.  0.
         11    1    3    3    0    0 -0.14786311219E+02 -0.55018872214E+02 -0.25365826302E+02  0.62362941266E+02  0.51100000000E-03 0. -1.
         22    1    1    0    0    0  0.55919494131E+01  0.24317882626E+02  0.14134939340E+02  0.28677967567E+02  0.00000000000E+00 0. -1.
</event>
<event>
 5    1  0.1692171E-003  0.9118800E+02  0.7818608E-02  0.1130116E+00
         25   -1    0    0    0    0  0.00000000000E+00  0.00000000000E+00  0.99999998245E-14  0.12500000000E+03  0.12500000000E+03 0.  0.
        -11    1    3    3    0    0  0.66157171432E+01 -0.47341410266E+02 -0.38666930863E+02  0.61482586006E+02  0.51100000000E-03 0.  1.
         23    2    1    0    0    0  0.11026083204E+02 -0.21497519204E+02 -0.17796409871E+02  0.94992833405E+02  0.90128843060E+02 0.  0.
         11    1    3    3    0    0  0.44103660606E+01  0.25843891062E+02  0.20870520992E+02  0.33510247400E+02  0.51100000000E-03 0. -1.
         22    1    1    0    0    0 -0.11026083204E+02  0.21497519204E+02  0.17796409871E+02  0.30007166595E+02  0.00000000000E+00 0.  1.
</event>
<event>
 5    1  0.1692171E-003  0.9118800E+02  0.7818608E-02  0.1130116E+00
         25   -1    0    0    0    0  0.00000000000E+00  0.00000000000E+00  0.99999998245E-14  0.12500000000E+03  0.12500000000E+03 0.  0.
        -11    1    3    3    0    0  0.14954499660E+01  0.27302172559E+02 -0.30083795710E+02  0.40653164227E+02  0.51100000000E-03 0. -1.
         23    2    1    0    0    0  0.87756457903E+01 -0.24276432531E+02 -0.16060906713E+02  0.94597535299E+02  0.89578925115E+02 0.  0.
         11    1    3    3    0    0  0.72801958243E+01 -0.51578605090E+02  0.14022888998E+02  0.53944371072E+02  0.51100000000E-03 0.  1.
         22    1    1    0    0    0 -0.87756457903E+01  0.24276432531E+02  0.16060906713E+02  0.30402464701E+02  0.00000000000E+00 0.  1.
</event>
<event>
 5    1  0.1692171E-003  0.9118800E+02  0.7818608E-02  0.1130116E+00
         25   -1    0    0    0    0  0.00000000000E+00  0.00000000000E+00  0.99999998245E-14  0.12500000000E+03  0.12500000000E+03 0.  0.
        -11    1    3    3    0    0 -0.52260606228E+02  0.27709480743E+02 -0.12376293231E+02  0.60433094582E+02  0.51100000000E-03 0.  1.
         23    2    1    0    0    0 -0.26848358186E+02  0.89637545624E+01  0.46600913924E+01  0.96313771860E+02  0.91942606907E+02 0.  0.
         11    1    3    3    0    0  0.25412248042E+02 -0.18745726181E+02  0.17036384624E+02  0.35880677278E+02  0.51100000000E-03 0. -1.
         22    1    1    0    0    0  0.26848358186E+02 -0.89637545624E+01 -0.46600913924E+01  0.28686228140E+02  0.00000000000E+00 0.  1.
</event>
<event>
 5    1  0.1692171E-003  0.9118800E+02  0.7818608E-02  0.1130116E+00
         25   -1    0    0    0    0  0.00000000000E+00  0.00000000000E+00  0.99999998245E-14  0.12500000000E+03  0.12500000000E+03 0.  0.
        -11    1    3    3    0    0 -0.33063136617E+02  0.48653371039E+02  0.28121315728E+01  0.58891676837E+02  0.51100000000E-03 0. -1.
         23    2    1    0    0    0 -0.10984209336E+02  0.36426001964E+02  0.10949405316E+02  0.85409648264E+02  0.75679667454E+02 0.  0.
         11    1    3    3    0    0  0.22078927280E+02 -0.12227369075E+02  0.81372737434E+01  0.26517971427E+02  0.51100000000E-03 0.  1.
         22    1    1    0    0    0  0.10984209336E+02 -0.36426001964E+02 -0.10949405316E+02  0.39590351736E+02  0.00000000000E+00 0. -1.
</event>
<event>
 5    1  0.1692171E-003  0.9118800E+02  0.7818608E-02  0.1130116E+00
         25   -1    0    0    0    0  0.00000000000E+00  0.00000000000E+00  0.99999998245E-14  0.12500000000E+03  0.12500000000E+03 0.  0.
        -11    1    3    3    0    0 -0.32935425137E+02 -0.35002466441E+02  0.52220459499E+01  0.48344437634E+02  0.51100000000E-03 0. -1.
         23    2    1    0    0    0 -0.16216509959E+02  0.55151411554E+01  0.23571877020E+02  0.95861960198E+02  0.91326283454E+02 0.  0.
         11    1    3    3    0    0  0.16718915178E+02  0.40517607597E+02  0.18349831071E+02  0.47517522564E+02  0.51100000000E-03 0.  1.
         22    1    1    0    0    0  0.16216509959E+02 -0.55151411554E+01 -0.23571877020E+02  0.29138039802E+02  0.00000000000E+00 0.  1.
</event>
<event>
 5    1  0.1692171E-003  0.9118800E+02  0.7818608E-02  0.1130116E+00
         25   -1    0    0    0    0  0.00000000000E+00  0.00000000000E+00  0.99999998245E-14  0.12500000000E+03  0.12500000000E+03 0.  0.
        -11    1    3    3    0    0  0.30423028144E+02 -0.22751862555E+02  0.43381826098E+01  0.38236471068E+02  0.51100000000E-03 0.  1.
         23    2    1    0    0    0 -0.12710438316E+02 -0.18848478669E+01 -0.26729235838E+02  0.95342624153E+02  0.90612670406E+02 0.  0.
         11    1    3    3    0    0 -0.43133466460E+02  0.20867014688E+02 -0.31067418448E+02  0.57106153084E+02  0.51100000000E-03 0. -1.
         22    1    1    0    0    0  0.12710438316E+02  0.18848478669E+01  0.26729235838E+02  0.29657375847E+02  0.00000000000E+00 0. -1.
</event>
<event>
 5    1  0.1692171E-003  0.9118800E+02  0.7818608E-02  0.1130116E+00
         25   -1    0    0    0    0  0.00000000000E+00  0.00000000000E+00  0.99999998245E-14  0.12500000000E+03  0.12500000000E+03 0.  0.
        -11    1    3    3    0    0  0.20419685253E+02 -0.34918199141E+02  0.42379683252E-01  0.40450537368E+02  0.51100000000E-03 0.  1.
         23    2    1    0    0    0  0.42217691893E+01  0.72568625927E+01 -0.29432297577E+02  0.94393701132E+02  0.89294038339E+02 0.  0.
         11    1    3    3    0    0 -0.16197916064E+02  0.42175061733E+02 -0.29474677260E+02  0.53943163764E+02  0.51100000000E-03 0. -1.
         22    1    1    0    0    0 -0.42217691893E+01 -0.72568625927E+01  0.29432297577E+02  0.30606298868E+02  0.00000000000E+00 0.  1.
</event>
<event>
 5    1  0.1692171E-003  0.9118800E+02  0.7818608E-02  0.1130116E+00
         25   -1    0    0    0    0  0.00000000000E+00  0.00000000000E+00  0.99999998245E-14  0.12500000000E+03  0.12500000000E+03 0.  0.
        -11    1    3    3    0    0 -0.24466489846E+02 -0.99216756299E+01  0.26236780767E+02  0.37221196085E+02  0.51100000000E-03 0.  1.
         23    2    1    0    0    0  0.12027129650E+02  0.26906117018E+02 -0.43263929217E+00  0.95524957042E+02  0.90863850131E+02 0.  0.
         11    1    3    3    0    0  0.36493619496E+02  0.36827792648E+02 -0.26669420059E+02  0.58303760958E+02  0.51100000000E-03 0. -1.
         22    1    1    0    0    0 -0.12027129650E+02 -0.26906117018E+02  0.43263929217E+00  0.29475042958E+02  0.00000000000E+00 0. -1.
</event>
<event>
 5    1  0.1692171E-003  0.9118800E+02  0.7818608E-02  0.1130116E+00
         25   -1    0    0    0    0  0.00000000000E+00  0.00000000000E+00  0.99999998245E-14  0.12500000000E+03  0.12500000000E+03 0.  0.
        -11    1    3    3    0    0 -0.30198088729E+02 -0.18821514265E+02 -0.65531676074E+00  0.35589372043E+02  0.51100000000E-03 0.  1.
         23    2    1    0    0    0  0.59204636213E-01  0.30509682389E+02  0.62048015933E+01  0.93865713634E+02  0.88551840233E+02 0.  0.
         11    1    3    3    0    0  0.30257293365E+02  0.49331196654E+02  0.68601183540E+01  0.58276341591E+02  0.51100000000E-03 0. -1.
         22    1    1    0    0    0 -0.59204636213E-01 -0.30509682389E+02 -0.62048015933E+01  0.31134286366E+02  0.00000000000E+00 0. -1.
</event>
<event>
 5    1  0.1692171E-003  0.9118800E+02  0.7818608E-02  0.1130116E+00
         25   -1    0    0    0    0  0.00000000000E+00  0.00000000000E+00  0.99999998245E-14  0.12500000000E+03  0.12500000000E+03 0.  0.
        -11    1    3    3    0    0  0.18339491598E+02  0.30369811659E+02  0.21037356722E+02  0.41246003326E+02  0.51100000000E-03 0. -1.
         23    2    1    0    0    0  0.20779446492E+02 -0.20529360863E+02  0.17305113850E+01  0.95738511255E+02  0.91157159969E+02 0.  0.
         11    1    3    3    0    0  0.24399548938E+01 -0.50899172521E+02 -0.19306845337E+02  0.54492507929E+02  0.51100000000E-03 0.  1.
         22    1    1    0    0    0 -0.20779446492E+02  0.20529360863E+02 -0.17305113850E+01  0.29261488745E+02  0.00000000000E+00 0.  1.
</event>
<event>
 5    1  0.1692171E-003  0.9118800E+02  0.7818608E-02  0.1130116E+00
         25   -1    0    0    0    0  0.00000000000E+00  0.00000000000E+00  0.99999998245E-14  0.12500000000E+03  0.12500000000E+03 0.  0.
        -11    1    3    3    0    0  0.24974624849E+02  0.49226478518E+01 -0.25816171161E+02  0.36255193309E+02  0.51100000000E-03 0. -1.
         23    2    1    0    0    0  0.33668906547E+01 -0.36118772957E+02 -0.13384067636E+01  0.88699958054E+02  0.80932005496E+02 0.  0.
         11    1    3    3    0    0 -0.21607734194E+02 -0.41041420809E+02  0.24477764398E+02  0.52444764745E+02  0.51100000000E-03 0.  1.
         22    1    1    0    0    0 -0.33668906547E+01  0.36118772957E+02  0.13384067636E+01  0.36300041946E+02  0.00000000000E+00 0. -1.
</event>
<event>
 5    1  0.1692171E-003  0.9118800E+02  0.7818608E-02  0.1130116E+00
         25   -1    0    0    0    0  0.00000000000E+00  0.00000000000E+00  0.99999998245E-14  0.12500000000E+03  0.12500000000E+03 0.  0.
        -11    1    3    3    0    0 -0.46274963002E+02 -0.41139763286E+02  0.72404449876E+01  0.62340006160E+02  0.51100000000E-03 0.  1.
         23    2    1    0    0    0 -0.13087569263E+02 -0.15329745687E+02  0.34173652082E+01  0.10455583318E+03  0.10253759454E+03 0.  0.
         11    1    3    3    0    0  0.33187393740E+02  0.25810017598E+02 -0.38230797794E+01  0.42215827019E+02  0.51100000000E-03 0. -1.
         22    1    1    0    0    0  0.13087569263E+02  0.15329745687E+02 -0.34173652082E+01  0.20444166821E+02  0.00000000000E+00 0.  1.
</event>
<event>
 5    1  0.1692171E-003  0.9118800E+02  0.7818608E-02  0.1130116E+00
         25   -1    0    0    0    0  0.00000000000E+00  0.00000000000E+00  0.99999998245E-14  0.12500000000E+03  0.12500000000E+03 0.  0.
        -11    1    3    3    0    0  0.14132736601E+02  0.17846930042E+02  0.55857035658E+02  0.60317954114E+02  0.51100000000E-03 0. -1.
         23    2    1    0    0    0  0.26781836362E+01 -0.17070491250E+01  0.30536650489E+02  0.94298636718E+02  0.89160861253E+02 0.  0.
         11    1    3    3    0    0 -0.11454552965E+02 -0.19553979167E+02 -0.25320385169E+02  0.33980682604E+02  0.51100000000E-03 0.  1.
         22    1    1    0    0    0 -0.26781836362E+01  0.17070491250E+01 -0.30536650489E+02  0.30701363282E+02  0.00000000000E+00 0. -1.
</event>
<event>
 5    1  0.1692171E-003  0.9118800E+02  0.7818608E-02  0.1130116E+00
         25   -1    0    0    0    0  0.00000000000E+00  0.00000000000E+00  0.99999998245E-14  0.12500000000E+03  0.12500000000E+03 0.  0.
        -11    1    3    3    0    0 -0.43684009924E+02  0.14738320078E+01 -0.16870669304E+02  0.46851727683E+02  0.51100000000E-03 0.  1.
         23    2    1    0    0    0 -0.18592017100E+02 -0.77688598694E+01  0.22723291017E+02  0.94629516991E+02  0.89623541817E+02 0.  0.
         11    1    3    3    0    0  0.25091992824E+02 -0.92426918772E+01  0.39593960321E+02  0.47777789308E+02  0.51100000000E-03 0. -1.
         22    1    1    0    0    0  0.18592017100E+02  0.77688598694E+01 -0.22723291017E+02  0.30370483009E+02  0.00000000000E+00 0.  1.
</event>
<event>
 5    1  0.1692171E-003  0.9118800E+02  0.7818608E-02  0.1130116E+00
         25   -1    0    0    0    0  0.00000000000E+00  0.00000000000E+00  0.99999998245E-14  0.12500000000E+03  0.12500000000E+03 0.  0.
        -11    1    3    3    0    0  0.41033059709E+02  0.70467659436E+01  0.71053019997E+01  0.42235698362E+02  0.51100000000E-03 0.  1.
         23    2    1    0    0    0 -0.34376129616E+00  0.38808677709E+01 -0.28085363053E+02  0.96645689493E+02  0.92392761477E+02 0.  0.
         11    1    3    3    0    0 -0.41376821006E+02 -0.31658981727E+01 -0.35190665053E+02  0.54409991131E+02  0.51100000000E-03 0. -1.
         22    1    1    0    0    0  0.34376129616E+00 -0.38808677709E+01  0.28085363053E+02  0.28354310507E+02  0.00000000000E+00 0. -1.
</event>
<event>
 5    1  0.1692171E-003  0.9118800E+02  0.7818608E-02  0.1130116E+00
         25   -1    0    0    0    0  0.00000000000E+00  0.00000000000E+00  0.99999998245E-14  0.12500000000E+03  0.12500000000E+03 0.  0.
        -11    1    3    3    0    0 -0.26338212467E+02 -0.24000646810E+02  0.49877094844E+02  0.61298100082E+02  0.51100000000E-03 0. -1.
         23    2    1    0    0    0 -0.18054414207E+02 -0.47523948676E+01  0.23759562777E+02  0.94783051896E+02  0.89837425242E+02 0.  0.
         11    1    3    3    0    0  0.82837982598E+01  0.19248251943E+02 -0.26117532067E+02  0.33484951814E+02  0.51100000000E-03 0.  1.
         22    1    1    0    0    0  0.18054414207E+02  0.47523948676E+01 -0.23759562777E+02  0.30216948104E+02  0.00000000000E+00 0. -1.
</event>
<event>
 5    1  0.1692171E-003  0.9118800E+02  0.7818608E-02  0.1130116E+00
         25   -1    0    0    0    0  0.00000000000E+00  0.00000000000E+00  0.99999998245E-14  0.12500000000E+03  0.12500000000E+03 0.  0.
        -11    1    3    3    0    0 -0.44121019899E+02 -0.13544098525E+02 -0.24665526163E+02  0.52330633313E+02  0.51100000000E-03 0. -1.
         23    2    1    0    0    0 -0.31230222962E+02  0.26264993545E+01  0.94859839274E+01  0.92255394090E+02  0.86248759542E+02 0.  0.
         11    1    3    3    0    0  0.12890796936E+02  0.16170597879E+02  0.34151510090E+02  0.39924760777E+02  0.51100000000E-03 0.  1.
         22    1    1    0    0    0  0.31230222962E+02 -0.26264993545E+01 -0.94859839274E+01  0.32744605910E+02  0.00000000000E+00 0. -1.
</event>
<event>
 5    1  0.1692171E-003  0.9118800E+02  0.7818608E-02  0.1130116E+00
         25   -1    0    0    0    0  0.00000000000E+00  0.00000000000E+00  0.99999998245E-14  0.12500000000E+03  0.12500000000E+03 0.  0.
        -11    1    3    3    0    0  0.97796631941E+01 -0.49801650708E+02 -0.34675270913E+02  0.61467232235E+02  0.51100000000E-03 0. -1.
         23    2    1    0    0    0  0.12769998590E+02 -0.23834605599E+02 -0.19100665196E+02  0.91894159141E+02  0.85723624429E+02 0.  0.
         11    1    3    3    0    0  0.29903353964E+01  0.25967045108E+02  0.15574605718E+02  0.30426926906E+02  0.51100000000E-03 0.  1.
         22    1    1    0    0    0 -0.12769998590E+02  0.23834605599E+02  0.19100665196E+02  0.33105840859E+02  0.00000000000E+00 0. -1.
</event>
<event>
 5    1  0.1692171E-003  0.9118800E+02  0.7818608E-02  0.1130116E+00
         25   -1    0    0    0    0  0.00000000000E+00  0.00000000000E+00  0.99999998245E-14  0.12500000000E+03  0.12500000000E+03 0.  0.
        -11    1    3    3    0    0  0.11905419104E+02 -0.34611504242E+02  0.47761581227E+02  0.60173614413E+02  0.51100000000E-03 0.  1.
         23    2    1    0    0    0 -0.10469868177E+01 -0.23920031064E+02  0.15697406561E+02  0.96370074394E+02  0.92019120831E+02 0.  0.
         11    1    3    3    0    0 -0.12952405922E+02  0.10691473179E+02 -0.32064174666E+02  0.36196459981E+02  0.51100000000E-03 0. -1.
         22    1    1    0    0    0  0.10469868177E+01  0.23920031064E+02 -0.15697406561E+02  0.28629925606E+02  0.00000000000E+00 0.  1.
</event>
<event>
 5    1  0.1692171E-003  0.9118800E+02  0.7818608E-02  0.1130116E+00
         25   -1    0    0    0    0  0.00000000000E+00  0.00000000000E+00  0.99999998245E-14  0.12500000000E+03  0.12500000000E+03 0.  0.
        -11    1    3    3    0    0  0.12569816505E+02 -0.13341460607E+02 -0.31691725027E+02  0.36610931340E+02  0.51100000000E-03 0. -1.
         23    2    1    0    0    0 -0.24872822990E+01 -0.23987890355E+02  0.21364942535E+02  0.92780964843E+02  0.87007133103E+02 0.  0.
         11    1    3    3    0    0 -0.15057098804E+02 -0.10646429747E+02  0.53056667562E+02  0.56170033504E+02  0.51100000000E-03 0.  1.
         22    1    1    0    0    0  0.24872822990E+01  0.23987890355E+02 -0.21364942535E+02  0.32219035157E+02  0.00000000000E+00 0.  1.
</event>
<event>
 5    1  0.1692171E-003  0.9118800E+02  0.7818608E-02  0.1130116E+00
         25   -1    0    0    0    0  0.00000000000E+00  0.00000000000E+00  0.99999998245E-14  0.12500000000E+03  0.12500000000E+03 0.  0.
        -11    1    3    3    0    0  0.28014616563E+02 -0.22104941536E+02 -0.19054684582E+02  0.40454025588E+02  0.51100000000E-03 0. -1.
         23    2    1    0    0    0 -0.45094172413E+01 -0.21863423371E+02  0.22553897099E+02  0.93266383759E+02  0.87701744224E+02 0.  0.
         11    1    3    3    0    0 -0.32524033804E+02  0.24151816465E+00  0.41608581681E+02  0.52812358172E+02  0.51100000000E-03 0.  1.
         22    1    1    0    0    0  0.45094172413E+01  0.21863423371E+02 -0.22553897099E+02  0.31733616241E+02  0.00000000000E+00 0. -1.
</event>
<event>
 5    1  0.1692171E-003  0.9118800E+02  0.7818608E-02  0.1130116E+00
         25   -1    0    0    0    0  0.00000000000E+00  0.00000000000E+00  0.99999998245E-14  0.12500000000E+03  0.12500000000E+03 0.  0.
        -11    1    3    3    0    0 -0.11909753053E+02  0.22143549536E+02  0.48628413785E+02  0.54743964338E+02  0.51100000000E-03 0. -1.
         23    2    1    0    0    0  0.63782961170E+01 -0.76567740160E+01  0.27859911198E+02  0.95411429544E+02  0.90707537647E+02 0.  0.
         11    1    3    3    0    0  0.18288049170E+02 -0.29800323552E+02 -0.20768502587E+02  0.40667465206E+02  0.51100000000E-03 0.  1.
         22    1    1    0    0    0 -0.63782961170E+01  0.76567740160E+01 -0.27859911198E+02  0.29588570456E+02  0.00000000000E+00 0. -1.
</event>
<event>
 5    1  0.1692171E-003  0.9118800E+02  0.7818608E-02  0.1130116E+00
         25   -1    0    0    0    0  0.00000000000E+00  0.00000000000E+00  0.99999998245E-14  0.12500000000E+03  0.12500000000E+03 0.  0.
        -11    1    3    3    0    0  0.34449291732E+02 -0.19781380526E+02 -0.13483851713E+02  0.41950816126E+02  0.51100000000E-03 0. -1.
         23    2    1    0    0    0 -0.14353709318E+02 -0.24753011651E+02  0.76748052494E+01  0.95374956665E+02  0.90657262071E+02 0.  0.
         11    1    3    3    0    0 -0.48803001051E+02 -0.49716311252E+01  0.21158656963E+02  0.53424140539E+02  0.51100000000E-03 0.  1.
         22    1    1    0    0    0  0.14353709318E+02  0.24753011651E+02 -0.76748052494E+01  0.29625043335E+02  0.00000000000E+00 0.  1.
</event>
<event>
 5    1  0.1692171E-003  0.9118800E+02  0.7818608E-02  0.1130116E+00
         25   -1    0    0    0    0  0.00000000000E+00  0.00000000000E+00  0.99999998245E-14  0.12500000000E+03  0.12500000000E+03 0.  0.
        -11    1    3    3    0    0  0.75744189581E+01 -0.30342822269E+02 -0.23105702529E+02  0.38883572051E+02  0.51100000000E-03 0. -1.
         23    2    1    0    0    0 -0.31800678437E+02 -0.16351554784E+01  0.77100736291E+00  0.93147977539E+02  0.87532818901E+02 0.  0.
         11    1    3    3    0    0 -0.39375097395E+02  0.28707666790E+02  0.23876709892E+02  0.54264405488E+02  0.51100000000E-03 0.  1.
         22    1    1    0    0    0  0.31800678437E+02  0.16351554784E+01 -0.77100736291E+00  0.31852022461E+02  0.00000000000E+00 0.  1.
</event>
<event>
 5    1  0.1692171E-003  0.9118800E+02  0.7818608E-02  0.1130116E+00
         25   -1    0    0    0    0  0.00000000000E+00  0.00000000000E+00  0.99999998245E-14  0.12500000000E+03  0.12500000000E+03 0.  0.
        -11    1    3    3    0    0 -0.41077706991E+02 -0.25899034960E+02  0.56722257473E+01  0.48890818859E+02  0.51100000000E-03 0. -1.
         23    2    1    0    0    0  0.35242430115E+01 -0.28598008284E+02 -0.70216854613E+01  0.95342447280E+02  0.90612426411E+02 0.  0.
         11    1    3    3    0    0  0.44601950002E+02 -0.26989733235E+01 -0.12693911209E+02  0.46451628422E+02  0.51100000000E-03 0.  1.
         22    1    1    0    0    0 -0.35242430115E+01  0.28598008284E+02  0.70216854613E+01  0.29657552720E+02  0.00000000000E+00 0.  1.
</event>
<event>
 5    1  0.1692171E-003  0.9118800E+02  0.7818608E-02  0.1130116E+00
         25   -1    0    0    0    0  0.00000000000E+00  0.00000000000E+00  0.99999998245E-14  0.12500000000E+03  0.12500000000E+03 0.  0.
        -11    1    3    3    0    0 -0.12435840741E+02 -0.38122798778E+02 -0.14575717139E+02  0.42666725349E+02  0.51100000000E-03 0.  1.
         23    2    1    0    0    0 -0.14962917020E+01 -0.57178662158E+01  0.27489982836E+02  0.96881820130E+02  0.92711676894E+02 0.  0.
         11    1    3    3    0    0  0.10939549039E+02  0.32404932562E+02  0.42065699974E+02  0.54215094781E+02  0.51100000000E-03 0. -1.
         22    1    1    0    0    0  0.14962917020E+01  0.57178662158E+01 -0.27489982836E+02  0.28118179870E+02  0.00000000000E+00 0. -1.
</event>
<event>
 5    1  0.1692171E-003  0.9118800E+02  0.7818608E-02  0.1130116E+00
         25   -1    0    0    0    0  0.00000000000E+00  0.00000000000E+00  0.99999998245E-14  0.12500000000E+03  0.12500000000E+03 0.  0.
        -11    1    3    3    0    0  0.44996344726E+02  0.13723884030E+02  0.79580567919E+01  0.47711075231E+02  0.51100000000E-03 0.  1.
         23    2    1    0    0    0  0.16075527976E+02 -0.37423535957E+01 -0.25086803649E+02  0.94970422456E+02  0.90097755876E+02 0.  0.
         11    1    3    3    0    0 -0.28920816750E+02 -0.17466237626E+02 -0.33044860441E+02  0.47259347225E+02  0.51100000000E-03 0. -1.
         22    1    1    0    0    0 -0.16075527976E+02  0.37423535957E+01  0.25086803649E+02  0.30029577544E+02  0.00000000000E+00 0. -1.
</event>
<event>
 5    1  0.1692171E-003  0.9118800E+02  0.7818608E-02  0.1130116E+00
         25   -1    0    0    0    0  0.00000000000E+00  0.00000000000E+00  0.99999998245E-14  0.12500000000E+03  0.12500000000E+03 0.  0.
        -11    1    3    3    0    0  0.19837533516E+02 -0.10162118814E+02  0.55437938082E+02  0.59750827390E+02  0.51100000000E-03 0.  1.
         23    2    1    0    0    0  0.39691687594E+01 -0.16717896352E+02  0.25824403674E+02  0.93981583145E+02  0.88715251149E+02 0.  0.
         11    1    3    3    0    0 -0.15868364756E+02 -0.65557775379E+01 -0.29613534408E+02  0.34230755755E+02  0.51100000000E-03 0. -1.
         22    1    1    0    0    0 -0.39691687594E+01  0.16717896352E+02 -0.25824403674E+02  0.31018416855E+02  0.00000000000E+00 0.  1.
</event>
<event>
 5    1  0.1692171E-003  0.9118800E+02  0.7818608E-02  0.1130116E+00
         25   -1    0    0    0    0  0.00000000000E+00  0.00000000000E+00  0.99999998245E-14  0.12500000000E+03  0.12500000000E+03 0.  0.
        -11    1    3    3    0    0  0.52079079659E+02 -0.82193578901E+01  0.29844888692E+02  0.60584699087E+02  0.51100000000E-03 0. -1.
         23    2    1    0    0    0  0.28751279460E+02 -0.95814597789E+01  0.57426284186E+01  0.94154931946E+02  0.88959164714E+02 0.  0.
         11    1    3    3    0    0 -0.23327800199E+02 -0.13621018888E+01 -0.24102260273E+02  0.33570232859E+02  0.51100000000E-03 0.  1.
         22    1    1    0    0    0 -0.28751279460E+02  0.95814597789E+01 -0.57426284186E+01  0.30845068054E+02  0.00000000000E+00 0. -1.
</event>
<event>
 5    1  0.1692171E-003  0.9118800E+02  0.7818608E-02  0.1130116E+00
         25   -1    0    0    0    0  0.00000000000E+00  0.00000000000E+00  0.99999998245E-14  0.12500000000E+03  0.12500000000E+03 0.  0.
        -11    1    3    3    0    0  0.60572957625E+01  0.26982076890E+02 -0.23322469425E+02  0.36175418250E+02  0.51100000000E-03 0. -1.
         23    2    1    0    0    0  0.17508600193E+02 -0.11957462294E+02  0.20220187905E+02  0.95701740937E+02  0.91106724418E+02 0.  0.
         11    1    3    3    0    0  0.11451304431E+02 -0.38939539184E+02  0.43542657329E+02  0.59526322687E+02  0.51100000000E-03 0.  1.
         22    1    1    0    0    0 -0.17508600193E+02  0.11957462294E+02 -0.20220187905E+02  0.29298259063E+02  0.00000000000E+00 0.  1.
</event>
<event>
 5    1  0.1692171E-003  0.9118800E+02  0.7818608E-02  0.1130116E+00
         25   -1    0    0    0    0  0.00000000000E+00  0.00000000000E+00  0.99999998245E-14  0.12500000000E+03  0.12500000000E+03 0.  0.
        -11    1    3    3    0    0  0.99503945511E+01  0.11731904147E+02  0.33901041738E+02  0.37228061430E+02  0.51100000000E-03 0. -1.
         23    2    1    0    0    0  0.18572947774E+02  0.92837537628E+01 -0.22526838516E+02  0.94363405436E+02  0.89251618243E+02 0.  0.
         11    1    3    3    0    0  0.86225532225E+01 -0.24481503838E+01 -0.56427880255E+02  0.57135344006E+02  0.51100000000E-03 0.  1.
         22    1    1    0    0    0 -0.18572947774E+02 -0.92837537628E+01  0.22526838516E+02  0.30636594564E+02  0.00000000000E+00 0.  1.
</event>
<event>
 5    1  0.1692171E-003  0.9118800E+02  0.7818608E-02  0.1130116E+00
         25   -1    0    0    0    0  0.00000000000E+00  0.00000000000E+00  0.99999998245E-14  0.12500000000E+03  0.12500000000E+03 0.  0.
        -11    1    3    3    0    0 -0.66885171863E+01  0.45171955915E+02 -0.18885600954E+02  0.49415663377E+02  0.51100000000E-03 0.  1.
         23    2    1    0    0    0 -0.15786705597E+02 -0.69096190119E+00 -0.23802143718E+02  0.96430093673E+02  0.92100615732E+02 0.  0.
         11    1    3    3    0    0 -0.90981884110E+01 -0.45862917816E+02 -0.49165427639E+01  0.47014430295E+02  0.51100000000E-03 0. -1.
         22    1    1    0    0    0  0.15786705597E+02  0.69096190119E+00  0.23802143718E+02  0.28569906327E+02  0.00000000000E+00 0.  1.
</event>
<event>
 5    1  0.1692171E-003  0.9118800E+02  0.7818608E-02  0.1130116E+00
         25   -1    0    0    0    0  0.00000000000E+00  0.00000000000E+00  0.99999998245E-14  0.12500000000E+03  0.12500000000E+03 0.  0.
        -11    1    3    3    0    0 -0.29618899011E+02  0.87607149644E+00  0.18883394374E+02  0.35137291632E+02  0.51100000000E-03 0.  1.
         23    2    1    0    0    0  0.29045308101E+02 -0.20608554393E+01  0.61552831878E+01  0.95238203029E+02  0.90468506991E+02 0.  0.
         11    1    3    3    0    0  0.58664207113E+02 -0.29369269357E+01 -0.12728111186E+02  0.60100911396E+02  0.51100000000E-03 0. -1.
         22    1    1    0    0    0 -0.29045308101E+02  0.20608554393E+01 -0.61552831878E+01  0.29761796971E+02  0.00000000000E+00 0. -1.
</event>
<event>
 5    1  0.1692171E-003  0.9118800E+02  0.7818608E-02  0.1130116E+00
         25   -1    0    0    0    0  0.00000000000E+00  0.00000000000E+00  0.99999998245E-14  0.12500000000E+03  0.12500000000E+03 0.  0.
        -11    1    3    3    0    0 -0.24657569105E+02  0.17799783224E+02 -0.12786674294E+02  0.32989802011E+02  0.51100000000E-03 0. -1.
         23    2    1    0    0    0  0.25913942988E+02 -0.61017372496E+01  0.13902251449E+02  0.94966081941E+02  0.90091733723E+02 0.  0.
         11    1    3    3    0    0  0.50571512093E+02 -0.23901520474E+02  0.26688925743E+02  0.61976279929E+02  0.51100000000E-03 0.  1.
         22    1    1    0    0    0 -0.25913942988E+02  0.61017372496E+01 -0.13902251449E+02  0.30033918059E+02  0.00000000000E+00 0.  1.
</event>
<event>
 5    1  0.1692171E-003  0.9118800E+02  0.7818608E-02  0.1130116E+00
         25   -1    0    0    0    0  0.00000000000E+00  0.00000000000E+00  0.99999998245E-14  0.12500000000E+03  0.12500000000E+03 0.  0.
        -11    1    3    3    0    0 -0.12719870167E+02 -0.23139067689E+02  0.38774038209E+02  0.46910953836E+02  0.51100000000E-03 0.  1.
         23    2    1    0    0    0 -0.82294167228E+01  0.21094296226E+02  0.18428920221E+02  0.95805518785E+02  0.91248998330E+02 0.  0.
         11    1    3    3    0    0  0.44904534437E+01  0.44233363915E+02 -0.20345117987E+02  0.48894564949E+02  0.51100000000E-03 0. -1.
         22    1    1    0    0    0  0.82294167228E+01 -0.21094296226E+02 -0.18428920221E+02  0.29194481215E+02  0.00000000000E+00 0. -1.
</event>
<event>
 5    1  0.1692171E-003  0.9118800E+02  0.7818608E-02  0.1130116E+00
         25   -1    0    0    0    0  0.00000000000E+00  0.00000000000E+00  0.99999998245E-14  0.12500000000E+03  0.12500000000E+03 0.  0.
        -11    1    3    3    0    0 -0.42700481600E+02 -0.32023125239E+02 -0.30717748377E+02  0.61582398009E+02  0.51100000000E-03 0.  1.
         23    2    1    0    0    0 -0.13628695455E+02 -0.18601392503E+02 -0.16653491700E+02  0.96555458719E+02  0.92270605719E+02 0.  0.
         11    1    3    3    0    0  0.29071786145E+02  0.13421732736E+02  0.14064256677E+02  0.34973060710E+02  0.51100000000E-03 0. -1.
         22    1    1    0    0    0  0.13628695455E+02  0.18601392503E+02  0.16653491700E+02  0.28444541281E+02  0.00000000000E+00 0.  1.
</event>
<event>
 5    1  0.1692171E-003  0.9118800E+02  0.7818608E-02  0.1130116E+00
         25   -1    0    0    0    0  0.00000000000E+00  0.00000000000E+00  0.99999998245E-14  0.12500000000E+03  0.12500000000E+03 0.  0.
        -11    1    3    3    0    0  0.34453587940E+02 -0.40792189777E+02 -0.19826904123E+02  0.56957515712E+02  0.51100000000E-03 0. -1.
         23    2    1    0    0    0  0.27683437619E+02 -0.68163851466E+01 -0.80851359889E+00  0.96478262341E+02  0.92165967608E+02 0.  0.
         11    1    3    3    0    0 -0.67701503210E+01  0.33975804631E+02  0.19018390524E+02  0.39520746628E+02  0.51100000000E-03 0.  1.
         22    1    1    0    0    0 -0.27683437619E+02  0.68163851466E+01  0.80851359889E+00  0.28521737659E+02  0.00000000000E+00 0. -1.
</event>
<event>
 5    1  0.1692171E-003  0.9118800E+02  0.7818608E-02  0.1130116E+00
         25   -1    0    0    0    0  0.00000000000E+00  0.00000000000E+00  0.99999998245E-14  0.12500000000E+03  0.12500000000E+03 0.  0.
        -11    1    3    3    0    0  0.19524152671E+02 -0.22351760258E+02  0.51811176986E+02  0.59709226967E+02  0.51100000000E-03 0.  1.
         23    2    1    0    0    0  0.17175630550E+02 -0.10797697523E-01  0.20282844666E+02  0.98421885147E+02  0.94765348555E+02 0.  0.
         11    1    3    3    0    0 -0.23485221209E+01  0.22340962560E+02 -0.31528332319E+02  0.38712658180E+02  0.51100000000E-03 0. -1.
         22    1    1    0    0    0 -0.17175630550E+02  0.10797697523E-01 -0.20282844666E+02  0.26578114853E+02  0.00000000000E+00 0.  1.
</event>
<event>
 5    1  0.1692171E-003  0.9118800E+02  0.7818608E-02  0.1130116E+00
         25   -1    0    0    0    0  0.00000000000E+00  0.00000000000E+00  0.99999998245E-14  0.12500000000E+03  0.12500000000E+03 0.  0.
        -11    1    3    3    0    0  0.22211655630E+02 -0.14687965863E+02 -0.19863354765E+02  0.33221180741E+02  0.51100000000E-03 0. -1.
         23    2    1    0    0    0 -0.24339528515E+02  0.74319021881E+01  0.15013866177E+02  0.95452377489E+02  0.90763948638E+02 0.  0.
         11    1    3    3    0    0 -0.46551184145E+02  0.22119868051E+02  0.34877220942E+02  0.62231196749E+02  0.51100000000E-03 0.  1.
         22    1    1    0    0    0  0.24339528515E+02 -0.74319021881E+01 -0.15013866177E+02  0.29547622511E+02  0.00000000000E+00 0.  1.
</event>
<event>
 5    1  0.1692171E-003  0.9118800E+02  0.7818608E-02  0.1130116E+00
         25   -1    0    0    0    0  0.00000000000E+00  0.00000000000E+00  0.99999998245E-14  0.12500000000E+03  0.12500000000E+03 0.  0.
        -11    1    3    3    0    0 -0.10670409690E+02  0.31612317237E+02 -0.24482687956E+01  0.33454301134E+02  0.51100000000E-03 0.  1.
         23    2    1    0    0    0  0.18733525952E+02 -0.22516716699E+02 -0.57808520450E+01  0.95144250539E+02  0.90338599915E+02 0.  0.
         11    1    3    3    0    0  0.29403935642E+02 -0.54129033936E+02 -0.33325832495E+01  0.61689949404E+02  0.51100000000E-03 0. -1.
         22    1    1    0    0    0 -0.18733525952E+02  0.22516716699E+02  0.57808520450E+01  0.29855749461E+02  0.00000000000E+00 0. -1.
</event>
<event>
 5    1  0.1692171E-003  0.9118800E+02  0.7818608E-02  0.1130116E+00
         25   -1    0    0    0    0  0.00000000000E+00  0.00000000000E+00  0.99999998245E-14  0.12500000000E+03  0.12500000000E+03 0.  0.
        -11    1    3    3    0    0  0.13173696649E+01  0.22041258729E+02 -0.31205426237E+02  0.38227361616E+02  0.51100000000E-03 0.  1.
         23    2    1    0    0    0 -0.21433897643E+02 -0.19710749102E+02  0.13444876069E+01  0.95849815691E+02  0.91309659526E+02 0.  0.
         11    1    3    3    0    0 -0.22751267308E+02 -0.41752007832E+02  0.32549913844E+02  0.57622454075E+02  0.51100000000E-03 0. -1.
         22    1    1    0    0    0  0.21433897643E+02  0.19710749102E+02 -0.13444876069E+01  0.29150184309E+02  0.00000000000E+00 0. -1.
</event>
<event>
 5    1  0.1692171E-003  0.9118800E+02  0.7818608E-02  0.1130116E+00
         25   -1    0    0    0    0  0.00000000000E+00  0.00000000000E+00  0.99999998245E-14  0.12500000000E+03  0.12500000000E+03 0.  0.
        -11    1    3    3    0    0  0.28614453568E+02  0.26049526291E+01 -0.31737990733E+02  0.42812063571E+02  0.51100000000E-03 0. -1.
         23    2    1    0    0    0 -0.60523740315E+00  0.30838365619E+02 -0.35255264590E+00  0.94153680937E+02  0.88957406854E+02 0.  0.
         11    1    3    3    0    0 -0.29219690971E+02  0.28233412990E+02  0.31385438087E+02  0.51341617366E+02  0.51100000000E-03 0.  1.
         22    1    1    0    0    0  0.60523740315E+00 -0.30838365619E+02  0.35255264590E+00  0.30846319063E+02  0.00000000000E+00 0.  1.
</event>
<event>
 5    1  0.1692171E-003  0.9118800E+02  0.7818608E-02  0.1130116E+00
         25   -1    0    0    0    0  0.00000000000E+00  0.00000000000E+00  0.99999998245E-14  0.12500000000E+03  0.12500000000E+03 0.  0.
        -11    1    3    3    0    0 -0.49463978268E+02 -0.15732668588E+02 -0.39738187443E-01  0.51905718243E+02  0.51100000000E-03 0.  1.
         23    2    1    0    0    0 -0.21425943462E+02  0.44900140810E+01  0.22841318751E+02  0.93362093591E+02  0.87838052106E+02 0.  0.
         11    1    3    3    0    0  0.28038034806E+02  0.20222682669E+02  0.22881056938E+02  0.41456375348E+02  0.51100000000E-03 0. -1.
         22    1    1    0    0    0  0.21425943462E+02 -0.44900140810E+01 -0.22841318751E+02  0.31637906409E+02  0.00000000000E+00 0.  1.
</event>
<event>
 5    1  0.1692171E-003  0.9118800E+02  0.7818608E-02  0.1130116E+00
         25   -1    0    0    0    0  0.00000000000E+00  0.00000000000E+00  0.99999998245E-14  0.12500000000E+03  0.12500000000E+03 0.  0.
        -11    1    3    3    0    0 -0.42122987510E+02  0.15828191846E+01 -0.26272769686E+01  0.42234511692E+02  0.51100000000E-03 0.  1.
         23    2    1    0    0    0  0.43635173993E+01 -0.24184299919E+02 -0.14182621921E+02  0.96626290140E+02  0.92366511978E+02 0.  0.
         11    1    3    3    0    0  0.46486504909E+02 -0.25767119103E+02 -0.11555344953E+02  0.54391778448E+02  0.51100000000E-03 0. -1.
         22    1    1    0    0    0 -0.43635173993E+01  0.24184299919E+02  0.14182621921E+02  0.28373709860E+02  0.00000000000E+00 0. -1.
</event>
<event>
 5    1  0.1692171E-003  0.9118800E+02  0.7818608E-02  0.1130116E+00
         25   -1    0    0    0    0  0.00000000000E+00  0.00000000000E+00  0.99999998245E-14  0.12500000000E+03  0.12500000000E+03 0.  0.
        -11    1    3    3    0    0  0.10635498279E+02 -0.36549075516E+02 -0.86311295168E+00  0.38074843518E+02  0.51100000000E-03 0.  1.
         23    2    1    0    0    0 -0.12130149922E+01  0.14666087811E+02 -0.25055522117E+02  0.95942389541E+02  0.91436302338E+02 0.  0.
         11    1    3    3    0    0 -0.11848513271E+02  0.51215163326E+02 -0.24192409165E+02  0.57867546023E+02  0.51100000000E-03 0. -1.
         22    1    1    0    0    0  0.12130149922E+01 -0.14666087811E+02  0.25055522117E+02  0.29057610459E+02  0.00000000000E+00 0. -1.
</event>
<event>
 5    1  0.1692171E-003  0.9118800E+02  0.7818608E-02  0.1130116E+00
         25   -1    0    0    0    0  0.00000000000E+00  0.00000000000E+00  0.99999998245E-14  0.12500000000E+03  0.12500000000E+03 0.  0.
        -11    1    3    3    0    0 -0.10034695672E+02 -0.33439744685E+02  0.10213524903E+01  0.34927851394E+02  0.51100000000E-03 0. -1.
         23    2    1    0    0    0  0.16214437242E+01  0.19977238710E+02  0.23562359710E+02  0.94066136010E+02  0.88834306451E+02 0.  0.
         11    1    3    3    0    0  0.11656139396E+02  0.53416983395E+02  0.22541007220E+02  0.59138284616E+02  0.51100000000E-03 0.  1.
         22    1    1    0    0    0 -0.16214437242E+01 -0.19977238710E+02 -0.23562359710E+02  0.30933863990E+02  0.00000000000E+00 0.  1.
</event>
<event>
 5    1  0.1692171E-003  0.9118800E+02  0.7818608E-02  0.1130116E+00
         25   -1    0    0    0    0  0.00000000000E+00  0.00000000000E+00  0.99999998245E-14  0.12500000000E+03  0.12500000000E+03 0.  0.
        -11    1    3    3    0    0  0.72959270179E+00  0.40005623916E+02 -0.34896381993E+02  0.53091804705E+02  0.51100000000E-03 0. -1.
         23    2    1    0    0    0 -0.20000270743E+02  0.61233707419E+01 -0.21483157752E+02  0.95016128235E+02  0.90161144950E+02 0.  0.
         11    1    3    3    0    0 -0.20729863445E+02 -0.33882253174E+02  0.13413224241E+02  0.41924323529E+02  0.51100000000E-03 0.  1.
         22    1    1    0    0    0  0.20000270743E+02 -0.61233707419E+01  0.21483157752E+02  0.29983871765E+02  0.00000000000E+00 0. -1.
</event>
<event>
 5    1  0.1692171E-003  0.9118800E+02  0.7818608E-02  0.1130116E+00
         25   -1    0    0    0    0  0.00000000000E+00  0.00000000000E+00  0.99999998245E-14  0.12500000000E+03  0.12500000000E+03 0.  0.
        -11    1    3    3    0    0  0.26700389411E+02  0.69048497960E+01  0.35596286527E+02  0.45029805243E+02  0.51100000000E-03 0.  1.
         23    2    1    0    0    0  0.15143813547E+02 -0.23704184532E+02 -0.42115456393E+01  0.96557767848E+02  0.92273733869E+02 0.  0.
         11    1    3    3    0    0 -0.11556575864E+02 -0.30609034328E+02 -0.39807832167E+02  0.51527962606E+02  0.51100000000E-03 0. -1.
         22    1    1    0    0    0 -0.15143813547E+02  0.23704184532E+02  0.42115456393E+01  0.28442232152E+02  0.00000000000E+00 0. -1.
</event>
<event>
 5    1  0.1692171E-003  0.9118800E+02  0.7818608E-02  0.1130116E+00
         25   -1    0    0    0    0  0.00000000000E+00  0.00000000000E+00  0.99999998245E-14  0.12500000000E+03  0.12500000000E+03 0.  0.
        -11    1    3    3    0    0  0.10361532462E+02 -0.34214388707E+02 -0.18111341664E+02  0.40075010252E+02  0.51100000000E-03 0.  1.
         23    2    1    0    0    0 -0.13435898502E+01 -0.65545449814E+01  0.28610336705E+02  0.95617715202E+02  0.90991366626E+02 0.  0.
         11    1    3    3    0    0 -0.11705122312E+02  0.27659843726E+02  0.46721678369E+02  0.55542704950E+02  0.51100000000E-03 0. -1.
         22    1    1    0    0    0  0.13435898502E+01  0.65545449814E+01 -0.28610336705E+02  0.29382284798E+02  0.00000000000E+00 0. -1.
</event>
<event>
 5    1  0.1692171E-003  0.9118800E+02  0.7818608E-02  0.1130116E+00
         25   -1    0    0    0    0  0.00000000000E+00  0.00000000000E+00  0.99999998245E-14  0.12500000000E+03  0.12500000000E+03 0.  0.
        -11    1    3    3    0    0  0.15804065133E+02  0.26335182423E+02  0.21407383529E+02  0.37437766731E+02  0.51100000000E-03 0.  1.
         23    2    1    0    0    0 -0.27388126958E+02  0.69419883043E+01 -0.10856366974E+02  0.94731841752E+02  0.89766143049E+02 0.  0.
         11    1    3    3    0    0 -0.43192192091E+02 -0.19393194119E+02 -0.32263750503E+02  0.57294075021E+02  0.51100000000E-03 0. -1.
         22    1    1    0    0    0  0.27388126958E+02 -0.69419883043E+01  0.10856366974E+02  0.30268158248E+02  0.00000000000E+00 0. -1.
</event>
<event>
 5    1  0.1692171E-003  0.9118800E+02  0.7818608E-02  0.1130116E+00
         25   -1    0    0    0    0  0.00000000000E+00  0.00000000000E+00  0.99999998245E-14  0.12500000000E+03  0.12500000000E+03 0.  0.
        -11    1    3    3    0    0 -0.37789179066E+02 -0.25892372040E+02 -0.95400423981E+01  0.46791552587E+02  0.51100000000E-03 0.  1.
         23    2    1    0    0    0  0.12362924602E+02 -0.23274920554E+02 -0.94213243710E+01  0.97012052872E+02  0.92887099309E+02 0.  0.
         11    1    3    3    0    0  0.50152103668E+02  0.26174514855E+01  0.11871802709E+00  0.50220500285E+02  0.51100000000E-03 0. -1.
         22    1    1    0    0    0 -0.12362924602E+02  0.23274920554E+02  0.94213243710E+01  0.27987947128E+02  0.00000000000E+00 0.  1.
</event>
<event>
 5    1  0.1692171E-003  0.9118800E+02  0.7818608E-02  0.1130116E+00
         25   -1    0    0    0    0  0.00000000000E+00  0.00000000000E+00  0.99999998245E-14  0.12500000000E+03  0.12500000000E+03 0.  0.
        -11    1    3    3    0    0 -0.10900866062E+02 -0.33797606786E+02  0.30435953396E+02  0.46770229470E+02  0.51100000000E-03 0. -1.
         23    2    1    0    0    0 -0.12721684133E+02 -0.20783086922E+02 -0.16539695988E+02  0.95549371949E+02  0.90897431137E+02 0.  0.
         11    1    3    3    0    0 -0.18208180709E+01  0.13014519863E+02 -0.46975649384E+02  0.48779142479E+02  0.51100000000E-03 0.  1.
         22    1    1    0    0    0  0.12721684133E+02  0.20783086922E+02  0.16539695988E+02  0.29450628051E+02  0.00000000000E+00 0.  1.
</event>
<event>
 5    1  0.1692171E-003  0.9118800E+02  0.7818608E-02  0.1130116E+00
         25   -1    0    0    0    0  0.00000000000E+00  0.00000000000E+00  0.99999998245E-14  0.12500000000E+03  0.12500000000E+03 0.  0.
        -11    1    3    3    0    0  0.41694094955E+02  0.71072289089E+00 -0.66878017242E+00  0.41705514604E+02  0.51100000000E-03 0.  1.
         23    2    1    0    0    0 -0.20061276632E+01  0.88784511361E+00 -0.30374416689E+02  0.94546461513E+02  0.89507627487E+02 0.  0.
         11    1    3    3    0    0 -0.43700222618E+02  0.17712222272E+00 -0.29705636517E+02  0.52840946910E+02  0.51100000000E-03 0. -1.
         22    1    1    0    0    0  0.20061276632E+01 -0.88784511361E+00  0.30374416689E+02  0.30453538487E+02  0.00000000000E+00 0. -1.
</event>
<event>
 5    1  0.1692171E-003  0.9118800E+02  0.7818608E-02  0.1130116E+00
         25   -1    0    0    0    0  0.00000000000E+00  0.00000000000E+00  0.99999998245E-14  0.12500000000E+03  0.12500000000E+03 0.  0.
        -11    1    3    3    0    0  0.31785761981E+02  0.46242849230E+01 -0.22313101060E+02  0.39110013487E+02  0.51100000000E-03 0.  1.
         23    2    1    0    0    0 -0.62746892570E+01  0.16382040107E+01  0.24580046701E+02  0.99578864433E+02  0.96279364915E+02 0.  0.
         11    1    3    3    0    0 -0.38060451238E+02 -0.29860809123E+01  0.46893147761E+02  0.60468850947E+02  0.51100000000E-03 0. -1.
         22    1    1    0    0    0  0.62746892570E+01 -0.16382040107E+01 -0.24580046701E+02  0.25421135567E+02  0.00000000000E+00 0. -1.
</event>
<event>
 5    1  0.1692171E-003  0.9118800E+02  0.7818608E-02  0.1130116E+00
         25   -1    0    0    0    0  0.00000000000E+00  0.00000000000E+00  0.99999998245E-14  0.12500000000E+03  0.12500000000E+03 0.  0.
        -11    1    3    3    0    0  0.18121887396E+02  0.16312403036E+02 -0.57264509101E+02  0.62239226364E+02  0.51100000000E-03 0.  1.
         23    2    1    0    0    0  0.79202840700E+01  0.36728978080E+01 -0.27501984242E+02  0.96145533876E+02  0.91713594788E+02 0.  0.
         11    1    3    3    0    0 -0.10201603326E+02 -0.12639505228E+02  0.29762524859E+02  0.33906307511E+02  0.51100000000E-03 0. -1.
         22    1    1    0    0    0 -0.79202840700E+01 -0.36728978080E+01  0.27501984242E+02  0.28854466124E+02  0.00000000000E+00 0.  1.
</event>
<event>
 5    1  0.1692171E-003  0.9118800E+02  0.7818608E-02  0.1130116E+00
         25   -1    0    0    0    0  0.00000000000E+00  0.00000000000E+00  0.99999998245E-14  0.12500000000E+03  0.12500000000E+03 0.  0.
        -11    1    3    3    0    0 -0.33170042037E+02 -0.47752266669E+02  0.15849538078E+02  0.60263907260E+02  0.51100000000E-03 0. -1.
         23    2    1    0    0    0 -0.11933769814E+02 -0.26583886151E+02 -0.30395637534E+01  0.95702272909E+02  0.91107454291E+02 0.  0.
         11    1    3    3    0    0  0.21236272223E+02  0.21168380517E+02 -0.18889101831E+02  0.35438365649E+02  0.51100000000E-03 0.  1.
         22    1    1    0    0    0  0.11933769814E+02  0.26583886151E+02  0.30395637534E+01  0.29297727091E+02  0.00000000000E+00 0. -1.
</event>
<event>
 5    1  0.1692171E-003  0.9118800E+02  0.7818608E-02  0.1130116E+00
         25   -1    0    0    0    0  0.00000000000E+00  0.00000000000E+00  0.99999998245E-14  0.12500000000E+03  0.12500000000E+03 0.  0.
        -11    1    3    3    0    0 -0.26810654166E+02  0.34584169399E+02 -0.97110055109E+01  0.44823872860E+02  0.51100000000E-03 0.  1.
         23    2    1    0    0    0 -0.24613087161E+02 -0.10530516673E+02  0.12840291529E+02  0.95308773559E+02  0.90565961541E+02 0.  0.
         11    1    3    3    0    0  0.21975670053E+01 -0.45114686073E+02  0.22551297040E+02  0.50484900699E+02  0.51100000000E-03 0. -1.
         22    1    1    0    0    0  0.24613087161E+02  0.10530516673E+02 -0.12840291529E+02  0.29691226441E+02  0.00000000000E+00 0. -1.
</event>
<event>
 5    1  0.1692171E-003  0.9118800E+02  0.7818608E-02  0.1130116E+00
         25   -1    0    0    0    0  0.00000000000E+00  0.00000000000E+00  0.99999998245E-14  0.12500000000E+03  0.12500000000E+03 0.  0.
        -11    1    3    3    0    0 -0.13632730199E+02 -0.43604754546E+02 -0.63961358423E+01  0.46131729922E+02  0.51100000000E-03 0.  1.
         23    2    1    0    0    0  0.23402997197E+02 -0.15190851231E+02  0.96269861116E+01  0.95484900466E+02  0.90808728196E+02 0.  0.
         11    1    3    3    0    0  0.37035727396E+02  0.28413903315E+02  0.16023121954E+02  0.49353170544E+02  0.51100000000E-03 0. -1.
         22    1    1    0    0    0 -0.23402997197E+02  0.15190851231E+02 -0.96269861116E+01  0.29515099534E+02  0.00000000000E+00 0.  1.
</event>
<event>
 5    1  0.1692171E-003  0.9118800E+02  0.7818608E-02  0.1130116E+00
         25   -1    0    0    0    0  0.00000000000E+00  0.00000000000E+00  0.99999998245E-14  0.12500000000E+03  0.12500000000E+03 0.  0.
        -11    1    3    3    0    0  0.17970611095E+02  0.28708312064E+02 -0.30202300160E+02  0.45379389373E+02  0.51100000000E-03 0. -1.
         23    2    1    0    0    0  0.74364994307E+01  0.29914801830E+02  0.14222408141E+02  0.91051895698E+02  0.84486531025E+02 0.  0.
         11    1    3    3    0    0 -0.10534111665E+02  0.12064897669E+01  0.44424708301E+02  0.45672506325E+02  0.51100000000E-03 0.  1.
         22    1    1    0    0    0 -0.74364994307E+01 -0.29914801830E+02 -0.14222408141E+02  0.33948104302E+02  0.00000000000E+00 0. -1.
</event>
<event>
 5    1  0.1692171E-003  0.9118800E+02  0.7818608E-02  0.1130116E+00
         25   -1    0    0    0    0  0.00000000000E+00  0.00000000000E+00  0.99999998245E-14  0.12500000000E+03  0.12500000000E+03 0.  0.
        -11    1    3    3    0    0  0.39903346133E+02  0.25820465279E+02 -0.15763939971E+02  0.50074696839E+02  0.51100000000E-03 0.  1.
         23    2    1    0    0    0 -0.40974483641E+01  0.13054729244E+02 -0.24709529873E+02  0.96755072929E+02  0.92540630169E+02 0.  0.
         11    1    3    3    0    0 -0.44000794497E+02 -0.12765736035E+02 -0.89455899020E+01  0.46680376090E+02  0.51100000000E-03 0. -1.
         22    1    1    0    0    0  0.40974483641E+01 -0.13054729244E+02  0.24709529873E+02  0.28244927071E+02  0.00000000000E+00 0. -1.
</event>
<event>
 5    1  0.1692171E-003  0.9118800E+02  0.7818608E-02  0.1130116E+00
         25   -1    0    0    0    0  0.00000000000E+00  0.00000000000E+00  0.99999998245E-14  0.12500000000E+03  0.12500000000E+03 0.  0.
        -11    1    3    3    0    0  0.10104508380E+00 -0.31191602478E+02 -0.34223530355E+02  0.46305251381E+02  0.51100000000E-03 0. -1.
         23    2    1    0    0    0 -0.28627659081E+02 -0.41233499057E+01 -0.44732828838E+01  0.95733036737E+02  0.91149652683E+02 0.  0.
         11    1    3    3    0    0 -0.28728704164E+02  0.27068252572E+02  0.29750247471E+02  0.49427785356E+02  0.51100000000E-03 0.  1.
         22    1    1    0    0    0  0.28627659081E+02  0.41233499057E+01  0.44732828838E+01  0.29266963263E+02  0.00000000000E+00 0.  1.
</event>
<event>
 5    1  0.1692171E-003  0.9118800E+02  0.7818608E-02  0.1130116E+00
         25   -1    0    0    0    0  0.00000000000E+00  0.00000000000E+00  0.99999998245E-14  0.12500000000E+03  0.12500000000E+03 0.  0.
        -11    1    3    3    0    0  0.43651185616E+02 -0.41158615833E+02 -0.14616922893E+02  0.61750401603E+02  0.51100000000E-03 0. -1.
         23    2    1    0    0    0  0.16442133259E+02 -0.22422811721E+02 -0.19667762530E+01  0.97125379995E+02  0.93039480860E+02 0.  0.
         11    1    3    3    0    0 -0.27209052358E+02  0.18735804112E+02  0.12650146640E+02  0.35374978392E+02  0.51100000000E-03 0.  1.
         22    1    1    0    0    0 -0.16442133259E+02  0.22422811721E+02  0.19667762530E+01  0.27874620005E+02  0.00000000000E+00 0. -1.
</event>
<event>
 5    1  0.1692171E-003  0.9118800E+02  0.7818608E-02  0.1130116E+00
         25   -1    0    0    0    0  0.00000000000E+00  0.00000000000E+00  0.99999998245E-14  0.12500000000E+03  0.12500000000E+03 0.  0.
        -11    1    3    3    0    0 -0.14247890942E+02  0.36456549125E+02  0.42016381822E+01  0.39366688127E+02  0.51100000000E-03 0. -1.
         23    2    1    0    0    0 -0.17073233804E+02 -0.15596001274E+02 -0.17669162482E+02  0.95897940432E+02  0.91375517006E+02 0.  0.
         11    1    3    3    0    0 -0.28253428623E+01 -0.52052550398E+02 -0.21870800664E+02  0.56531252306E+02  0.51100000000E-03 0.  1.
         22    1    1    0    0    0  0.17073233804E+02  0.15596001274E+02  0.17669162482E+02  0.29102059568E+02  0.00000000000E+00 0.  1.
</event>
<event>
 5    1  0.1692171E-003  0.9118800E+02  0.7818608E-02  0.1130116E+00
         25   -1    0    0    0    0  0.00000000000E+00  0.00000000000E+00  0.99999998245E-14  0.12500000000E+03  0.12500000000E+03 0.  0.
        -11    1    3    3    0    0  0.20342700360E+02  0.11804825183E+02  0.32612731871E+02  0.40209074049E+02  0.51100000000E-03 0. -1.
         23    2    1    0    0    0 -0.10280369904E+02  0.30884889795E+02 -0.46977883060E+01  0.92111831337E+02  0.86040443015E+02 0.  0.
         11    1    3    3    0    0 -0.30623070264E+02  0.19080064612E+02 -0.37310520177E+02  0.51902757288E+02  0.51100000000E-03 0.  1.
         22    1    1    0    0    0  0.10280369904E+02 -0.30884889795E+02  0.46977883060E+01  0.32888168663E+02  0.00000000000E+00 0.  1.
</event>
<event>
 5    1  0.1692171E-003  0.9118800E+02  0.7818608E-02  0.1130116E+00
         25   -1    0    0    0    0  0.00000000000E+00  0.00000000000E+00  0.99999998245E-14  0.12500000000E+03  0.12500000000E+03 0.  0.
        -11    1    3    3    0    0  0.17347142303E+02 -0.68510189588E+01 -0.53754115160E+02  0.56897844456E+02  0.51100000000E-03 0. -1.
         23    2    1    0    0    0  0.55511774450E+01 -0.21646367237E+02 -0.23588831467E+02  0.92506712146E+02  0.86612227984E+02 0.  0.
         11    1    3    3    0    0 -0.11795964858E+02 -0.14795348278E+02  0.30165283693E+02  0.35608867689E+02  0.51100000000E-03 0.  1.
         22    1    1    0    0    0 -0.55511774450E+01  0.21646367237E+02  0.23588831467E+02  0.32493287854E+02  0.00000000000E+00 0. -1.
</event>
<event>
 5    1  0.1692171E-003  0.9118800E+02  0.7818608E-02  0.1130116E+00
         25   -1    0    0    0    0  0.00000000000E+00  0.00000000000E+00  0.99999998245E-14  0.12500000000E+03  0.12500000000E+03 0.  0.
        -11    1    3    3    0    0  0.32773755891E+02 -0.17521263482E+02  0.24568468474E+02  0.44550234485E+02  0.51100000000E-03 0.  1.
         23    2    1    0    0    0  0.29112085071E+01  0.24464525347E+02  0.12060170422E+02  0.97569435915E+02  0.93634176339E+02 0.  0.
         11    1    3    3    0    0 -0.29862547384E+02  0.41985788829E+02 -0.12508298052E+02  0.53019201430E+02  0.51100000000E-03 0. -1.
         22    1    1    0    0    0 -0.29112085071E+01 -0.24464525347E+02 -0.12060170422E+02  0.27430564085E+02  0.00000000000E+00 0. -1.
</event>
<event>
 5    1  0.1692171E-003  0.9118800E+02  0.7818608E-02  0.1130116E+00
         25   -1    0    0    0    0  0.00000000000E+00  0.00000000000E+00  0.99999998245E-14  0.12500000000E+03  0.12500000000E+03 0.  0.
        -11    1    3    3    0    0 -0.41013612552E+02 -0.25020139525E+02 -0.36582275058E+02  0.60385318125E+02  0.51100000000E-03 0.  1.
         23    2    1    0    0    0 -0.11634268373E+02 -0.10810132186E+02 -0.25703223145E+02  0.94786247527E+02  0.89841871539E+02 0.  0.
         11    1    3    3    0    0  0.29379344179E+02  0.14210007339E+02  0.10879051912E+02  0.34400929402E+02  0.51100000000E-03 0. -1.
         22    1    1    0    0    0  0.11634268373E+02  0.10810132186E+02  0.25703223145E+02  0.30213752473E+02  0.00000000000E+00 0.  1.
</event>
<event>
 5    1  0.1692171E-003  0.9118800E+02  0.7818608E-02  0.1130116E+00
         25   -1    0    0    0    0  0.00000000000E+00  0.00000000000E+00  0.99999998245E-14  0.12500000000E+03  0.12500000000E+03 0.  0.
        -11    1    3    3    0    0 -0.37749745504E+01 -0.30125954791E+02 -0.38669923224E+02  0.49164891410E+02  0.51100000000E-03 0.  1.
         23    2    1    0    0    0 -0.24930131774E+02 -0.15377304023E+02  0.76239361177E-01  0.95708725502E+02  0.91116306858E+02 0.  0.
         11    1    3    3    0    0 -0.21155157224E+02  0.14748650768E+02  0.38746162585E+02  0.46543834092E+02  0.51100000000E-03 0. -1.
         22    1    1    0    0    0  0.24930131774E+02  0.15377304023E+02 -0.76239361177E-01  0.29291274498E+02  0.00000000000E+00 0. -1.
</event>
<event>
 5    1  0.1692171E-003  0.9118800E+02  0.7818608E-02  0.1130116E+00
         25   -1    0    0    0    0  0.00000000000E+00  0.00000000000E+00  0.99999998245E-14  0.12500000000E+03  0.12500000000E+03 0.  0.
        -11    1    3    3    0    0  0.40944701089E+02  0.15712739841E+02 -0.21356438086E+02  0.48779669828E+02  0.51100000000E-03 0. -1.
         23    2    1    0    0    0 -0.22808396302E+01  0.25579388251E+02 -0.18767197884E+02  0.93192531551E+02  0.87596420519E+02 0.  0.
         11    1    3    3    0    0 -0.43225540719E+02  0.98666484099E+01  0.25892402017E+01  0.44412861723E+02  0.51100000000E-03 0.  1.
         22    1    1    0    0    0  0.22808396302E+01 -0.25579388251E+02  0.18767197884E+02  0.31807468449E+02  0.00000000000E+00 0. -1.
</event>
<event>
 5    1  0.1692171E-003  0.9118800E+02  0.7818608E-02  0.1130116E+00
         25   -1    0    0    0    0  0.00000000000E+00  0.00000000000E+00  0.99999998245E-14  0.12500000000E+03  0.12500000000E+03 0.  0.
        -11    1    3    3    0    0 -0.14195724085E+02  0.30352352981E+02  0.19598174149E+02  0.38818453653E+02  0.51100000000E-03 0. -1.
         23    2    1    0    0    0  0.26368168181E+02  0.64395756739E+01 -0.11787985123E+02  0.95407686449E+02  0.90702379308E+02 0.  0.
         11    1    3    3    0    0  0.40563892266E+02 -0.23912777307E+02 -0.31386159272E+02  0.56589232796E+02  0.51100000000E-03 0.  1.
         22    1    1    0    0    0 -0.26368168181E+02 -0.64395756739E+01  0.11787985123E+02  0.29592313551E+02  0.00000000000E+00 0.  1.
</event>
<event>
 5    1  0.1692171E-003  0.9118800E+02  0.7818608E-02  0.1130116E+00
         25   -1    0    0    0    0  0.00000000000E+00  0.00000000000E+00  0.99999998245E-14  0.12500000000E+03  0.12500000000E+03 0.  0.
        -11    1    3    3    0    0 -0.18651892609E+02 -0.11003015128E+02  0.24463796576E+02  0.32671651060E+02  0.51100000000E-03 0. -1.
         23    2    1    0    0    0  0.10289673867E+02  0.69143359524E+01 -0.27524774895E+02  0.94812276287E+02  0.89878078928E+02 0.  0.
         11    1    3    3    0    0  0.28941566476E+02  0.17917351081E+02 -0.51988571471E+02  0.62140625227E+02  0.51100000000E-03 0.  1.
         22    1    1    0    0    0 -0.10289673867E+02 -0.69143359524E+01  0.27524774895E+02  0.30187723713E+02  0.00000000000E+00 0.  1.
</event>
<event>
 5    1  0.1692171E-003  0.9118800E+02  0.7818608E-02  0.1130116E+00
         25   -1    0    0    0    0  0.00000000000E+00  0.00000000000E+00  0.99999998245E-14  0.12500000000E+03  0.12500000000E+03 0.  0.
        -11    1    3    3    0    0 -0.17629004198E+02  0.57321664378E+02 -0.16082417348E+02  0.62090249993E+02  0.51100000000E-03 0.  1.
         23    2    1    0    0    0 -0.15778565578E+02  0.38820185342E+02 -0.81247089239E+01  0.82315332767E+02  0.70383472433E+02 0.  0.
         11    1    3    3    0    0  0.18504386206E+01 -0.18501479036E+02  0.79577084243E+01  0.20225082775E+02  0.51100000000E-03 0. -1.
         22    1    1    0    0    0  0.15778565578E+02 -0.38820185342E+02  0.81247089239E+01  0.42684667233E+02  0.00000000000E+00 0.  1.
</event>
<event>
 5    1  0.1692171E-003  0.9118800E+02  0.7818608E-02  0.1130116E+00
         25   -1    0    0    0    0  0.00000000000E+00  0.00000000000E+00  0.99999998245E-14  0.12500000000E+03  0.12500000000E+03 0.  0.
        -11    1    3    3    0    0 -0.19932809066E+02 -0.65519777221E+01  0.29388705205E+02  0.36110127156E+02  0.51100000000E-03 0.  1.
         23    2    1    0    0    0  0.20097829376E+02 -0.24347146378E+02 -0.65306161512E+01  0.92760967296E+02  0.86978398606E+02 0.  0.
         11    1    3    3    0    0  0.40030638442E+02 -0.17795168656E+02 -0.35919321356E+02  0.56650840140E+02  0.51100000000E-03 0. -1.
         22    1    1    0    0    0 -0.20097829376E+02  0.24347146378E+02  0.65306161512E+01  0.32239032704E+02  0.00000000000E+00 0. -1.
</event>
<event>
 5    1  0.1692171E-003  0.9118800E+02  0.7818608E-02  0.1130116E+00
         25   -1    0    0    0    0  0.00000000000E+00  0.00000000000E+00  0.99999998245E-14  0.12500000000E+03  0.12500000000E+03 0.  0.
        -11    1    3    3    0    0 -0.21630703241E+02  0.40985934175E+02 -0.40776529131E+01  0.46522697433E+02  0.51100000000E-03 0. -1.
         23    2    1    0    0    0  0.91745374520E+01  0.43644187395E+02  0.79490690412E+01  0.79699062598E+02  0.65572598314E+02 0.  0.
         11    1    3    3    0    0  0.30805240694E+02  0.26582532205E+01  0.12026721954E+02  0.33176365166E+02  0.51100000000E-03 0.  1.
         22    1    1    0    0    0 -0.91745374520E+01 -0.43644187395E+02 -0.79490690412E+01  0.45300937402E+02  0.00000000000E+00 0. -1.
</event>
<event>
 5    1  0.1692171E-003  0.9118800E+02  0.7818608E-02  0.1130116E+00
         25   -1    0    0    0    0  0.00000000000E+00  0.00000000000E+00  0.99999998245E-14  0.12500000000E+03  0.12500000000E+03 0.  0.
        -11    1    3    3    0    0 -0.44973165089E+02 -0.13130279707E+01  0.24937326482E+01  0.45061383948E+02  0.51100000000E-03 0. -1.
         23    2    1    0    0    0 -0.19789620612E+01 -0.14529069826E+02  0.25501132985E+02  0.95583712940E+02  0.90944643795E+02 0.  0.
         11    1    3    3    0    0  0.42994203027E+02 -0.13216041856E+02  0.23007400337E+02  0.50522328992E+02  0.51100000000E-03 0.  1.
         22    1    1    0    0    0  0.19789620612E+01  0.14529069826E+02 -0.25501132985E+02  0.29416287060E+02  0.00000000000E+00 0.  1.
</event>
<event>
 5    1  0.1692171E-003  0.9118800E+02  0.7818608E-02  0.1130116E+00
         25   -1    0    0    0    0  0.00000000000E+00  0.00000000000E+00  0.99999998245E-14  0.12500000000E+03  0.12500000000E+03 0.  0.
        -11    1    3    3    0    0 -0.17277455971E+02 -0.30659506983E+02  0.37849354558E+01  0.35395502397E+02  0.51100000000E-03 0.  1.
         23    2    1    0    0    0  0.22520302956E+01  0.25198600504E+02  0.14950792217E+02  0.95613484457E+02  0.90985554427E+02 0.  0.
         11    1    3    3    0    0  0.19529486267E+02  0.55858107488E+02  0.11165856761E+02  0.60217982060E+02  0.51100000000E-03 0. -1.
         22    1    1    0    0    0 -0.22520302956E+01 -0.25198600504E+02 -0.14950792217E+02  0.29386515543E+02  0.00000000000E+00 0. -1.
</event>
<event>
 5    1  0.1692171E-003  0.9118800E+02  0.7818608E-02  0.1130116E+00
         25   -1    0    0    0    0  0.00000000000E+00  0.00000000000E+00  0.99999998245E-14  0.12500000000E+03  0.12500000000E+03 0.  0.
        -11    1    3    3    0    0 -0.28524089655E+02 -0.32692507038E+02  0.36682596500E+02  0.56815812881E+02  0.51100000000E-03 0.  1.
         23    2    1    0    0    0 -0.15208621175E+01 -0.28829875088E+02  0.11554749200E+02  0.93903586248E+02  0.88605285180E+02 0.  0.
         11    1    3    3    0    0  0.27003227538E+02  0.38626319494E+01 -0.25127847301E+02  0.37087773366E+02  0.51100000000E-03 0. -1.
         22    1    1    0    0    0  0.15208621175E+01  0.28829875088E+02 -0.11554749200E+02  0.31096413752E+02  0.00000000000E+00 0.  1.
</event>
<event>
 5    1  0.1692171E-003  0.9118800E+02  0.7818608E-02  0.1130116E+00
         25   -1    0    0    0    0  0.00000000000E+00  0.00000000000E+00  0.99999998245E-14  0.12500000000E+03  0.12500000000E+03 0.  0.
        -11    1    3    3    0    0 -0.86019137915E+01  0.17724811659E+02  0.54734468813E+02  0.58172364106E+02  0.51100000000E-03 0.  1.
         23    2    1    0    0    0  0.11202565080E+02  0.12961792369E+02  0.18174891870E+02  0.10002336651E+03  0.96854744998E+02 0.  0.
         11    1    3    3    0    0  0.19804478871E+02 -0.47630192891E+01 -0.36559576943E+02  0.41851002409E+02  0.51100000000E-03 0. -1.
         22    1    1    0    0    0 -0.11202565080E+02 -0.12961792369E+02 -0.18174891870E+02  0.24976633486E+02  0.00000000000E+00 0.  1.
</event>
<event>
 5    1  0.1692171E-003  0.9118800E+02  0.7818608E-02  0.1130116E+00
         25   -1    0    0    0    0  0.00000000000E+00  0.00000000000E+00  0.99999998245E-14  0.12500000000E+03  0.12500000000E+03 0.  0.
        -11    1    3    3    0    0  0.34117421298E+02  0.26397971094E+02 -0.67668310197E-01  0.43137638938E+02  0.51100000000E-03 0.  1.
         23    2    1    0    0    0 -0.15963082457E+02  0.21923613144E+02  0.12760718640E+02  0.95028334129E+02  0.90178065694E+02 0.  0.
         11    1    3    3    0    0 -0.50080503755E+02 -0.44743579491E+01  0.12828386950E+02  0.51890695191E+02  0.51100000000E-03 0. -1.
         22    1    1    0    0    0  0.15963082457E+02 -0.21923613144E+02 -0.12760718640E+02  0.29971665871E+02  0.00000000000E+00 0.  1.
</event>
<event>
 5    1  0.1692171E-003  0.9118800E+02  0.7818608E-02  0.1130116E+00
         25   -1    0    0    0    0  0.00000000000E+00  0.00000000000E+00  0.99999998245E-14  0.12500000000E+03  0.12500000000E+03 0.  0.
        -11    1    3    3    0    0  0.38646313653E+02  0.24588255079E+02 -0.38221786141E+02  0.59657562663E+02  0.51100000000E-03 0. -1.
         23    2    1    0    0    0  0.63662004699E+01  0.17284057935E+02 -0.21338642007E+02  0.96811264486E+02  0.92616500267E+02 0.  0.
         11    1    3    3    0    0 -0.32280113183E+02 -0.73041971440E+01  0.16883144134E+02  0.37153701823E+02  0.51100000000E-03 0.  1.
         22    1    1    0    0    0 -0.63662004699E+01 -0.17284057935E+02  0.21338642007E+02  0.28188735514E+02  0.00000000000E+00 0. -1.
</event>
<event>
 5    1  0.1692171E-003  0.9118800E+02  0.7818608E-02  0.1130116E+00
         25   -1    0    0    0    0  0.00000000000E+00  0.00000000000E+00  0.99999998245E-14  0.12500000000E+03  0.12500000000E+03 0.  0.
        -11    1    3    3    0    0 -0.23612713590E+01 -0.52552521185E+02 -0.12079764501E+02  0.53974658832E+02  0.51100000000E-03 0.  1.
         23    2    1    0    0    0  0.21421179653E+02 -0.18483508885E+02 -0.26279137013E+01  0.96584986911E+02  0.92310599217E+02 0.  0.
         11    1    3    3    0    0  0.23782451012E+02  0.34069012300E+02  0.94518508001E+01  0.42610328079E+02  0.51100000000E-03 0. -1.
         22    1    1    0    0    0 -0.21421179653E+02  0.18483508885E+02  0.26279137013E+01  0.28415013089E+02  0.00000000000E+00 0.  1.
</event>
<event>
 5    1  0.1692171E-003  0.9118800E+02  0.7818608E-02  0.1130116E+00
         25   -1    0    0    0    0  0.00000000000E+00  0.00000000000E+00  0.99999998245E-14  0.12500000000E+03  0.12500000000E+03 0.  0.
        -11    1    3    3    0    0 -0.13341251244E+02  0.35076762248E+02  0.45790778969E+02  0.59204422752E+02  0.51100000000E-03 0. -1.
         23    2    1    0    0    0  0.51961613238E+01  0.95417555904E+01  0.26918059774E+02  0.95971959518E+02  0.91476717690E+02 0.  0.
         11    1    3    3    0    0  0.18537412568E+02 -0.25535006658E+02 -0.18872719195E+02  0.36767536765E+02  0.51100000000E-03 0.  1.
         22    1    1    0    0    0 -0.51961613238E+01 -0.95417555904E+01 -0.26918059774E+02  0.29028040482E+02  0.00000000000E+00 0. -1.
</event>
<event>
 5    1  0.1692171E-003  0.9118800E+02  0.7818608E-02  0.1130116E+00
         25   -1    0    0    0    0  0.00000000000E+00  0.00000000000E+00  0.99999998245E-14  0.12500000000E+03  0.12500000000E+03 0.  0.
        -11    1    3    3    0    0  0.48590412726E+02  0.27061937497E+02  0.67494305549E+00  0.55622227736E+02  0.51100000000E-03 0.  1.
         23    2    1    0    0    0  0.20511983067E+02  0.12170711103E+01  0.18139445727E+02  0.97590837249E+02  0.93662742392E+02 0.  0.
         11    1    3    3    0    0 -0.28078429659E+02 -0.25844866387E+02  0.17464502671E+02  0.41968609513E+02  0.51100000000E-03 0. -1.
         22    1    1    0    0    0 -0.20511983067E+02 -0.12170711103E+01 -0.18139445727E+02  0.27409162751E+02  0.00000000000E+00 0.  1.
</event>
<event>
 5    1  0.1692171E-003  0.9118800E+02  0.7818608E-02  0.1130116E+00
         25   -1    0    0    0    0  0.00000000000E+00  0.00000000000E+00  0.99999998245E-14  0.12500000000E+03  0.12500000000E+03 0.  0.
        -11    1    3    3    0    0 -0.22352407156E+02 -0.31096140589E+02  0.80599451124E+01  0.39135185967E+02  0.51100000000E-03 0. -1.
         23    2    1    0    0    0 -0.11593518970E+02  0.24962622117E+02  0.84173595108E+01  0.96218163259E+02  0.91812530815E+02 0.  0.
         11    1    3    3    0    0  0.10758888187E+02  0.56058762706E+02  0.35741439840E+00  0.57082977292E+02  0.51100000000E-03 0.  1.
         22    1    1    0    0    0  0.11593518970E+02 -0.24962622117E+02 -0.84173595108E+01  0.28781836741E+02  0.00000000000E+00 0.  1.
</event>
<event>
 5    1  0.1692171E-003  0.9118800E+02  0.7818608E-02  0.1130116E+00
         25   -1    0    0    0    0  0.00000000000E+00  0.00000000000E+00  0.99999998245E-14  0.12500000000E+03  0.12500000000E+03 0.  0.
        -11    1    3    3    0    0  0.60816895193E-02 -0.41187813566E+02 -0.36184943938E+02  0.54825050765E+02  0.51100000000E-03 0. -1.
         23    2    1    0    0    0  0.20202387460E+02 -0.10183659201E+02 -0.18188128128E+02  0.95971541918E+02  0.91476147053E+02 0.  0.
         11    1    3    3    0    0  0.20196305770E+02  0.31004154365E+02  0.17996815811E+02  0.41146491153E+02  0.51100000000E-03 0.  1.
         22    1    1    0    0    0 -0.20202387460E+02  0.10183659201E+02  0.18188128128E+02  0.29028458082E+02  0.00000000000E+00 0. -1.
</event>
<event>
 5    1  0.1692171E-003  0.9118800E+02  0.7818608E-02  0.1130116E+00
         25   -1    0    0    0    0  0.00000000000E+00  0.00000000000E+00  0.99999998245E-14  0.12500000000E+03  0.12500000000E+03 0.  0.
        -11    1    3    3    0    0  0.70440655684E+01 -0.32984395148E+02  0.23555584079E+01  0.33810321481E+02  0.51100000000E-03 0. -1.
         23    2    1    0    0    0 -0.18896815088E+01  0.23891672372E+02 -0.18160888476E+02  0.94930068587E+02  0.90041752242E+02 0.  0.
         11    1    3    3    0    0 -0.89337470772E+01  0.56876067519E+02 -0.20516446884E+02  0.61119747106E+02  0.51100000000E-03 0.  1.
         22    1    1    0    0    0  0.18896815088E+01 -0.23891672372E+02  0.18160888476E+02  0.30069931413E+02  0.00000000000E+00 0.  1.
</event>
<event>
 5    1  0.1692171E-003  0.9118800E+02  0.7818608E-02  0.1130116E+00
         25   -1    0    0    0    0  0.00000000000E+00  0.00000000000E+00  0.99999998245E-14  0.12500000000E+03  0.12500000000E+03 0.  0.
        -11    1    3    3    0    0 -0.13071689543E+02 -0.39637903618E+02  0.35881154247E+02  0.55040800331E+02  0.51100000000E-03 0.  1.
         23    2    1    0    0    0 -0.27725131517E+01 -0.29499722913E+02 -0.17167857705E+01  0.95320582309E+02  0.90582258623E+02 0.  0.
         11    1    3    3    0    0  0.10299176392E+02  0.10138180705E+02 -0.37597940017E+02  0.40279781978E+02  0.51100000000E-03 0. -1.
         22    1    1    0    0    0  0.27725131517E+01  0.29499722913E+02  0.17167857705E+01  0.29679417691E+02  0.00000000000E+00 0.  1.
</event>
<event>
 5    1  0.1692171E-003  0.9118800E+02  0.7818608E-02  0.1130116E+00
         25   -1    0    0    0    0  0.00000000000E+00  0.00000000000E+00  0.99999998245E-14  0.12500000000E+03  0.12500000000E+03 0.  0.
        -11    1    3    3    0    0  0.72639133208E+01 -0.31508847231E+02  0.23214533442E+02  0.39805608320E+02  0.51100000000E-03 0. -1.
         23    2    1    0    0    0  0.38896533815E+00 -0.86038910074E+01 -0.27665144775E+02  0.96025209752E+02  0.91549453510E+02 0.  0.
         11    1    3    3    0    0 -0.68749479826E+01  0.22904956223E+02 -0.50879678217E+02  0.56219601431E+02  0.51100000000E-03 0.  1.
         22    1    1    0    0    0 -0.38896533815E+00  0.86038910074E+01  0.27665144775E+02  0.28974790248E+02  0.00000000000E+00 0.  1.
</event>
<event>
 5    1  0.1692171E-003  0.9118800E+02  0.7818608E-02  0.1130116E+00
         25   -1    0    0    0    0  0.00000000000E+00  0.00000000000E+00  0.99999998245E-14  0.12500000000E+03  0.12500000000E+03 0.  0.
        -11    1    3    3    0    0 -0.13422760288E+02 -0.25863060368E+02  0.24078441543E+02  0.37799996465E+02  0.51100000000E-03 0. -1.
         23    2    1    0    0    0 -0.13337187210E+02 -0.16365834689E+01 -0.27282470663E+02  0.94587960055E+02  0.89565562655E+02 0.  0.
         11    1    3    3    0    0  0.85573077484E-01  0.24226476899E+02 -0.51360912207E+02  0.56787963590E+02  0.51100000000E-03 0.  1.
         22    1    1    0    0    0  0.13337187210E+02  0.16365834689E+01  0.27282470663E+02  0.30412039945E+02  0.00000000000E+00 0.  1.
</event>
<event>
 5    1  0.1692171E-003  0.9118800E+02  0.7818608E-02  0.1130116E+00
         25   -1    0    0    0    0  0.00000000000E+00  0.00000000000E+00  0.99999998245E-14  0.12500000000E+03  0.12500000000E+03 0.  0.
        -11    1    3    3    0    0  0.21439868460E+02  0.55920298002E+02  0.58300098223E+01  0.60172557723E+02  0.51100000000E-03 0. -1.
         23    2    1    0    0    0 -0.17414642867E+01  0.28829267202E+02  0.35530432031E+01  0.95900455995E+02  0.91378958184E+02 0.  0.
         11    1    3    3    0    0 -0.23181332747E+02 -0.27091030799E+02 -0.22769666192E+01  0.35727898272E+02  0.51100000000E-03 0.  1.
         22    1    1    0    0    0  0.17414642867E+01 -0.28829267202E+02 -0.35530432031E+01  0.29099544005E+02  0.00000000000E+00 0. -1.
</event>
<event>
 5    1  0.1692171E-003  0.9118800E+02  0.7818608E-02  0.1130116E+00
         25   -1    0    0    0    0  0.00000000000E+00  0.00000000000E+00  0.99999998245E-14  0.12500000000E+03  0.12500000000E+03 0.  0.
        -11    1    3    3    0    0 -0.21408770701E+02  0.18612976258E+02  0.15101453027E+01  0.28408781868E+02  0.51100000000E-03 0.  1.
         23    2    1    0    0    0  0.13415515382E+02 -0.30719175495E+02 -0.10288093817E+02  0.89935934770E+02  0.82818981475E+02 0.  0.
         11    1    3    3    0    0  0.34824286083E+02 -0.49332151753E+02 -0.11798239120E+02  0.61527152903E+02  0.51100000000E-03 0. -1.
         22    1    1    0    0    0 -0.13415515382E+02  0.30719175495E+02  0.10288093817E+02  0.35064065230E+02  0.00000000000E+00 0. -1.
</event>
<event>
 5    1  0.1692171E-003  0.9118800E+02  0.7818608E-02  0.1130116E+00
         25   -1    0    0    0    0  0.00000000000E+00  0.00000000000E+00  0.99999998245E-14  0.12500000000E+03  0.12500000000E+03 0.  0.
        -11    1    3    3    0    0 -0.23868418784E+02  0.33118979783E+02  0.69633421583E+01  0.41413239083E+02  0.51100000000E-03 0.  1.
         23    2    1    0    0    0 -0.15994493110E+02 -0.17982671190E+02 -0.13944744378E+02  0.97185324579E+02  0.93119982522E+02 0.  0.
         11    1    3    3    0    0  0.78739256738E+01 -0.51101650973E+02 -0.20908086536E+02  0.55772085496E+02  0.51100000000E-03 0. -1.
         22    1    1    0    0    0  0.15994493110E+02  0.17982671190E+02  0.13944744378E+02  0.27814675421E+02  0.00000000000E+00 0. -1.
</event>
<event>
 5    1  0.1692171E-003  0.9118800E+02  0.7818608E-02  0.1130116E+00
         25   -1    0    0    0    0  0.00000000000E+00  0.00000000000E+00  0.99999998245E-14  0.12500000000E+03  0.12500000000E+03 0.  0.
        -11    1    3    3    0    0 -0.48093777331E+02  0.36966329957E+02  0.33649931141E+01  0.60752318042E+02  0.51100000000E-03 0.  1.
         23    2    1    0    0    0 -0.20879891654E+02  0.15735443205E+02  0.11848199131E+02  0.96295403313E+02  0.91917630671E+02 0.  0.
         11    1    3    3    0    0  0.27213885678E+02 -0.21230886752E+02  0.84832060174E+01  0.35543085271E+02  0.51100000000E-03 0. -1.
         22    1    1    0    0    0  0.20879891654E+02 -0.15735443205E+02 -0.11848199131E+02  0.28704596687E+02  0.00000000000E+00 0.  1.
</event>
<event>
 5    1  0.1692171E-003  0.9118800E+02  0.7818608E-02  0.1130116E+00
         25   -1    0    0    0    0  0.00000000000E+00  0.00000000000E+00  0.99999998245E-14  0.12500000000E+03  0.12500000000E+03 0.  0.
        -11    1    3    3    0    0 -0.13248399661E+01 -0.60333819709E+02  0.39348108364E+01  0.60476505671E+02  0.51100000000E-03 0.  1.
         23    2    1    0    0    0  0.74924544146E+01 -0.25261547241E+02  0.93451723770E+01  0.97042623712E+02  0.92928229984E+02 0.  0.
         11    1    3    3    0    0  0.88172943806E+01  0.35072272468E+02  0.54103615406E+01  0.36566118040E+02  0.51100000000E-03 0. -1.
         22    1    1    0    0    0 -0.74924544146E+01  0.25261547241E+02 -0.93451723770E+01  0.27957376288E+02  0.00000000000E+00 0.  1.
</event>
<event>
 5    1  0.1692171E-003  0.9118800E+02  0.7818608E-02  0.1130116E+00
         25   -1    0    0    0    0  0.00000000000E+00  0.00000000000E+00  0.99999998245E-14  0.12500000000E+03  0.12500000000E+03 0.  0.
        -11    1    3    3    0    0  0.26528033543E+02  0.20963326591E+02  0.47947569009E+01  0.34149484907E+02  0.51100000000E-03 0. -1.
         23    2    1    0    0    0 -0.83103862481E+01 -0.26729352004E+02 -0.10407274514E+02  0.95136441254E+02  0.90327793694E+02 0.  0.
         11    1    3    3    0    0 -0.34838419791E+02 -0.47692678595E+02 -0.15202031414E+02  0.60986956347E+02  0.51100000000E-03 0.  1.
         22    1    1    0    0    0  0.83103862481E+01  0.26729352004E+02  0.10407274514E+02  0.29863558746E+02  0.00000000000E+00 0.  1.
</event>
<event>
 5    1  0.1692171E-003  0.9118800E+02  0.7818608E-02  0.1130116E+00
         25   -1    0    0    0    0  0.00000000000E+00  0.00000000000E+00  0.99999998245E-14  0.12500000000E+03  0.12500000000E+03 0.  0.
        -11    1    3    3    0    0 -0.28616135046E+02 -0.62387183865E+01  0.54633387629E+02  0.61988804119E+02  0.51100000000E-03 0. -1.
         23    2    1    0    0    0 -0.15793538889E+02 -0.76533333290E+01  0.23658689917E+02  0.95542522337E+02  0.90888011224E+02 0.  0.
         11    1    3    3    0    0  0.12822596157E+02 -0.14146149425E+01 -0.30974697712E+02  0.33553718218E+02  0.51100000000E-03 0.  1.
         22    1    1    0    0    0  0.15793538889E+02  0.76533333290E+01 -0.23658689917E+02  0.29457477663E+02  0.00000000000E+00 0. -1.
</event>
<event>
 5    1  0.1692171E-003  0.9118800E+02  0.7818608E-02  0.1130116E+00
         25   -1    0    0    0    0  0.00000000000E+00  0.00000000000E+00  0.99999998245E-14  0.12500000000E+03  0.12500000000E+03 0.  0.
        -11    1    3    3    0    0 -0.57218057163E+02 -0.11961878984E+02 -0.64109584276E+01  0.58805552481E+02  0.51100000000E-03 0. -1.
         23    2    1    0    0    0 -0.27101365476E+02  0.68636531108E+01  0.59599231075E+01  0.96414786548E+02  0.92079838385E+02 0.  0.
         11    1    3    3    0    0  0.30116691688E+02  0.18825532095E+02  0.12370881535E+02  0.37609234067E+02  0.51100000000E-03 0.  1.
         22    1    1    0    0    0  0.27101365476E+02 -0.68636531108E+01 -0.59599231075E+01  0.28585213452E+02  0.00000000000E+00 0. -1.
</event>
<event>
 5    1  0.1692171E-003  0.9118800E+02  0.7818608E-02  0.1130116E+00
         25   -1    0    0    0    0  0.00000000000E+00  0.00000000000E+00  0.99999998245E-14  0.12500000000E+03  0.12500000000E+03 0.  0.
        -11    1    3    3    0    0  0.73744498502E+01  0.77827901858E+00 -0.48391547409E+02  0.48956410098E+02  0.51100000000E-03 0. -1.
         23    2    1    0    0    0 -0.22021314785E+02  0.13192983876E+02 -0.14453693852E+02  0.95539816796E+02  0.90884290167E+02 0.  0.
         11    1    3    3    0    0 -0.29395764636E+02  0.12414704858E+02  0.33937853558E+02  0.46583406698E+02  0.51100000000E-03 0.  1.
         22    1    1    0    0    0  0.22021314785E+02 -0.13192983876E+02  0.14453693852E+02  0.29460183204E+02  0.00000000000E+00 0.  1.
</event>
<event>
 5    1  0.1692171E-003  0.9118800E+02  0.7818608E-02  0.1130116E+00
         25   -1    0    0    0    0  0.00000000000E+00  0.00000000000E+00  0.99999998245E-14  0.12500000000E+03  0.12500000000E+03 0.  0.
        -11    1    3    3    0    0 -0.28162354795E+02  0.23408856677E+02 -0.18613299847E+02  0.41079772759E+02  0.51100000000E-03 0.  1.
         23    2    1    0    0    0 -0.12467545159E+02  0.17979105539E+01  0.27715591051E+02  0.94556180398E+02  0.89521199163E+02 0.  0.
         11    1    3    3    0    0  0.15694809636E+02 -0.21610946123E+02  0.46328890898E+02  0.53476407639E+02  0.51100000000E-03 0. -1.
         22    1    1    0    0    0  0.12467545159E+02 -0.17979105539E+01 -0.27715591051E+02  0.30443819602E+02  0.00000000000E+00 0. -1.
</event>
<event>
 5    1  0.1692171E-003  0.9118800E+02  0.7818608E-02  0.1130116E+00
         25   -1    0    0    0    0  0.00000000000E+00  0.00000000000E+00  0.99999998245E-14  0.12500000000E+03  0.12500000000E+03 0.  0.
        -11    1    3    3    0    0 -0.19881390448E+02 -0.19348637971E+02 -0.36759900387E+02  0.46053553111E+02  0.51100000000E-03 0.  1.
         23    2    1    0    0    0  0.10904487469E+02  0.16652579269E+02 -0.21216276357E+02  0.95907962847E+02  0.91389226453E+02 0.  0.
         11    1    3    3    0    0  0.30785877917E+02  0.36001217239E+02  0.15543624029E+02  0.49854409736E+02  0.51100000000E-03 0. -1.
         22    1    1    0    0    0 -0.10904487469E+02 -0.16652579269E+02  0.21216276357E+02  0.29092037153E+02  0.00000000000E+00 0. -1.
</event>
<event>
 5    1  0.1692171E-003  0.9118800E+02  0.7818608E-02  0.1130116E+00
         25   -1    0    0    0    0  0.00000000000E+00  0.00000000000E+00  0.99999998245E-14  0.12500000000E+03  0.12500000000E+03 0.  0.
        -11    1    3    3    0    0 -0.40742367951E+02 -0.11765124093E+02  0.19468571333E+02  0.46662447012E+02  0.51100000000E-03 0. -1.
         23    2    1    0    0    0 -0.88791722857E+01 -0.22856623884E+02 -0.16083624278E+02  0.95675131275E+02  0.91070208184E+02 0.  0.
         11    1    3    3    0    0  0.31863195665E+02 -0.11091499790E+02 -0.35552195611E+02  0.49012684262E+02  0.51100000000E-03 0.  1.
         22    1    1    0    0    0  0.88791722857E+01  0.22856623884E+02  0.16083624278E+02  0.29324868725E+02  0.00000000000E+00 0. -1.
</event>
<event>
 5    1  0.1692171E-003  0.9118800E+02  0.7818608E-02  0.1130116E+00
         25   -1    0    0    0    0  0.00000000000E+00  0.00000000000E+00  0.99999998245E-14  0.12500000000E+03  0.12500000000E+03 0.  0.
        -11    1    3    3    0    0 -0.25863540194E+02 -0.49202030806E+02 -0.23393160045E+02  0.60307565727E+02  0.51100000000E-03 0.  1.
         23    2    1    0    0    0 -0.15768076961E+02 -0.14857342949E+02 -0.18640843642E+02  0.96419343215E+02  0.92086023933E+02 0.  0.
         11    1    3    3    0    0  0.10095463232E+02  0.34344687857E+02  0.47523164030E+01  0.36111777488E+02  0.51100000000E-03 0. -1.
         22    1    1    0    0    0  0.15768076961E+02  0.14857342949E+02  0.18640843642E+02  0.28580656785E+02  0.00000000000E+00 0.  1.
</event>
<event>
 5    1  0.1692171E-003  0.9118800E+02  0.7818608E-02  0.1130116E+00
         25   -1    0    0    0    0  0.00000000000E+00  0.00000000000E+00  0.99999998245E-14  0.12500000000E+03  0.12500000000E+03 0.  0.
        -11    1    3    3    0    0  0.37548463521E+02  0.23486512630E+02 -0.18146029122E+02  0.47862111962E+02  0.51100000000E-03 0.  1.
         23    2    1    0    0    0  0.11794587213E+02 -0.16454031241E+02 -0.21455632837E+02  0.95500989643E+02  0.90830872564E+02 0.  0.
         11    1    3    3    0    0 -0.25753876309E+02 -0.39940543871E+02 -0.33096037154E+01  0.47638877681E+02  0.51100000000E-03 0. -1.
         22    1    1    0    0    0 -0.11794587213E+02  0.16454031241E+02  0.21455632837E+02  0.29499010357E+02  0.00000000000E+00 0. -1.
</event>
<event>
 5    1  0.1692171E-003  0.9118800E+02  0.7818608E-02  0.1130116E+00
         25   -1    0    0    0    0  0.00000000000E+00  0.00000000000E+00  0.99999998245E-14  0.12500000000E+03  0.12500000000E+03 0.  0.
        -11    1    3    3    0    0 -0.42546977771E+01  0.37919898585E+02 -0.15229928543E+02  0.41084935019E+02  0.51100000000E-03 0.  1.
         23    2    1    0    0    0 -0.17613545688E+02 -0.13656054896E+02 -0.20622843386E+02  0.94635110796E+02  0.89631343285E+02 0.  0.
         11    1    3    3    0    0 -0.13358847911E+02 -0.51575953481E+02 -0.53929148432E+01  0.53550175777E+02  0.51100000000E-03 0. -1.
         22    1    1    0    0    0  0.17613545688E+02  0.13656054896E+02  0.20622843386E+02  0.30364889204E+02  0.00000000000E+00 0. -1.
</event>
<event>
 5    1  0.1692171E-003  0.9118800E+02  0.7818608E-02  0.1130116E+00
         25   -1    0    0    0    0  0.00000000000E+00  0.00000000000E+00  0.99999998245E-14  0.12500000000E+03  0.12500000000E+03 0.  0.
        -11    1    3    3    0    0 -0.14987677189E+02 -0.54475336304E+02 -0.16164147950E+02  0.58766252323E+02  0.51100000000E-03 0.  1.
         23    2    1    0    0    0 -0.12947335549E+02 -0.25770740643E+02  0.65472633679E+01  0.95425835114E+02  0.90727387147E+02 0.  0.
         11    1    3    3    0    0  0.20403416394E+01  0.28704595661E+02  0.22711411318E+02  0.36659582791E+02  0.51100000000E-03 0. -1.
         22    1    1    0    0    0  0.12947335549E+02  0.25770740643E+02 -0.65472633679E+01  0.29574164886E+02  0.00000000000E+00 0.  1.
</event>
<event>
 5    1  0.1692171E-003  0.9118800E+02  0.7818608E-02  0.1130116E+00
         25   -1    0    0    0    0  0.00000000000E+00  0.00000000000E+00  0.99999998245E-14  0.12500000000E+03  0.12500000000E+03 0.  0.
        -11    1    3    3    0    0  0.38663788932E+02 -0.23908063058E+01 -0.45349462571E+02  0.59642084849E+02  0.51100000000E-03 0. -1.
         23    2    1    0    0    0  0.11930806212E+02 -0.12532273437E+02 -0.24399409056E+02  0.95087909190E+02  0.90260607673E+02 0.  0.
         11    1    3    3    0    0 -0.26732982720E+02 -0.10141467131E+02  0.20950053516E+02  0.35445824341E+02  0.51100000000E-03 0.  1.
         22    1    1    0    0    0 -0.11930806212E+02  0.12532273437E+02  0.24399409056E+02  0.29912090810E+02  0.00000000000E+00 0. -1.
</event>
<event>
 5    1  0.1692171E-003  0.9118800E+02  0.7818608E-02  0.1130116E+00
         25   -1    0    0    0    0  0.00000000000E+00  0.00000000000E+00  0.99999998245E-14  0.12500000000E+03  0.12500000000E+03 0.  0.
        -11    1    3    3    0    0  0.43684916084E+02 -0.18207574142E+02 -0.14669922213E+02  0.49548907833E+02  0.51100000000E-03 0. -1.
         23    2    1    0    0    0  0.19255921232E+02 -0.44892596058E+00  0.21144549093E+02  0.96397832366E+02  0.92056819907E+02 0.  0.
         11    1    3    3    0    0 -0.24428994852E+02  0.17758648181E+02  0.35814471306E+02  0.46848924533E+02  0.51100000000E-03 0.  1.
         22    1    1    0    0    0 -0.19255921232E+02  0.44892596058E+00 -0.21144549093E+02  0.28602167634E+02  0.00000000000E+00 0. -1.
</event>
<event>
 5    1  0.1692171E-003  0.9118800E+02  0.7818608E-02  0.1130116E+00
         25   -1    0    0    0    0  0.00000000000E+00  0.00000000000E+00  0.99999998245E-14  0.12500000000E+03  0.12500000000E+03 0.  0.
        -11    1    3    3    0    0 -0.22576881303E+02  0.20591635862E+02 -0.53862108673E+02  0.61926228594E+02  0.51100000000E-03 0.  1.
         23    2    1    0    0    0 -0.13544207906E+02  0.49073950105E+01 -0.19596954352E+02  0.10067781438E+03  0.97695719427E+02 0.  0.
         11    1    3    3    0    0  0.90326733970E+01 -0.15684240852E+02  0.34265154321E+02  0.38751585783E+02  0.51100000000E-03 0. -1.
         22    1    1    0    0    0  0.13544207906E+02 -0.49073950105E+01  0.19596954352E+02  0.24322185623E+02  0.00000000000E+00 0.  1.
</event>
<event>
 5    1  0.1692171E-003  0.9118800E+02  0.7818608E-02  0.1130116E+00
         25   -1    0    0    0    0  0.00000000000E+00  0.00000000000E+00  0.99999998245E-14  0.12500000000E+03  0.12500000000E+03 0.  0.
        -11    1    3    3    0    0  0.37550126880E+01  0.50331005198E+02  0.13825265573E+02  0.52330184148E+02  0.51100000000E-03 0.  1.
         23    2    1    0    0    0 -0.32060339576E+01  0.87156327760E+01  0.26931448871E+02  0.96512391348E+02  0.92212243423E+02 0.  0.
         11    1    3    3    0    0 -0.69610466456E+01 -0.41615372422E+02  0.13106183297E+02  0.44182207200E+02  0.51100000000E-03 0. -1.
         22    1    1    0    0    0  0.32060339576E+01 -0.87156327760E+01 -0.26931448871E+02  0.28487608652E+02  0.00000000000E+00 0.  1.
</event>
<event>
 5    1  0.1692171E-003  0.9118800E+02  0.7818608E-02  0.1130116E+00
         25   -1    0    0    0    0  0.00000000000E+00  0.00000000000E+00  0.99999998245E-14  0.12500000000E+03  0.12500000000E+03 0.  0.
        -11    1    3    3    0    0  0.17245898378E+02 -0.58282961153E+01 -0.27517510119E+02  0.32993990511E+02  0.51100000000E-03 0. -1.
         23    2    1    0    0    0 -0.13930498079E+02  0.34198972562E+01  0.25820028883E+02  0.95463101628E+02  0.90778716706E+02 0.  0.
         11    1    3    3    0    0 -0.31176396456E+02  0.92481933715E+01  0.53337539002E+02  0.62469111116E+02  0.51100000000E-03 0.  1.
         22    1    1    0    0    0  0.13930498079E+02 -0.34198972562E+01 -0.25820028883E+02  0.29536898372E+02  0.00000000000E+00 0.  1.
</event>
<event>
 5    1  0.1692171E-003  0.9118800E+02  0.7818608E-02  0.1130116E+00
         25   -1    0    0    0    0  0.00000000000E+00  0.00000000000E+00  0.99999998245E-14  0.12500000000E+03  0.12500000000E+03 0.  0.
        -11    1    3    3    0    0  0.16781466730E+02 -0.34660607829E+01 -0.54464522201E+02  0.57096544394E+02  0.51100000000E-03 0.  1.
         23    2    1    0    0    0  0.22136272705E+02 -0.98239551269E+01 -0.17153581844E+02  0.95322229974E+02  0.90584532309E+02 0.  0.
         11    1    3    3    0    0  0.53548059754E+01 -0.63578943440E+01  0.37310940356E+02  0.38225685580E+02  0.51100000000E-03 0. -1.
         22    1    1    0    0    0 -0.22136272705E+02  0.98239551269E+01  0.17153581844E+02  0.29677770026E+02  0.00000000000E+00 0. -1.
</event>
<event>
 5    1  0.1692171E-003  0.9118800E+02  0.7818608E-02  0.1130116E+00
         25   -1    0    0    0    0  0.00000000000E+00  0.00000000000E+00  0.99999998245E-14  0.12500000000E+03  0.12500000000E+03 0.  0.
        -11    1    3    3    0    0 -0.21015682034E+02  0.52097534980E+02  0.52658792693E+00  0.56179082740E+02  0.51100000000E-03 0.  1.
         23    2    1    0    0    0 -0.75075070610E+01  0.22710625496E+02  0.19903949075E+02  0.93882442874E+02  0.88575452122E+02 0.  0.
         11    1    3    3    0    0  0.13508174973E+02 -0.29386909484E+02  0.19377361148E+02  0.37703360134E+02  0.51100000000E-03 0. -1.
         22    1    1    0    0    0  0.75075070610E+01 -0.22710625496E+02 -0.19903949075E+02  0.31117557126E+02  0.00000000000E+00 0.  1.
</event>
<event>
 5    1  0.1692171E-003  0.9118800E+02  0.7818608E-02  0.1130116E+00
         25   -1    0    0    0    0  0.00000000000E+00  0.00000000000E+00  0.99999998245E-14  0.12500000000E+03  0.12500000000E+03 0.  0.
        -11    1    3    3    0    0  0.31673336058E+02 -0.67000796729E+01 -0.39668528331E+02  0.51202377141E+02  0.51100000000E-03 0. -1.
         23    2    1    0    0    0  0.53616161200E+01 -0.26957500283E+02 -0.99391557036E+01  0.95772605914E+02  0.91203900567E+02 0.  0.
         11    1    3    3    0    0 -0.26311719938E+02 -0.20257420610E+02  0.29729372627E+02  0.44570228774E+02  0.51100000000E-03 0.  1.
         22    1    1    0    0    0 -0.53616161200E+01  0.26957500283E+02  0.99391557036E+01  0.29227394086E+02  0.00000000000E+00 0. -1.
</event>
<event>
 5    1  0.1692171E-003  0.9118800E+02  0.7818608E-02  0.1130116E+00
         25   -1    0    0    0    0  0.00000000000E+00  0.00000000000E+00  0.99999998245E-14  0.12500000000E+03  0.12500000000E+03 0.  0.
        -11    1    3    3    0    0 -0.41103265301E+02  0.29407989268E+02 -0.30735337645E+01  0.50633534948E+02  0.51100000000E-03 0.  1.
         23    2    1    0    0    0 -0.14638357655E+01  0.16851196493E+02  0.20492805116E+02  0.98428197278E+02  0.94773674190E+02 0.  0.
         11    1    3    3    0    0  0.39639429536E+02 -0.12556792776E+02  0.23566338880E+02  0.47794662330E+02  0.51100000000E-03 0. -1.
         22    1    1    0    0    0  0.14638357655E+01 -0.16851196493E+02 -0.20492805116E+02  0.26571802722E+02  0.00000000000E+00 0.  1.
</event>
<event>
 5    1  0.1692171E-003  0.9118800E+02  0.7818608E-02  0.1130116E+00
         25   -1    0    0    0    0  0.00000000000E+00  0.00000000000E+00  0.99999998245E-14  0.12500000000E+03  0.12500000000E+03 0.  0.
        -11    1    3    3    0    0 -0.27021702786E+02 -0.33081734368E+02 -0.11259561381E+02  0.44174102062E+02  0.51100000000E-03 0. -1.
         23    2    1    0    0    0  0.32594307465E+01  0.44049273933E+01 -0.28971213916E+02  0.95515113873E+02  0.90850308025E+02 0.  0.
         11    1    3    3    0    0  0.30281133532E+02  0.37486661761E+02 -0.17711652535E+02  0.51341011811E+02  0.51100000000E-03 0.  1.
         22    1    1    0    0    0 -0.32594307465E+01 -0.44049273933E+01  0.28971213916E+02  0.29484886127E+02  0.00000000000E+00 0.  1.
</event>
<event>
 5    1  0.1692171E-003  0.9118800E+02  0.7818608E-02  0.1130116E+00
         25   -1    0    0    0    0  0.00000000000E+00  0.00000000000E+00  0.99999998245E-14  0.12500000000E+03  0.12500000000E+03 0.  0.
        -11    1    3    3    0    0  0.23646696314E+02  0.20320209014E+02 -0.18375391097E+02  0.36190221595E+02  0.51100000000E-03 0.  1.
         23    2    1    0    0    0 -0.10137871236E+02 -0.26684039128E+02 -0.10382427902E+02  0.94625517511E+02  0.89617963477E+02 0.  0.
         11    1    3    3    0    0 -0.33784567549E+02 -0.47004248141E+02  0.79929631951E+01  0.58435295915E+02  0.51100000000E-03 0. -1.
         22    1    1    0    0    0  0.10137871236E+02  0.26684039128E+02  0.10382427902E+02  0.30374482489E+02  0.00000000000E+00 0. -1.
</event>
<event>
 5    1  0.1692171E-003  0.9118800E+02  0.7818608E-02  0.1130116E+00
         25   -1    0    0    0    0  0.00000000000E+00  0.00000000000E+00  0.99999998245E-14  0.12500000000E+03  0.12500000000E+03 0.  0.
        -11    1    3    3    0    0 -0.22234900589E+02 -0.14520507160E+02  0.24690035099E+02  0.36260636589E+02  0.51100000000E-03 0.  1.
         23    2    1    0    0    0  0.11384258527E+01 -0.22488139849E+00 -0.28703249464E+02  0.96273303099E+02  0.91887571383E+02 0.  0.
         11    1    3    3    0    0  0.23373326442E+02  0.14295625762E+02 -0.53393284563E+02  0.60012666509E+02  0.51100000000E-03 0. -1.
         22    1    1    0    0    0 -0.11384258527E+01  0.22488139849E+00  0.28703249464E+02  0.28726696901E+02  0.00000000000E+00 0. -1.
</event>
<event>
 5    1  0.1692171E-003  0.9118800E+02  0.7818608E-02  0.1130116E+00
         25   -1    0    0    0    0  0.00000000000E+00  0.00000000000E+00  0.99999998245E-14  0.12500000000E+03  0.12500000000E+03 0.  0.
        -11    1    3    3    0    0  0.26409952704E+01  0.35344815103E+02  0.18521600516E+02  0.39991005197E+02  0.51100000000E-03 0. -1.
         23    2    1    0    0    0 -0.27479757350E+02 -0.68082242042E+01 -0.38600302225E+01  0.96427481487E+02  0.92097070376E+02 0.  0.
         11    1    3    3    0    0 -0.30120752621E+02 -0.42153039308E+02 -0.22381630739E+02  0.56436476290E+02  0.51100000000E-03 0.  1.
         22    1    1    0    0    0  0.27479757350E+02  0.68082242042E+01  0.38600302225E+01  0.28572518513E+02  0.00000000000E+00 0. -1.
</event>
<event>
 5    1  0.1692171E-003  0.9118800E+02  0.7818608E-02  0.1130116E+00
         25   -1    0    0    0    0  0.00000000000E+00  0.00000000000E+00  0.99999998245E-14  0.12500000000E+03  0.12500000000E+03 0.  0.
        -11    1    3    3    0    0 -0.51266279777E+02 -0.34178535460E+01 -0.27524442067E+02  0.58288146963E+02  0.51100000000E-03 0.  1.
         23    2    1    0    0    0 -0.20113189691E+02  0.14524634754E+02 -0.11804680106E+02  0.97525359207E+02  0.93575316199E+02 0.  0.
         11    1    3    3    0    0  0.31153090086E+02  0.17942488300E+02  0.15719761961E+02  0.39237212244E+02  0.51100000000E-03 0. -1.
         22    1    1    0    0    0  0.20113189691E+02 -0.14524634754E+02  0.11804680106E+02  0.27474640793E+02  0.00000000000E+00 0.  1.
</event>
<event>
 5    1  0.1692171E-003  0.9118800E+02  0.7818608E-02  0.1130116E+00
         25   -1    0    0    0    0  0.00000000000E+00  0.00000000000E+00  0.99999998245E-14  0.12500000000E+03  0.12500000000E+03 0.  0.
        -11    1    3    3    0    0  0.32406971799E+02 -0.11469737629E+01 -0.16096404813E+02  0.36202508452E+02  0.51100000000E-03 0.  1.
         23    2    1    0    0    0 -0.26448276139E+02 -0.85277490946E+01 -0.80941979584E+01  0.96056091212E+02  0.91591608802E+02 0.  0.
         11    1    3    3    0    0 -0.58855247939E+02 -0.73807753318E+01  0.80022068550E+01  0.59853582760E+02  0.51100000000E-03 0. -1.
         22    1    1    0    0    0  0.26448276139E+02  0.85277490946E+01  0.80941979584E+01  0.28943908788E+02  0.00000000000E+00 0. -1.
</event>
<event>
 5    1  0.1692171E-003  0.9118800E+02  0.7818608E-02  0.1130116E+00
         25   -1    0    0    0    0  0.00000000000E+00  0.00000000000E+00  0.99999998245E-14  0.12500000000E+03  0.12500000000E+03 0.  0.
        -11    1    3    3    0    0 -0.36690240802E+02  0.42740069358E+02  0.54760168595E+01  0.56593940133E+02  0.51100000000E-03 0.  1.
         23    2    1    0    0    0 -0.83164543258E+01  0.23136560550E+02 -0.14507923953E+02  0.96452781150E+02  0.92131402288E+02 0.  0.
         11    1    3    3    0    0  0.28373786477E+02 -0.19603508808E+02 -0.19983940812E+02  0.39858841017E+02  0.51100000000E-03 0. -1.
         22    1    1    0    0    0  0.83164543258E+01 -0.23136560550E+02  0.14507923953E+02  0.28547218850E+02  0.00000000000E+00 0.  1.
</event>
<event>
 5    1  0.1692171E-003  0.9118800E+02  0.7818608E-02  0.1130116E+00
         25   -1    0    0    0    0  0.00000000000E+00  0.00000000000E+00  0.99999998245E-14  0.12500000000E+03  0.12500000000E+03 0.  0.
        -11    1    3    3    0    0 -0.23152527204E+02 -0.49283981636E+02 -0.19119704655E+02  0.57710601004E+02  0.51100000000E-03 0.  1.
         23    2    1    0    0    0 -0.46186865953E+01 -0.16114039288E+02 -0.23687832093E+02  0.95980904264E+02  0.91488939583E+02 0.  0.
         11    1    3    3    0    0  0.18533840608E+02  0.33169942348E+02 -0.45681274384E+01  0.38270303260E+02  0.51100000000E-03 0. -1.
         22    1    1    0    0    0  0.46186865953E+01  0.16114039288E+02  0.23687832093E+02  0.29019095736E+02  0.00000000000E+00 0.  1.
</event>
<event>
 5    1  0.1692171E-003  0.9118800E+02  0.7818608E-02  0.1130116E+00
         25   -1    0    0    0    0  0.00000000000E+00  0.00000000000E+00  0.99999998245E-14  0.12500000000E+03  0.12500000000E+03 0.  0.
        -11    1    3    3    0    0 -0.15347348599E+02  0.39061250146E+02 -0.25478473104E+02  0.49096588109E+02  0.51100000000E-03 0.  1.
         23    2    1    0    0    0 -0.28114290645E+02  0.18151531418E+02  0.80101172149E+01  0.90589922855E+02  0.83800242922E+02 0.  0.
         11    1    3    3    0    0 -0.12766942047E+02 -0.20909718728E+02  0.33488590319E+02  0.41493334746E+02  0.51100000000E-03 0. -1.
         22    1    1    0    0    0  0.28114290645E+02 -0.18151531418E+02 -0.80101172149E+01  0.34410077145E+02  0.00000000000E+00 0.  1.
</event>
<event>
 5    1  0.1692171E-003  0.9118800E+02  0.7818608E-02  0.1130116E+00
         25   -1    0    0    0    0  0.00000000000E+00  0.00000000000E+00  0.99999998245E-14  0.12500000000E+03  0.12500000000E+03 0.  0.
        -11    1    3    3    0    0 -0.41730109712E+02  0.11273021321E+02  0.18726483229E+02  0.47108006121E+02  0.51100000000E-03 0. -1.
         23    2    1    0    0    0  0.45978386937E+01 -0.16717157023E+02  0.16164673959E+02  0.10129556700E+03  0.98482951573E+02 0.  0.
         11    1    3    3    0    0  0.46327948406E+02 -0.27990178344E+02 -0.25618092698E+01  0.54187560881E+02  0.51100000000E-03 0.  1.
         22    1    1    0    0    0 -0.45978386937E+01  0.16717157023E+02 -0.16164673959E+02  0.23704432998E+02  0.00000000000E+00 0.  1.
</event>
<event>
 5    1  0.1692171E-003  0.9118800E+02  0.7818608E-02  0.1130116E+00
         25   -1    0    0    0    0  0.00000000000E+00  0.00000000000E+00  0.99999998245E-14  0.12500000000E+03  0.12500000000E+03 0.  0.
        -11    1    3    3    0    0  0.10016122082E+02 -0.23461564486E+02 -0.25585467196E+02  0.36130096064E+02  0.51100000000E-03 0. -1.
         23    2    1    0    0    0  0.45935035762E+01  0.18305952227E+01  0.28495407936E+02  0.96078733993E+02  0.91622505414E+02 0.  0.
         11    1    3    3    0    0 -0.54226185057E+01  0.25292159709E+02  0.54080875132E+02  0.59948637929E+02  0.51100000000E-03 0.  1.
         22    1    1    0    0    0 -0.45935035762E+01 -0.18305952227E+01 -0.28495407936E+02  0.28921266007E+02  0.00000000000E+00 0.  1.
</event>
<event>
 5    1  0.1692171E-003  0.9118800E+02  0.7818608E-02  0.1130116E+00
         25   -1    0    0    0    0  0.00000000000E+00  0.00000000000E+00  0.99999998245E-14  0.12500000000E+03  0.12500000000E+03 0.  0.
        -11    1    3    3    0    0 -0.98499862463E+01 -0.46190150567E+02  0.23678951859E+02  0.52832234477E+02  0.51100000000E-03 0. -1.
         23    2    1    0    0    0 -0.25515499657E+02 -0.13685175111E+02  0.21416795834E+02  0.88986059861E+02  0.81372691766E+02 0.  0.
         11    1    3    3    0    0 -0.15665513410E+02  0.32504975455E+02 -0.22621560256E+01  0.36153825384E+02  0.51100000000E-03 0.  1.
         22    1    1    0    0    0  0.25515499657E+02  0.13685175111E+02 -0.21416795834E+02  0.36013940139E+02  0.00000000000E+00 0. -1.
</event>
<event>
 5    1  0.1692171E-003  0.9118800E+02  0.7818608E-02  0.1130116E+00
         25   -1    0    0    0    0  0.00000000000E+00  0.00000000000E+00  0.99999998245E-14  0.12500000000E+03  0.12500000000E+03 0.  0.
        -11    1    3    3    0    0 -0.29369570638E+02  0.22961689864E+02 -0.65460847511E+01  0.37850523202E+02  0.51100000000E-03 0.  1.
         23    2    1    0    0    0  0.40557777445E+01 -0.39796213594E+01  0.30144710978E+02  0.94324434492E+02  0.89197021380E+02 0.  0.
         11    1    3    3    0    0  0.33425348382E+02 -0.26941311223E+02  0.36690795729E+02  0.56473911290E+02  0.51100000000E-03 0. -1.
         22    1    1    0    0    0 -0.40557777445E+01  0.39796213594E+01 -0.30144710978E+02  0.30675565508E+02  0.00000000000E+00 0. -1.
</event>
<event>
 5    1  0.1692171E-003  0.9118800E+02  0.7818608E-02  0.1130116E+00
         25   -1    0    0    0    0  0.00000000000E+00  0.00000000000E+00  0.99999998245E-14  0.12500000000E+03  0.12500000000E+03 0.  0.
        -11    1    3    3    0    0  0.34438145883E+02 -0.44031627622E+02 -0.23711578943E+02  0.60720746859E+02  0.51100000000E-03 0.  1.
         23    2    1    0    0    0  0.22004062927E+02 -0.20629472354E+02 -0.23723292338E+01  0.94744721768E+02  0.89784076773E+02 0.  0.
         11    1    3    3    0    0 -0.12434082956E+02  0.23402155268E+02  0.21339249710E+02  0.34023974909E+02  0.51100000000E-03 0. -1.
         22    1    1    0    0    0 -0.22004062927E+02  0.20629472354E+02  0.23723292338E+01  0.30255278232E+02  0.00000000000E+00 0.  1.
</event>
<event>
 5    1  0.1692171E-003  0.9118800E+02  0.7818608E-02  0.1130116E+00
         25   -1    0    0    0    0  0.00000000000E+00  0.00000000000E+00  0.99999998245E-14  0.12500000000E+03  0.12500000000E+03 0.  0.
        -11    1    3    3    0    0  0.45025550887E+02  0.29225637828E+02 -0.31853125854E+01  0.53773454006E+02  0.51100000000E-03 0. -1.
         23    2    1    0    0    0  0.30746730464E+02 -0.42212006953E+01 -0.12860626197E+02  0.91405719598E+02  0.85008410758E+02 0.  0.
         11    1    3    3    0    0 -0.14278820423E+02 -0.33446838524E+02 -0.96753136112E+01  0.37632265593E+02  0.51100000000E-03 0.  1.
         22    1    1    0    0    0 -0.30746730464E+02  0.42212006953E+01  0.12860626197E+02  0.33594280402E+02  0.00000000000E+00 0. -1.
</event>
<event>
 5    1  0.1692171E-003  0.9118800E+02  0.7818608E-02  0.1130116E+00
         25   -1    0    0    0    0  0.00000000000E+00  0.00000000000E+00  0.99999998245E-14  0.12500000000E+03  0.12500000000E+03 0.  0.
        -11    1    3    3    0    0  0.29263967213E+02 -0.45573672667E+02 -0.29515563174E+02  0.61680692985E+02  0.51100000000E-03 0.  1.
         23    2    1    0    0    0  0.17323819065E+02 -0.15185819943E+02 -0.15633379895E+02  0.97158908044E+02  0.93084515421E+02 0.  0.
         11    1    3    3    0    0 -0.11940148148E+02  0.30387852724E+02  0.13882183278E+02  0.35478215059E+02  0.51100000000E-03 0. -1.
         22    1    1    0    0    0 -0.17323819065E+02  0.15185819943E+02  0.15633379895E+02  0.27841091956E+02  0.00000000000E+00 0.  1.
</event>
<event>
 5    1  0.1692171E-003  0.9118800E+02  0.7818608E-02  0.1130116E+00
         25   -1    0    0    0    0  0.00000000000E+00  0.00000000000E+00  0.99999998245E-14  0.12500000000E+03  0.12500000000E+03 0.  0.
        -11    1    3    3    0    0 -0.25955579636E+02  0.43032675307E+01 -0.30115647311E+02  0.39989529116E+02  0.51100000000E-03 0.  1.
         23    2    1    0    0    0  0.22489271071E+02  0.17564830304E+02 -0.54417817588E+01  0.95949981659E+02  0.91446680720E+02 0.  0.
         11    1    3    3    0    0  0.48444850707E+02  0.13261562774E+02  0.24673865552E+02  0.55960452543E+02  0.51100000000E-03 0. -1.
         22    1    1    0    0    0 -0.22489271071E+02 -0.17564830304E+02  0.54417817588E+01  0.29050018341E+02  0.00000000000E+00 0. -1.
</event>
<event>
 5    1  0.1692171E-003  0.9118800E+02  0.7818608E-02  0.1130116E+00
         25   -1    0    0    0    0  0.00000000000E+00  0.00000000000E+00  0.99999998245E-14  0.12500000000E+03  0.12500000000E+03 0.  0.
        -11    1    3    3    0    0  0.41220230706E+01  0.24607010661E+01  0.36275270760E+02  0.36591548107E+02  0.51100000000E-03 0.  1.
         23    2    1    0    0    0  0.29266682006E+01  0.21572658319E+02 -0.19630613037E+02  0.95686079383E+02  0.91085233961E+02 0.  0.
         11    1    3    3    0    0 -0.11953548701E+01  0.19111957253E+02 -0.55905883797E+02  0.59094531276E+02  0.51100000000E-03 0. -1.
         22    1    1    0    0    0 -0.29266682006E+01 -0.21572658319E+02  0.19630613037E+02  0.29313920617E+02  0.00000000000E+00 0. -1.
</event>
<event>
 5    1  0.1692171E-003  0.9118800E+02  0.7818608E-02  0.1130116E+00
         25   -1    0    0    0    0  0.00000000000E+00  0.00000000000E+00  0.99999998245E-14  0.12500000000E+03  0.12500000000E+03 0.  0.
        -11    1    3    3    0    0  0.62684185152E+01  0.32836262863E+02  0.21691580680E+02  0.39850193251E+02  0.51100000000E-03 0. -1.
         23    2    1    0    0    0 -0.71911021451E+01  0.84104359030E+01 -0.26920456913E+02  0.95894014661E+02  0.91370146466E+02 0.  0.
         11    1    3    3    0    0 -0.13459520660E+02 -0.24425826960E+02 -0.48612037593E+02  0.56043821410E+02  0.51100000000E-03 0.  1.
         22    1    1    0    0    0  0.71911021451E+01 -0.84104359030E+01  0.26920456913E+02  0.29105985339E+02  0.00000000000E+00 0. -1.
</event>
<event>
 5    1  0.1692171E-003  0.9118800E+02  0.7818608E-02  0.1130116E+00
         25   -1    0    0    0    0  0.00000000000E+00  0.00000000000E+00  0.99999998245E-14  0.12500000000E+03  0.12500000000E+03 0.  0.
        -11    1    3    3    0    0 -0.53276847043E+02 -0.22352519233E+02 -0.87435849456E+01  0.58433790095E+02  0.51100000000E-03 0.  1.
         23    2    1    0    0    0 -0.14265244419E+02 -0.14353364783E+02 -0.16358462945E+02  0.98978555212E+02  0.95496799962E+02 0.  0.
         11    1    3    3    0    0  0.39011602624E+02  0.79991544501E+01 -0.76148779994E+01  0.40544765117E+02  0.51100000000E-03 0. -1.
         22    1    1    0    0    0  0.14265244419E+02  0.14353364783E+02  0.16358462945E+02  0.26021444788E+02  0.00000000000E+00 0.  1.
</event>
<event>
 5    1  0.1692171E-003  0.9118800E+02  0.7818608E-02  0.1130116E+00
         25   -1    0    0    0    0  0.00000000000E+00  0.00000000000E+00  0.99999998245E-14  0.12500000000E+03  0.12500000000E+03 0.  0.
        -11    1    3    3    0    0  0.18334363227E+02  0.25193033171E+02  0.15256620455E+02  0.34692971382E+02  0.51100000000E-03 0.  1.
         23    2    1    0    0    0 -0.16724998042E+02 -0.22689622229E+02 -0.26675697887E+01  0.96686391170E+02  0.92447811182E+02 0.  0.
         11    1    3    3    0    0 -0.35059361270E+02 -0.47882655400E+02 -0.17924190244E+02  0.61993419788E+02  0.51100000000E-03 0. -1.
         22    1    1    0    0    0  0.16724998042E+02  0.22689622229E+02  0.26675697887E+01  0.28313608830E+02  0.00000000000E+00 0. -1.
</event>
<event>
 5    1  0.1692171E-003  0.9118800E+02  0.7818608E-02  0.1130116E+00
         25   -1    0    0    0    0  0.00000000000E+00  0.00000000000E+00  0.99999998245E-14  0.12500000000E+03  0.12500000000E+03 0.  0.
        -11    1    3    3    0    0  0.26230743900E+02 -0.15386615002E+02  0.23712923312E+02  0.38562969012E+02  0.51100000000E-03 0. -1.
         23    2    1    0    0    0  0.10915121044E+01 -0.82914142778E+01 -0.27610204146E+02  0.96151042959E+02  0.91721103022E+02 0.  0.
         11    1    3    3    0    0 -0.25139231795E+02  0.70952007246E+01 -0.51323127458E+02  0.57588073947E+02  0.51100000000E-03 0.  1.
         22    1    1    0    0    0 -0.10915121044E+01  0.82914142778E+01  0.27610204146E+02  0.28848957041E+02  0.00000000000E+00 0.  1.
</event>
<event>
 5    1  0.1692171E-003  0.9118800E+02  0.7818608E-02  0.1130116E+00
         25   -1    0    0    0    0  0.00000000000E+00  0.00000000000E+00  0.99999998245E-14  0.12500000000E+03  0.12500000000E+03 0.  0.
        -11    1    3    3    0    0  0.23477680163E+02  0.34718204415E+02  0.28411246607E+02  0.50633527605E+02  0.51100000000E-03 0.  1.
         23    2    1    0    0    0  0.25148486352E+02 -0.74644806625E+01  0.76734278769E+01  0.97667851663E+02  0.93765467607E+02 0.  0.
         11    1    3    3    0    0  0.16708061885E+01 -0.42182685077E+02 -0.20737818731E+02  0.47034324058E+02  0.51100000000E-03 0. -1.
         22    1    1    0    0    0 -0.25148486352E+02  0.74644806625E+01 -0.76734278769E+01  0.27332148337E+02  0.00000000000E+00 0.  1.
</event>
<event>
 5    1  0.1692171E-003  0.9118800E+02  0.7818608E-02  0.1130116E+00
         25   -1    0    0    0    0  0.00000000000E+00  0.00000000000E+00  0.99999998245E-14  0.12500000000E+03  0.12500000000E+03 0.  0.
        -11    1    3    3    0    0  0.27231753835E+02 -0.68073640993E+01  0.21352322243E+02  0.35267978229E+02  0.51100000000E-03 0.  1.
         23    2    1    0    0    0  0.91426078736E+01  0.10870384141E+02 -0.29608808165E+02  0.92160480347E+02  0.86111091543E+02 0.  0.
         11    1    3    3    0    0 -0.18089145962E+02  0.17677748241E+02 -0.50961130408E+02  0.56892502118E+02  0.51100000000E-03 0. -1.
         22    1    1    0    0    0 -0.91426078736E+01 -0.10870384141E+02  0.29608808165E+02  0.32839519653E+02  0.00000000000E+00 0. -1.
</event>
<event>
 5    1  0.1692171E-003  0.9118800E+02  0.7818608E-02  0.1130116E+00
         25   -1    0    0    0    0  0.00000000000E+00  0.00000000000E+00  0.99999998245E-14  0.12500000000E+03  0.12500000000E+03 0.  0.
        -11    1    3    3    0    0 -0.22240573780E+02 -0.25737762130E+02 -0.14809591599E+02  0.37099858828E+02  0.51100000000E-03 0.  1.
         23    2    1    0    0    0  0.19008909725E+02 -0.56290961673E+01  0.21601571869E+02  0.95680155529E+02  0.91077104050E+02 0.  0.
         11    1    3    3    0    0  0.41249483504E+02  0.20108665962E+02  0.36411163468E+02  0.58580296701E+02  0.51100000000E-03 0. -1.
         22    1    1    0    0    0 -0.19008909725E+02  0.56290961673E+01 -0.21601571869E+02  0.29319844471E+02  0.00000000000E+00 0. -1.
</event>
<event>
 5    1  0.1692171E-003  0.9118800E+02  0.7818608E-02  0.1130116E+00
         25   -1    0    0    0    0  0.00000000000E+00  0.00000000000E+00  0.99999998245E-14  0.12500000000E+03  0.12500000000E+03 0.  0.
        -11    1    3    3    0    0  0.34760201568E+02  0.79180711197E+01  0.38908019251E+02  0.52771217777E+02  0.51100000000E-03 0. -1.
         23    2    1    0    0    0 -0.16406383580E+01  0.21128335537E+02  0.19983993665E+02  0.95871693156E+02  0.91339604165E+02 0.  0.
         11    1    3    3    0    0 -0.36400839926E+02  0.13210264417E+02 -0.18924025585E+02  0.43100475380E+02  0.51100000000E-03 0.  1.
         22    1    1    0    0    0  0.16406383580E+01 -0.21128335537E+02 -0.19983993665E+02  0.29128306844E+02  0.00000000000E+00 0. -1.
</event>
<event>
 5    1  0.1692171E-003  0.9118800E+02  0.7818608E-02  0.1130116E+00
         25   -1    0    0    0    0  0.00000000000E+00  0.00000000000E+00  0.99999998245E-14  0.12500000000E+03  0.12500000000E+03 0.  0.
        -11    1    3    3    0    0  0.25972212734E+02 -0.29764711886E+02 -0.46161224421E+02  0.60756502107E+02  0.51100000000E-03 0. -1.
         23    2    1    0    0    0  0.21500726695E+02 -0.11652988238E+02 -0.17603486095E+02  0.94867690000E+02  0.89955113806E+02 0.  0.
         11    1    3    3    0    0 -0.44714860390E+01  0.18111723648E+02  0.28557738326E+02  0.34111187893E+02  0.51100000000E-03 0.  1.
         22    1    1    0    0    0 -0.21500726695E+02  0.11652988238E+02  0.17603486095E+02  0.30132310000E+02  0.00000000000E+00 0. -1.
</event>
<event>
 5    1  0.1692171E-003  0.9118800E+02  0.7818608E-02  0.1130116E+00
         25   -1    0    0    0    0  0.00000000000E+00  0.00000000000E+00  0.99999998245E-14  0.12500000000E+03  0.12500000000E+03 0.  0.
        -11    1    3    3    0    0  0.28945594277E+02  0.16100088847E+02 -0.13029966134E+01  0.33147520109E+02  0.51100000000E-03 0.  1.
         23    2    1    0    0    0 -0.22816752416E+02 -0.18020355101E+02 -0.59680237833E+01  0.95319119005E+02  0.90580239297E+02 0.  0.
         11    1    3    3    0    0 -0.51762346693E+02 -0.34120443949E+02 -0.46650271699E+01  0.62171598895E+02  0.51100000000E-03 0. -1.
         22    1    1    0    0    0  0.22816752416E+02  0.18020355101E+02  0.59680237833E+01  0.29680880995E+02  0.00000000000E+00 0. -1.
</event>
<event>
 5    1  0.1692171E-003  0.9118800E+02  0.7818608E-02  0.1130116E+00
         25   -1    0    0    0    0  0.00000000000E+00  0.00000000000E+00  0.99999998245E-14  0.12500000000E+03  0.12500000000E+03 0.  0.
        -11    1    3    3    0    0 -0.39722035263E+01  0.25688521964E+02  0.23771227965E+02  0.35224279138E+02  0.51100000000E-03 0.  1.
         23    2    1    0    0    0 -0.14855452990E+02 -0.93344023147E+01 -0.23888051098E+02  0.95361266300E+02  0.90638383563E+02 0.  0.
         11    1    3    3    0    0 -0.10883249464E+02 -0.35022924279E+02 -0.47659279062E+02  0.60136987162E+02  0.51100000000E-03 0. -1.
         22    1    1    0    0    0  0.14855452990E+02  0.93344023147E+01  0.23888051098E+02  0.29638733700E+02  0.00000000000E+00 0. -1.
</event>
<event>
 5    1  0.1692171E-003  0.9118800E+02  0.7818608E-02  0.1130116E+00
         25   -1    0    0    0    0  0.00000000000E+00  0.00000000000E+00  0.99999998245E-14  0.12500000000E+03  0.12500000000E+03 0.  0.
        -11    1    3    3    0    0 -0.15367951480E+02  0.19530678625E+02 -0.26825227032E+02  0.36567938769E+02  0.51100000000E-03 0.  1.
         23    2    1    0    0    0  0.23110015280E+02 -0.18850788128E+02 -0.75139521891E+01  0.94244764725E+02  0.89085302836E+02 0.  0.
         11    1    3    3    0    0  0.38477966760E+02 -0.38381466754E+02  0.19311274843E+02  0.57676825956E+02  0.51100000000E-03 0. -1.
         22    1    1    0    0    0 -0.23110015280E+02  0.18850788128E+02  0.75139521891E+01  0.30755235275E+02  0.00000000000E+00 0. -1.
</event>
<event>
 5    1  0.1692171E-003  0.9118800E+02  0.7818608E-02  0.1130116E+00
         25   -1    0    0    0    0  0.00000000000E+00  0.00000000000E+00  0.99999998245E-14  0.12500000000E+03  0.12500000000E+03 0.  0.
        -11    1    3    3    0    0 -0.11439512224E+02  0.35750191644E+02  0.21226943975E+02  0.43122172873E+02  0.51100000000E-03 0. -1.
         23    2    1    0    0    0  0.10002151901E+02 -0.11617774255E+02  0.25451215688E+02  0.95288384405E+02  0.90537815863E+02 0.  0.
         11    1    3    3    0    0  0.21441664125E+02 -0.47367965898E+02  0.42242717129E+01  0.52166211532E+02  0.51100000000E-03 0.  1.
         22    1    1    0    0    0 -0.10002151901E+02  0.11617774255E+02 -0.25451215688E+02  0.29711615595E+02  0.00000000000E+00 0.  1.
</event>
<event>
 5    1  0.1692171E-003  0.9118800E+02  0.7818608E-02  0.1130116E+00
         25   -1    0    0    0    0  0.00000000000E+00  0.00000000000E+00  0.99999998245E-14  0.12500000000E+03  0.12500000000E+03 0.  0.
        -11    1    3    3    0    0 -0.27513842239E+02 -0.24925999234E+02  0.12147911600E+02  0.39062625476E+02  0.51100000000E-03 0. -1.
         23    2    1    0    0    0  0.26770477627E+02 -0.97003497366E+01  0.11593873668E+01  0.96502641588E+02  0.92199026009E+02 0.  0.
         11    1    3    3    0    0  0.54284319866E+02  0.15225649497E+02 -0.10988524233E+02  0.57440016112E+02  0.51100000000E-03 0.  1.
         22    1    1    0    0    0 -0.26770477627E+02  0.97003497366E+01 -0.11593873668E+01  0.28497358412E+02  0.00000000000E+00 0.  1.
</event>
<event>
 5    1  0.1692171E-003  0.9118800E+02  0.7818608E-02  0.1130116E+00
         25   -1    0    0    0    0  0.00000000000E+00  0.00000000000E+00  0.99999998245E-14  0.12500000000E+03  0.12500000000E+03 0.  0.
        -11    1    3    3    0    0  0.20703761505E+02 -0.52014977858E+01 -0.22925440174E+02  0.31325343208E+02  0.51100000000E-03 0.  1.
         23    2    1    0    0    0 -0.10208505173E+02 -0.21331808554E+02  0.24996330138E+02  0.90589592353E+02  0.83799749930E+02 0.  0.
         11    1    3    3    0    0 -0.30912266677E+02 -0.16130310768E+02  0.47921770312E+02  0.59264249145E+02  0.51100000000E-03 0. -1.
         22    1    1    0    0    0  0.10208505173E+02  0.21331808554E+02 -0.24996330138E+02  0.34410407647E+02  0.00000000000E+00 0. -1.
</event>
<event>
 5    1  0.1692171E-003  0.9118800E+02  0.7818608E-02  0.1130116E+00
         25   -1    0    0    0    0  0.00000000000E+00  0.00000000000E+00  0.99999998245E-14  0.12500000000E+03  0.12500000000E+03 0.  0.
        -11    1    3    3    0    0  0.37786123048E+01 -0.49977941608E+02 -0.29875256264E+02  0.58348980243E+02  0.51100000000E-03 0.  1.
         23    2    1    0    0    0  0.87695713697E+01 -0.27633439318E+02  0.25333746394E-01  0.96008397899E+02  0.91526496026E+02 0.  0.
         11    1    3    3    0    0  0.49909590649E+01  0.22344502290E+02  0.29900590010E+02  0.37659417656E+02  0.51100000000E-03 0. -1.
         22    1    1    0    0    0 -0.87695713697E+01  0.27633439318E+02 -0.25333746394E-01  0.28991602101E+02  0.00000000000E+00 0.  1.
</event>
<event>
 5    1  0.1692171E-003  0.9118800E+02  0.7818608E-02  0.1130116E+00
         25   -1    0    0    0    0  0.00000000000E+00  0.00000000000E+00  0.99999998245E-14  0.12500000000E+03  0.12500000000E+03 0.  0.
        -11    1    3    3    0    0 -0.38901149011E+02 -0.42338725351E+02  0.11801919023E+02  0.58695420193E+02  0.51100000000E-03 0.  1.
         23    2    1    0    0    0 -0.73208462862E+01 -0.27022963076E+02 -0.31112785841E+01  0.96830594998E+02  0.92642586047E+02 0.  0.
         11    1    3    3    0    0  0.31580302725E+02  0.15315762275E+02 -0.14913197607E+02  0.38135174805E+02  0.51100000000E-03 0. -1.
         22    1    1    0    0    0  0.73208462862E+01  0.27022963076E+02  0.31112785841E+01  0.28169405002E+02  0.00000000000E+00 0.  1.
</event>
<event>
 5    1  0.1692171E-003  0.9118800E+02  0.7818608E-02  0.1130116E+00
         25   -1    0    0    0    0  0.00000000000E+00  0.00000000000E+00  0.99999998245E-14  0.12500000000E+03  0.12500000000E+03 0.  0.
        -11    1    3    3    0    0 -0.12358266259E+02 -0.59868087449E+01  0.45653426890E+02  0.47673934293E+02  0.51100000000E-03 0.  1.
         23    2    1    0    0    0 -0.66234844454E+01 -0.27524546219E+02  0.20841462998E+01  0.96613121754E+02  0.92348689425E+02 0.  0.
         11    1    3    3    0    0  0.57347818134E+01 -0.21537737474E+02 -0.43569280590E+02  0.48939187461E+02  0.51100000000E-03 0. -1.
         22    1    1    0    0    0  0.66234844454E+01  0.27524546219E+02 -0.20841462998E+01  0.28386878246E+02  0.00000000000E+00 0.  1.
</event>
<event>
 5    1  0.1692171E-003  0.9118800E+02  0.7818608E-02  0.1130116E+00
         25   -1    0    0    0    0  0.00000000000E+00  0.00000000000E+00  0.99999998245E-14  0.12500000000E+03  0.12500000000E+03 0.  0.
        -11    1    3    3    0    0 -0.46879231795E+02 -0.26555166380E+02 -0.28774792658E+02  0.61080503665E+02  0.51100000000E-03 0.  1.
         23    2    1    0    0    0 -0.23807605393E+02 -0.38550319108E+01 -0.16872963671E+02  0.95566001824E+02  0.90920297271E+02 0.  0.
         11    1    3    3    0    0  0.23071626402E+02  0.22700134469E+02  0.11901828987E+02  0.34485498159E+02  0.51100000000E-03 0. -1.
         22    1    1    0    0    0  0.23807605393E+02  0.38550319108E+01  0.16872963671E+02  0.29433998176E+02  0.00000000000E+00 0.  1.
</event>
<event>
 5    1  0.1692171E-003  0.9118800E+02  0.7818608E-02  0.1130116E+00
         25   -1    0    0    0    0  0.00000000000E+00  0.00000000000E+00  0.99999998245E-14  0.12500000000E+03  0.12500000000E+03 0.  0.
        -11    1    3    3    0    0 -0.20169401253E+02  0.47452053828E+02 -0.22581492904E+02  0.56288773139E+02  0.51100000000E-03 0. -1.
         23    2    1    0    0    0  0.67845551854E+01  0.15516502340E+02 -0.20883251489E+02  0.98113158856E+02  0.94357245160E+02 0.  0.
         11    1    3    3    0    0  0.26953956438E+02 -0.31935551488E+02  0.16982414153E+01  0.41824385718E+02  0.51100000000E-03 0.  1.
         22    1    1    0    0    0 -0.67845551854E+01 -0.15516502340E+02  0.20883251489E+02  0.26886841144E+02  0.00000000000E+00 0. -1.
</event>
<event>
 5    1  0.1692171E-003  0.9118800E+02  0.7818608E-02  0.1130116E+00
         25   -1    0    0    0    0  0.00000000000E+00  0.00000000000E+00  0.99999998245E-14  0.12500000000E+03  0.12500000000E+03 0.  0.
        -11    1    3    3    0    0 -0.97548296868E+01 -0.12730423168E+02  0.30957646735E+02  0.34865402162E+02  0.51100000000E-03 0. -1.
         23    2    1    0    0    0  0.93320163506E+01  0.24268799889E+02 -0.13441225407E+02  0.95730088526E+02  0.91145609503E+02 0.  0.
         11    1    3    3    0    0  0.19086846037E+02  0.36999223057E+02 -0.44398872142E+02  0.60864686365E+02  0.51100000000E-03 0.  1.
         22    1    1    0    0    0 -0.93320163506E+01 -0.24268799889E+02  0.13441225407E+02  0.29269911474E+02  0.00000000000E+00 0.  1.
</event>
<event>
 5    1  0.1692171E-003  0.9118800E+02  0.7818608E-02  0.1130116E+00
         25   -1    0    0    0    0  0.00000000000E+00  0.00000000000E+00  0.99999998245E-14  0.12500000000E+03  0.12500000000E+03 0.  0.
        -11    1    3    3    0    0 -0.13414993158E+01 -0.32990739586E+02 -0.34613048275E+02  0.47835673195E+02  0.51100000000E-03 0. -1.
         23    2    1    0    0    0 -0.12403168840E+02 -0.36699446404E+01 -0.42851830787E+02  0.80238560203E+02  0.66593093116E+02 0.  0.
         11    1    3    3    0    0 -0.11061669524E+02  0.29320794946E+02 -0.82387825117E+01  0.32402887008E+02  0.51100000000E-03 0.  1.
         22    1    1    0    0    0  0.12403168840E+02  0.36699446404E+01  0.42851830787E+02  0.44761439797E+02  0.00000000000E+00 0. -1.
</event>
<event>
 5    1  0.1692171E-003  0.9118800E+02  0.7818608E-02  0.1130116E+00
         25   -1    0    0    0    0  0.00000000000E+00  0.00000000000E+00  0.99999998245E-14  0.12500000000E+03  0.12500000000E+03 0.  0.
        -11    1    3    3    0    0  0.49226232872E+02  0.15932148519E+02  0.44637280095E+01  0.51932458321E+02  0.51100000000E-03 0.  1.
         23    2    1    0    0    0  0.23949971543E+02 -0.20732333848E-01 -0.22464494942E+02  0.92163205094E+02  0.86115046731E+02 0.  0.
         11    1    3    3    0    0 -0.25276261330E+02 -0.15952880853E+02 -0.26928222951E+02  0.40230746773E+02  0.51100000000E-03 0. -1.
         22    1    1    0    0    0 -0.23949971543E+02  0.20732333848E-01  0.22464494942E+02  0.32836794906E+02  0.00000000000E+00 0. -1.
</event>
<event>
 5    1  0.1692171E-003  0.9118800E+02  0.7818608E-02  0.1130116E+00
         25   -1    0    0    0    0  0.00000000000E+00  0.00000000000E+00  0.99999998245E-14  0.12500000000E+03  0.12500000000E+03 0.  0.
        -11    1    3    3    0    0  0.36240498465E+02  0.72476501970E+01  0.23156601102E+02  0.43613419233E+02  0.51100000000E-03 0.  1.
         23    2    1    0    0    0 -0.34631183732E+01  0.27715336901E+02 -0.52921159964E+01  0.96572204093E+02  0.92293288072E+02 0.  0.
         11    1    3    3    0    0 -0.39703616838E+02  0.20467686704E+02 -0.28448717098E+02  0.52958784860E+02  0.51100000000E-03 0. -1.
         22    1    1    0    0    0  0.34631183732E+01 -0.27715336901E+02  0.52921159964E+01  0.28427795907E+02  0.00000000000E+00 0. -1.
</event>
<event>
 5    1  0.1692171E-003  0.9118800E+02  0.7818608E-02  0.1130116E+00
         25   -1    0    0    0    0  0.00000000000E+00  0.00000000000E+00  0.99999998245E-14  0.12500000000E+03  0.12500000000E+03 0.  0.
        -11    1    3    3    0    0  0.57437648441E+01  0.54169841079E+02 -0.29828894823E+02  0.62105760471E+02  0.51100000000E-03 0.  1.
         23    2    1    0    0    0 -0.10060574565E+01  0.28432680731E+02 -0.12072243892E+02  0.94094198640E+02  0.88873784998E+02 0.  0.
         11    1    3    3    0    0 -0.67498223006E+01 -0.25737160348E+02  0.17756650931E+02  0.31988438168E+02  0.51100000000E-03 0. -1.
         22    1    1    0    0    0  0.10060574565E+01 -0.28432680731E+02  0.12072243892E+02  0.30905801360E+02  0.00000000000E+00 0.  1.
</event>
<event>
 5    1  0.1692171E-003  0.9118800E+02  0.7818608E-02  0.1130116E+00
         25   -1    0    0    0    0  0.00000000000E+00  0.00000000000E+00  0.99999998245E-14  0.12500000000E+03  0.12500000000E+03 0.  0.
        -11    1    3    3    0    0 -0.51029680095E-01  0.42531636532E+02 -0.39089641629E+02  0.57766277300E+02  0.51100000000E-03 0.  1.
         23    2    1    0    0    0  0.16503082614E+02  0.17967701936E+02 -0.12423425396E+02  0.97622426199E+02  0.93704890746E+02 0.  0.
         11    1    3    3    0    0  0.16554112294E+02 -0.24563934596E+02  0.26666216233E+02  0.39856148899E+02  0.51100000000E-03 0. -1.
         22    1    1    0    0    0 -0.16503082614E+02 -0.17967701936E+02  0.12423425396E+02  0.27377573801E+02  0.00000000000E+00 0.  1.
</event>
<event>
 5    1  0.1692171E-003  0.9118800E+02  0.7818608E-02  0.1130116E+00
         25   -1    0    0    0    0  0.00000000000E+00  0.00000000000E+00  0.99999998245E-14  0.12500000000E+03  0.12500000000E+03 0.  0.
        -11    1    3    3    0    0 -0.48090540434E-01 -0.39049985252E+02 -0.42146636439E+02  0.57456441103E+02  0.51100000000E-03 0. -1.
         23    2    1    0    0    0 -0.12612616189E+02 -0.24871367942E+02 -0.88897610446E+01  0.95730717777E+02  0.91146472472E+02 0.  0.
         11    1    3    3    0    0 -0.12564525648E+02  0.14178617310E+02  0.33256875395E+02  0.38274276673E+02  0.51100000000E-03 0.  1.
         22    1    1    0    0    0  0.12612616189E+02  0.24871367942E+02  0.88897610446E+01  0.29269282223E+02  0.00000000000E+00 0.  1.
</event>
<event>
 4    1  0.1692171E-003  0.9118800E+02  0.7818608E-02  0.1130116E+00
         25   -1    0    0    0    0  0.00000000000E+00  0.00000000000E+00  0.99999998245E-14  0.12500000000E+03  0.12500000000E+03 0.  0.
        -11    1    1    0    0    0 -0.38023706341E+02 -0.81291114965E+01  0.80205940450E+01  0.39701569575E+02  0.51100000000E-03 0.  1.
         11    1    1    0    0    0 -0.13405680240E+02  0.26684183385E+02 -0.67181345401E+01  0.30608679122E+02  0.51100000000E-03 0. -1.
         22    1    1    0    0    0  0.51429386580E+02 -0.18555071889E+02 -0.13024595049E+01  0.54689751303E+02  0.00000000000E+00 0. -1.
</event>
<event>
 5    1  0.1692171E-003  0.9118800E+02  0.7818608E-02  0.1130116E+00
         25   -1    0    0    0    0  0.00000000000E+00  0.00000000000E+00  0.99999998245E-14  0.12500000000E+03  0.12500000000E+03 0.  0.
        -11    1    3    3    0    0  0.14458105792E+01  0.47940193081E+02 -0.34839235160E+01  0.48088358302E+02  0.51100000000E-03 0. -1.
         23    2    1    0    0    0  0.27767070204E+02  0.79736051357E+01 -0.30962657152E+01  0.95945302825E+02  0.91440284920E+02 0.  0.
         11    1    3    3    0    0  0.26321259625E+02 -0.39966587945E+02  0.38765780078E+00  0.47856944523E+02  0.51100000000E-03 0.  1.
         22    1    1    0    0    0 -0.27767070204E+02 -0.79736051357E+01  0.30962657152E+01  0.29054697175E+02  0.00000000000E+00 0. -1.
</event>
<event>
 5    1  0.1692171E-003  0.9118800E+02  0.7818608E-02  0.1130116E+00
         25   -1    0    0    0    0  0.00000000000E+00  0.00000000000E+00  0.99999998245E-14  0.12500000000E+03  0.12500000000E+03 0.  0.
        -11    1    3    3    0    0  0.63994982419E+01  0.25567397024E+02  0.21589062888E+02  0.34069531916E+02  0.51100000000E-03 0.  1.
         23    2    1    0    0    0  0.36000634023E+01 -0.24047449779E+02 -0.15575883778E+02  0.96123565787E+02  0.91683648743E+02 0.  0.
         11    1    3    3    0    0 -0.27994348396E+01 -0.49614846803E+02 -0.37164946666E+02  0.62054033871E+02  0.51100000000E-03 0. -1.
         22    1    1    0    0    0 -0.36000634023E+01  0.24047449779E+02  0.15575883778E+02  0.28876434213E+02  0.00000000000E+00 0. -1.
</event>
<event>
 5    1  0.1692171E-003  0.9118800E+02  0.7818608E-02  0.1130116E+00
         25   -1    0    0    0    0  0.00000000000E+00  0.00000000000E+00  0.99999998245E-14  0.12500000000E+03  0.12500000000E+03 0.  0.
        -11    1    3    3    0    0  0.54594677654E+02 -0.12607022007E+02 -0.26288962954E+02  0.61892046383E+02  0.51100000000E-03 0.  1.
         23    2    1    0    0    0  0.27046538165E+02 -0.33490031848E+01 -0.67134197521E+01  0.96932206111E+02  0.92779585727E+02 0.  0.
         11    1    3    3    0    0 -0.27548139489E+02  0.92580188221E+01  0.19575543202E+02  0.35040159728E+02  0.51100000000E-03 0. -1.
         22    1    1    0    0    0 -0.27046538165E+02  0.33490031848E+01  0.67134197521E+01  0.28067793889E+02  0.00000000000E+00 0.  1.
</event>
<event>
 5    1  0.1692171E-003  0.9118800E+02  0.7818608E-02  0.1130116E+00
         25   -1    0    0    0    0  0.00000000000E+00  0.00000000000E+00  0.99999998245E-14  0.12500000000E+03  0.12500000000E+03 0.  0.
        -11    1    3    3    0    0 -0.35908600868E+02  0.28175870851E+01  0.31357610633E+02  0.47756320609E+02  0.51100000000E-03 0. -1.
         23    2    1    0    0    0 -0.82345363435E+01  0.28671671286E+02  0.30999873797E+01  0.95008630493E+02  0.90150749433E+02 0.  0.
         11    1    3    3    0    0  0.27674064524E+02  0.25854084201E+02 -0.28257623253E+02  0.47252309884E+02  0.51100000000E-03 0.  1.
         22    1    1    0    0    0  0.82345363435E+01 -0.28671671286E+02 -0.30999873797E+01  0.29991369507E+02  0.00000000000E+00 0. -1.
</event>
<event>
 5    1  0.1692171E-003  0.9118800E+02  0.7818608E-02  0.1130116E+00
         25   -1    0    0    0    0  0.00000000000E+00  0.00000000000E+00  0.99999998245E-14  0.12500000000E+03  0.12500000000E+03 0.  0.
        -11    1    3    3    0    0  0.13890372699E+02  0.22334950928E+02  0.37194627946E+01  0.26563638501E+02  0.51100000000E-03 0.  1.
         23    2    1    0    0    0 -0.10185567740E+02 -0.23643760916E+02 -0.27659968555E+02  0.87213136133E+02  0.78602061253E+02 0.  0.
         11    1    3    3    0    0 -0.24075940440E+02 -0.45978711844E+02 -0.31379431349E+02  0.60649497632E+02  0.51100000000E-03 0. -1.
         22    1    1    0    0    0  0.10185567740E+02  0.23643760916E+02  0.27659968555E+02  0.37786863867E+02  0.00000000000E+00 0. -1.
</event>
<event>
 5    1  0.1692171E-003  0.9118800E+02  0.7818608E-02  0.1130116E+00
         25   -1    0    0    0    0  0.00000000000E+00  0.00000000000E+00  0.99999998245E-14  0.12500000000E+03  0.12500000000E+03 0.  0.
        -11    1    3    3    0    0  0.35581688933E+02 -0.59451130086E+01 -0.26860976438E+02  0.44976805261E+02  0.51100000000E-03 0. -1.
         23    2    1    0    0    0  0.18621359528E+01 -0.30112512052E+02  0.76681510084E+00  0.94820223033E+02  0.89889130368E+02 0.  0.
         11    1    3    3    0    0 -0.33719552980E+02 -0.24167399043E+02  0.27627791539E+02  0.49843417773E+02  0.51100000000E-03 0.  1.
         22    1    1    0    0    0 -0.18621359528E+01  0.30112512052E+02 -0.76681510084E+00  0.30179776967E+02  0.00000000000E+00 0.  1.
</event>
<event>
 5    1  0.1692171E-003  0.9118800E+02  0.7818608E-02  0.1130116E+00
         25   -1    0    0    0    0  0.00000000000E+00  0.00000000000E+00  0.99999998245E-14  0.12500000000E+03  0.12500000000E+03 0.  0.
        -11    1    3    3    0    0  0.18182323578E+02 -0.31045110931E+02 -0.14207411558E+02  0.38681343654E+02  0.51100000000E-03 0.  1.
         23    2    1    0    0    0 -0.28636391204E+02  0.45127114382E+00 -0.64923999696E+01  0.95633389638E+02  0.91012896940E+02 0.  0.
         11    1    3    3    0    0 -0.46818714782E+02  0.31496382075E+02  0.77150115885E+01  0.56952045984E+02  0.51100000000E-03 0. -1.
         22    1    1    0    0    0  0.28636391204E+02 -0.45127114382E+00  0.64923999696E+01  0.29366610362E+02  0.00000000000E+00 0. -1.
</event>
<event>
 5    1  0.1692171E-003  0.9118800E+02  0.7818608E-02  0.1130116E+00
         25   -1    0    0    0    0  0.00000000000E+00  0.00000000000E+00  0.99999998245E-14  0.12500000000E+03  0.12500000000E+03 0.  0.
        -11    1    3    3    0    0  0.67208155030E+01  0.37466947081E+02  0.45543703214E+02  0.59356300317E+02  0.51100000000E-03 0. -1.
         23    2    1    0    0    0  0.11366450636E+01  0.25424093432E+02  0.93841105232E+01  0.97875508868E+02  0.94041890756E+02 0.  0.
         11    1    3    3    0    0 -0.55841704395E+01 -0.12042853649E+02 -0.36159592691E+02  0.38519208551E+02  0.51100000000E-03 0.  1.
         22    1    1    0    0    0 -0.11366450636E+01 -0.25424093432E+02 -0.93841105232E+01  0.27124491132E+02  0.00000000000E+00 0. -1.
</event>
<event>
 5    1  0.1692171E-003  0.9118800E+02  0.7818608E-02  0.1130116E+00
         25   -1    0    0    0    0  0.00000000000E+00  0.00000000000E+00  0.99999998245E-14  0.12500000000E+03  0.12500000000E+03 0.  0.
        -11    1    3    3    0    0 -0.11023217386E+02  0.28520643880E+02  0.47348647536E+02  0.56363400115E+02  0.51100000000E-03 0. -1.
         23    2    1    0    0    0 -0.10609871721E+02 -0.77841959943E+01  0.98177644328E+01  0.10858197382E+03  0.10733356164E+03 0.  0.
         11    1    3    3    0    0  0.41334566493E+00 -0.36304839874E+02 -0.37530883103E+02  0.52218573704E+02  0.51100000000E-03 0.  1.
         22    1    1    0    0    0  0.10609871721E+02  0.77841959943E+01 -0.98177644328E+01  0.16418026181E+02  0.00000000000E+00 0. -1.
</event>
<event>
 5    1  0.1692171E-003  0.9118800E+02  0.7818608E-02  0.1130116E+00
         25   -1    0    0    0    0  0.00000000000E+00  0.00000000000E+00  0.99999998245E-14  0.12500000000E+03  0.12500000000E+03 0.  0.
        -11    1    3    3    0    0 -0.29396012898E+02 -0.91041678276E+01 -0.23004486584E+02  0.38421580517E+02  0.51100000000E-03 0. -1.
         23    2    1    0    0    0  0.22398142395E+02  0.13324743449E+02 -0.13469092939E+02  0.95663298833E+02  0.91053965912E+02 0.  0.
         11    1    3    3    0    0  0.51794155294E+02  0.22428911276E+02  0.95353936442E+01  0.57241718317E+02  0.51100000000E-03 0.  1.
         22    1    1    0    0    0 -0.22398142395E+02 -0.13324743449E+02  0.13469092939E+02  0.29336701167E+02  0.00000000000E+00 0.  1.
</event>
<event>
 5    1  0.1692171E-003  0.9118800E+02  0.7818608E-02  0.1130116E+00
         25   -1    0    0    0    0  0.00000000000E+00  0.00000000000E+00  0.99999998245E-14  0.12500000000E+03  0.12500000000E+03 0.  0.
        -11    1    3    3    0    0 -0.45995895108E+02 -0.30856242311E+01  0.33843056627E+02  0.57188249893E+02  0.51100000000E-03 0. -1.
         23    2    1    0    0    0 -0.21985617619E+02 -0.17971223119E+02  0.79437504291E+01  0.95513809786E+02  0.90848513727E+02 0.  0.
         11    1    3    3    0    0  0.24010277489E+02 -0.14885598888E+02 -0.25899306198E+02  0.38325559893E+02  0.51100000000E-03 0.  1.
         22    1    1    0    0    0  0.21985617619E+02  0.17971223119E+02 -0.79437504291E+01  0.29486190214E+02  0.00000000000E+00 0. -1.
</event>
<event>
 5    1  0.1692171E-003  0.9118800E+02  0.7818608E-02  0.1130116E+00
         25   -1    0    0    0    0  0.00000000000E+00  0.00000000000E+00  0.99999998245E-14  0.12500000000E+03  0.12500000000E+03 0.  0.
        -11    1    3    3    0    0  0.13189226374E+02  0.10232453843E+02 -0.31621051249E+02  0.35756813146E+02  0.51100000000E-03 0.  1.
         23    2    1    0    0    0 -0.10000234324E+02 -0.25764906692E+02  0.10131935325E+02  0.95563777131E+02  0.90917238644E+02 0.  0.
         11    1    3    3    0    0 -0.23189460698E+02 -0.35997360535E+02  0.41752986574E+02  0.59806963985E+02  0.51100000000E-03 0. -1.
         22    1    1    0    0    0  0.10000234324E+02  0.25764906692E+02 -0.10131935325E+02  0.29436222869E+02  0.00000000000E+00 0. -1.
</event>
<event>
 5    1  0.1692171E-003  0.9118800E+02  0.7818608E-02  0.1130116E+00
         25   -1    0    0    0    0  0.00000000000E+00  0.00000000000E+00  0.99999998245E-14  0.12500000000E+03  0.12500000000E+03 0.  0.
        -11    1    3    3    0    0  0.29234732272E+02 -0.39268663603E+02 -0.32840098338E+02  0.58950568880E+02  0.51100000000E-03 0. -1.
         23    2    1    0    0    0  0.23489185760E+02 -0.74195417844E+01 -0.17617954566E+02  0.94714957966E+02  0.89742629176E+02 0.  0.
         11    1    3    3    0    0 -0.57455465127E+01  0.31849121819E+02  0.15222143772E+02  0.35764389085E+02  0.51100000000E-03 0.  1.
         22    1    1    0    0    0 -0.23489185760E+02  0.74195417844E+01  0.17617954566E+02  0.30285042034E+02  0.00000000000E+00 0. -1.
</event>
<event>
 5    1  0.1692171E-003  0.9118800E+02  0.7818608E-02  0.1130116E+00
         25   -1    0    0    0    0  0.00000000000E+00  0.00000000000E+00  0.99999998245E-14  0.12500000000E+03  0.12500000000E+03 0.  0.
        -11    1    3    3    0    0 -0.36287977106E+02  0.20572856330E+00 -0.29908373887E+02  0.47025210638E+02  0.51100000000E-03 0.  1.
         23    2    1    0    0    0 -0.15596668029E+02 -0.25126096199E+02  0.51604181477E+01  0.94979895416E+02  0.90110897532E+02 0.  0.
         11    1    3    3    0    0  0.20691309077E+02 -0.25331824762E+02  0.35068792035E+02  0.47954684778E+02  0.51100000000E-03 0. -1.
         22    1    1    0    0    0  0.15596668029E+02  0.25126096199E+02 -0.51604181477E+01  0.30020104584E+02  0.00000000000E+00 0.  1.
</event>
<event>
 5    1  0.1692171E-003  0.9118800E+02  0.7818608E-02  0.1130116E+00
         25   -1    0    0    0    0  0.00000000000E+00  0.00000000000E+00  0.99999998245E-14  0.12500000000E+03  0.12500000000E+03 0.  0.
        -11    1    3    3    0    0  0.21822522908E+02  0.28275744639E+02  0.25211221130E+02  0.43718942257E+02  0.51100000000E-03 0.  1.
         23    2    1    0    0    0  0.28004328215E+02 -0.14870870215E+02  0.16911045631E+01  0.93247125888E+02  0.87674291967E+02 0.  0.
         11    1    3    3    0    0  0.61818053074E+01 -0.43146614854E+02 -0.23520116566E+02  0.49528183631E+02  0.51100000000E-03 0. -1.
         22    1    1    0    0    0 -0.28004328215E+02  0.14870870215E+02 -0.16911045631E+01  0.31752874112E+02  0.00000000000E+00 0. -1.
</event>
<event>
 5    1  0.1692171E-003  0.9118800E+02  0.7818608E-02  0.1130116E+00
         25   -1    0    0    0    0  0.00000000000E+00  0.00000000000E+00  0.99999998245E-14  0.12500000000E+03  0.12500000000E+03 0.  0.
        -11    1    3    3    0    0  0.33615777270E+02  0.60095545685E+00 -0.25901484206E+02  0.42441353810E+02  0.51100000000E-03 0. -1.
         23    2    1    0    0    0 -0.18862495534E+02  0.99390929252E+01 -0.19463212682E+02  0.96131401941E+02  0.91694331806E+02 0.  0.
         11    1    3    3    0    0 -0.52478272804E+02  0.93381374683E+01  0.64382715231E+01  0.53690048131E+02  0.51100000000E-03 0.  1.
         22    1    1    0    0    0  0.18862495534E+02 -0.99390929252E+01  0.19463212682E+02  0.28868598059E+02  0.00000000000E+00 0.  1.
</event>
<event>
 5    1  0.1692171E-003  0.9118800E+02  0.7818608E-02  0.1130116E+00
         25   -1    0    0    0    0  0.00000000000E+00  0.00000000000E+00  0.99999998245E-14  0.12500000000E+03  0.12500000000E+03 0.  0.
        -11    1    3    3    0    0 -0.12251599852E+02 -0.31135837973E+02 -0.88626473777E+01  0.34613416821E+02  0.51100000000E-03 0.  1.
         23    2    1    0    0    0  0.14515571272E+02  0.23336385206E+02 -0.11129976992E+02  0.95349282105E+02  0.90621854573E+02 0.  0.
         11    1    3    3    0    0  0.26767171124E+02  0.54472223179E+02 -0.22673296146E+01  0.60735865284E+02  0.51100000000E-03 0. -1.
         22    1    1    0    0    0 -0.14515571272E+02 -0.23336385206E+02  0.11129976992E+02  0.29650717895E+02  0.00000000000E+00 0. -1.
</event>
<event>
 5    1  0.1692171E-003  0.9118800E+02  0.7818608E-02  0.1130116E+00
         25   -1    0    0    0    0  0.00000000000E+00  0.00000000000E+00  0.99999998245E-14  0.12500000000E+03  0.12500000000E+03 0.  0.
        -11    1    3    3    0    0  0.12992105357E+02 -0.27286903649E+02  0.11637626555E+02  0.32385247636E+02  0.51100000000E-03 0. -1.
         23    2    1    0    0    0 -0.23712147820E+02  0.19252032010E+02 -0.52347330511E+01  0.94011145215E+02  0.88756894402E+02 0.  0.
         11    1    3    3    0    0 -0.36704253177E+02  0.46538935659E+02 -0.16872359606E+02  0.61625897580E+02  0.51100000000E-03 0.  1.
         22    1    1    0    0    0  0.23712147820E+02 -0.19252032010E+02  0.52347330511E+01  0.30988854785E+02  0.00000000000E+00 0.  1.
</event>
<event>
 5    1  0.1692171E-003  0.9118800E+02  0.7818608E-02  0.1130116E+00
         25   -1    0    0    0    0  0.00000000000E+00  0.00000000000E+00  0.99999998245E-14  0.12500000000E+03  0.12500000000E+03 0.  0.
        -11    1    3    3    0    0  0.30170412174E+01 -0.28929532555E+02 -0.31273298653E+02  0.42708776621E+02  0.51100000000E-03 0. -1.
         23    2    1    0    0    0  0.75968826239E+00 -0.18906245063E+02  0.21434556248E+02  0.96408682608E+02  0.92071551807E+02 0.  0.
         11    1    3    3    0    0 -0.22573529551E+01  0.10023287492E+02  0.52707854901E+02  0.53699905987E+02  0.51100000000E-03 0.  1.
         22    1    1    0    0    0 -0.75968826239E+00  0.18906245063E+02 -0.21434556248E+02  0.28591317392E+02  0.00000000000E+00 0.  1.
</event>
<event>
 5    1  0.1692171E-003  0.9118800E+02  0.7818608E-02  0.1130116E+00
         25   -1    0    0    0    0  0.00000000000E+00  0.00000000000E+00  0.99999998245E-14  0.12500000000E+03  0.12500000000E+03 0.  0.
        -11    1    3    3    0    0 -0.35319258957E+02  0.29724654695E+01 -0.72577109545E+01  0.36179551860E+02  0.51100000000E-03 0. -1.
         23    2    1    0    0    0  0.15084106754E+02 -0.12368682752E+02  0.21307920416E+02  0.96111558331E+02  0.91667276510E+02 0.  0.
         11    1    3    3    0    0  0.50403365711E+02 -0.15341148222E+02  0.28565631370E+02  0.59932006471E+02  0.51100000000E-03 0.  1.
         22    1    1    0    0    0 -0.15084106754E+02  0.12368682752E+02 -0.21307920416E+02  0.28888441669E+02  0.00000000000E+00 0.  1.
</event>
<event>
 5    1  0.1692171E-003  0.9118800E+02  0.7818608E-02  0.1130116E+00
         25   -1    0    0    0    0  0.00000000000E+00  0.00000000000E+00  0.99999998245E-14  0.12500000000E+03  0.12500000000E+03 0.  0.
        -11    1    3    3    0    0 -0.28871751944E+02 -0.40623258050E+01 -0.53685777748E+02  0.61092088555E+02  0.51100000000E-03 0.  1.
         23    2    1    0    0    0 -0.21452438877E+02 -0.74864988265E+01 -0.23713918868E+02  0.92157881516E+02  0.86107318962E+02 0.  0.
         11    1    3    3    0    0  0.74193130671E+01 -0.34241730214E+01  0.29971858880E+02  0.31065792961E+02  0.51100000000E-03 0. -1.
         22    1    1    0    0    0  0.21452438877E+02  0.74864988265E+01  0.23713918868E+02  0.32842118484E+02  0.00000000000E+00 0.  1.
</event>
<event>
 5    1  0.1692171E-003  0.9118800E+02  0.7818608E-02  0.1130116E+00
         25   -1    0    0    0    0  0.00000000000E+00  0.00000000000E+00  0.99999998245E-14  0.12500000000E+03  0.12500000000E+03 0.  0.
        -11    1    3    3    0    0 -0.39360019307E+02  0.12866875181E+02 -0.18684405860E+02  0.45429886852E+02  0.51100000000E-03 0.  1.
         23    2    1    0    0    0 -0.16683446598E+02  0.62467276949E+00  0.24282267430E+02  0.95532117178E+02  0.90873699685E+02 0.  0.
         11    1    3    3    0    0  0.22676572709E+02 -0.12242202411E+02  0.42966673290E+02  0.50102230326E+02  0.51100000000E-03 0. -1.
         22    1    1    0    0    0  0.16683446598E+02 -0.62467276949E+00 -0.24282267430E+02  0.29467882822E+02  0.00000000000E+00 0.  1.
</event>
<event>
 5    1  0.1692171E-003  0.9118800E+02  0.7818608E-02  0.1130116E+00
         25   -1    0    0    0    0  0.00000000000E+00  0.00000000000E+00  0.99999998245E-14  0.12500000000E+03  0.12500000000E+03 0.  0.
        -11    1    3    3    0    0 -0.30646666026E+02 -0.26677472117E+02 -0.34230732724E+02  0.53128605479E+02  0.51100000000E-03 0. -1.
         23    2    1    0    0    0  0.11089044549E+02 -0.17091548280E+02 -0.11069654591E+02  0.10181325412E+03  0.99137851150E+02 0.  0.
         11    1    3    3    0    0  0.41735710576E+02  0.95859238370E+01  0.23161078133E+02  0.48684648644E+02  0.51100000000E-03 0.  1.
         22    1    1    0    0    0 -0.11089044549E+02  0.17091548280E+02  0.11069654591E+02  0.23186745877E+02  0.00000000000E+00 0. -1.
</event>
<event>
 5    1  0.1692171E-003  0.9118800E+02  0.7818608E-02  0.1130116E+00
         25   -1    0    0    0    0  0.00000000000E+00  0.00000000000E+00  0.99999998245E-14  0.12500000000E+03  0.12500000000E+03 0.  0.
        -11    1    3    3    0    0 -0.31821330602E+02 -0.25468222516E+02 -0.86851338145E+00  0.40767410454E+02  0.51100000000E-03 0.  1.
         23    2    1    0    0    0  0.78144387653E+01 -0.34315024670E+02 -0.18729853921E+02  0.85132797951E+02  0.75221004299E+02 0.  0.
         11    1    3    3    0    0  0.39635769367E+02 -0.88468021541E+01 -0.17861340540E+02  0.44365387497E+02  0.51100000000E-03 0. -1.
         22    1    1    0    0    0 -0.78144387653E+01  0.34315024670E+02  0.18729853921E+02  0.39867202049E+02  0.00000000000E+00 0. -1.
</event>
<event>
 5    1  0.1692171E-003  0.9118800E+02  0.7818608E-02  0.1130116E+00
         25   -1    0    0    0    0  0.00000000000E+00  0.00000000000E+00  0.99999998245E-14  0.12500000000E+03  0.12500000000E+03 0.  0.
        -11    1    3    3    0    0  0.10078338803E+02 -0.10415867903E+02  0.32122173524E+02  0.35240562557E+02  0.51100000000E-03 0.  1.
         23    2    1    0    0    0  0.24472277279E+02 -0.51686972983E+01 -0.22123083366E+02  0.91607806233E+02  0.85305050016E+02 0.  0.
         11    1    3    3    0    0  0.14393938476E+02  0.52471706050E+01 -0.54245256890E+02  0.56367243675E+02  0.51100000000E-03 0. -1.
         22    1    1    0    0    0 -0.24472277279E+02  0.51686972983E+01  0.22123083366E+02  0.33392193767E+02  0.00000000000E+00 0. -1.
</event>
<event>
 5    1  0.1692171E-003  0.9118800E+02  0.7818608E-02  0.1130116E+00
         25   -1    0    0    0    0  0.00000000000E+00  0.00000000000E+00  0.99999998245E-14  0.12500000000E+03  0.12500000000E+03 0.  0.
        -11    1    3    3    0    0 -0.11943325092E+02 -0.53262995175E+01 -0.35218131643E+02  0.37567662657E+02  0.51100000000E-03 0. -1.
         23    2    1    0    0    0 -0.54246292035E+00 -0.30662182493E+02  0.11767517483E+02  0.92152805767E+02  0.86099950301E+02 0.  0.
         11    1    3    3    0    0  0.11400862171E+02 -0.25335882975E+02  0.46985649126E+02  0.54585143111E+02  0.51100000000E-03 0.  1.
         22    1    1    0    0    0  0.54246292035E+00  0.30662182493E+02 -0.11767517483E+02  0.32847194233E+02  0.00000000000E+00 0.  1.
</event>
<event>
 5    1  0.1692171E-003  0.9118800E+02  0.7818608E-02  0.1130116E+00
         25   -1    0    0    0    0  0.00000000000E+00  0.00000000000E+00  0.99999998245E-14  0.12500000000E+03  0.12500000000E+03 0.  0.
        -11    1    3    3    0    0 -0.28968109905E+02  0.15400139748E+02 -0.51478880418E+02  0.61044171098E+02  0.51100000000E-03 0.  1.
         23    2    1    0    0    0 -0.16661058493E+02 -0.18088220759E+01 -0.24125736744E+02  0.95624604159E+02  0.91000829884E+02 0.  0.
         11    1    3    3    0    0  0.12307051412E+02 -0.17208961824E+02  0.27353143674E+02  0.34580433060E+02  0.51100000000E-03 0. -1.
         22    1    1    0    0    0  0.16661058493E+02  0.18088220759E+01  0.24125736744E+02  0.29375395841E+02  0.00000000000E+00 0.  1.
</event>
<event>
 5    1  0.1692171E-003  0.9118800E+02  0.7818608E-02  0.1130116E+00
         25   -1    0    0    0    0  0.00000000000E+00  0.00000000000E+00  0.99999998245E-14  0.12500000000E+03  0.12500000000E+03 0.  0.
        -11    1    3    3    0    0 -0.34470322182E+02 -0.19958903763E+02  0.42581635450E+02  0.58307432018E+02  0.51100000000E-03 0. -1.
         23    2    1    0    0    0 -0.23237467096E+02  0.39893869268E+01  0.12682753296E+02  0.98227863062E+02  0.94509077688E+02 0.  0.
         11    1    3    3    0    0  0.11232855086E+02  0.23948290690E+02 -0.29898882154E+02  0.39920431043E+02  0.51100000000E-03 0.  1.
         22    1    1    0    0    0  0.23237467096E+02 -0.39893869268E+01 -0.12682753296E+02  0.26772136938E+02  0.00000000000E+00 0.  1.
</event>
<event>
 5    1  0.1692171E-003  0.9118800E+02  0.7818608E-02  0.1130116E+00
         25   -1    0    0    0    0  0.00000000000E+00  0.00000000000E+00  0.99999998245E-14  0.12500000000E+03  0.12500000000E+03 0.  0.
        -11    1    3    3    0    0  0.29377740134E+02 -0.78370482936E+01  0.50381582411E+02  0.58845346357E+02  0.51100000000E-03 0.  1.
         23    2    1    0    0    0  0.21901253606E+02 -0.13198866270E+02  0.15107275723E+02  0.95299751515E+02  0.90553508373E+02 0.  0.
         11    1    3    3    0    0 -0.74764865288E+01 -0.53618179762E+01 -0.35274306688E+02  0.36454405158E+02  0.51100000000E-03 0. -1.
         22    1    1    0    0    0 -0.21901253606E+02  0.13198866270E+02 -0.15107275723E+02  0.29700248485E+02  0.00000000000E+00 0.  1.
</event>
<event>
 5    1  0.1692171E-003  0.9118800E+02  0.7818608E-02  0.1130116E+00
         25   -1    0    0    0    0  0.00000000000E+00  0.00000000000E+00  0.99999998245E-14  0.12500000000E+03  0.12500000000E+03 0.  0.
        -11    1    3    3    0    0 -0.21355774117E+02  0.14487784452E+02  0.27790743285E+02  0.37924799262E+02  0.51100000000E-03 0. -1.
         23    2    1    0    0    0 -0.71029731332E+01 -0.25667199529E+02 -0.11599186871E+02  0.95951790157E+02  0.91449152754E+02 0.  0.
         11    1    3    3    0    0  0.14252800984E+02 -0.40154983981E+02 -0.39389930156E+02  0.58026990895E+02  0.51100000000E-03 0.  1.
         22    1    1    0    0    0  0.71029731332E+01  0.25667199529E+02  0.11599186871E+02  0.29048209843E+02  0.00000000000E+00 0.  1.
</event>
<event>
 5    1  0.1692171E-003  0.9118800E+02  0.7818608E-02  0.1130116E+00
         25   -1    0    0    0    0  0.00000000000E+00  0.00000000000E+00  0.99999998245E-14  0.12500000000E+03  0.12500000000E+03 0.  0.
        -11    1    3    3    0    0 -0.32939286153E+01 -0.30512264026E+02  0.50345235832E+02  0.58961775694E+02  0.51100000000E-03 0. -1.
         23    2    1    0    0    0 -0.79361214588E+01 -0.24137480509E+02  0.14332650123E+02  0.95827669811E+02  0.91279337491E+02 0.  0.
         11    1    3    3    0    0 -0.46421928435E+01  0.63747835176E+01 -0.36012585709E+02  0.36865894117E+02  0.51100000000E-03 0.  1.
         22    1    1    0    0    0  0.79361214588E+01  0.24137480509E+02 -0.14332650123E+02  0.29172330189E+02  0.00000000000E+00 0. -1.
</event>
<event>
 5    1  0.1692171E-003  0.9118800E+02  0.7818608E-02  0.1130116E+00
         25   -1    0    0    0    0  0.00000000000E+00  0.00000000000E+00  0.99999998245E-14  0.12500000000E+03  0.12500000000E+03 0.  0.
        -11    1    3    3    0    0  0.43374725883E+02 -0.27702552541E+02  0.12643560456E+02  0.52996772392E+02  0.51100000000E-03 0.  1.
         23    2    1    0    0    0  0.27210050270E+02  0.10302275039E+02  0.10794814930E+01  0.95884901048E+02  0.91357677630E+02 0.  0.
         11    1    3    3    0    0 -0.16164675613E+02  0.38004827580E+02 -0.11564078963E+02  0.42888128656E+02  0.51100000000E-03 0. -1.
         22    1    1    0    0    0 -0.27210050270E+02 -0.10302275039E+02 -0.10794814930E+01  0.29115098952E+02  0.00000000000E+00 0.  1.
</event>
<event>
 5    1  0.1692171E-003  0.9118800E+02  0.7818608E-02  0.1130116E+00
         25   -1    0    0    0    0  0.00000000000E+00  0.00000000000E+00  0.99999998245E-14  0.12500000000E+03  0.12500000000E+03 0.  0.
        -11    1    3    3    0    0 -0.20064864002E+02  0.41514230137E+02  0.77861592908E+01  0.46761676061E+02  0.51100000000E-03 0. -1.
         23    2    1    0    0    0  0.22677100912E+02  0.18256018143E+02  0.12300104376E+01  0.95861605571E+02  0.91325798068E+02 0.  0.
         11    1    3    3    0    0  0.42741964914E+02 -0.23258211994E+02 -0.65561488532E+01  0.49099929510E+02  0.51100000000E-03 0.  1.
         22    1    1    0    0    0 -0.22677100912E+02 -0.18256018143E+02 -0.12300104376E+01  0.29138394429E+02  0.00000000000E+00 0.  1.
</event>
<event>
 5    1  0.1692171E-003  0.9118800E+02  0.7818608E-02  0.1130116E+00
         25   -1    0    0    0    0  0.00000000000E+00  0.00000000000E+00  0.99999998245E-14  0.12500000000E+03  0.12500000000E+03 0.  0.
        -11    1    3    3    0    0 -0.44856207886E+02 -0.86626068666E+01 -0.19756302253E+02  0.49773804582E+02  0.51100000000E-03 0.  1.
         23    2    1    0    0    0 -0.37371314472E+01 -0.27213085884E+02 -0.79932990146E+01  0.96392116053E+02  0.92049057645E+02 0.  0.
         11    1    3    3    0    0  0.41119076439E+02 -0.18550479017E+02  0.11763003238E+02  0.46618311471E+02  0.51100000000E-03 0. -1.
         22    1    1    0    0    0  0.37371314472E+01  0.27213085884E+02  0.79932990146E+01  0.28607883947E+02  0.00000000000E+00 0. -1.
</event>
<event>
 5    1  0.1692171E-003  0.9118800E+02  0.7818608E-02  0.1130116E+00
         25   -1    0    0    0    0  0.00000000000E+00  0.00000000000E+00  0.99999998245E-14  0.12500000000E+03  0.12500000000E+03 0.  0.
        -11    1    3    3    0    0 -0.64768022874E+01  0.13902826140E+02  0.56822315063E+02  0.58855866588E+02  0.51100000000E-03 0.  1.
         23    2    1    0    0    0  0.14918033716E+00 -0.84807280858E+01  0.26824937810E+02  0.96865994026E+02  0.92690336640E+02 0.  0.
         11    1    3    3    0    0  0.66259826246E+01 -0.22383554226E+02 -0.29997377253E+02  0.38010127438E+02  0.51100000000E-03 0. -1.
         22    1    1    0    0    0 -0.14918033716E+00  0.84807280858E+01 -0.26824937810E+02  0.28134005974E+02  0.00000000000E+00 0.  1.
</event>
<event>
 5    1  0.1692171E-003  0.9118800E+02  0.7818608E-02  0.1130116E+00
         25   -1    0    0    0    0  0.00000000000E+00  0.00000000000E+00  0.99999998245E-14  0.12500000000E+03  0.12500000000E+03 0.  0.
        -11    1    3    3    0    0 -0.74869806137E+01  0.33082294705E+01  0.33404358176E+02  0.34392592318E+02  0.51100000000E-03 0. -1.
         23    2    1    0    0    0 -0.14642469350E+02  0.15782714195E+02 -0.23525305931E+02  0.93110566089E+02  0.87479377697E+02 0.  0.
         11    1    3    3    0    0 -0.71554887360E+01  0.12474484724E+02 -0.56929664107E+02  0.58717973771E+02  0.51100000000E-03 0.  1.
         22    1    1    0    0    0  0.14642469350E+02 -0.15782714195E+02  0.23525305931E+02  0.31889433911E+02  0.00000000000E+00 0.  1.
</event>
<event>
 5    1  0.1692171E-003  0.9118800E+02  0.7818608E-02  0.1130116E+00
         25   -1    0    0    0    0  0.00000000000E+00  0.00000000000E+00  0.99999998245E-14  0.12500000000E+03  0.12500000000E+03 0.  0.
        -11    1    3    3    0    0  0.50327717404E+02  0.28785994189E+02 -0.15705697208E+02  0.60068140687E+02  0.51100000000E-03 0. -1.
         23    2    1    0    0    0  0.18285723507E+02  0.14010317993E+02 -0.18488215783E+02  0.95462383012E+02  0.90777727186E+02 0.  0.
         11    1    3    3    0    0 -0.32041993896E+02 -0.14775676196E+02 -0.27825185752E+01  0.35394242325E+02  0.51100000000E-03 0.  1.
         22    1    1    0    0    0 -0.18285723507E+02 -0.14010317993E+02  0.18488215783E+02  0.29537616988E+02  0.00000000000E+00 0. -1.
</event>
<event>
 5    1  0.1692171E-003  0.9118800E+02  0.7818608E-02  0.1130116E+00
         25   -1    0    0    0    0  0.00000000000E+00  0.00000000000E+00  0.99999998245E-14  0.12500000000E+03  0.12500000000E+03 0.  0.
        -11    1    3    3    0    0 -0.82885206863E+01  0.35811949561E+02 -0.37193980562E+01  0.36946301962E+02  0.51100000000E-03 0.  1.
         23    2    1    0    0    0  0.24421667208E+01 -0.18166206805E+02 -0.23294729490E+02  0.95358480640E+02  0.90634541759E+02 0.  0.
         11    1    3    3    0    0  0.10730687407E+02 -0.53978156365E+02 -0.19575331434E+02  0.58412178678E+02  0.51100000000E-03 0. -1.
         22    1    1    0    0    0 -0.24421667208E+01  0.18166206805E+02  0.23294729490E+02  0.29641519360E+02  0.00000000000E+00 0. -1.
</event>
<event>
 5    1  0.1692171E-003  0.9118800E+02  0.7818608E-02  0.1130116E+00
         25   -1    0    0    0    0  0.00000000000E+00  0.00000000000E+00  0.99999998245E-14  0.12500000000E+03  0.12500000000E+03 0.  0.
        -11    1    3    3    0    0  0.15553880837E+02  0.10950956544E+02  0.26364492693E+02  0.32510508048E+02  0.51100000000E-03 0.  1.
         23    2    1    0    0    0 -0.11508188431E+02  0.88530199479E+01 -0.28103696848E+02  0.93367229971E+02  0.87845361248E+02 0.  0.
         11    1    3    3    0    0 -0.27062069268E+02 -0.20979365962E+01 -0.54468189542E+02  0.60856721923E+02  0.51100000000E-03 0. -1.
         22    1    1    0    0    0  0.11508188431E+02 -0.88530199479E+01  0.28103696848E+02  0.31632770029E+02  0.00000000000E+00 0. -1.
</event>
<event>
 5    1  0.1692171E-003  0.9118800E+02  0.7818608E-02  0.1130116E+00
         25   -1    0    0    0    0  0.00000000000E+00  0.00000000000E+00  0.99999998245E-14  0.12500000000E+03  0.12500000000E+03 0.  0.
        -11    1    3    3    0    0  0.84892835032E+01 -0.50740842084E+02 -0.19853423409E+02  0.55143987987E+02  0.51100000000E-03 0.  1.
         23    2    1    0    0    0 -0.11574130288E+02 -0.14728334781E+02 -0.21604719846E+02  0.96405450572E+02  0.92067163762E+02 0.  0.
         11    1    3    3    0    0 -0.20063413791E+02  0.36012507303E+02 -0.17512964375E+01  0.41261462586E+02  0.51100000000E-03 0. -1.
         22    1    1    0    0    0  0.11574130288E+02  0.14728334781E+02  0.21604719846E+02  0.28594549428E+02  0.00000000000E+00 0.  1.
</event>
<event>
 5    1  0.1692171E-003  0.9118800E+02  0.7818608E-02  0.1130116E+00
         25   -1    0    0    0    0  0.00000000000E+00  0.00000000000E+00  0.99999998245E-14  0.12500000000E+03  0.12500000000E+03 0.  0.
        -11    1    3    3    0    0 -0.32848202141E+02 -0.16558639682E+02 -0.17606248033E+02  0.40782016896E+02  0.51100000000E-03 0.  1.
         23    2    1    0    0    0  0.21903452685E+02 -0.14419319961E+02 -0.12894446520E+02  0.95777666440E+02  0.91210836034E+02 0.  0.
         11    1    3    3    0    0  0.54751654826E+02  0.21393197211E+01  0.47118015126E+01  0.54995649544E+02  0.51100000000E-03 0. -1.
         22    1    1    0    0    0 -0.21903452685E+02  0.14419319961E+02  0.12894446520E+02  0.29222333560E+02  0.00000000000E+00 0. -1.
</event>
<event>
 5    1  0.1692171E-003  0.9118800E+02  0.7818608E-02  0.1130116E+00
         25   -1    0    0    0    0  0.00000000000E+00  0.00000000000E+00  0.99999998245E-14  0.12500000000E+03  0.12500000000E+03 0.  0.
        -11    1    3    3    0    0  0.26108546453E+02  0.27535668587E+02 -0.25436794285E+02  0.45682597848E+02  0.51100000000E-03 0. -1.
         23    2    1    0    0    0  0.16264394220E+02 -0.14372593455E+02  0.96765558266E+01  0.10123578963E+03  0.98407049579E+02 0.  0.
         11    1    3    3    0    0 -0.98441522328E+01 -0.41908262042E+02  0.35113350111E+02  0.55553191779E+02  0.51100000000E-03 0.  1.
         22    1    1    0    0    0 -0.16264394220E+02  0.14372593455E+02 -0.96765558266E+01  0.23764210373E+02  0.00000000000E+00 0.  1.
</event>
<event>
 5    1  0.1692171E-003  0.9118800E+02  0.7818608E-02  0.1130116E+00
         25   -1    0    0    0    0  0.00000000000E+00  0.00000000000E+00  0.99999998245E-14  0.12500000000E+03  0.12500000000E+03 0.  0.
        -11    1    3    3    0    0  0.38358037058E+02 -0.48376991364E+02  0.66900940819E+01  0.62100158288E+02  0.51100000000E-03 0.  1.
         23    2    1    0    0    0  0.17836181343E+02 -0.22206551187E+02 -0.19166517112E+01  0.96452954018E+02  0.92131636827E+02 0.  0.
         11    1    3    3    0    0 -0.20521855715E+02  0.26170440176E+02 -0.86067457931E+01  0.34352795729E+02  0.51100000000E-03 0. -1.
         22    1    1    0    0    0 -0.17836181343E+02  0.22206551187E+02  0.19166517112E+01  0.28547045982E+02  0.00000000000E+00 0.  1.
</event>
<event>
 5    1  0.1692171E-003  0.9118800E+02  0.7818608E-02  0.1130116E+00
         25   -1    0    0    0    0  0.00000000000E+00  0.00000000000E+00  0.99999998245E-14  0.12500000000E+03  0.12500000000E+03 0.  0.
        -11    1    3    3    0    0 -0.57615819710E+01 -0.36864529990E+02 -0.12392252404E+02  0.39316120334E+02  0.51100000000E-03 0. -1.
         23    2    1    0    0    0 -0.25077347838E+02  0.14809052020E+02  0.89612728144E-01  0.95876308154E+02  0.91345919659E+02 0.  0.
         11    1    3    3    0    0 -0.19315765867E+02  0.51673582010E+02  0.12481865132E+02  0.56560187820E+02  0.51100000000E-03 0.  1.
         22    1    1    0    0    0  0.25077347838E+02 -0.14809052020E+02 -0.89612728144E-01  0.29123691846E+02  0.00000000000E+00 0.  1.
</event>
<event>
 5    1  0.1692171E-003  0.9118800E+02  0.7818608E-02  0.1130116E+00
         25   -1    0    0    0    0  0.00000000000E+00  0.00000000000E+00  0.99999998245E-14  0.12500000000E+03  0.12500000000E+03 0.  0.
        -11    1    3    3    0    0  0.10119561167E+01 -0.53903661038E+02 -0.10025591554E+02  0.54837407076E+02  0.51100000000E-03 0. -1.
         23    2    1    0    0    0 -0.17251191632E+02 -0.18077266861E+02 -0.15760408399E+02  0.95457121623E+02  0.90770482018E+02 0.  0.
         11    1    3    3    0    0 -0.18263147748E+02  0.35826394177E+02 -0.57348168450E+01  0.40619714547E+02  0.51100000000E-03 0.  1.
         22    1    1    0    0    0  0.17251191632E+02  0.18077266861E+02  0.15760408399E+02  0.29542878377E+02  0.00000000000E+00 0.  1.
</event>
<event>
 5    1  0.1692171E-003  0.9118800E+02  0.7818608E-02  0.1130116E+00
         25   -1    0    0    0    0  0.00000000000E+00  0.00000000000E+00  0.99999998245E-14  0.12500000000E+03  0.12500000000E+03 0.  0.
        -11    1    3    3    0    0 -0.48397917106E+01 -0.46603877104E+02 -0.13398807450E+02  0.48732668573E+02  0.51100000000E-03 0. -1.
         23    2    1    0    0    0 -0.33006138963E+01 -0.15335048377E+02  0.23262923091E+02  0.96942534834E+02  0.92793500357E+02 0.  0.
         11    1    3    3    0    0  0.15391778142E+01  0.31268828727E+02  0.36661730541E+02  0.48209866260E+02  0.51100000000E-03 0.  1.
         22    1    1    0    0    0  0.33006138963E+01  0.15335048377E+02 -0.23262923091E+02  0.28057465166E+02  0.00000000000E+00 0. -1.
</event>
<event>
 5    1  0.1692171E-003  0.9118800E+02  0.7818608E-02  0.1130116E+00
         25   -1    0    0    0    0  0.00000000000E+00  0.00000000000E+00  0.99999998245E-14  0.12500000000E+03  0.12500000000E+03 0.  0.
        -11    1    3    3    0    0  0.40697942477E+01 -0.38219129147E+02 -0.40505687068E+02  0.55838837229E+02  0.51100000000E-03 0. -1.
         23    2    1    0    0    0  0.20704111523E+02 -0.97597594568E+01 -0.19534130228E+02  0.94908549680E+02  0.90011873772E+02 0.  0.
         11    1    3    3    0    0  0.16634317275E+02  0.28459369691E+02  0.20971556840E+02  0.39069712451E+02  0.51100000000E-03 0.  1.
         22    1    1    0    0    0 -0.20704111523E+02  0.97597594568E+01  0.19534130228E+02  0.30091450320E+02  0.00000000000E+00 0. -1.
</event>
<event>
 5    1  0.1692171E-003  0.9118800E+02  0.7818608E-02  0.1130116E+00
         25   -1    0    0    0    0  0.00000000000E+00  0.00000000000E+00  0.99999998245E-14  0.12500000000E+03  0.12500000000E+03 0.  0.
        -11    1    3    3    0    0  0.26759753330E+02 -0.29453296422E+02 -0.31406855913E+02  0.50694887977E+02  0.51100000000E-03 0.  1.
         23    2    1    0    0    0 -0.82435124547E+00 -0.18182375443E+02  0.11893480840E+02  0.10325757101E+03  0.10094252203E+03 0.  0.
         11    1    3    3    0    0 -0.27584104575E+02  0.11270920980E+02  0.43300336752E+02  0.52562683037E+02  0.51100000000E-03 0. -1.
         22    1    1    0    0    0  0.82435124547E+00  0.18182375443E+02 -0.11893480840E+02  0.21742428986E+02  0.00000000000E+00 0. -1.
</event>
<event>
 5    1  0.1692171E-003  0.9118800E+02  0.7818608E-02  0.1130116E+00
         25   -1    0    0    0    0  0.00000000000E+00  0.00000000000E+00  0.99999998245E-14  0.12500000000E+03  0.12500000000E+03 0.  0.
        -11    1    3    3    0    0  0.15473959583E+02 -0.48136381991E+02 -0.14344757159E+01  0.50582728447E+02  0.51100000000E-03 0. -1.
         23    2    1    0    0    0 -0.10171494641E+02 -0.17721246575E+02  0.20536301419E+02  0.96030333806E+02  0.91556449536E+02 0.  0.
         11    1    3    3    0    0 -0.25645454224E+02  0.30415135416E+02  0.21970777135E+02  0.45447605359E+02  0.51100000000E-03 0.  1.
         22    1    1    0    0    0  0.10171494641E+02  0.17721246575E+02 -0.20536301419E+02  0.28969666194E+02  0.00000000000E+00 0.  1.
</event>
<event>
 5    1  0.1692171E-003  0.9118800E+02  0.7818608E-02  0.1130116E+00
         25   -1    0    0    0    0  0.00000000000E+00  0.00000000000E+00  0.99999998245E-14  0.12500000000E+03  0.12500000000E+03 0.  0.
        -11    1    3    3    0    0  0.11095283757E+02 -0.20911245745E+02 -0.24050589708E+02  0.33746353666E+02  0.51100000000E-03 0.  1.
         23    2    1    0    0    0 -0.56489033856E+01  0.47371635194E+01  0.29039763400E+02  0.95039047311E+02  0.90192914510E+02 0.  0.
         11    1    3    3    0    0 -0.16744187142E+02  0.25648409264E+02  0.53090353108E+02  0.61292693645E+02  0.51100000000E-03 0. -1.
         22    1    1    0    0    0  0.56489033856E+01 -0.47371635194E+01 -0.29039763400E+02  0.29960952689E+02  0.00000000000E+00 0. -1.
</event>
<event>
 5    1  0.1692171E-003  0.9118800E+02  0.7818608E-02  0.1130116E+00
         25   -1    0    0    0    0  0.00000000000E+00  0.00000000000E+00  0.99999998245E-14  0.12500000000E+03  0.12500000000E+03 0.  0.
        -11    1    3    3    0    0  0.12633308418E+02  0.36626883244E+02 -0.33388765692E+02  0.51146248469E+02  0.51100000000E-03 0.  1.
         23    2    1    0    0    0  0.25840609335E+02 -0.10459419204E+01 -0.15050385626E+02  0.95077680691E+02  0.90246441331E+02 0.  0.
         11    1    3    3    0    0  0.13207300918E+02 -0.37672825165E+02  0.18338380065E+02  0.43931432222E+02  0.51100000000E-03 0. -1.
         22    1    1    0    0    0 -0.25840609335E+02  0.10459419204E+01  0.15050385626E+02  0.29922319309E+02  0.00000000000E+00 0.  1.
</event>
<event>
 5    1  0.1692171E-003  0.9118800E+02  0.7818608E-02  0.1130116E+00
         25   -1    0    0    0    0  0.00000000000E+00  0.00000000000E+00  0.99999998245E-14  0.12500000000E+03  0.12500000000E+03 0.  0.
        -11    1    3    3    0    0 -0.10144389805E+02  0.25744778580E+02 -0.22181861741E+02  0.35464591626E+02  0.51100000000E-03 0. -1.
         23    2    1    0    0    0  0.12762650187E+02 -0.23246879157E+02  0.78717843604E+01  0.97336529152E+02  0.93322731893E+02 0.  0.
         11    1    3    3    0    0  0.22907039992E+02 -0.48991657737E+02  0.30053646101E+02  0.61871937526E+02  0.51100000000E-03 0.  1.
         22    1    1    0    0    0 -0.12762650187E+02  0.23246879157E+02 -0.78717843604E+01  0.27663470848E+02  0.00000000000E+00 0.  1.
</event>
<event>
 5    1  0.1692171E-003  0.9118800E+02  0.7818608E-02  0.1130116E+00
         25   -1    0    0    0    0  0.00000000000E+00  0.00000000000E+00  0.99999998245E-14  0.12500000000E+03  0.12500000000E+03 0.  0.
        -11    1    3    3    0    0 -0.40810534405E+02  0.28185525817E+02  0.13499730432E+02  0.51402006829E+02  0.51100000000E-03 0. -1.
         23    2    1    0    0    0 -0.17657629628E+02  0.11270621341E+02 -0.20371208945E+02  0.95780059148E+02  0.91214115065E+02 0.  0.
         11    1    3    3    0    0  0.23152904777E+02 -0.16914904476E+02 -0.33870939378E+02  0.44378052319E+02  0.51100000000E-03 0.  1.
         22    1    1    0    0    0  0.17657629628E+02 -0.11270621341E+02  0.20371208945E+02  0.29219940852E+02  0.00000000000E+00 0. -1.
</event>
<event>
 5    1  0.1692171E-003  0.9118800E+02  0.7818608E-02  0.1130116E+00
         25   -1    0    0    0    0  0.00000000000E+00  0.00000000000E+00  0.99999998245E-14  0.12500000000E+03  0.12500000000E+03 0.  0.
        -11    1    3    3    0    0 -0.39800295499E+02 -0.47096247097E+02 -0.40533104693E+01  0.61794411871E+02  0.51100000000E-03 0.  1.
         23    2    1    0    0    0 -0.12108718671E+02 -0.24257349325E+02 -0.28096365764E+00  0.97886921888E+02  0.94057059661E+02 0.  0.
         11    1    3    3    0    0  0.27691576827E+02  0.22838897772E+02  0.37723468117E+01  0.36092510018E+02  0.51100000000E-03 0. -1.
         22    1    1    0    0    0  0.12108718671E+02  0.24257349325E+02  0.28096365764E+00  0.27113078112E+02  0.00000000000E+00 0.  1.
</event>
<event>
 5    1  0.1692171E-003  0.9118800E+02  0.7818608E-02  0.1130116E+00
         25   -1    0    0    0    0  0.00000000000E+00  0.00000000000E+00  0.99999998245E-14  0.12500000000E+03  0.12500000000E+03 0.  0.
        -11    1    3    3    0    0  0.12417810722E+02 -0.63697441199E+01 -0.11771811546E+02  0.18257908166E+02  0.51100000000E-03 0.  1.
         23    2    1    0    0    0 -0.88912147146E+01  0.47286759777E+02 -0.89462073543E+01  0.76059975732E+02  0.58223654411E+02 0.  0.
         11    1    3    3    0    0 -0.21309025437E+02  0.53656503897E+02  0.28256041914E+01  0.57802067565E+02  0.51100000000E-03 0. -1.
         22    1    1    0    0    0  0.88912147146E+01 -0.47286759777E+02  0.89462073543E+01  0.48940024268E+02  0.00000000000E+00 0. -1.
</event>
<event>
 5    1  0.1692171E-003  0.9118800E+02  0.7818608E-02  0.1130116E+00
         25   -1    0    0    0    0  0.00000000000E+00  0.00000000000E+00  0.99999998245E-14  0.12500000000E+03  0.12500000000E+03 0.  0.
        -11    1    3    3    0    0 -0.49814654961E+01  0.34141303535E+02  0.89847829510E+01  0.35653470105E+02  0.51100000000E-03 0. -1.
         23    2    1    0    0    0  0.23509675324E+02 -0.13330732736E+02 -0.12730958269E+02  0.95125419375E+02  0.90312539792E+02 0.  0.
         11    1    3    3    0    0  0.28491140820E+02 -0.47472036271E+02 -0.21715741220E+02  0.59471949270E+02  0.51100000000E-03 0.  1.
         22    1    1    0    0    0 -0.23509675324E+02  0.13330732736E+02  0.12730958269E+02  0.29874580625E+02  0.00000000000E+00 0.  1.
</event>
<event>
 5    1  0.1692171E-003  0.9118800E+02  0.7818608E-02  0.1130116E+00
         25   -1    0    0    0    0  0.00000000000E+00  0.00000000000E+00  0.99999998245E-14  0.12500000000E+03  0.12500000000E+03 0.  0.
        -11    1    3    3    0    0 -0.27100763522E+02 -0.27516598933E+02 -0.30485094795E+02  0.49203207266E+02  0.51100000000E-03 0.  1.
         23    2    1    0    0    0 -0.28847532705E+02  0.51235392597E+01  0.24417970373E+01  0.95599435882E+02  0.90966251821E+02 0.  0.
         11    1    3    3    0    0 -0.17467691827E+01  0.32640138193E+02  0.32926891832E+02  0.46396228616E+02  0.51100000000E-03 0. -1.
         22    1    1    0    0    0  0.28847532705E+02 -0.51235392597E+01 -0.24417970373E+01  0.29400564118E+02  0.00000000000E+00 0. -1.
</event>
<event>
 5    1  0.1692171E-003  0.9118800E+02  0.7818608E-02  0.1130116E+00
         25   -1    0    0    0    0  0.00000000000E+00  0.00000000000E+00  0.99999998245E-14  0.12500000000E+03  0.12500000000E+03 0.  0.
        -11    1    3    3    0    0  0.46431818020E+02 -0.62294481429E+00 -0.13225496483E+01  0.46454826689E+02  0.51100000000E-03 0.  1.
         23    2    1    0    0    0  0.38491605868E+01 -0.26710073635E+01 -0.27911032305E+02  0.96698479866E+02  0.92464155036E+02 0.  0.
         11    1    3    3    0    0 -0.42582657433E+02 -0.20480625492E+01 -0.26588482657E+02  0.50243653177E+02  0.51100000000E-03 0. -1.
         22    1    1    0    0    0 -0.38491605868E+01  0.26710073635E+01  0.27911032305E+02  0.28301520134E+02  0.00000000000E+00 0. -1.
</event>
<event>
 5    1  0.1692171E-003  0.9118800E+02  0.7818608E-02  0.1130116E+00
         25   -1    0    0    0    0  0.00000000000E+00  0.00000000000E+00  0.99999998245E-14  0.12500000000E+03  0.12500000000E+03 0.  0.
        -11    1    3    3    0    0 -0.54046928741E+02 -0.55219323210E+00  0.25155149461E+02  0.59616750737E+02  0.51100000000E-03 0.  1.
         23    2    1    0    0    0 -0.21612288744E+02  0.12594234443E+02  0.13920087989E+02  0.96373532953E+02  0.92023818864E+02 0.  0.
         11    1    3    3    0    0  0.32434639997E+02  0.13146427675E+02 -0.11235061472E+02  0.36756782216E+02  0.51100000000E-03 0. -1.
         22    1    1    0    0    0  0.21612288744E+02 -0.12594234443E+02 -0.13920087989E+02  0.28626467047E+02  0.00000000000E+00 0.  1.
</event>
<event>
 5    1  0.1692171E-003  0.9118800E+02  0.7818608E-02  0.1130116E+00
         25   -1    0    0    0    0  0.00000000000E+00  0.00000000000E+00  0.99999998245E-14  0.12500000000E+03  0.12500000000E+03 0.  0.
        -11    1    3    3    0    0  0.33688185971E+02  0.83697062202E+01  0.25649124154E+01  0.34806962410E+02  0.51100000000E-03 0.  1.
         23    2    1    0    0    0 -0.26832037860E+02  0.58883505183E+01  0.98551130974E+01  0.95815172063E+02  0.91262221185E+02 0.  0.
         11    1    3    3    0    0 -0.60520223832E+02 -0.24813557019E+01  0.72902006820E+01  0.61008209653E+02  0.51100000000E-03 0. -1.
         22    1    1    0    0    0  0.26832037860E+02 -0.58883505183E+01 -0.98551130974E+01  0.29184827937E+02  0.00000000000E+00 0. -1.
</event>
<event>
 5    1  0.1692171E-003  0.9118800E+02  0.7818608E-02  0.1130116E+00
         25   -1    0    0    0    0  0.00000000000E+00  0.00000000000E+00  0.99999998245E-14  0.12500000000E+03  0.12500000000E+03 0.  0.
        -11    1    3    3    0    0  0.15967250336E+02 -0.37931329179E+02  0.16437005070E+01  0.41187869188E+02  0.51100000000E-03 0.  1.
         23    2    1    0    0    0 -0.98479688557E+00  0.35565264200E+01 -0.29183613156E+02  0.95583984262E+02  0.90945016716E+02 0.  0.
         11    1    3    3    0    0 -0.16952047221E+02  0.41487855599E+02 -0.30827313663E+02  0.54396115074E+02  0.51100000000E-03 0. -1.
         22    1    1    0    0    0  0.98479688557E+00 -0.35565264200E+01  0.29183613156E+02  0.29416015738E+02  0.00000000000E+00 0.  1.
</event>
<event>
 5    1  0.1692171E-003  0.9118800E+02  0.7818608E-02  0.1130116E+00
         25   -1    0    0    0    0  0.00000000000E+00  0.00000000000E+00  0.99999998245E-14  0.12500000000E+03  0.12500000000E+03 0.  0.
        -11    1    3    3    0    0 -0.45380200486E+01  0.18320720123E+02  0.40271199840E+02  0.44474846246E+02  0.51100000000E-03 0.  1.
         23    2    1    0    0    0 -0.29809126102E+02  0.51403332976E+01 -0.11201931398E+01  0.94730182392E+02  0.89763832349E+02 0.  0.
         11    1    3    3    0    0 -0.25271106053E+02 -0.13180386825E+02 -0.41391392980E+02  0.50255336146E+02  0.51100000000E-03 0. -1.
         22    1    1    0    0    0  0.29809126102E+02 -0.51403332976E+01  0.11201931398E+01  0.30269817608E+02  0.00000000000E+00 0. -1.
</event>
<event>
 5    1  0.1692171E-003  0.9118800E+02  0.7818608E-02  0.1130116E+00
         25   -1    0    0    0    0  0.00000000000E+00  0.00000000000E+00  0.99999998245E-14  0.12500000000E+03  0.12500000000E+03 0.  0.
        -11    1    3    3    0    0 -0.33192272388E+02 -0.34781045999E+02 -0.11257250266E+01  0.48090699352E+02  0.51100000000E-03 0. -1.
         23    2    1    0    0    0 -0.27237127260E+02  0.50142654961E+01 -0.18262082299E+02  0.91826100474E+02  0.85624325507E+02 0.  0.
         11    1    3    3    0    0  0.59551451284E+01  0.39795311495E+02 -0.17136357272E+02  0.43735401122E+02  0.51100000000E-03 0.  1.
         22    1    1    0    0    0  0.27237127260E+02 -0.50142654961E+01  0.18262082299E+02  0.33173899526E+02  0.00000000000E+00 0. -1.
</event>
<event>
 5    1  0.1692171E-003  0.9118800E+02  0.7818608E-02  0.1130116E+00
         25   -1    0    0    0    0  0.00000000000E+00  0.00000000000E+00  0.99999998245E-14  0.12500000000E+03  0.12500000000E+03 0.  0.
        -11    1    3    3    0    0  0.14561640450E+01 -0.47441829898E+01  0.14573677360E+02  0.15395446016E+02  0.51100000000E-03 0. -1.
         23    2    1    0    0    0  0.27121395566E+02  0.72923584488E+01 -0.39549655816E+02  0.76493053442E+02  0.59146118728E+02 0.  0.
         11    1    3    3    0    0  0.25665231521E+02  0.12036541439E+02 -0.54123333176E+02  0.61097607426E+02  0.51100000000E-03 0.  1.
         22    1    1    0    0    0 -0.27121395566E+02 -0.72923584488E+01  0.39549655816E+02  0.48506946558E+02  0.00000000000E+00 0.  1.
</event>
<event>
 5    1  0.1692171E-003  0.9118800E+02  0.7818608E-02  0.1130116E+00
         25   -1    0    0    0    0  0.00000000000E+00  0.00000000000E+00  0.99999998245E-14  0.12500000000E+03  0.12500000000E+03 0.  0.
        -11    1    3    3    0    0  0.44812428939E+02  0.77349943766E+01 -0.32463143004E+02  0.55873424625E+02  0.51100000000E-03 0.  1.
         23    2    1    0    0    0  0.15804333214E+02 -0.16375647409E+02 -0.16783035840E+02  0.96722640356E+02  0.92496811237E+02 0.  0.
         11    1    3    3    0    0 -0.29008095725E+02 -0.24110641786E+02  0.15680107163E+02  0.40849215731E+02  0.51100000000E-03 0. -1.
         22    1    1    0    0    0 -0.15804333214E+02  0.16375647409E+02  0.16783035840E+02  0.28277359644E+02  0.00000000000E+00 0.  1.
</event>
<event>
 5    1  0.1692171E-003  0.9118800E+02  0.7818608E-02  0.1130116E+00
         25   -1    0    0    0    0  0.00000000000E+00  0.00000000000E+00  0.99999998245E-14  0.12500000000E+03  0.12500000000E+03 0.  0.
        -11    1    3    3    0    0 -0.48144493875E+02  0.25602497189E+02 -0.28006005139E+02  0.61300215961E+02  0.51100000000E-03 0. -1.
         23    2    1    0    0    0 -0.27055116102E+02  0.51474444643E+01 -0.10338741082E+02  0.95582912126E+02  0.90943543100E+02 0.  0.
         11    1    3    3    0    0  0.21089377773E+02 -0.20455052724E+02  0.17667264057E+02  0.34282696165E+02  0.51100000000E-03 0.  1.
         22    1    1    0    0    0  0.27055116102E+02 -0.51474444643E+01  0.10338741082E+02  0.29417087874E+02  0.00000000000E+00 0. -1.
</event>
<event>
 5    1  0.1692171E-003  0.9118800E+02  0.7818608E-02  0.1130116E+00
         25   -1    0    0    0    0  0.00000000000E+00  0.00000000000E+00  0.99999998245E-14  0.12500000000E+03  0.12500000000E+03 0.  0.
        -11    1    3    3    0    0 -0.31943662224E+02 -0.34100074931E+01  0.12776717868E+01  0.32150554472E+02  0.51100000000E-03 0.  1.
         23    2    1    0    0    0  0.26536482038E+02 -0.41155564632E-01 -0.16966698058E+02  0.93503088791E+02  0.88038469988E+02 0.  0.
         11    1    3    3    0    0  0.58480144262E+02  0.33688519285E+01 -0.18244369844E+02  0.61352534320E+02  0.51100000000E-03 0. -1.
         22    1    1    0    0    0 -0.26536482038E+02  0.41155564632E-01  0.16966698058E+02  0.31496911209E+02  0.00000000000E+00 0. -1.
</event>
<event>
 5    1  0.1692171E-003  0.9118800E+02  0.7818608E-02  0.1130116E+00
         25   -1    0    0    0    0  0.00000000000E+00  0.00000000000E+00  0.99999998245E-14  0.12500000000E+03  0.12500000000E+03 0.  0.
        -11    1    3    3    0    0 -0.16602881343E+02 -0.48155614759E+02 -0.33154855408E+02  0.60777161328E+02  0.51100000000E-03 0. -1.
         23    2    1    0    0    0 -0.53074162686E+01 -0.16776501763E+02 -0.23775882130E+02  0.95421084369E+02  0.90720841554E+02 0.  0.
         11    1    3    3    0    0  0.11295465074E+02  0.31379112996E+02  0.93789732781E+01  0.34643923041E+02  0.51100000000E-03 0.  1.
         22    1    1    0    0    0  0.53074162686E+01  0.16776501763E+02  0.23775882130E+02  0.29578915631E+02  0.00000000000E+00 0. -1.
</event>
<event>
 5    1  0.1692171E-003  0.9118800E+02  0.7818608E-02  0.1130116E+00
         25   -1    0    0    0    0  0.00000000000E+00  0.00000000000E+00  0.99999998245E-14  0.12500000000E+03  0.12500000000E+03 0.  0.
        -11    1    3    3    0    0 -0.23478896093E+02  0.15503407646E+02  0.16620251586E+02  0.32677927925E+02  0.51100000000E-03 0.  1.
         23    2    1    0    0    0  0.29879369738E+02  0.78521817745E+01 -0.96382430104E+01  0.92637533733E+02  0.86800826224E+02 0.  0.
         11    1    3    3    0    0  0.53358265831E+02 -0.76512258720E+01 -0.26258494597E+02  0.59959605808E+02  0.51100000000E-03 0. -1.
         22    1    1    0    0    0 -0.29879369738E+02 -0.78521817745E+01  0.96382430104E+01  0.32362466267E+02  0.00000000000E+00 0. -1.
</event>
<event>
 5    1  0.1692171E-003  0.9118800E+02  0.7818608E-02  0.1130116E+00
         25   -1    0    0    0    0  0.00000000000E+00  0.00000000000E+00  0.99999998245E-14  0.12500000000E+03  0.12500000000E+03 0.  0.
        -11    1    3    3    0    0  0.18395771277E+01 -0.26068267078E+02 -0.27384386741E+02  0.37852915739E+02  0.51100000000E-03 0. -1.
         23    2    1    0    0    0  0.17883540566E+02  0.99585831118E+01  0.17832665238E+02  0.97852286463E+02  0.94011018587E+02 0.  0.
         11    1    3    3    0    0  0.16043963438E+02  0.36026850190E+02  0.45217051979E+02  0.59999370725E+02  0.51100000000E-03 0.  1.
         22    1    1    0    0    0 -0.17883540566E+02 -0.99585831118E+01 -0.17832665238E+02  0.27147713537E+02  0.00000000000E+00 0. -1.
</event>
<event>
 5    1  0.1692171E-003  0.9118800E+02  0.7818608E-02  0.1130116E+00
         25   -1    0    0    0    0  0.00000000000E+00  0.00000000000E+00  0.99999998245E-14  0.12500000000E+03  0.12500000000E+03 0.  0.
        -11    1    3    3    0    0 -0.27703193657E+02 -0.43528544712E+02  0.34302004157E+02  0.61958281392E+02  0.51100000000E-03 0. -1.
         23    2    1    0    0    0 -0.15594876110E+02 -0.22756094454E+02  0.11443816659E+02  0.95133615294E+02  0.90323882907E+02 0.  0.
         11    1    3    3    0    0  0.12108317547E+02  0.20772450258E+02 -0.22858187498E+02  0.33175333902E+02  0.51100000000E-03 0.  1.
         22    1    1    0    0    0  0.15594876110E+02  0.22756094454E+02 -0.11443816659E+02  0.29866384706E+02  0.00000000000E+00 0. -1.
</event>
<event>
 5    1  0.1692171E-003  0.9118800E+02  0.7818608E-02  0.1130116E+00
         25   -1    0    0    0    0  0.00000000000E+00  0.00000000000E+00  0.99999998245E-14  0.12500000000E+03  0.12500000000E+03 0.  0.
        -11    1    3    3    0    0 -0.75210875916E+01  0.56356924236E+02  0.21130251881E+02  0.60656056686E+02  0.51100000000E-03 0.  1.
         23    2    1    0    0    0 -0.69308047482E+01  0.21196883277E+02  0.18684688628E+02  0.95905988516E+02  0.91386525971E+02 0.  0.
         11    1    3    3    0    0  0.59028284339E+00 -0.35160040960E+02 -0.24455632529E+01  0.35249931830E+02  0.51100000000E-03 0. -1.
         22    1    1    0    0    0  0.69308047482E+01 -0.21196883277E+02 -0.18684688628E+02  0.29094011484E+02  0.00000000000E+00 0.  1.
</event>
<event>
 5    1  0.1692171E-003  0.9118800E+02  0.7818608E-02  0.1130116E+00
         25   -1    0    0    0    0  0.00000000000E+00  0.00000000000E+00  0.99999998245E-14  0.12500000000E+03  0.12500000000E+03 0.  0.
        -11    1    3    3    0    0 -0.24801148289E+02 -0.21581258323E+02 -0.18814945927E+02  0.37879412056E+02  0.51100000000E-03 0.  1.
         23    2    1    0    0    0  0.26830273976E+02 -0.39386300150E+01  0.50211924839E+01  0.97421225879E+02  0.93436109025E+02 0.  0.
         11    1    3    3    0    0  0.51631422265E+02  0.17642628308E+02  0.23836138411E+02  0.59541813823E+02  0.51100000000E-03 0. -1.
         22    1    1    0    0    0 -0.26830273976E+02  0.39386300150E+01 -0.50211924839E+01  0.27578774121E+02  0.00000000000E+00 0. -1.
</event>
<event>
 5    1  0.1692171E-003  0.9118800E+02  0.7818608E-02  0.1130116E+00
         25   -1    0    0    0    0  0.00000000000E+00  0.00000000000E+00  0.99999998245E-14  0.12500000000E+03  0.12500000000E+03 0.  0.
        -11    1    3    3    0    0 -0.12969773746E+02 -0.52308712307E+02  0.20765125671E+02  0.57754712869E+02  0.51100000000E-03 0.  1.
         23    2    1    0    0    0 -0.20234137701E+02 -0.22472547912E+02  0.11484239619E+00  0.94760143405E+02  0.89805544657E+02 0.  0.
         11    1    3    3    0    0 -0.72643639553E+01  0.29836164395E+02 -0.20650283275E+02  0.37005430535E+02  0.51100000000E-03 0. -1.
         22    1    1    0    0    0  0.20234137701E+02  0.22472547912E+02 -0.11484239619E+00  0.30239856595E+02  0.00000000000E+00 0.  1.
</event>
<event>
 5    1  0.1692171E-003  0.9118800E+02  0.7818608E-02  0.1130116E+00
         25   -1    0    0    0    0  0.00000000000E+00  0.00000000000E+00  0.99999998245E-14  0.12500000000E+03  0.12500000000E+03 0.  0.
        -11    1    3    3    0    0 -0.12840358955E+02  0.31494308976E+02 -0.29552029016E+02  0.45056506025E+02  0.51100000000E-03 0.  1.
         23    2    1    0    0    0  0.23158562255E+02  0.12437734671E+02 -0.29091939570E+02  0.85790853142E+02  0.76306705376E+02 0.  0.
         11    1    3    3    0    0  0.35998921209E+02 -0.19056574305E+02  0.46008944600E+00  0.40734347117E+02  0.51100000000E-03 0. -1.
         22    1    1    0    0    0 -0.23158562255E+02 -0.12437734671E+02  0.29091939570E+02  0.39209146858E+02  0.00000000000E+00 0.  1.
</event>
<event>
 5    1  0.1692171E-003  0.9118800E+02  0.7818608E-02  0.1130116E+00
         25   -1    0    0    0    0  0.00000000000E+00  0.00000000000E+00  0.99999998245E-14  0.12500000000E+03  0.12500000000E+03 0.  0.
        -11    1    3    3    0    0  0.24542839514E+02 -0.34822561730E+02  0.20541882045E+02  0.47296201698E+02  0.51100000000E-03 0. -1.
         23    2    1    0    0    0 -0.17559192514E+02 -0.10627043116E+02  0.20691300863E+02  0.95855717224E+02  0.91317738178E+02 0.  0.
         11    1    3    3    0    0 -0.42102032028E+02  0.24195518614E+02  0.14941881800E+00  0.48559515526E+02  0.51100000000E-03 0.  1.
         22    1    1    0    0    0  0.17559192514E+02  0.10627043116E+02 -0.20691300863E+02  0.29144282776E+02  0.00000000000E+00 0.  1.
</event>
<event>
 5    1  0.1692171E-003  0.9118800E+02  0.7818608E-02  0.1130116E+00
         25   -1    0    0    0    0  0.00000000000E+00  0.00000000000E+00  0.99999998245E-14  0.12500000000E+03  0.12500000000E+03 0.  0.
        -11    1    3    3    0    0 -0.14532789539E+02  0.48429515393E+02 -0.31927325449E+02  0.59799448522E+02  0.51100000000E-03 0.  1.
         23    2    1    0    0    0 -0.23382787271E+01  0.15560601425E+02 -0.24884342667E+02  0.95558016811E+02  0.90909318570E+02 0.  0.
         11    1    3    3    0    0  0.12194510812E+02 -0.32868913968E+02  0.70429827816E+01  0.35758568289E+02  0.51100000000E-03 0. -1.
         22    1    1    0    0    0  0.23382787271E+01 -0.15560601425E+02  0.24884342667E+02  0.29441983189E+02  0.00000000000E+00 0.  1.
</event>
<event>
 5    1  0.1692171E-003  0.9118800E+02  0.7818608E-02  0.1130116E+00
         25   -1    0    0    0    0  0.00000000000E+00  0.00000000000E+00  0.99999998245E-14  0.12500000000E+03  0.12500000000E+03 0.  0.
        -11    1    3    3    0    0 -0.38458016239E+02 -0.20432856636E+02  0.21981878071E+01  0.43604502901E+02  0.51100000000E-03 0.  1.
         23    2    1    0    0    0 -0.16616520602E+01  0.27124022881E+01 -0.28182193923E+02  0.96638859895E+02  0.92383521116E+02 0.  0.
         11    1    3    3    0    0  0.36796364179E+02  0.23145258924E+02 -0.30380381730E+02  0.53034356994E+02  0.51100000000E-03 0. -1.
         22    1    1    0    0    0  0.16616520602E+01 -0.27124022881E+01  0.28182193923E+02  0.28361140105E+02  0.00000000000E+00 0. -1.
</event>
<event>
 5    1  0.1692171E-003  0.9118800E+02  0.7818608E-02  0.1130116E+00
         25   -1    0    0    0    0  0.00000000000E+00  0.00000000000E+00  0.99999998245E-14  0.12500000000E+03  0.12500000000E+03 0.  0.
        -11    1    3    3    0    0  0.30792419802E+02 -0.21781346648E+02  0.19362571720E+02  0.42397044271E+02  0.51100000000E-03 0. -1.
         23    2    1    0    0    0  0.22759586867E+02  0.97174399098E+01 -0.19809739852E+02  0.93300580040E+02  0.87750470141E+02 0.  0.
         11    1    3    3    0    0 -0.80328329342E+01  0.31498786558E+02 -0.39172311572E+02  0.50903535769E+02  0.51100000000E-03 0.  1.
         22    1    1    0    0    0 -0.22759586867E+02 -0.97174399098E+01  0.19809739852E+02  0.31699419960E+02  0.00000000000E+00 0.  1.
</event>
<event>
 5    1  0.1692171E-003  0.9118800E+02  0.7818608E-02  0.1130116E+00
         25   -1    0    0    0    0  0.00000000000E+00  0.00000000000E+00  0.99999998245E-14  0.12500000000E+03  0.12500000000E+03 0.  0.
        -11    1    3    3    0    0  0.42901023382E+02  0.38987301918E+02 -0.93106491330E+01  0.58712824030E+02  0.51100000000E-03 0.  1.
         23    2    1    0    0    0  0.28247643516E+02  0.89746600607E+01  0.48085042811E+01  0.94973418429E+02  0.90101912340E+02 0.  0.
         11    1    3    3    0    0 -0.14653379866E+02 -0.30012641858E+02  0.14119153414E+02  0.36260594399E+02  0.51100000000E-03 0. -1.
         22    1    1    0    0    0 -0.28247643516E+02 -0.89746600607E+01 -0.48085042811E+01  0.30026581571E+02  0.00000000000E+00 0.  1.
</event>
<event>
 5    1  0.1692171E-003  0.9118800E+02  0.7818608E-02  0.1130116E+00
         25   -1    0    0    0    0  0.00000000000E+00  0.00000000000E+00  0.99999998245E-14  0.12500000000E+03  0.12500000000E+03 0.  0.
        -11    1    3    3    0    0  0.27454205375E+02 -0.20818279709E+02  0.21072105152E+01  0.34519190303E+02  0.51100000000E-03 0. -1.
         23    2    1    0    0    0 -0.14409878304E+02  0.22390264960E+02  0.12520516488E+02  0.95576677774E+02  0.90934973709E+02 0.  0.
         11    1    3    3    0    0 -0.41864083678E+02  0.43208544669E+02  0.10413305973E+02  0.61057487470E+02  0.51100000000E-03 0.  1.
         22    1    1    0    0    0  0.14409878304E+02 -0.22390264960E+02 -0.12520516488E+02  0.29423322226E+02  0.00000000000E+00 0.  1.
</event>
<event>
 5    1  0.1692171E-003  0.9118800E+02  0.7818608E-02  0.1130116E+00
         25   -1    0    0    0    0  0.00000000000E+00  0.00000000000E+00  0.99999998245E-14  0.12500000000E+03  0.12500000000E+03 0.  0.
        -11    1    3    3    0    0  0.36747467474E+01 -0.45020078307E+02  0.19951277454E+02  0.49379800392E+02  0.51100000000E-03 0. -1.
         23    2    1    0    0    0  0.97926858435E+01 -0.19890918123E+02 -0.18774455931E+02  0.95947882774E+02  0.91443811675E+02 0.  0.
         11    1    3    3    0    0  0.61179390961E+01  0.25129160184E+02 -0.38725733385E+02  0.46568082383E+02  0.51100000000E-03 0.  1.
         22    1    1    0    0    0 -0.97926858435E+01  0.19890918123E+02  0.18774455931E+02  0.29052117226E+02  0.00000000000E+00 0. -1.
</event>
<event>
 5    1  0.1692171E-003  0.9118800E+02  0.7818608E-02  0.1130116E+00
         25   -1    0    0    0    0  0.00000000000E+00  0.00000000000E+00  0.99999998245E-14  0.12500000000E+03  0.12500000000E+03 0.  0.
        -11    1    3    3    0    0 -0.23843072301E+02 -0.14620168214E+02  0.29878107022E+02  0.40926063759E+02  0.51100000000E-03 0. -1.
         23    2    1    0    0    0  0.16455190293E+02 -0.26541496000E+02  0.28102861436E+02  0.82988155023E+02  0.71568420100E+02 0.  0.
         11    1    3    3    0    0  0.40298262594E+02 -0.11921327786E+02 -0.17752455852E+01  0.42062091263E+02  0.51100000000E-03 0.  1.
         22    1    1    0    0    0 -0.16455190293E+02  0.26541496000E+02 -0.28102861436E+02  0.42011844977E+02  0.00000000000E+00 0.  1.
</event>
<event>
 5    1  0.1692171E-003  0.9118800E+02  0.7818608E-02  0.1130116E+00
         25   -1    0    0    0    0  0.00000000000E+00  0.00000000000E+00  0.99999998245E-14  0.12500000000E+03  0.12500000000E+03 0.  0.
        -11    1    3    3    0    0 -0.37454239007E+02 -0.44061629772E+02 -0.22971689460E+02  0.62224960865E+02  0.51100000000E-03 0. -1.
         23    2    1    0    0    0 -0.31965672403E+02 -0.33745182636E+02 -0.15950000653E+02  0.75857919416E+02  0.57788232833E+02 0.  0.
         11    1    3    3    0    0  0.54885666041E+01  0.10316447136E+02  0.70216888066E+01  0.13632958551E+02  0.51100000000E-03 0.  1.
         22    1    1    0    0    0  0.31965672403E+02  0.33745182636E+02  0.15950000653E+02  0.49142080584E+02  0.00000000000E+00 0. -1.
</event>
<event>
 5    1  0.1692171E-003  0.9118800E+02  0.7818608E-02  0.1130116E+00
         25   -1    0    0    0    0  0.00000000000E+00  0.00000000000E+00  0.99999998245E-14  0.12500000000E+03  0.12500000000E+03 0.  0.
        -11    1    3    3    0    0  0.44588353570E+02  0.33561387614E+02 -0.53342109591E+01  0.56061946269E+02  0.51100000000E-03 0.  1.
         23    2    1    0    0    0  0.88187149243E+01  0.25075169346E+02 -0.15533740294E+02  0.94213136922E+02  0.89040913239E+02 0.  0.
         11    1    3    3    0    0 -0.35769638645E+02 -0.84862182677E+01 -0.10199529335E+02  0.38151190653E+02  0.51100000000E-03 0. -1.
         22    1    1    0    0    0 -0.88187149243E+01 -0.25075169346E+02  0.15533740294E+02  0.30786863078E+02  0.00000000000E+00 0.  1.
</event>
<event>
 5    1  0.1692171E-003  0.9118800E+02  0.7818608E-02  0.1130116E+00
         25   -1    0    0    0    0  0.00000000000E+00  0.00000000000E+00  0.99999998245E-14  0.12500000000E+03  0.12500000000E+03 0.  0.
        -11    1    3    3    0    0 -0.35673458419E+01 -0.19484033290E+02 -0.43950532674E+02  0.48207912547E+02  0.51100000000E-03 0. -1.
         23    2    1    0    0    0 -0.26551346161E+02 -0.85308323788E+01 -0.23087793769E+01  0.97016441502E+02  0.92893004987E+02 0.  0.
         11    1    3    3    0    0 -0.22984000319E+02  0.10953200911E+02  0.41641753297E+02  0.48808528955E+02  0.51100000000E-03 0.  1.
         22    1    1    0    0    0  0.26551346161E+02  0.85308323788E+01  0.23087793769E+01  0.27983558498E+02  0.00000000000E+00 0.  1.
</event>
<event>
 5    1  0.1692171E-003  0.9118800E+02  0.7818608E-02  0.1130116E+00
         25   -1    0    0    0    0  0.00000000000E+00  0.00000000000E+00  0.99999998245E-14  0.12500000000E+03  0.12500000000E+03 0.  0.
        -11    1    3    3    0    0  0.48372285246E+02  0.92475338116E+01  0.35500157745E+02  0.60709604361E+02  0.51100000000E-03 0. -1.
         23    2    1    0    0    0  0.16881117600E+02  0.13734269098E+02  0.13391260312E+02  0.99447541570E+02  0.96108716527E+02 0.  0.
         11    1    3    3    0    0 -0.31491167646E+02  0.44867352863E+01 -0.22108897432E+02  0.38737937209E+02  0.51100000000E-03 0.  1.
         22    1    1    0    0    0 -0.16881117600E+02 -0.13734269098E+02 -0.13391260312E+02  0.25552458430E+02  0.00000000000E+00 0. -1.
</event>
<event>
 5    1  0.1692171E-003  0.9118800E+02  0.7818608E-02  0.1130116E+00
         25   -1    0    0    0    0  0.00000000000E+00  0.00000000000E+00  0.99999998245E-14  0.12500000000E+03  0.12500000000E+03 0.  0.
        -11    1    3    3    0    0  0.69260289638E+01  0.37861340080E+02  0.55564068173E+01  0.38888617960E+02  0.51100000000E-03 0.  1.
         23    2    1    0    0    0 -0.28729878553E+02 -0.48220299671E+01 -0.48408582978E+01  0.95468799487E+02  0.90786562176E+02 0.  0.
         11    1    3    3    0    0 -0.35655907517E+02 -0.42683370047E+02 -0.10397265115E+02  0.56580181527E+02  0.51100000000E-03 0. -1.
         22    1    1    0    0    0  0.28729878553E+02  0.48220299671E+01  0.48408582978E+01  0.29531200513E+02  0.00000000000E+00 0. -1.
</event>
<event>
 5    1  0.1692171E-003  0.9118800E+02  0.7818608E-02  0.1130116E+00
         25   -1    0    0    0    0  0.00000000000E+00  0.00000000000E+00  0.99999998245E-14  0.12500000000E+03  0.12500000000E+03 0.  0.
        -11    1    3    3    0    0  0.32492659073E+02  0.39267973118E+01 -0.11357911303E+02  0.34643827447E+02  0.51100000000E-03 0. -1.
         23    2    1    0    0    0 -0.24664557308E+02  0.15323594733E+02  0.57790770957E+01  0.95393401499E+02  0.90682690601E+02 0.  0.
         11    1    3    3    0    0 -0.57157216381E+02  0.11396797422E+02  0.17136988398E+02  0.60749574052E+02  0.51100000000E-03 0.  1.
         22    1    1    0    0    0  0.24664557308E+02 -0.15323594733E+02 -0.57790770957E+01  0.29606598501E+02  0.00000000000E+00 0.  1.
</event>
<event>
 5    1  0.1692171E-003  0.9118800E+02  0.7818608E-02  0.1130116E+00
         25   -1    0    0    0    0  0.00000000000E+00  0.00000000000E+00  0.99999998245E-14  0.12500000000E+03  0.12500000000E+03 0.  0.
        -11    1    3    3    0    0 -0.22719454063E+02  0.32611878353E+02 -0.69453645298E+01  0.40347816438E+02  0.51100000000E-03 0. -1.
         23    2    1    0    0    0 -0.83660695408E+01 -0.15623377148E+02 -0.25466952578E+02  0.93973451582E+02  0.88703793017E+02 0.  0.
         11    1    3    3    0    0  0.14353384522E+02 -0.48235255501E+02 -0.18521588049E+02  0.53625635144E+02  0.51100000000E-03 0.  1.
         22    1    1    0    0    0  0.83660695408E+01  0.15623377148E+02  0.25466952578E+02  0.31026548418E+02  0.00000000000E+00 0.  1.
</event>
<event>
 5    1  0.1692171E-003  0.9118800E+02  0.7818608E-02  0.1130116E+00
         25   -1    0    0    0    0  0.00000000000E+00  0.00000000000E+00  0.99999998245E-14  0.12500000000E+03  0.12500000000E+03 0.  0.
        -11    1    3    3    0    0  0.27892321085E+02 -0.49337395396E+02 -0.16478177158E+02  0.59022796297E+02  0.51100000000E-03 0.  1.
         23    2    1    0    0    0  0.12682489928E+02 -0.15266150095E+02 -0.20397621866E+02  0.96540135852E+02  0.92249845328E+02 0.  0.
         11    1    3    3    0    0 -0.15209831157E+02  0.34071245302E+02 -0.39194447082E+01  0.37517339555E+02  0.51100000000E-03 0. -1.
         22    1    1    0    0    0 -0.12682489928E+02  0.15266150095E+02  0.20397621866E+02  0.28459864148E+02  0.00000000000E+00 0.  1.
</event>
<event>
 5    1  0.1692171E-003  0.9118800E+02  0.7818608E-02  0.1130116E+00
         25   -1    0    0    0    0  0.00000000000E+00  0.00000000000E+00  0.99999998245E-14  0.12500000000E+03  0.12500000000E+03 0.  0.
        -11    1    3    3    0    0  0.16377590849E+02 -0.53280171480E+01  0.32641484429E+02  0.36906364691E+02  0.51100000000E-03 0.  1.
         23    2    1    0    0    0 -0.22418787805E+02 -0.17303926250E+02 -0.92128790264E+01  0.95219048869E+02  0.90442037887E+02 0.  0.
         11    1    3    3    0    0 -0.38796378654E+02 -0.11975909102E+02 -0.41854363455E+02  0.58312684178E+02  0.51100000000E-03 0. -1.
         22    1    1    0    0    0  0.22418787805E+02  0.17303926250E+02  0.92128790264E+01  0.29780951131E+02  0.00000000000E+00 0. -1.
</event>
<event>
 5    1  0.1692171E-003  0.9118800E+02  0.7818608E-02  0.1130116E+00
         25   -1    0    0    0    0  0.00000000000E+00  0.00000000000E+00  0.99999998245E-14  0.12500000000E+03  0.12500000000E+03 0.  0.
        -11    1    3    3    0    0 -0.37367974724E+02  0.18629582127E+02  0.37382029207E-01  0.41754380164E+02  0.51100000000E-03 0.  1.
         23    2    1    0    0    0  0.26601902229E+01 -0.56576156694E+01 -0.27988666609E+02  0.96321598970E+02  0.91953247591E+02 0.  0.
         11    1    3    3    0    0  0.40028164947E+02 -0.24287197796E+02 -0.28026048638E+02  0.54567218807E+02  0.51100000000E-03 0. -1.
         22    1    1    0    0    0 -0.26601902229E+01  0.56576156694E+01  0.27988666609E+02  0.28678401030E+02  0.00000000000E+00 0. -1.
</event>
<event>
 5    1  0.1692171E-003  0.9118800E+02  0.7818608E-02  0.1130116E+00
         25   -1    0    0    0    0  0.00000000000E+00  0.00000000000E+00  0.99999998245E-14  0.12500000000E+03  0.12500000000E+03 0.  0.
        -11    1    3    3    0    0  0.52306332589E+02  0.98255962937E+01  0.32317299920E+01  0.53319216521E+02  0.51100000000E-03 0. -1.
         23    2    1    0    0    0  0.18280234704E+02  0.22588552282E+02 -0.13055612777E+02  0.93143153012E+02  0.87525929033E+02 0.  0.
         11    1    3    3    0    0 -0.34026097885E+02  0.12762955989E+02 -0.16287342769E+02  0.39823936491E+02  0.51100000000E-03 0.  1.
         22    1    1    0    0    0 -0.18280234704E+02 -0.22588552282E+02  0.13055612777E+02  0.31856846988E+02  0.00000000000E+00 0. -1.
</event>
<event>
 5    1  0.1692171E-003  0.9118800E+02  0.7818608E-02  0.1130116E+00
         25   -1    0    0    0    0  0.00000000000E+00  0.00000000000E+00  0.99999998245E-14  0.12500000000E+03  0.12500000000E+03 0.  0.
        -11    1    3    3    0    0  0.20461884856E+02 -0.11217816966E+01 -0.27046915136E+02  0.33933504751E+02  0.51100000000E-03 0. -1.
         23    2    1    0    0    0 -0.27309095266E+02 -0.69350543442E+01  0.10458237999E+02  0.94945775588E+02  0.90063554765E+02 0.  0.
         11    1    3    3    0    0 -0.47770980121E+02 -0.58132726476E+01  0.37505153136E+02  0.61012270837E+02  0.51100000000E-03 0.  1.
         22    1    1    0    0    0  0.27309095266E+02  0.69350543442E+01 -0.10458237999E+02  0.30054224412E+02  0.00000000000E+00 0.  1.
</event>
<event>
 5    1  0.1692171E-003  0.9118800E+02  0.7818608E-02  0.1130116E+00
         25   -1    0    0    0    0  0.00000000000E+00  0.00000000000E+00  0.99999998245E-14  0.12500000000E+03  0.12500000000E+03 0.  0.
        -11    1    3    3    0    0 -0.85403174303E+01  0.20236154087E+02 -0.28344815056E+02  0.35858994616E+02  0.51100000000E-03 0. -1.
         23    2    1    0    0    0  0.18885186955E+02 -0.22168994086E+02  0.36615537795E+01  0.95648312464E+02  0.91033390116E+02 0.  0.
         11    1    3    3    0    0  0.27425504386E+02 -0.42405148173E+02  0.32006368836E+02  0.59789317848E+02  0.51100000000E-03 0.  1.
         22    1    1    0    0    0 -0.18885186955E+02  0.22168994086E+02 -0.36615537795E+01  0.29351687536E+02  0.00000000000E+00 0.  1.
</event>
<event>
 5    1  0.1692171E-003  0.9118800E+02  0.7818608E-02  0.1130116E+00
         25   -1    0    0    0    0  0.00000000000E+00  0.00000000000E+00  0.99999998245E-14  0.12500000000E+03  0.12500000000E+03 0.  0.
        -11    1    3    3    0    0  0.16992532621E+02  0.11079671943E+02 -0.31470093548E+02  0.37441582277E+02  0.51100000000E-03 0.  1.
         23    2    1    0    0    0 -0.21052088816E+02  0.17756973599E+02  0.11441496480E+02  0.95177049164E+02  0.90383971427E+02 0.  0.
         11    1    3    3    0    0 -0.38044621437E+02  0.66773016559E+01  0.42911590027E+02  0.57735466887E+02  0.51100000000E-03 0. -1.
         22    1    1    0    0    0  0.21052088816E+02 -0.17756973599E+02 -0.11441496480E+02  0.29822950836E+02  0.00000000000E+00 0. -1.
</event>
<event>
 5    1  0.1692171E-003  0.9118800E+02  0.7818608E-02  0.1130116E+00
         25   -1    0    0    0    0  0.00000000000E+00  0.00000000000E+00  0.99999998245E-14  0.12500000000E+03  0.12500000000E+03 0.  0.
        -11    1    3    3    0    0  0.45263762888E+02 -0.38613999247E+02 -0.18325745151E+02  0.62254976542E+02  0.51100000000E-03 0. -1.
         23    2    1    0    0    0  0.19097909756E+02 -0.16257785564E+02 -0.37078528539E+01  0.99646619135E+02  0.96367291047E+02 0.  0.
         11    1    3    3    0    0 -0.26165853131E+02  0.22356213683E+02  0.14617892297E+02  0.37391642593E+02  0.51100000000E-03 0.  1.
         22    1    1    0    0    0 -0.19097909756E+02  0.16257785564E+02  0.37078528539E+01  0.25353380865E+02  0.00000000000E+00 0. -1.
</event>
<event>
 5    1  0.1692171E-003  0.9118800E+02  0.7818608E-02  0.1130116E+00
         25   -1    0    0    0    0  0.00000000000E+00  0.00000000000E+00  0.99999998245E-14  0.12500000000E+03  0.12500000000E+03 0.  0.
        -11    1    3    3    0    0  0.52944968816E+01 -0.26611017320E+02  0.50380867539E+02  0.57222458478E+02  0.51100000000E-03 0. -1.
         23    2    1    0    0    0 -0.52258545089E+01  0.31853216499E+01  0.28966295747E+02  0.95394221532E+02  0.90683820956E+02 0.  0.
         11    1    3    3    0    0 -0.10520351391E+02  0.29796338970E+02 -0.21414571791E+02  0.38171763054E+02  0.51100000000E-03 0.  1.
         22    1    1    0    0    0  0.52258545089E+01 -0.31853216499E+01 -0.28966295747E+02  0.29605778468E+02  0.00000000000E+00 0. -1.
</event>
<event>
 5    1  0.1692171E-003  0.9118800E+02  0.7818608E-02  0.1130116E+00
         25   -1    0    0    0    0  0.00000000000E+00  0.00000000000E+00  0.99999998245E-14  0.12500000000E+03  0.12500000000E+03 0.  0.
        -11    1    3    3    0    0  0.45011623520E+02 -0.16453082824E+02  0.40047995584E+02  0.62454720693E+02  0.51100000000E-03 0.  1.
         23    2    1    0    0    0  0.22556649437E+02 -0.82251209551E+01  0.17873358039E+02  0.95068211277E+02  0.90233324328E+02 0.  0.
         11    1    3    3    0    0 -0.22454974083E+02  0.82279618694E+01 -0.22174637545E+02  0.32613490584E+02  0.51100000000E-03 0. -1.
         22    1    1    0    0    0 -0.22556649437E+02  0.82251209551E+01 -0.17873358039E+02  0.29931788723E+02  0.00000000000E+00 0.  1.
</event>
<event>
 5    1  0.1692171E-003  0.9118800E+02  0.7818608E-02  0.1130116E+00
         25   -1    0    0    0    0  0.00000000000E+00  0.00000000000E+00  0.99999998245E-14  0.12500000000E+03  0.12500000000E+03 0.  0.
        -11    1    3    3    0    0  0.17021680539E+02 -0.17231052844E+02 -0.30243147284E+02  0.38746544986E+02  0.51100000000E-03 0. -1.
         23    2    1    0    0    0  0.17151935492E+02  0.18324059092E+02  0.14591072214E+02  0.95967958717E+02  0.91471250561E+02 0.  0.
         11    1    3    3    0    0  0.13025495282E+00  0.35555111936E+02  0.44834219498E+02  0.57221413731E+02  0.51100000000E-03 0.  1.
         22    1    1    0    0    0 -0.17151935492E+02 -0.18324059092E+02 -0.14591072214E+02  0.29032041283E+02  0.00000000000E+00 0.  1.
</event>
<event>
 5    1  0.1692171E-003  0.9118800E+02  0.7818608E-02  0.1130116E+00
         25   -1    0    0    0    0  0.00000000000E+00  0.00000000000E+00  0.99999998245E-14  0.12500000000E+03  0.12500000000E+03 0.  0.
        -11    1    3    3    0    0  0.47755515476E+02 -0.40673177098E+01 -0.62873243055E+01  0.48339039904E+02  0.51100000000E-03 0.  1.
         23    2    1    0    0    0  0.91043685184E+01 -0.21116994928E+00 -0.29864660067E+02  0.93777699640E+02  0.88427512178E+02 0.  0.
         11    1    3    3    0    0 -0.38651146957E+02  0.38561477605E+01 -0.23577335762E+02  0.45438659735E+02  0.51100000000E-03 0. -1.
         22    1    1    0    0    0 -0.91043685184E+01  0.21116994928E+00  0.29864660067E+02  0.31222300360E+02  0.00000000000E+00 0.  1.
</event>
<event>
 5    1  0.1692171E-003  0.9118800E+02  0.7818608E-02  0.1130116E+00
         25   -1    0    0    0    0  0.00000000000E+00  0.00000000000E+00  0.99999998245E-14  0.12500000000E+03  0.12500000000E+03 0.  0.
        -11    1    3    3    0    0  0.31891771615E+02 -0.18603597337E+02 -0.10040722543E+02  0.38262188124E+02  0.51100000000E-03 0.  1.
         23    2    1    0    0    0 -0.18958627548E+02  0.78477048317E+01  0.13726722697E+02  0.10031318276E+03  0.97228060194E+02 0.  0.
         11    1    3    3    0    0 -0.50850399163E+02  0.26451302168E+02  0.23767445239E+02  0.62050994632E+02  0.51100000000E-03 0. -1.
         22    1    1    0    0    0  0.18958627548E+02 -0.78477048317E+01 -0.13726722697E+02  0.24686817244E+02  0.00000000000E+00 0. -1.
</event>
<event>
 5    1  0.1692171E-003  0.9118800E+02  0.7818608E-02  0.1130116E+00
         25   -1    0    0    0    0  0.00000000000E+00  0.00000000000E+00  0.99999998245E-14  0.12500000000E+03  0.12500000000E+03 0.  0.
        -11    1    3    3    0    0 -0.65823775346E+01  0.34429135161E+02 -0.36918022811E+02  0.50908088262E+02  0.51100000000E-03 0.  1.
         23    2    1    0    0    0  0.15676527007E+02  0.24560646821E+02  0.85688926562E+00  0.95850160713E+02  0.91310131849E+02 0.  0.
         11    1    3    3    0    0  0.22258904541E+02 -0.98684883401E+01  0.37774912077E+02  0.44942072451E+02  0.51100000000E-03 0. -1.
         22    1    1    0    0    0 -0.15676527007E+02 -0.24560646821E+02 -0.85688926562E+00  0.29149839287E+02  0.00000000000E+00 0.  1.
</event>
<event>
 5    1  0.1692171E-003  0.9118800E+02  0.7818608E-02  0.1130116E+00
         25   -1    0    0    0    0  0.00000000000E+00  0.00000000000E+00  0.99999998245E-14  0.12500000000E+03  0.12500000000E+03 0.  0.
        -11    1    3    3    0    0 -0.23764221508E+02  0.30894556619E+02 -0.48883757854E+01  0.39282414267E+02  0.51100000000E-03 0.  1.
         23    2    1    0    0    0  0.96634154416E+01 -0.45294846590E+01  0.25957438772E+02  0.96934247616E+02  0.92782336164E+02 0.  0.
         11    1    3    3    0    0  0.33427636949E+02 -0.35424041278E+02  0.30845814558E+02  0.57651833349E+02  0.51100000000E-03 0. -1.
         22    1    1    0    0    0 -0.96634154416E+01  0.45294846590E+01 -0.25957438772E+02  0.28065752384E+02  0.00000000000E+00 0. -1.
</event>
<event>
 5    1  0.1692171E-003  0.9118800E+02  0.7818608E-02  0.1130116E+00
         25   -1    0    0    0    0  0.00000000000E+00  0.00000000000E+00  0.99999998245E-14  0.12500000000E+03  0.12500000000E+03 0.  0.
        -11    1    3    3    0    0 -0.23220089654E+02  0.17711415062E+02 -0.19623350676E+02  0.35184409602E+02  0.51100000000E-03 0.  1.
         23    2    1    0    0    0  0.10434590551E+02 -0.27555856196E+02  0.16958236632E+01  0.95485906612E+02  0.90810113164E+02 0.  0.
         11    1    3    3    0    0  0.33654680205E+02 -0.45267271258E+02  0.21319174339E+02  0.60301497009E+02  0.51100000000E-03 0. -1.
         22    1    1    0    0    0 -0.10434590551E+02  0.27555856196E+02 -0.16958236632E+01  0.29514093388E+02  0.00000000000E+00 0. -1.
</event>
<event>
 5    1  0.1692171E-003  0.9118800E+02  0.7818608E-02  0.1130116E+00
         25   -1    0    0    0    0  0.00000000000E+00  0.00000000000E+00  0.99999998245E-14  0.12500000000E+03  0.12500000000E+03 0.  0.
        -11    1    3    3    0    0 -0.27981975100E+02 -0.20850836063E+02 -0.65176849494E+01  0.35499697356E+02  0.51100000000E-03 0.  1.
         23    2    1    0    0    0  0.81984693820E+01  0.23173272401E+02  0.14762074155E+02  0.96327115818E+02  0.91960746814E+02 0.  0.
         11    1    3    3    0    0  0.36180444482E+02  0.44024108464E+02  0.21279759104E+02  0.60827418462E+02  0.51100000000E-03 0. -1.
         22    1    1    0    0    0 -0.81984693820E+01 -0.23173272401E+02 -0.14762074155E+02  0.28672884182E+02  0.00000000000E+00 0. -1.
</event>
<event>
 5    1  0.1692171E-003  0.9118800E+02  0.7818608E-02  0.1130116E+00
         25   -1    0    0    0    0  0.00000000000E+00  0.00000000000E+00  0.99999998245E-14  0.12500000000E+03  0.12500000000E+03 0.  0.
        -11    1    3    3    0    0  0.28197219710E+02 -0.44532571154E+02  0.27610687407E+02  0.59502799533E+02  0.51100000000E-03 0.  1.
         23    2    1    0    0    0  0.15029598006E+01 -0.27889167643E+02  0.13438736986E+02  0.94005416413E+02  0.88748825926E+02 0.  0.
         11    1    3    3    0    0 -0.26694259909E+02  0.16643403511E+02 -0.14171950421E+02  0.34502616880E+02  0.51100000000E-03 0. -1.
         22    1    1    0    0    0 -0.15029598006E+01  0.27889167643E+02 -0.13438736986E+02  0.30994583587E+02  0.00000000000E+00 0.  1.
</event>
<event>
 5    1  0.1692171E-003  0.9118800E+02  0.7818608E-02  0.1130116E+00
         25   -1    0    0    0    0  0.00000000000E+00  0.00000000000E+00  0.99999998245E-14  0.12500000000E+03  0.12500000000E+03 0.  0.
        -11    1    3    3    0    0  0.76493330077E+00 -0.17672728913E+02 -0.39638015221E+02  0.43406021714E+02  0.51100000000E-03 0. -1.
         23    2    1    0    0    0  0.26648249768E+02 -0.69702326457E+01  0.58644446550E+01  0.96837878810E+02  0.92652413365E+02 0.  0.
         11    1    3    3    0    0  0.25883316467E+02  0.10702496267E+02  0.45502459876E+02  0.53431857095E+02  0.51100000000E-03 0.  1.
         22    1    1    0    0    0 -0.26648249768E+02  0.69702326457E+01 -0.58644446550E+01  0.28162121190E+02  0.00000000000E+00 0.  1.
</event>
<event>
 5    1  0.1692171E-003  0.9118800E+02  0.7818608E-02  0.1130116E+00
         25   -1    0    0    0    0  0.00000000000E+00  0.00000000000E+00  0.99999998245E-14  0.12500000000E+03  0.12500000000E+03 0.  0.
        -11    1    3    3    0    0 -0.19128483865E+01  0.37046003776E+02  0.17773208549E+02  0.41133348115E+02  0.51100000000E-03 0. -1.
         23    2    1    0    0    0 -0.13400371436E+02 -0.17958163102E+02  0.16207169113E+02  0.97346105026E+02  0.93335557300E+02 0.  0.
         11    1    3    3    0    0 -0.11487523050E+02 -0.55004166878E+02 -0.15660394368E+01  0.56212756911E+02  0.51100000000E-03 0.  1.
         22    1    1    0    0    0  0.13400371436E+02  0.17958163102E+02 -0.16207169113E+02  0.27653894974E+02  0.00000000000E+00 0.  1.
</event>
<event>
 5    1  0.1692171E-003  0.9118800E+02  0.7818608E-02  0.1130116E+00
         25   -1    0    0    0    0  0.00000000000E+00  0.00000000000E+00  0.99999998245E-14  0.12500000000E+03  0.12500000000E+03 0.  0.
        -11    1    3    3    0    0 -0.13902056943E+02  0.60611347795E+02 -0.28328239246E+01  0.62249719360E+02  0.51100000000E-03 0.  1.
         23    2    1    0    0    0 -0.86889171673E+01  0.25537600388E+02 -0.40098689120E+01  0.97728304713E+02  0.93846023775E+02 0.  0.
         11    1    3    3    0    0  0.52131397758E+01 -0.35073747407E+02 -0.11770449874E+01  0.35478585353E+02  0.51100000000E-03 0. -1.
         22    1    1    0    0    0  0.86889171673E+01 -0.25537600388E+02  0.40098689120E+01  0.27271695287E+02  0.00000000000E+00 0.  1.
</event>
<event>
 5    1  0.1692171E-003  0.9118800E+02  0.7818608E-02  0.1130116E+00
         25   -1    0    0    0    0  0.00000000000E+00  0.00000000000E+00  0.99999998245E-14  0.12500000000E+03  0.12500000000E+03 0.  0.
        -11    1    3    3    0    0 -0.13143106537E+02  0.81154412749E+01 -0.32250926273E+02  0.35759248905E+02  0.51100000000E-03 0. -1.
         23    2    1    0    0    0  0.26419919144E+02 -0.77732433392E+01  0.99215798639E+01  0.95727603675E+02  0.91142201635E+02 0.  0.
         11    1    3    3    0    0  0.39563025681E+02 -0.15888684614E+02  0.42172506136E+02  0.59968354771E+02  0.51100000000E-03 0.  1.
         22    1    1    0    0    0 -0.26419919144E+02  0.77732433392E+01 -0.99215798639E+01  0.29272396325E+02  0.00000000000E+00 0.  1.
</event>
<event>
 5    1  0.1692171E-003  0.9118800E+02  0.7818608E-02  0.1130116E+00
         25   -1    0    0    0    0  0.00000000000E+00  0.00000000000E+00  0.99999998245E-14  0.12500000000E+03  0.12500000000E+03 0.  0.
        -11    1    3    3    0    0  0.36554164315E+02  0.11263869095E+02 -0.69693008996E+01  0.38879979823E+02  0.51100000000E-03 0.  1.
         23    2    1    0    0    0 -0.14408458284E+02 -0.10112049209E+02 -0.22639162854E+02  0.96322676135E+02  0.91954711862E+02 0.  0.
         11    1    3    3    0    0 -0.50962622600E+02 -0.21375918304E+02 -0.15669861954E+02  0.57442696311E+02  0.51100000000E-03 0. -1.
         22    1    1    0    0    0  0.14408458284E+02  0.10112049209E+02  0.22639162854E+02  0.28677323865E+02  0.00000000000E+00 0. -1.
</event>
<event>
 5    1  0.1692171E-003  0.9118800E+02  0.7818608E-02  0.1130116E+00
         25   -1    0    0    0    0  0.00000000000E+00  0.00000000000E+00  0.99999998245E-14  0.12500000000E+03  0.12500000000E+03 0.  0.
        -11    1    3    3    0    0  0.38577662193E+01 -0.53446859341E+02 -0.63211818054E+01  0.53957450582E+02  0.51100000000E-03 0. -1.
         23    2    1    0    0    0  0.22765855190E+02 -0.22425759627E+02  0.63228812559E+01  0.92424277679E+02  0.86493175568E+02 0.  0.
         11    1    3    3    0    0  0.18908088970E+02  0.31021099714E+02  0.12644063061E+02  0.38466827097E+02  0.51100000000E-03 0.  1.
         22    1    1    0    0    0 -0.22765855190E+02  0.22425759627E+02 -0.63228812559E+01  0.32575722321E+02  0.00000000000E+00 0. -1.
</event>
<event>
 5    1  0.1692171E-003  0.9118800E+02  0.7818608E-02  0.1130116E+00
         25   -1    0    0    0    0  0.00000000000E+00  0.00000000000E+00  0.99999998245E-14  0.12500000000E+03  0.12500000000E+03 0.  0.
        -11    1    3    3    0    0  0.31847778337E+02 -0.19736968365E+02  0.42156900202E+02  0.56400648402E+02  0.51100000000E-03 0. -1.
         23    2    1    0    0    0  0.17238157034E+02  0.98539065337E+01  0.23216858898E+02  0.94450432589E+02  0.89373419691E+02 0.  0.
         11    1    3    3    0    0 -0.14609621303E+02  0.29590874898E+02 -0.18940041304E+02  0.38049784188E+02  0.51100000000E-03 0.  1.
         22    1    1    0    0    0 -0.17238157034E+02 -0.98539065337E+01 -0.23216858898E+02  0.30549567411E+02  0.00000000000E+00 0. -1.
</event>
<event>
 5    1  0.1692171E-003  0.9118800E+02  0.7818608E-02  0.1130116E+00
         25   -1    0    0    0    0  0.00000000000E+00  0.00000000000E+00  0.99999998245E-14  0.12500000000E+03  0.12500000000E+03 0.  0.
        -11    1    3    3    0    0  0.21044421176E+02  0.54385553574E+02 -0.22382440254E+02  0.62463026922E+02  0.51100000000E-03 0.  1.
         23    2    1    0    0    0  0.11196646062E+02  0.25535828857E+02 -0.97344917949E+01  0.95466903837E+02  0.90783952102E+02 0.  0.
         11    1    3    3    0    0 -0.98477751144E+01 -0.28849724718E+02  0.12647948459E+02  0.33003876916E+02  0.51100000000E-03 0. -1.
         22    1    1    0    0    0 -0.11196646062E+02 -0.25535828857E+02  0.97344917949E+01  0.29533096163E+02  0.00000000000E+00 0.  1.
</event>
<event>
 5    1  0.1692171E-003  0.9118800E+02  0.7818608E-02  0.1130116E+00
         25   -1    0    0    0    0  0.00000000000E+00  0.00000000000E+00  0.99999998245E-14  0.12500000000E+03  0.12500000000E+03 0.  0.
        -11    1    3    3    0    0 -0.30270041938E+01  0.40503563704E+02 -0.27163158881E+02  0.48862445986E+02  0.51100000000E-03 0.  1.
         23    2    1    0    0    0 -0.13177984603E+02 -0.24379655669E+01 -0.29028893717E+02  0.93026892163E+02  0.87359733520E+02 0.  0.
         11    1    3    3    0    0 -0.10150980410E+02 -0.42941529271E+02 -0.18657348367E+01  0.44164446177E+02  0.51100000000E-03 0. -1.
         22    1    1    0    0    0  0.13177984603E+02  0.24379655669E+01  0.29028893717E+02  0.31973107837E+02  0.00000000000E+00 0. -1.
</event>
<event>
 5    1  0.1692171E-003  0.9118800E+02  0.7818608E-02  0.1130116E+00
         25   -1    0    0    0    0  0.00000000000E+00  0.00000000000E+00  0.99999998245E-14  0.12500000000E+03  0.12500000000E+03 0.  0.
        -11    1    3    3    0    0  0.13404063064E+02  0.41301959320E+02 -0.62000970462E+01  0.43862990709E+02  0.51100000000E-03 0.  1.
         23    2    1    0    0    0  0.23667915949E+02 -0.98851830089E+01  0.82928610255E+01  0.98043393528E+02  0.94264778057E+02 0.  0.
         11    1    3    3    0    0  0.10263852885E+02 -0.51187142328E+02  0.14492958072E+02  0.54180402820E+02  0.51100000000E-03 0. -1.
         22    1    1    0    0    0 -0.23667915949E+02  0.98851830089E+01 -0.82928610255E+01  0.26956606472E+02  0.00000000000E+00 0. -1.
</event>
<event>
 5    1  0.1692171E-003  0.9118800E+02  0.7818608E-02  0.1130116E+00
         25   -1    0    0    0    0  0.00000000000E+00  0.00000000000E+00  0.99999998245E-14  0.12500000000E+03  0.12500000000E+03 0.  0.
        -11    1    3    3    0    0  0.14807830807E+02 -0.33537565883E+02 -0.31017504807E+02  0.48022138470E+02  0.51100000000E-03 0. -1.
         23    2    1    0    0    0  0.15842825697E+02 -0.29737902990E+02  0.10485391743E+02  0.89711454545E+02  0.82479474030E+02 0.  0.
         11    1    3    3    0    0  0.10349948908E+01  0.37996628931E+01  0.41502896550E+02  0.41689316075E+02  0.51100000000E-03 0.  1.
         22    1    1    0    0    0 -0.15842825697E+02  0.29737902990E+02 -0.10485391743E+02  0.35288545455E+02  0.00000000000E+00 0. -1.
</event>
<event>
 5    1  0.1692171E-003  0.9118800E+02  0.7818608E-02  0.1130116E+00
         25   -1    0    0    0    0  0.00000000000E+00  0.00000000000E+00  0.99999998245E-14  0.12500000000E+03  0.12500000000E+03 0.  0.
        -11    1    3    3    0    0  0.41239159905E+01  0.22939356204E+02 -0.28589232566E+02  0.36885836918E+02  0.51100000000E-03 0. -1.
         23    2    1    0    0    0  0.20575232259E+01 -0.65837042765E+01  0.25522359461E+02  0.98561970643E+02  0.94949948187E+02 0.  0.
         11    1    3    3    0    0 -0.20663927646E+01 -0.29523060481E+02  0.54111592028E+02  0.61676133725E+02  0.51100000000E-03 0.  1.
         22    1    1    0    0    0 -0.20575232259E+01  0.65837042765E+01 -0.25522359461E+02  0.26438029357E+02  0.00000000000E+00 0.  1.
</event>
<event>
 5    1  0.1692171E-003  0.9118800E+02  0.7818608E-02  0.1130116E+00
         25   -1    0    0    0    0  0.00000000000E+00  0.00000000000E+00  0.99999998245E-14  0.12500000000E+03  0.12500000000E+03 0.  0.
        -11    1    3    3    0    0  0.44468618332E+02  0.83872794321E+01  0.26189812566E+00  0.45253431511E+02  0.51100000000E-03 0.  1.
         23    2    1    0    0    0  0.68615010021E+01 -0.81769929421E+01 -0.27938001841E+02  0.95092219132E+02  0.90266576222E+02 0.  0.
         11    1    3    3    0    0 -0.37607117329E+02 -0.16564272374E+02 -0.28199899967E+02  0.49838787621E+02  0.51100000000E-03 0. -1.
         22    1    1    0    0    0 -0.68615010021E+01  0.81769929421E+01  0.27938001841E+02  0.29907780868E+02  0.00000000000E+00 0. -1.
</event>
<event>
 5    1  0.1692171E-003  0.9118800E+02  0.7818608E-02  0.1130116E+00
         25   -1    0    0    0    0  0.00000000000E+00  0.00000000000E+00  0.99999998245E-14  0.12500000000E+03  0.12500000000E+03 0.  0.
        -11    1    3    3    0    0 -0.17560655251E+02  0.26214012105E+01  0.58628533352E+02  0.61258087470E+02  0.51100000000E-03 0. -1.
         23    2    1    0    0    0 -0.15549388274E+02  0.47240970842E+01  0.23959344299E+02  0.96049166710E+02  0.91582158074E+02 0.  0.
         11    1    3    3    0    0  0.20112669770E+01  0.21026958737E+01 -0.34669189054E+02  0.34791079240E+02  0.51100000000E-03 0.  1.
         22    1    1    0    0    0  0.15549388274E+02 -0.47240970842E+01 -0.23959344299E+02  0.28950833290E+02  0.00000000000E+00 0. -1.
</event>
<event>
 5    1  0.1692171E-003  0.9118800E+02  0.7818608E-02  0.1130116E+00
         25   -1    0    0    0    0  0.00000000000E+00  0.00000000000E+00  0.99999998245E-14  0.12500000000E+03  0.12500000000E+03 0.  0.
        -11    1    3    3    0    0  0.19994978121E+01 -0.28286699149E+02 -0.19403529400E+02  0.34360330232E+02  0.51100000000E-03 0.  1.
         23    2    1    0    0    0  0.14311661256E+02  0.17364030243E+02  0.19215839755E+02  0.95409770335E+02  0.90705251136E+02 0.  0.
         11    1    3    3    0    0  0.12312163444E+02  0.45650729392E+02  0.38619369155E+02  0.61049440102E+02  0.51100000000E-03 0. -1.
         22    1    1    0    0    0 -0.14311661256E+02 -0.17364030243E+02 -0.19215839755E+02  0.29590229665E+02  0.00000000000E+00 0. -1.
</event>
<event>
 5    1  0.1692171E-003  0.9118800E+02  0.7818608E-02  0.1130116E+00
         25   -1    0    0    0    0  0.00000000000E+00  0.00000000000E+00  0.99999998245E-14  0.12500000000E+03  0.12500000000E+03 0.  0.
        -11    1    3    3    0    0  0.88932152101E+01  0.52025958959E+02  0.10939158593E+02  0.53902271504E+02  0.51100000000E-03 0.  1.
         23    2    1    0    0    0  0.20484416373E+02  0.17615570398E+02 -0.10436607983E+02  0.96037223531E+02  0.91565855442E+02 0.  0.
         11    1    3    3    0    0  0.11591201163E+02 -0.34410388561E+02 -0.21375766576E+02  0.42134952027E+02  0.51100000000E-03 0. -1.
         22    1    1    0    0    0 -0.20484416373E+02 -0.17615570398E+02  0.10436607983E+02  0.28962776469E+02  0.00000000000E+00 0. -1.
</event>
<event>
 5    1  0.1692171E-003  0.9118800E+02  0.7818608E-02  0.1130116E+00
         25   -1    0    0    0    0  0.00000000000E+00  0.00000000000E+00  0.99999998245E-14  0.12500000000E+03  0.12500000000E+03 0.  0.
        -11    1    3    3    0    0  0.24160488370E+02  0.17695782515E+02  0.34257050002E+02  0.45501817461E+02  0.51100000000E-03 0.  1.
         23    2    1    0    0    0  0.20605806167E+02 -0.21623975947E+02  0.48299752819E+01  0.94742368818E+02  0.89780800868E+02 0.  0.
         11    1    3    3    0    0 -0.35546822035E+01 -0.39319758462E+02 -0.29427074720E+02  0.49240551357E+02  0.51100000000E-03 0. -1.
         22    1    1    0    0    0 -0.20605806167E+02  0.21623975947E+02 -0.48299752819E+01  0.30257631182E+02  0.00000000000E+00 0.  1.
</event>
<event>
 5    1  0.1692171E-003  0.9118800E+02  0.7818608E-02  0.1130116E+00
         25   -1    0    0    0    0  0.00000000000E+00  0.00000000000E+00  0.99999998245E-14  0.12500000000E+03  0.12500000000E+03 0.  0.
        -11    1    3    3    0    0 -0.76949350119E+01  0.25326495949E+02 -0.11057798917E+02  0.28686553279E+02  0.51100000000E-03 0.  1.
         23    2    1    0    0    0  0.20877255380E+02  0.23691531240E+02  0.31776388401E+02  0.80201704224E+02  0.66523875833E+02 0.  0.
         11    1    3    3    0    0  0.28572190392E+02 -0.16349647088E+01  0.42834187318E+02  0.51515150944E+02  0.51100000000E-03 0. -1.
         22    1    1    0    0    0 -0.20877255380E+02 -0.23691531240E+02 -0.31776388401E+02  0.44798295776E+02  0.00000000000E+00 0.  1.
</event>
<event>
 5    1  0.1692171E-003  0.9118800E+02  0.7818608E-02  0.1130116E+00
         25   -1    0    0    0    0  0.00000000000E+00  0.00000000000E+00  0.99999998245E-14  0.12500000000E+03  0.12500000000E+03 0.  0.
        -11    1    3    3    0    0  0.35958875207E+02 -0.37747752021E+02 -0.39703567803E+01  0.52284770460E+02  0.51100000000E-03 0.  1.
         23    2    1    0    0    0 -0.53628458617E+01 -0.26923345452E+02  0.75528416084E+01  0.96527696573E+02  0.92232988368E+02 0.  0.
         11    1    3    3    0    0 -0.41321721069E+02  0.10824406570E+02  0.11523198389E+02  0.44242926113E+02  0.51100000000E-03 0. -1.
         22    1    1    0    0    0  0.53628458617E+01  0.26923345452E+02 -0.75528416084E+01  0.28472303427E+02  0.00000000000E+00 0.  1.
</event>
<event>
 5    1  0.1692171E-003  0.9118800E+02  0.7818608E-02  0.1130116E+00
         25   -1    0    0    0    0  0.00000000000E+00  0.00000000000E+00  0.99999998245E-14  0.12500000000E+03  0.12500000000E+03 0.  0.
        -11    1    3    3    0    0  0.19086853489E+02 -0.32551725376E+02 -0.47105362935E+01  0.38027778709E+02  0.51100000000E-03 0.  1.
         23    2    1    0    0    0  0.21769718368E+02  0.20858002397E+02  0.95514101815E+01  0.93373961072E+02  0.87854938780E+02 0.  0.
         11    1    3    3    0    0  0.26828648789E+01  0.53409727773E+02  0.14261946475E+02  0.55346182364E+02  0.51100000000E-03 0. -1.
         22    1    1    0    0    0 -0.21769718368E+02 -0.20858002397E+02 -0.95514101815E+01  0.31626038928E+02  0.00000000000E+00 0. -1.
</event>
<event>
 5    1  0.1692171E-003  0.9118800E+02  0.7818608E-02  0.1130116E+00
         25   -1    0    0    0    0  0.00000000000E+00  0.00000000000E+00  0.99999998245E-14  0.12500000000E+03  0.12500000000E+03 0.  0.
        -11    1    3    3    0    0  0.19688143456E+02 -0.25638358501E+02 -0.13943864582E+02  0.35204826077E+02  0.51100000000E-03 0.  1.
         23    2    1    0    0    0 -0.73819487786E+01  0.23534763874E+02  0.12607190889E+02  0.97299466784E+02  0.93273075943E+02 0.  0.
         11    1    3    3    0    0 -0.27070092234E+02  0.49173122374E+02  0.26551055471E+02  0.62094640707E+02  0.51100000000E-03 0. -1.
         22    1    1    0    0    0  0.73819487786E+01 -0.23534763874E+02 -0.12607190889E+02  0.27700533216E+02  0.00000000000E+00 0. -1.
</event>
<event>
 5    1  0.1692171E-003  0.9118800E+02  0.7818608E-02  0.1130116E+00
         25   -1    0    0    0    0  0.00000000000E+00  0.00000000000E+00  0.99999998245E-14  0.12500000000E+03  0.12500000000E+03 0.  0.
        -11    1    3    3    0    0  0.26847848498E+02 -0.21715107233E+01 -0.65351260695E+01  0.27716967741E+02  0.51100000000E-03 0.  1.
         23    2    1    0    0    0 -0.21718903759E+02 -0.11934393257E+02 -0.32881504864E+02  0.83825567581E+02  0.73016381006E+02 0.  0.
         11    1    3    3    0    0 -0.48566752256E+02 -0.97628825336E+01 -0.26346378795E+02  0.56108599840E+02  0.51100000000E-03 0. -1.
         22    1    1    0    0    0  0.21718903759E+02  0.11934393257E+02  0.32881504864E+02  0.41174432419E+02  0.00000000000E+00 0. -1.
</event>
<event>
 5    1  0.1692171E-003  0.9118800E+02  0.7818608E-02  0.1130116E+00
         25   -1    0    0    0    0  0.00000000000E+00  0.00000000000E+00  0.99999998245E-14  0.12500000000E+03  0.12500000000E+03 0.  0.
        -11    1    3    3    0    0 -0.42605936784E+02  0.16403031240E+02 -0.46308452296E+01  0.45888669744E+02  0.51100000000E-03 0. -1.
         23    2    1    0    0    0 -0.14707019961E+02 -0.19593356937E+02  0.15846589413E+02  0.95822774837E+02  0.91272633956E+02 0.  0.
         11    1    3    3    0    0  0.27898916823E+02 -0.35996388176E+02  0.20477434642E+02  0.49934105093E+02  0.51100000000E-03 0.  1.
         22    1    1    0    0    0  0.14707019961E+02  0.19593356937E+02 -0.15846589413E+02  0.29177225163E+02  0.00000000000E+00 0. -1.
</event>
<event>
 5    1  0.1692171E-003  0.9118800E+02  0.7818608E-02  0.1130116E+00
         25   -1    0    0    0    0  0.00000000000E+00  0.00000000000E+00  0.99999998245E-14  0.12500000000E+03  0.12500000000E+03 0.  0.
        -11    1    3    3    0    0 -0.32310610139E+02 -0.39928763132E+01 -0.20034914047E+02  0.38227167956E+02  0.51100000000E-03 0.  1.
         23    2    1    0    0    0  0.44129184517E+01 -0.19462694864E+02  0.21416635085E+02  0.95726418070E+02  0.91140575583E+02 0.  0.
         11    1    3    3    0    0  0.36723528590E+02 -0.15469818551E+02  0.41451549131E+02  0.57499250115E+02  0.51100000000E-03 0. -1.
         22    1    1    0    0    0 -0.44129184517E+01  0.19462694864E+02 -0.21416635085E+02  0.29273581930E+02  0.00000000000E+00 0. -1.
</event>
<event>
 5    1  0.1692171E-003  0.9118800E+02  0.7818608E-02  0.1130116E+00
         25   -1    0    0    0    0  0.00000000000E+00  0.00000000000E+00  0.99999998245E-14  0.12500000000E+03  0.12500000000E+03 0.  0.
        -11    1    3    3    0    0  0.24504451619E+01 -0.36522900184E+02 -0.37819398876E+02  0.52633011038E+02  0.51100000000E-03 0.  1.
         23    2    1    0    0    0 -0.17829609553E+02 -0.32916712986E+01 -0.25970174469E+02  0.93326982481E+02  0.87788072199E+02 0.  0.
         11    1    3    3    0    0 -0.20280054715E+02  0.33231228886E+02  0.11849224407E+02  0.40693971443E+02  0.51100000000E-03 0. -1.
         22    1    1    0    0    0  0.17829609553E+02  0.32916712986E+01  0.25970174469E+02  0.31673017519E+02  0.00000000000E+00 0.  1.
</event>
<event>
 5    1  0.1692171E-003  0.9118800E+02  0.7818608E-02  0.1130116E+00
         25   -1    0    0    0    0  0.00000000000E+00  0.00000000000E+00  0.99999998245E-14  0.12500000000E+03  0.12500000000E+03 0.  0.
        -11    1    3    3    0    0  0.19101276238E+02  0.23793446669E+01  0.37857858431E+02  0.42470430657E+02  0.51100000000E-03 0.  1.
         23    2    1    0    0    0  0.12811536811E+02  0.27594975767E+02 -0.65082018282E+01  0.93887705741E+02  0.88582878906E+02 0.  0.
         11    1    3    3    0    0 -0.62897394264E+01  0.25215631100E+02 -0.44366060259E+02  0.51417275084E+02  0.51100000000E-03 0. -1.
         22    1    1    0    0    0 -0.12811536811E+02 -0.27594975767E+02  0.65082018282E+01  0.31112294259E+02  0.00000000000E+00 0. -1.
</event>
<event>
 5    1  0.1692171E-003  0.9118800E+02  0.7818608E-02  0.1130116E+00
         25   -1    0    0    0    0  0.00000000000E+00  0.00000000000E+00  0.99999998245E-14  0.12500000000E+03  0.12500000000E+03 0.  0.
        -11    1    3    3    0    0 -0.31029037385E+02 -0.49341232579E+02  0.14547492341E+02  0.60074852702E+02  0.51100000000E-03 0.  1.
         23    2    1    0    0    0 -0.28710270719E+01 -0.27172316103E+02  0.82198956828E+01  0.96466787004E+02  0.92150402880E+02 0.  0.
         11    1    3    3    0    0  0.28158010313E+02  0.22168916476E+02 -0.63275966587E+01  0.36391934302E+02  0.51100000000E-03 0. -1.
         22    1    1    0    0    0  0.28710270719E+01  0.27172316103E+02 -0.82198956828E+01  0.28533212996E+02  0.00000000000E+00 0.  1.
</event>
<event>
 5    1  0.1692171E-003  0.9118800E+02  0.7818608E-02  0.1130116E+00
         25   -1    0    0    0    0  0.00000000000E+00  0.00000000000E+00  0.99999998245E-14  0.12500000000E+03  0.12500000000E+03 0.  0.
        -11    1    3    3    0    0  0.32485759798E+02  0.15512653064E+02 -0.35423397967E+01  0.36173404128E+02  0.51100000000E-03 0.  1.
         23    2    1    0    0    0 -0.22283085691E+02  0.18447618436E+02  0.12745657913E+02  0.93388256462E+02  0.87875275906E+02 0.  0.
         11    1    3    3    0    0 -0.54768845489E+02  0.29349653723E+01  0.16287997710E+02  0.57214852334E+02  0.51100000000E-03 0. -1.
         22    1    1    0    0    0  0.22283085691E+02 -0.18447618436E+02 -0.12745657913E+02  0.31611743538E+02  0.00000000000E+00 0. -1.
</event>
<event>
 5    1  0.1692171E-003  0.9118800E+02  0.7818608E-02  0.1130116E+00
         25   -1    0    0    0    0  0.00000000000E+00  0.00000000000E+00  0.99999998245E-14  0.12500000000E+03  0.12500000000E+03 0.  0.
        -11    1    3    3    0    0  0.15828641098E+02 -0.54877610545E+02 -0.15220477150E+01  0.57135056206E+02  0.51100000000E-03 0.  1.
         23    2    1    0    0    0 -0.10978989436E+02 -0.27045721508E+02  0.72703603165E-01  0.95810711781E+02  0.91256111824E+02 0.  0.
         11    1    3    3    0    0 -0.26807630533E+02  0.27831889037E+02  0.15947513182E+01  0.38675655575E+02  0.51100000000E-03 0. -1.
         22    1    1    0    0    0  0.10978989436E+02  0.27045721508E+02 -0.72703603165E-01  0.29189288219E+02  0.00000000000E+00 0.  1.
</event>
<event>
 5    1  0.1692171E-003  0.9118800E+02  0.7818608E-02  0.1130116E+00
         25   -1    0    0    0    0  0.00000000000E+00  0.00000000000E+00  0.99999998245E-14  0.12500000000E+03  0.12500000000E+03 0.  0.
        -11    1    3    3    0    0  0.10229074131E+02  0.37337600375E+02 -0.10402777866E+02  0.40086757751E+02  0.51100000000E-03 0.  1.
         23    2    1    0    0    0  0.95125275076E+01 -0.11719419003E+01  0.28560657252E+02  0.94874051549E+02  0.89963953266E+02 0.  0.
         11    1    3    3    0    0 -0.71654662363E+00 -0.38509542275E+02  0.38963435118E+02  0.54787293799E+02  0.51100000000E-03 0. -1.
         22    1    1    0    0    0 -0.95125275076E+01  0.11719419003E+01 -0.28560657252E+02  0.30125948451E+02  0.00000000000E+00 0. -1.
</event>
<event>
 5    1  0.1692171E-003  0.9118800E+02  0.7818608E-02  0.1130116E+00
         25   -1    0    0    0    0  0.00000000000E+00  0.00000000000E+00  0.99999998245E-14  0.12500000000E+03  0.12500000000E+03 0.  0.
        -11    1    3    3    0    0 -0.43516521845E+01 -0.15394585125E+02  0.35677396595E+02  0.39099958517E+02  0.51100000000E-03 0. -1.
         23    2    1    0    0    0  0.28282278498E+02  0.72044726605E+01 -0.43726784102E+01  0.95488781458E+02  0.90814070301E+02 0.  0.
         11    1    3    3    0    0  0.32633930682E+02  0.22599057785E+02 -0.40050075006E+02  0.56388822942E+02  0.51100000000E-03 0.  1.
         22    1    1    0    0    0 -0.28282278498E+02 -0.72044726605E+01  0.43726784102E+01  0.29511218542E+02  0.00000000000E+00 0.  1.
</event>
<event>
 5    1  0.1692171E-003  0.9118800E+02  0.7818608E-02  0.1130116E+00
         25   -1    0    0    0    0  0.00000000000E+00  0.00000000000E+00  0.99999998245E-14  0.12500000000E+03  0.12500000000E+03 0.  0.
        -11    1    3    3    0    0 -0.89055655375E+01 -0.38356854272E+02  0.50247318678E+01  0.39696414168E+02  0.51100000000E-03 0.  1.
         23    2    1    0    0    0  0.29067949801E+02 -0.40363411392E+01 -0.11496686755E+02  0.93481567905E+02  0.88007908600E+02 0.  0.
         11    1    3    3    0    0  0.37973515338E+02  0.34320513133E+02 -0.16521418623E+02  0.53785153736E+02  0.51100000000E-03 0. -1.
         22    1    1    0    0    0 -0.29067949801E+02  0.40363411392E+01  0.11496686755E+02  0.31518432095E+02  0.00000000000E+00 0. -1.
</event>
<event>
 5    1  0.1692171E-003  0.9118800E+02  0.7818608E-02  0.1130116E+00
         25   -1    0    0    0    0  0.00000000000E+00  0.00000000000E+00  0.99999998245E-14  0.12500000000E+03  0.12500000000E+03 0.  0.
        -11    1    3    3    0    0 -0.29303889422E+02 -0.17834485982E+02 -0.11719147307E+02  0.36250865360E+02  0.51100000000E-03 0.  1.
         23    2    1    0    0    0  0.57094470845E+01  0.12919647424E+02  0.25471763056E+02  0.95873967164E+02  0.91342716135E+02 0.  0.
         11    1    3    3    0    0  0.35013336506E+02  0.30754133406E+02  0.37190910363E+02  0.59623101804E+02  0.51100000000E-03 0. -1.
         22    1    1    0    0    0 -0.57094470845E+01 -0.12919647424E+02 -0.25471763056E+02  0.29126032836E+02  0.00000000000E+00 0. -1.
</event>
<event>
 5    1  0.1692171E-003  0.9118800E+02  0.7818608E-02  0.1130116E+00
         25   -1    0    0    0    0  0.00000000000E+00  0.00000000000E+00  0.99999998245E-14  0.12500000000E+03  0.12500000000E+03 0.  0.
        -11    1    3    3    0    0  0.28690310183E+01 -0.46239744298E+02 -0.18976493417E+02  0.50064484362E+02  0.51100000000E-03 0.  1.
         23    2    1    0    0    0  0.22940262847E+02 -0.16300477263E+02  0.87387722451E+01  0.95532605157E+02  0.90874370916E+02 0.  0.
         11    1    3    3    0    0  0.20071231828E+02  0.29939267035E+02  0.27715265662E+02  0.45468120796E+02  0.51100000000E-03 0. -1.
         22    1    1    0    0    0 -0.22940262847E+02  0.16300477263E+02 -0.87387722451E+01  0.29467394843E+02  0.00000000000E+00 0. -1.
</event>
<event>
 5    1  0.1692171E-003  0.9118800E+02  0.7818608E-02  0.1130116E+00
         25   -1    0    0    0    0  0.00000000000E+00  0.00000000000E+00  0.99999998245E-14  0.12500000000E+03  0.12500000000E+03 0.  0.
        -11    1    3    3    0    0  0.19687338043E+02  0.59254430294E+01 -0.28784249943E+02  0.35372803103E+02  0.51100000000E-03 0.  1.
         23    2    1    0    0    0  0.59269166230E+01 -0.14378774247E+02  0.25607793025E+02  0.95039416676E+02  0.90193426418E+02 0.  0.
         11    1    3    3    0    0 -0.13760421420E+02 -0.20304217276E+02  0.54392042968E+02  0.59666613573E+02  0.51100000000E-03 0. -1.
         22    1    1    0    0    0 -0.59269166230E+01  0.14378774247E+02 -0.25607793025E+02  0.29960583324E+02  0.00000000000E+00 0. -1.
</event>
<event>
 5    1  0.1692171E-003  0.9118800E+02  0.7818608E-02  0.1130116E+00
         25   -1    0    0    0    0  0.00000000000E+00  0.00000000000E+00  0.99999998245E-14  0.12500000000E+03  0.12500000000E+03 0.  0.
        -11    1    3    3    0    0  0.20357804503E+02 -0.11450813340E+02 -0.28444174797E+02  0.36805331278E+02  0.51100000000E-03 0.  1.
         23    2    1    0    0    0  0.17373726642E+02  0.94172260931E+01  0.24342615979E+02  0.93645678489E+02  0.88240691420E+02 0.  0.
         11    1    3    3    0    0 -0.29840778612E+01  0.20868039434E+02  0.52786790775E+02  0.56840347211E+02  0.51100000000E-03 0. -1.
         22    1    1    0    0    0 -0.17373726642E+02 -0.94172260931E+01 -0.24342615979E+02  0.31354321511E+02  0.00000000000E+00 0. -1.
</event>
<event>
 5    1  0.1692171E-003  0.9118800E+02  0.7818608E-02  0.1130116E+00
         25   -1    0    0    0    0  0.00000000000E+00  0.00000000000E+00  0.99999998245E-14  0.12500000000E+03  0.12500000000E+03 0.  0.
        -11    1    3    3    0    0 -0.26187025960E+02 -0.26330839799E+02 -0.60618069621E+01  0.37627369786E+02  0.51100000000E-03 0. -1.
         23    2    1    0    0    0 -0.35776204841E+01  0.25548851478E+02  0.11318170808E+02  0.96828309057E+02  0.92639501640E+02 0.  0.
         11    1    3    3    0    0  0.22609405476E+02  0.51879691277E+02  0.17379977770E+02  0.59200939270E+02  0.51100000000E-03 0.  1.
         22    1    1    0    0    0  0.35776204841E+01 -0.25548851478E+02 -0.11318170808E+02  0.28171690943E+02  0.00000000000E+00 0.  1.
</event>
<event>
 5    1  0.1692171E-003  0.9118800E+02  0.7818608E-02  0.1130116E+00
         25   -1    0    0    0    0  0.00000000000E+00  0.00000000000E+00  0.99999998245E-14  0.12500000000E+03  0.12500000000E+03 0.  0.
        -11    1    3    3    0    0  0.33718531216E+02 -0.44918544571E+02 -0.57502070178E+01  0.56459541928E+02  0.51100000000E-03 0.  1.
         23    2    1    0    0    0  0.22249254388E+02 -0.12305635754E+02  0.13691722944E+02  0.96122304986E+02  0.91681929771E+02 0.  0.
         11    1    3    3    0    0 -0.11469276828E+02  0.32612908818E+02  0.19441929962E+02  0.39662763058E+02  0.51100000000E-03 0. -1.
         22    1    1    0    0    0 -0.22249254388E+02  0.12305635754E+02 -0.13691722944E+02  0.28877695014E+02  0.00000000000E+00 0.  1.
</event>
<event>
 5    1  0.1692171E-003  0.9118800E+02  0.7818608E-02  0.1130116E+00
         25   -1    0    0    0    0  0.00000000000E+00  0.00000000000E+00  0.99999998245E-14  0.12500000000E+03  0.12500000000E+03 0.  0.
        -11    1    3    3    0    0 -0.47864683268E+01  0.11780321049E+02  0.60685904267E+02  0.62003751661E+02  0.51100000000E-03 0.  1.
         23    2    1    0    0    0  0.27841222334E+01  0.31489021867E+01  0.28825362418E+02  0.95869801921E+02  0.91337015937E+02 0.  0.
         11    1    3    3    0    0  0.75705905602E+01 -0.86314188626E+01 -0.31860541849E+02  0.33866050260E+02  0.51100000000E-03 0. -1.
         22    1    1    0    0    0 -0.27841222334E+01 -0.31489021867E+01 -0.28825362418E+02  0.29130198079E+02  0.00000000000E+00 0.  1.
</event>
<event>
 5    1  0.1692171E-003  0.9118800E+02  0.7818608E-02  0.1130116E+00
         25   -1    0    0    0    0  0.00000000000E+00  0.00000000000E+00  0.99999998245E-14  0.12500000000E+03  0.12500000000E+03 0.  0.
        -11    1    3    3    0    0 -0.19704485991E+02  0.35344710220E+02 -0.30961553871E+02  0.50952263218E+02  0.51100000000E-03 0.  1.
         23    2    1    0    0    0  0.96468578815E+01  0.30653180341E+01 -0.28618912198E+02  0.94643778611E+02  0.89643430616E+02 0.  0.
         11    1    3    3    0    0  0.29351343873E+02 -0.32279392186E+02  0.23426416728E+01  0.43691515392E+02  0.51100000000E-03 0. -1.
         22    1    1    0    0    0 -0.96468578815E+01 -0.30653180341E+01  0.28618912198E+02  0.30356221389E+02  0.00000000000E+00 0.  1.
</event>
<event>
 5    1  0.1692171E-003  0.9118800E+02  0.7818608E-02  0.1130116E+00
         25   -1    0    0    0    0  0.00000000000E+00  0.00000000000E+00  0.99999998245E-14  0.12500000000E+03  0.12500000000E+03 0.  0.
        -11    1    3    3    0    0  0.59285537846E+02  0.89930782941E+01  0.59570867675E+01  0.60258919156E+02  0.51100000000E-03 0. -1.
         23    2    1    0    0    0  0.30107205235E+02  0.20728004518E+01 -0.86377474134E+01  0.93609699123E+02  0.88189709040E+02 0.  0.
         11    1    3    3    0    0 -0.29178332610E+02 -0.69202778423E+01 -0.14594834181E+02  0.33350779966E+02  0.51100000000E-03 0.  1.
         22    1    1    0    0    0 -0.30107205235E+02 -0.20728004518E+01  0.86377474134E+01  0.31390300877E+02  0.00000000000E+00 0. -1.
</event>
<event>
 5    1  0.1692171E-003  0.9118800E+02  0.7818608E-02  0.1130116E+00
         25   -1    0    0    0    0  0.00000000000E+00  0.00000000000E+00  0.99999998245E-14  0.12500000000E+03  0.12500000000E+03 0.  0.
        -11    1    3    3    0    0 -0.67476861192E+01 -0.36836563249E+02 -0.32419097476E+02  0.49532429189E+02  0.51100000000E-03 0. -1.
         23    2    1    0    0    0  0.23465528317E+02 -0.15149744945E+02 -0.30860005264E+01  0.96898946811E+02  0.92734765340E+02 0.  0.
         11    1    3    3    0    0  0.30213214436E+02  0.21686818304E+02  0.29333096950E+02  0.47366517622E+02  0.51100000000E-03 0.  1.
         22    1    1    0    0    0 -0.23465528317E+02  0.15149744945E+02  0.30860005264E+01  0.28101053189E+02  0.00000000000E+00 0. -1.
</event>
<event>
 5    1  0.1692171E-003  0.9118800E+02  0.7818608E-02  0.1130116E+00
         25   -1    0    0    0    0  0.00000000000E+00  0.00000000000E+00  0.99999998245E-14  0.12500000000E+03  0.12500000000E+03 0.  0.
        -11    1    3    3    0    0  0.37690052539E+02  0.16180918110E+01  0.30097885227E+02  0.48260138592E+02  0.51100000000E-03 0. -1.
         23    2    1    0    0    0  0.64393801146E+01  0.24524969848E+02 -0.33199427307E+01  0.99427323526E+02  0.96082417129E+02 0.  0.
         11    1    3    3    0    0 -0.31250672424E+02  0.22906878037E+02 -0.33417827958E+02  0.51167184934E+02  0.51100000000E-03 0.  1.
         22    1    1    0    0    0 -0.64393801146E+01 -0.24524969848E+02  0.33199427307E+01  0.25572676474E+02  0.00000000000E+00 0.  1.
</event>
<event>
 5    1  0.1692171E-003  0.9118800E+02  0.7818608E-02  0.1130116E+00
         25   -1    0    0    0    0  0.00000000000E+00  0.00000000000E+00  0.99999998245E-14  0.12500000000E+03  0.12500000000E+03 0.  0.
        -11    1    3    3    0    0 -0.33546421636E+02  0.33907842173E+01  0.50505235126E+01  0.34093512729E+02  0.51100000000E-03 0. -1.
         23    2    1    0    0    0  0.17518370189E+02  0.20812106659E+02  0.21308359336E+02  0.90444490233E+02  0.83583027932E+02 0.  0.
         11    1    3    3    0    0  0.51064791825E+02  0.17421322442E+02  0.16257835823E+02  0.56350977504E+02  0.51100000000E-03 0.  1.
         22    1    1    0    0    0 -0.17518370189E+02 -0.20812106659E+02 -0.21308359336E+02  0.34555509767E+02  0.00000000000E+00 0.  1.
</event>
<event>
 5    1  0.1692171E-003  0.9118800E+02  0.7818608E-02  0.1130116E+00
         25   -1    0    0    0    0  0.00000000000E+00  0.00000000000E+00  0.99999998245E-14  0.12500000000E+03  0.12500000000E+03 0.  0.
        -11    1    3    3    0    0 -0.18813505371E+02  0.23047103991E+01 -0.34204638440E+02  0.39105203815E+02  0.51100000000E-03 0. -1.
         23    2    1    0    0    0  0.12891165524E+01  0.23502778538E+02  0.15540524310E+02  0.96794498474E+02  0.92593869228E+02 0.  0.
         11    1    3    3    0    0  0.20102621923E+02  0.21198068139E+02  0.49745162750E+02  0.57689294659E+02  0.51100000000E-03 0.  1.
         22    1    1    0    0    0 -0.12891165524E+01 -0.23502778538E+02 -0.15540524310E+02  0.28205501526E+02  0.00000000000E+00 0.  1.
</event>
<event>
 5    1  0.1692171E-003  0.9118800E+02  0.7818608E-02  0.1130116E+00
         25   -1    0    0    0    0  0.00000000000E+00  0.00000000000E+00  0.99999998245E-14  0.12500000000E+03  0.12500000000E+03 0.  0.
        -11    1    3    3    0    0 -0.11736011477E+02  0.27771329500E+02 -0.65983336299E+00  0.30156526456E+02  0.51100000000E-03 0.  1.
         23    2    1    0    0    0  0.23761640707E+02 -0.20407217467E+02 -0.12703268371E+02  0.91199953829E+02  0.84705303596E+02 0.  0.
         11    1    3    3    0    0  0.35497652184E+02 -0.48178546967E+02 -0.12043435008E+02  0.61043427373E+02  0.51100000000E-03 0. -1.
         22    1    1    0    0    0 -0.23761640707E+02  0.20407217467E+02  0.12703268371E+02  0.33800046171E+02  0.00000000000E+00 0. -1.
</event>
<event>
 5    1  0.1692171E-003  0.9118800E+02  0.7818608E-02  0.1130116E+00
         25   -1    0    0    0    0  0.00000000000E+00  0.00000000000E+00  0.99999998245E-14  0.12500000000E+03  0.12500000000E+03 0.  0.
        -11    1    3    3    0    0 -0.38008473400E+02 -0.16519295134E+02 -0.16003206178E+01  0.41473994120E+02  0.51100000000E-03 0.  1.
         23    2    1    0    0    0  0.58909020781E+01 -0.56648730877E+01  0.28205373123E+02  0.95634431941E+02  0.91014328462E+02 0.  0.
         11    1    3    3    0    0  0.43899375478E+02  0.10854422047E+02  0.29805693741E+02  0.54160437821E+02  0.51100000000E-03 0. -1.
         22    1    1    0    0    0 -0.58909020781E+01  0.56648730877E+01 -0.28205373123E+02  0.29365568059E+02  0.00000000000E+00 0. -1.
</event>
<event>
 5    1  0.1692171E-003  0.9118800E+02  0.7818608E-02  0.1130116E+00
         25   -1    0    0    0    0  0.00000000000E+00  0.00000000000E+00  0.99999998245E-14  0.12500000000E+03  0.12500000000E+03 0.  0.
        -11    1    3    3    0    0  0.17044234497E+00  0.40176761911E+02  0.63142783316E+01  0.40670276116E+02  0.51100000000E-03 0. -1.
         23    2    1    0    0    0 -0.63659392836E+01 -0.11046182001E+02  0.26086629573E+02  0.95964580901E+02  0.91466634492E+02 0.  0.
         11    1    3    3    0    0 -0.65363816285E+01 -0.51222943912E+02  0.19772351241E+02  0.55294304785E+02  0.51100000000E-03 0.  1.
         22    1    1    0    0    0  0.63659392836E+01  0.11046182001E+02 -0.26086629573E+02  0.29035419099E+02  0.00000000000E+00 0.  1.
</event>
<event>
 5    1  0.1692171E-003  0.9118800E+02  0.7818608E-02  0.1130116E+00
         25   -1    0    0    0    0  0.00000000000E+00  0.00000000000E+00  0.99999998245E-14  0.12500000000E+03  0.12500000000E+03 0.  0.
        -11    1    3    3    0    0  0.33856927676E+02  0.60979091844E+01 -0.20850674410E+02  0.40227188215E+02  0.51100000000E-03 0. -1.
         23    2    1    0    0    0 -0.11947069970E+02 -0.24270812776E+02 -0.93766167872E+01  0.96369146432E+02  0.92017860266E+02 0.  0.
         11    1    3    3    0    0 -0.45803997646E+02 -0.30368721960E+02  0.11474057623E+02  0.56141958217E+02  0.51100000000E-03 0.  1.
         22    1    1    0    0    0  0.11947069970E+02  0.24270812776E+02  0.93766167872E+01  0.28630853568E+02  0.00000000000E+00 0.  1.
</event>
<event>
 5    1  0.1692171E-003  0.9118800E+02  0.7818608E-02  0.1130116E+00
         25   -1    0    0    0    0  0.00000000000E+00  0.00000000000E+00  0.99999998245E-14  0.12500000000E+03  0.12500000000E+03 0.  0.
        -11    1    3    3    0    0 -0.25440604501E+02 -0.18059621127E+02  0.52101744682E+02  0.60728626460E+02  0.51100000000E-03 0.  1.
         23    2    1    0    0    0 -0.79304496789E+01 -0.17634480186E+02  0.20776491210E+02  0.96618148219E+02  0.92355492823E+02 0.  0.
         11    1    3    3    0    0  0.17510154822E+02  0.42514094104E+00 -0.31325253472E+02  0.35889521758E+02  0.51100000000E-03 0. -1.
         22    1    1    0    0    0  0.79304496789E+01  0.17634480186E+02 -0.20776491210E+02  0.28381851781E+02  0.00000000000E+00 0.  1.
</event>
<event>
 5    1  0.1692171E-003  0.9118800E+02  0.7818608E-02  0.1130116E+00
         25   -1    0    0    0    0  0.00000000000E+00  0.00000000000E+00  0.99999998245E-14  0.12500000000E+03  0.12500000000E+03 0.  0.
        -11    1    3    3    0    0 -0.20827996493E+01  0.20753240621E+02 -0.41481508705E+02  0.46430061548E+02  0.51100000000E-03 0.  1.
         23    2    1    0    0    0  0.69602639223E+01 -0.21894955717E+02 -0.11791298128E+02  0.99176191775E+02  0.95755145782E+02 0.  0.
         11    1    3    3    0    0  0.90430635716E+01 -0.42648196338E+02  0.29690210577E+02  0.52746130227E+02  0.51100000000E-03 0. -1.
         22    1    1    0    0    0 -0.69602639223E+01  0.21894955717E+02  0.11791298128E+02  0.25823808225E+02  0.00000000000E+00 0. -1.
</event>
<event>
 5    1  0.1692171E-003  0.9118800E+02  0.7818608E-02  0.1130116E+00
         25   -1    0    0    0    0  0.00000000000E+00  0.00000000000E+00  0.99999998245E-14  0.12500000000E+03  0.12500000000E+03 0.  0.
        -11    1    3    3    0    0 -0.28089330231E+02 -0.12862014149E+02  0.96745987330E+01  0.32373441920E+02  0.51100000000E-03 0. -1.
         23    2    1    0    0    0  0.15113272570E+02  0.26636170776E+02 -0.76758950894E+01  0.93427607521E+02  0.87931233816E+02 0.  0.
         11    1    3    3    0    0  0.43202602801E+02  0.39498184925E+02 -0.17350493822E+02  0.61054165602E+02  0.51100000000E-03 0.  1.
         22    1    1    0    0    0 -0.15113272570E+02 -0.26636170776E+02  0.76758950894E+01  0.31572392479E+02  0.00000000000E+00 0.  1.
</event>
<event>
 5    1  0.1692171E-003  0.9118800E+02  0.7818608E-02  0.1130116E+00
         25   -1    0    0    0    0  0.00000000000E+00  0.00000000000E+00  0.99999998245E-14  0.12500000000E+03  0.12500000000E+03 0.  0.
        -11    1    3    3    0    0  0.10058799870E+02  0.26001258305E+02  0.21249437147E+02  0.35054007868E+02  0.51100000000E-03 0.  1.
         23    2    1    0    0    0  0.91671957993E+00 -0.90687299753E+01 -0.27630955071E+02  0.95904434766E+02  0.91384400701E+02 0.  0.
         11    1    3    3    0    0 -0.91420802897E+01 -0.35069988280E+02 -0.48880392218E+02  0.60850426898E+02  0.51100000000E-03 0. -1.
         22    1    1    0    0    0 -0.91671957993E+00  0.90687299753E+01  0.27630955071E+02  0.29095565234E+02  0.00000000000E+00 0. -1.
</event>
<event>
 5    1  0.1692171E-003  0.9118800E+02  0.7818608E-02  0.1130116E+00
         25   -1    0    0    0    0  0.00000000000E+00  0.00000000000E+00  0.99999998245E-14  0.12500000000E+03  0.12500000000E+03 0.  0.
        -11    1    3    3    0    0 -0.12436753126E+02  0.36530640191E+02 -0.76933164560E+00  0.38597310431E+02  0.51100000000E-03 0. -1.
         23    2    1    0    0    0  0.53040087284E+01 -0.12478554964E+02 -0.25371042531E+02  0.96233063394E+02  0.91832814661E+02 0.  0.
         11    1    3    3    0    0  0.17740761855E+02 -0.49009195155E+02 -0.24601710885E+02  0.57635752963E+02  0.51100000000E-03 0.  1.
         22    1    1    0    0    0 -0.53040087284E+01  0.12478554964E+02  0.25371042531E+02  0.28766936606E+02  0.00000000000E+00 0.  1.
</event>
<event>
 5    1  0.1692171E-003  0.9118800E+02  0.7818608E-02  0.1130116E+00
         25   -1    0    0    0    0  0.00000000000E+00  0.00000000000E+00  0.99999998245E-14  0.12500000000E+03  0.12500000000E+03 0.  0.
        -11    1    3    3    0    0  0.21057293208E+02  0.31574003407E+02 -0.21075848708E+02  0.43411043381E+02  0.51100000000E-03 0.  1.
         23    2    1    0    0    0  0.17119318714E+02  0.42126162565E+01  0.23354080918E+02  0.95738586766E+02  0.91157263514E+02 0.  0.
         11    1    3    3    0    0 -0.39379744942E+01 -0.27361387151E+02  0.44429929625E+02  0.52327543385E+02  0.51100000000E-03 0. -1.
         22    1    1    0    0    0 -0.17119318714E+02 -0.42126162565E+01 -0.23354080918E+02  0.29261413234E+02  0.00000000000E+00 0. -1.
</event>
<event>
 5    1  0.1692171E-003  0.9118800E+02  0.7818608E-02  0.1130116E+00
         25   -1    0    0    0    0  0.00000000000E+00  0.00000000000E+00  0.99999998245E-14  0.12500000000E+03  0.12500000000E+03 0.  0.
        -11    1    3    3    0    0  0.36828044162E+02  0.21671581138E+02  0.28356086622E+02  0.51283817278E+02  0.51100000000E-03 0.  1.
         23    2    1    0    0    0  0.62520651045E+01 -0.39461413881E+01  0.32760550215E+02  0.91415569079E+02  0.85022892621E+02 0.  0.
         11    1    3    3    0    0 -0.30575979058E+02 -0.25617722526E+02  0.44044635930E+01  0.40131751800E+02  0.51100000000E-03 0. -1.
         22    1    1    0    0    0 -0.62520651045E+01  0.39461413881E+01 -0.32760550215E+02  0.33584430921E+02  0.00000000000E+00 0.  1.
</event>
<event>
 5    1  0.1692171E-003  0.9118800E+02  0.7818608E-02  0.1130116E+00
         25   -1    0    0    0    0  0.00000000000E+00  0.00000000000E+00  0.99999998245E-14  0.12500000000E+03  0.12500000000E+03 0.  0.
        -11    1    3    3    0    0 -0.96564033583E+01  0.11528695499E+02 -0.34349845429E+02  0.37497584282E+02  0.51100000000E-03 0.  1.
         23    2    1    0    0    0  0.26361711569E+02 -0.51687296899E+01  0.93664418963E+01  0.96550292844E+02  0.92263607187E+02 0.  0.
         11    1    3    3    0    0  0.36018114927E+02 -0.16697425189E+02  0.43716287325E+02  0.59052708563E+02  0.51100000000E-03 0. -1.
         22    1    1    0    0    0 -0.26361711569E+02  0.51687296899E+01 -0.93664418963E+01  0.28449707156E+02  0.00000000000E+00 0. -1.
</event>
<event>
 5    1  0.1692171E-003  0.9118800E+02  0.7818608E-02  0.1130116E+00
         25   -1    0    0    0    0  0.00000000000E+00  0.00000000000E+00  0.99999998245E-14  0.12500000000E+03  0.12500000000E+03 0.  0.
        -11    1    3    3    0    0 -0.15758392398E+02 -0.76298323411E+01 -0.33154715301E+02  0.37493685061E+02  0.51100000000E-03 0.  1.
         23    2    1    0    0    0 -0.11734837548E+01  0.28448846381E+02  0.92630765397E+01  0.95058081031E+02  0.90219289832E+02 0.  0.
         11    1    3    3    0    0  0.14584908644E+02  0.36078678723E+02  0.42417791840E+02  0.57564395970E+02  0.51100000000E-03 0. -1.
         22    1    1    0    0    0  0.11734837548E+01 -0.28448846381E+02 -0.92630765397E+01  0.29941918969E+02  0.00000000000E+00 0. -1.
</event>
<event>
 5    1  0.1692171E-003  0.9118800E+02  0.7818608E-02  0.1130116E+00
         25   -1    0    0    0    0  0.00000000000E+00  0.00000000000E+00  0.99999998245E-14  0.12500000000E+03  0.12500000000E+03 0.  0.
        -11    1    3    3    0    0 -0.18446575249E+02 -0.35849321128E+02 -0.29433715936E+02  0.49917868523E+02  0.51100000000E-03 0.  1.
         23    2    1    0    0    0 -0.13468550347E+02 -0.26006402329E+02  0.12410836129E+02  0.93191767356E+02  0.87595330006E+02 0.  0.
         11    1    3    3    0    0  0.49780249027E+01  0.98429187988E+01  0.41844552065E+02  0.43273898833E+02  0.51100000000E-03 0. -1.
         22    1    1    0    0    0  0.13468550347E+02  0.26006402329E+02 -0.12410836129E+02  0.31808232644E+02  0.00000000000E+00 0.  1.
</event>
<event>
 5    1  0.1692171E-003  0.9118800E+02  0.7818608E-02  0.1130116E+00
         25   -1    0    0    0    0  0.00000000000E+00  0.00000000000E+00  0.99999998245E-14  0.12500000000E+03  0.12500000000E+03 0.  0.
        -11    1    3    3    0    0 -0.18431690198E+02  0.21536096672E+02  0.26725379068E+02  0.38958651799E+02  0.51100000000E-03 0. -1.
         23    2    1    0    0    0  0.17361676609E+02 -0.20040547467E+02  0.12784630278E+02  0.95563659725E+02  0.90917077226E+02 0.  0.
         11    1    3    3    0    0  0.35793366807E+02 -0.41576644139E+02 -0.13940748790E+02  0.56605007926E+02  0.51100000000E-03 0.  1.
         22    1    1    0    0    0 -0.17361676609E+02  0.20040547467E+02 -0.12784630278E+02  0.29436340275E+02  0.00000000000E+00 0.  1.
</event>
<event>
 5    1  0.1692171E-003  0.9118800E+02  0.7818608E-02  0.1130116E+00
         25   -1    0    0    0    0  0.00000000000E+00  0.00000000000E+00  0.99999998245E-14  0.12500000000E+03  0.12500000000E+03 0.  0.
        -11    1    3    3    0    0  0.16936101603E+02  0.35504400741E+02 -0.91792007781E+00  0.39347637630E+02  0.51100000000E-03 0. -1.
         23    2    1    0    0    0 -0.27106259474E+02  0.11430162880E+01 -0.10279550194E+02  0.95987503708E+02  0.91497955863E+02 0.  0.
         11    1    3    3    0    0 -0.44042361077E+02 -0.34361384453E+02 -0.93616301157E+01  0.56639866079E+02  0.51100000000E-03 0.  1.
         22    1    1    0    0    0  0.27106259474E+02 -0.11430162880E+01  0.10279550194E+02  0.29012496292E+02  0.00000000000E+00 0.  1.
</event>
<event>
 5    1  0.1692171E-003  0.9118800E+02  0.7818608E-02  0.1130116E+00
         25   -1    0    0    0    0  0.00000000000E+00  0.00000000000E+00  0.99999998245E-14  0.12500000000E+03  0.12500000000E+03 0.  0.
        -11    1    3    3    0    0 -0.55941322312E+01 -0.61636658632E+02 -0.19699727257E+01  0.61921343618E+02  0.51100000000E-03 0.  1.
         23    2    1    0    0    0  0.17804611003E+01 -0.32463053169E+02  0.27144391556E+01  0.92375039576E+02  0.86421987329E+02 0.  0.
         11    1    3    3    0    0  0.73745933315E+01  0.29173605463E+02  0.46844118813E+01  0.30453695957E+02  0.51100000000E-03 0. -1.
         22    1    1    0    0    0 -0.17804611003E+01  0.32463053169E+02 -0.27144391556E+01  0.32624960424E+02  0.00000000000E+00 0.  1.
</event>
<event>
 5    1  0.1692171E-003  0.9118800E+02  0.7818608E-02  0.1130116E+00
         25   -1    0    0    0    0  0.00000000000E+00  0.00000000000E+00  0.99999998245E-14  0.12500000000E+03  0.12500000000E+03 0.  0.
        -11    1    3    3    0    0 -0.26500446361E+01 -0.44523651671E+02 -0.41118962658E+01  0.44791583873E+02  0.51100000000E-03 0. -1.
         23    2    1    0    0    0  0.11811314046E+02 -0.22912377718E+01 -0.27352101246E+02  0.95118662135E+02  0.90303186731E+02 0.  0.
         11    1    3    3    0    0  0.14461358682E+02  0.42232413899E+02 -0.23240204980E+02  0.50327078262E+02  0.51100000000E-03 0.  1.
         22    1    1    0    0    0 -0.11811314046E+02  0.22912377718E+01  0.27352101246E+02  0.29881337865E+02  0.00000000000E+00 0.  1.
</event>
<event>
 5    1  0.1692171E-003  0.9118800E+02  0.7818608E-02  0.1130116E+00
         25   -1    0    0    0    0  0.00000000000E+00  0.00000000000E+00  0.99999998245E-14  0.12500000000E+03  0.12500000000E+03 0.  0.
        -11    1    3    3    0    0 -0.12710926435E+02 -0.15136027033E+02  0.28968414435E+02  0.35069017670E+02  0.51100000000E-03 0.  1.
         23    2    1    0    0    0  0.49263990869E+00 -0.10069251238E+02 -0.28770325294E+02  0.94514525884E+02  0.89463017337E+02 0.  0.
         11    1    3    3    0    0  0.13203566344E+02  0.50667757944E+01 -0.57738739729E+02  0.59445508214E+02  0.51100000000E-03 0. -1.
         22    1    1    0    0    0 -0.49263990869E+00  0.10069251238E+02  0.28770325294E+02  0.30485474116E+02  0.00000000000E+00 0. -1.
</event>
<event>
 5    1  0.1692171E-003  0.9118800E+02  0.7818608E-02  0.1130116E+00
         25   -1    0    0    0    0  0.00000000000E+00  0.00000000000E+00  0.99999998245E-14  0.12500000000E+03  0.12500000000E+03 0.  0.
        -11    1    3    3    0    0 -0.52994116991E+02 -0.24158589786E+01 -0.29375830693E+02  0.60639527038E+02  0.51100000000E-03 0. -1.
         23    2    1    0    0    0 -0.20535803421E+02 -0.11291340639E+02 -0.95660403054E+01  0.99687498687E+02  0.96420302177E+02 0.  0.
         11    1    3    3    0    0  0.32458313569E+02 -0.88754816604E+01  0.19809790388E+02  0.39047971649E+02  0.51100000000E-03 0.  1.
         22    1    1    0    0    0  0.20535803421E+02  0.11291340639E+02  0.95660403054E+01  0.25312501313E+02  0.00000000000E+00 0. -1.
</event>
<event>
 5    1  0.1692171E-003  0.9118800E+02  0.7818608E-02  0.1130116E+00
         25   -1    0    0    0    0  0.00000000000E+00  0.00000000000E+00  0.99999998245E-14  0.12500000000E+03  0.12500000000E+03 0.  0.
        -11    1    3    3    0    0 -0.21276296692E+02  0.31836448945E+02  0.27230858800E+02  0.46986806165E+02  0.51100000000E-03 0. -1.
         23    2    1    0    0    0  0.20418258246E+02  0.67766819287E+01  0.18946203058E+02  0.96333167282E+02  0.91968972053E+02 0.  0.
         11    1    3    3    0    0  0.41694554938E+02 -0.25059767017E+02 -0.82846557426E+01  0.49346361117E+02  0.51100000000E-03 0.  1.
         22    1    1    0    0    0 -0.20418258246E+02 -0.67766819287E+01 -0.18946203058E+02  0.28666832718E+02  0.00000000000E+00 0.  1.
</event>
<event>
 5    1  0.1692171E-003  0.9118800E+02  0.7818608E-02  0.1130116E+00
         25   -1    0    0    0    0  0.00000000000E+00  0.00000000000E+00  0.99999998245E-14  0.12500000000E+03  0.12500000000E+03 0.  0.
        -11    1    3    3    0    0  0.59137464989E+02 -0.16444014451E+02 -0.31179825937E+01  0.61460289556E+02  0.51100000000E-03 0.  1.
         23    2    1    0    0    0  0.25139308946E+02 -0.14901109406E+02 -0.39931760147E+01  0.95504689008E+02  0.90835963429E+02 0.  0.
         11    1    3    3    0    0 -0.33998156043E+02  0.15429050442E+01 -0.87519342101E+00  0.34044399452E+02  0.51100000000E-03 0. -1.
         22    1    1    0    0    0 -0.25139308946E+02  0.14901109406E+02  0.39931760147E+01  0.29495310992E+02  0.00000000000E+00 0.  1.
</event>
<event>
 5    1  0.1692171E-003  0.9118800E+02  0.7818608E-02  0.1130116E+00
         25   -1    0    0    0    0  0.00000000000E+00  0.00000000000E+00  0.99999998245E-14  0.12500000000E+03  0.12500000000E+03 0.  0.
        -11    1    3    3    0    0 -0.61165179866E+02 -0.89367319981E+01  0.74784321958E+01  0.62265330282E+02  0.51100000000E-03 0. -1.
         23    2    1    0    0    0 -0.28361898304E+02 -0.15697238302E+01  0.56532355668E+00  0.96589070782E+02  0.92316129118E+02 0.  0.
         11    1    3    3    0    0  0.32803281561E+02  0.73670081679E+01 -0.69131086391E+01  0.34323740499E+02  0.51100000000E-03 0.  1.
         22    1    1    0    0    0  0.28361898304E+02  0.15697238302E+01 -0.56532355668E+00  0.28410929218E+02  0.00000000000E+00 0. -1.
</event>
<event>
 5    1  0.1692171E-003  0.9118800E+02  0.7818608E-02  0.1130116E+00
         25   -1    0    0    0    0  0.00000000000E+00  0.00000000000E+00  0.99999998245E-14  0.12500000000E+03  0.12500000000E+03 0.  0.
        -11    1    3    3    0    0  0.88518524558E+01  0.56039045455E+02  0.29613758862E+01  0.56811087428E+02  0.51100000000E-03 0. -1.
         23    2    1    0    0    0 -0.12753441313E+02  0.27062001789E+02 -0.69426821334E+01  0.94288389144E+02  0.89146493403E+02 0.  0.
         11    1    3    3    0    0 -0.21605293768E+02 -0.28977043665E+02 -0.99040580196E+01  0.37477301716E+02  0.51100000000E-03 0.  1.
         22    1    1    0    0    0  0.12753441313E+02 -0.27062001789E+02  0.69426821334E+01  0.30711610856E+02  0.00000000000E+00 0. -1.
</event>
<event>
 5    1  0.1692171E-003  0.9118800E+02  0.7818608E-02  0.1130116E+00
         25   -1    0    0    0    0  0.00000000000E+00  0.00000000000E+00  0.99999998245E-14  0.12500000000E+03  0.12500000000E+03 0.  0.
        -11    1    3    3    0    0  0.61107509417E+01  0.34864610948E+02  0.27223843270E+01  0.35500616196E+02  0.51100000000E-03 0. -1.
         23    2    1    0    0    0  0.11556987016E+02 -0.22298361250E+02  0.17001565806E+02  0.94671233075E+02  0.89681705318E+02 0.  0.
         11    1    3    3    0    0  0.54462360747E+01 -0.57162972198E+02  0.14279181479E+02  0.59170616879E+02  0.51100000000E-03 0.  1.
         22    1    1    0    0    0 -0.11556987016E+02  0.22298361250E+02 -0.17001565806E+02  0.30328766925E+02  0.00000000000E+00 0.  1.
</event>
<event>
 5    1  0.1692171E-003  0.9118800E+02  0.7818608E-02  0.1130116E+00
         25   -1    0    0    0    0  0.00000000000E+00  0.00000000000E+00  0.99999998245E-14  0.12500000000E+03  0.12500000000E+03 0.  0.
        -11    1    3    3    0    0  0.31621977492E+02  0.42533062780E+02  0.53423807959E+01  0.53268676751E+02  0.51100000000E-03 0. -1.
         23    2    1    0    0    0  0.13238464396E+02  0.66743731809E+01  0.23298236812E+02  0.97384568888E+02  0.93387055966E+02 0.  0.
         11    1    3    3    0    0 -0.18383513097E+02 -0.35858689599E+02  0.17955856017E+02  0.44115892137E+02  0.51100000000E-03 0.  1.
         22    1    1    0    0    0 -0.13238464396E+02 -0.66743731809E+01 -0.23298236812E+02  0.27615431112E+02  0.00000000000E+00 0. -1.
</event>
<event>
 5    1  0.1692171E-003  0.9118800E+02  0.7818608E-02  0.1130116E+00
         25   -1    0    0    0    0  0.00000000000E+00  0.00000000000E+00  0.99999998245E-14  0.12500000000E+03  0.12500000000E+03 0.  0.
        -11    1    3    3    0    0  0.35373856756E+02 -0.14345292567E+02  0.66296373473E+01  0.38743376882E+02  0.51100000000E-03 0.  1.
         23    2    1    0    0    0 -0.22712349761E+02 -0.15083095426E+02  0.70616787749E+01  0.96835875543E+02  0.92649710662E+02 0.  0.
         11    1    3    3    0    0 -0.58086206517E+02 -0.73780285878E+00  0.43204142763E+00  0.58092498661E+02  0.51100000000E-03 0. -1.
         22    1    1    0    0    0  0.22712349761E+02  0.15083095426E+02 -0.70616787749E+01  0.28164124457E+02  0.00000000000E+00 0. -1.
</event>
<event>
 5    1  0.1692171E-003  0.9118800E+02  0.7818608E-02  0.1130116E+00
         25   -1    0    0    0    0  0.00000000000E+00  0.00000000000E+00  0.99999998245E-14  0.12500000000E+03  0.12500000000E+03 0.  0.
        -11    1    3    3    0    0  0.34055602322E+02  0.17546850153E+02 -0.43921422381E+02  0.58281792560E+02  0.51100000000E-03 0.  1.
         23    2    1    0    0    0  0.28506299457E+01  0.17032228831E+02 -0.24447624861E+02  0.95068256459E+02  0.90233386919E+02 0.  0.
         11    1    3    3    0    0 -0.31204972376E+02 -0.51462132229E+00  0.19473797520E+02  0.36786463899E+02  0.51100000000E-03 0. -1.
         22    1    1    0    0    0 -0.28506299457E+01 -0.17032228831E+02  0.24447624861E+02  0.29931743541E+02  0.00000000000E+00 0.  1.
</event>
<event>
 5    1  0.1692171E-003  0.9118800E+02  0.7818608E-02  0.1130116E+00
         25   -1    0    0    0    0  0.00000000000E+00  0.00000000000E+00  0.99999998245E-14  0.12500000000E+03  0.12500000000E+03 0.  0.
        -11    1    3    3    0    0  0.11283142289E+02 -0.42114216050E+02 -0.30729453482E+02  0.53340564348E+02  0.51100000000E-03 0.  1.
         23    2    1    0    0    0  0.14708012538E+02 -0.20231369856E+02  0.86601925351E+01  0.98530529023E+02  0.94908546800E+02 0.  0.
         11    1    3    3    0    0  0.34248702489E+01  0.21882846194E+02  0.39389646017E+02  0.45189964675E+02  0.51100000000E-03 0. -1.
         22    1    1    0    0    0 -0.14708012538E+02  0.20231369856E+02 -0.86601925351E+01  0.26469470977E+02  0.00000000000E+00 0. -1.
</event>
<event>
 5    1  0.1692171E-003  0.9118800E+02  0.7818608E-02  0.1130116E+00
         25   -1    0    0    0    0  0.00000000000E+00  0.00000000000E+00  0.99999998245E-14  0.12500000000E+03  0.12500000000E+03 0.  0.
        -11    1    3    3    0    0  0.16983265923E+02  0.91515579703E+01 -0.48057605637E+02  0.51785285502E+02  0.51100000000E-03 0.  1.
         23    2    1    0    0    0  0.13247682718E+02  0.27018135331E+02 -0.11241966614E+02  0.92877382618E+02  0.87145542941E+02 0.  0.
         11    1    3    3    0    0 -0.37355832047E+01  0.17866577360E+02  0.36815639023E+02  0.41092097116E+02  0.51100000000E-03 0. -1.
         22    1    1    0    0    0 -0.13247682718E+02 -0.27018135331E+02  0.11241966614E+02  0.32122617382E+02  0.00000000000E+00 0.  1.
</event>
<event>
 5    1  0.1692171E-003  0.9118800E+02  0.7818608E-02  0.1130116E+00
         25   -1    0    0    0    0  0.00000000000E+00  0.00000000000E+00  0.99999998245E-14  0.12500000000E+03  0.12500000000E+03 0.  0.
        -11    1    3    3    0    0 -0.21227035586E+02  0.47870866346E+02  0.23466212892E+02  0.57383534505E+02  0.51100000000E-03 0.  1.
         23    2    1    0    0    0 -0.22269034199E+02  0.20305604009E+02 -0.18252582655E+01  0.94807964526E+02  0.89872082047E+02 0.  0.
         11    1    3    3    0    0 -0.10419986137E+01 -0.27565262337E+02 -0.25291471157E+02  0.37424430021E+02  0.51100000000E-03 0. -1.
         22    1    1    0    0    0  0.22269034199E+02 -0.20305604009E+02  0.18252582655E+01  0.30192035474E+02  0.00000000000E+00 0.  1.
</event>
<event>
 5    1  0.1692171E-003  0.9118800E+02  0.7818608E-02  0.1130116E+00
         25   -1    0    0    0    0  0.00000000000E+00  0.00000000000E+00  0.99999998245E-14  0.12500000000E+03  0.12500000000E+03 0.  0.
        -11    1    3    3    0    0  0.10443404599E+02 -0.23444880416E+02  0.21969097634E+02  0.33784143743E+02  0.51100000000E-03 0. -1.
         23    2    1    0    0    0 -0.15323925892E+02  0.90869184091E+01 -0.23607694305E+02  0.95424367778E+02  0.90725365497E+02 0.  0.
         11    1    3    3    0    0 -0.25767330491E+02  0.32531798825E+02 -0.45576791939E+02  0.61640224035E+02  0.51100000000E-03 0.  1.
         22    1    1    0    0    0  0.15323925892E+02 -0.90869184091E+01  0.23607694305E+02  0.29575632222E+02  0.00000000000E+00 0.  1.
</event>
<event>
 5    1  0.1692171E-003  0.9118800E+02  0.7818608E-02  0.1130116E+00
         25   -1    0    0    0    0  0.00000000000E+00  0.00000000000E+00  0.99999998245E-14  0.12500000000E+03  0.12500000000E+03 0.  0.
        -11    1    3    3    0    0  0.30626552962E+02  0.95858880925E+01 -0.79082135927E+01  0.33051699492E+02  0.51100000000E-03 0. -1.
         23    2    1    0    0    0 -0.21426985291E+02 -0.21842170592E+02 -0.55543722008E+01  0.93902618030E+02  0.88603919256E+02 0.  0.
         11    1    3    3    0    0 -0.52053538253E+02 -0.31428058684E+02  0.23538413918E+01  0.60850918538E+02  0.51100000000E-03 0.  1.
         22    1    1    0    0    0  0.21426985291E+02  0.21842170592E+02  0.55543722008E+01  0.31097381970E+02  0.00000000000E+00 0.  1.
</event>
<event>
 5    1  0.1692171E-003  0.9118800E+02  0.7818608E-02  0.1130116E+00
         25   -1    0    0    0    0  0.00000000000E+00  0.00000000000E+00  0.99999998245E-14  0.12500000000E+03  0.12500000000E+03 0.  0.
        -11    1    3    3    0    0  0.37053598253E+02  0.12532445915E+02  0.44756339657E+02  0.59440401108E+02  0.51100000000E-03 0. -1.
         23    2    1    0    0    0  0.25403528525E+02 -0.57496582931E+01  0.21577145622E+02  0.91177358985E+02  0.84671953717E+02 0.  0.
         11    1    3    3    0    0 -0.11650069728E+02 -0.18282104208E+02 -0.23179194035E+02  0.31736957877E+02  0.51100000000E-03 0.  1.
         22    1    1    0    0    0 -0.25403528525E+02  0.57496582931E+01 -0.21577145622E+02  0.33822641015E+02  0.00000000000E+00 0. -1.
</event>
<event>
 5    1  0.1692171E-003  0.9118800E+02  0.7818608E-02  0.1130116E+00
         25   -1    0    0    0    0  0.00000000000E+00  0.00000000000E+00  0.99999998245E-14  0.12500000000E+03  0.12500000000E+03 0.  0.
        -11    1    3    3    0    0 -0.30038058245E+02 -0.46168899269E+02 -0.70483738394E+00  0.55084925332E+02  0.51100000000E-03 0. -1.
         23    2    1    0    0    0 -0.30011135313E+02 -0.71185598331E+01  0.46205675815E+00  0.94152704602E+02  0.88956034931E+02 0.  0.
         11    1    3    3    0    0  0.26922931760E-01  0.39050339436E+02  0.11668941421E+01  0.39067779270E+02  0.51100000000E-03 0.  1.
         22    1    1    0    0    0  0.30011135313E+02  0.71185598331E+01 -0.46205675815E+00  0.30847295398E+02  0.00000000000E+00 0. -1.
</event>
<event>
 5    1  0.1692171E-003  0.9118800E+02  0.7818608E-02  0.1130116E+00
         25   -1    0    0    0    0  0.00000000000E+00  0.00000000000E+00  0.99999998245E-14  0.12500000000E+03  0.12500000000E+03 0.  0.
        -11    1    3    3    0    0 -0.15100372856E+00 -0.90584278618E+00 -0.43540245227E+02  0.43549928909E+02  0.51100000000E-03 0. -1.
         23    2    1    0    0    0  0.28819889401E+02  0.57160770885E+01 -0.79837630513E+00  0.95607875764E+02  0.90977848629E+02 0.  0.
         11    1    3    3    0    0  0.28970893129E+02  0.66219198747E+01  0.42741868922E+02  0.52057946855E+02  0.51100000000E-03 0.  1.
         22    1    1    0    0    0 -0.28819889401E+02 -0.57160770885E+01  0.79837630513E+00  0.29392124236E+02  0.00000000000E+00 0.  1.
</event>
<event>
 5    1  0.1692171E-003  0.9118800E+02  0.7818608E-02  0.1130116E+00
         25   -1    0    0    0    0  0.00000000000E+00  0.00000000000E+00  0.99999998245E-14  0.12500000000E+03  0.12500000000E+03 0.  0.
        -11    1    3    3    0    0  0.17006871713E+02 -0.23204690837E+02  0.17913465155E+02  0.33890759750E+02  0.51100000000E-03 0. -1.
         23    2    1    0    0    0 -0.95003489562E+01  0.27820722473E+02 -0.38073697288E+01  0.95356361670E+02  0.90631619302E+02 0.  0.
         11    1    3    3    0    0 -0.26507220669E+02  0.51025413310E+02 -0.21720834884E+02  0.61465601920E+02  0.51100000000E-03 0.  1.
         22    1    1    0    0    0  0.95003489562E+01 -0.27820722473E+02  0.38073697288E+01  0.29643638330E+02  0.00000000000E+00 0.  1.
</event>
<event>
 5    1  0.1692171E-003  0.9118800E+02  0.7818608E-02  0.1130116E+00
         25   -1    0    0    0    0  0.00000000000E+00  0.00000000000E+00  0.99999998245E-14  0.12500000000E+03  0.12500000000E+03 0.  0.
        -11    1    3    3    0    0  0.36941740283E+02  0.28154460431E+02 -0.40706269909E+02  0.61760555596E+02  0.51100000000E-03 0. -1.
         23    2    1    0    0    0  0.22823672233E+02  0.95417446758E+01 -0.24426354721E+02  0.90234906722E+02  0.83269001918E+02 0.  0.
         11    1    3    3    0    0 -0.14118068050E+02 -0.18612715756E+02  0.16279915188E+02  0.28474351126E+02  0.51100000000E-03 0.  1.
         22    1    1    0    0    0 -0.22823672233E+02 -0.95417446758E+01  0.24426354721E+02  0.34765093278E+02  0.00000000000E+00 0. -1.
</event>
<event>
 5    1  0.1692171E-003  0.9118800E+02  0.7818608E-02  0.1130116E+00
         25   -1    0    0    0    0  0.00000000000E+00  0.00000000000E+00  0.99999998245E-14  0.12500000000E+03  0.12500000000E+03 0.  0.
        -11    1    3    3    0    0 -0.88843492100E+00  0.47596209298E+02 -0.23661598822E+02  0.53160697091E+02  0.51100000000E-03 0.  1.
         23    2    1    0    0    0  0.20088981962E+02  0.18488871298E+02  0.25277941901E+01  0.97581114143E+02  0.93649765273E+02 0.  0.
         11    1    3    3    0    0  0.20977416883E+02 -0.29107337999E+02  0.26189393012E+02  0.44420417052E+02  0.51100000000E-03 0. -1.
         22    1    1    0    0    0 -0.20088981962E+02 -0.18488871298E+02 -0.25277941901E+01  0.27418885857E+02  0.00000000000E+00 0.  1.
</event>
<event>
 5    1  0.1692171E-003  0.9118800E+02  0.7818608E-02  0.1130116E+00
         25   -1    0    0    0    0  0.00000000000E+00  0.00000000000E+00  0.99999998245E-14  0.12500000000E+03  0.12500000000E+03 0.  0.
        -11    1    3    3    0    0 -0.13570231568E+02 -0.57209183739E+02 -0.12278767705E+02  0.60065048285E+02  0.51100000000E-03 0.  1.
         23    2    1    0    0    0 -0.15680384178E+02 -0.24726161384E+02  0.20894554623E+01  0.95646578923E+02  0.91031009721E+02 0.  0.
         11    1    3    3    0    0 -0.21101526102E+01  0.32483022354E+02  0.14368223168E+02  0.35581530638E+02  0.51100000000E-03 0. -1.
         22    1    1    0    0    0  0.15680384178E+02  0.24726161384E+02 -0.20894554623E+01  0.29353421077E+02  0.00000000000E+00 0.  1.
</event>
<event>
 5    1  0.1692171E-003  0.9118800E+02  0.7818608E-02  0.1130116E+00
         25   -1    0    0    0    0  0.00000000000E+00  0.00000000000E+00  0.99999998245E-14  0.12500000000E+03  0.12500000000E+03 0.  0.
        -11    1    3    3    0    0 -0.17347774486E+02  0.42077298582E+00 -0.53078816597E+02  0.55843380101E+02  0.51100000000E-03 0. -1.
         23    2    1    0    0    0 -0.73302072227E+01  0.19911089589E+02 -0.18144153674E+02  0.97082375833E+02  0.92981686144E+02 0.  0.
         11    1    3    3    0    0  0.10017567264E+02  0.19490316604E+02  0.34934662922E+02  0.41238995732E+02  0.51100000000E-03 0.  1.
         22    1    1    0    0    0  0.73302072227E+01 -0.19911089589E+02  0.18144153674E+02  0.27917624167E+02  0.00000000000E+00 0.  1.
</event>
<event>
 5    1  0.1692171E-003  0.9118800E+02  0.7818608E-02  0.1130116E+00
         25   -1    0    0    0    0  0.00000000000E+00  0.00000000000E+00  0.99999998245E-14  0.12500000000E+03  0.12500000000E+03 0.  0.
        -11    1    3    3    0    0  0.10408189369E+02  0.22164050783E+01 -0.52244606542E+02  0.53317368374E+02  0.51100000000E-03 0. -1.
         23    2    1    0    0    0  0.39751262748E+01 -0.22364744017E+02 -0.17686508664E+02  0.96211182855E+02  0.91803026714E+02 0.  0.
         11    1    3    3    0    0 -0.64330630940E+01 -0.24581149095E+02  0.34558097877E+02  0.42893814481E+02  0.51100000000E-03 0.  1.
         22    1    1    0    0    0 -0.39751262748E+01  0.22364744017E+02  0.17686508664E+02  0.28788817145E+02  0.00000000000E+00 0. -1.
</event>
<event>
 5    1  0.1692171E-003  0.9118800E+02  0.7818608E-02  0.1130116E+00
         25   -1    0    0    0    0  0.00000000000E+00  0.00000000000E+00  0.99999998245E-14  0.12500000000E+03  0.12500000000E+03 0.  0.
        -11    1    3    3    0    0 -0.89018689961E+01  0.35366381451E+02 -0.28368849125E+02  0.46204067023E+02  0.51100000000E-03 0. -1.
         23    2    1    0    0    0  0.13057490584E+02  0.25116746185E+02  0.12765965125E+02  0.93946516059E+02  0.88665827774E+02 0.  0.
         11    1    3    3    0    0  0.21959359581E+02 -0.10249635266E+02  0.41134814250E+02  0.47742449036E+02  0.51100000000E-03 0.  1.
         22    1    1    0    0    0 -0.13057490584E+02 -0.25116746185E+02 -0.12765965125E+02  0.31053483941E+02  0.00000000000E+00 0.  1.
</event>
<event>
 5    1  0.1692171E-003  0.9118800E+02  0.7818608E-02  0.1130116E+00
         25   -1    0    0    0    0  0.00000000000E+00  0.00000000000E+00  0.99999998245E-14  0.12500000000E+03  0.12500000000E+03 0.  0.
        -11    1    3    3    0    0  0.36462190027E+02  0.22283110051E+02  0.26768981402E+02  0.50424266586E+02  0.51100000000E-03 0.  1.
         23    2    1    0    0    0 -0.75624769671E+01  0.19541649182E+02  0.21716508447E+02  0.94822626858E+02  0.89892473069E+02 0.  0.
         11    1    3    3    0    0 -0.44024666994E+02 -0.27414608695E+01 -0.50524729556E+01  0.44398360272E+02  0.51100000000E-03 0. -1.
         22    1    1    0    0    0  0.75624769671E+01 -0.19541649182E+02 -0.21716508447E+02  0.30177373142E+02  0.00000000000E+00 0.  1.
</event>
<event>
 5    1  0.1692171E-003  0.9118800E+02  0.7818608E-02  0.1130116E+00
         25   -1    0    0    0    0  0.00000000000E+00  0.00000000000E+00  0.99999998245E-14  0.12500000000E+03  0.12500000000E+03 0.  0.
        -11    1    3    3    0    0 -0.40935611733E+02  0.22102295198E+02  0.41001935318E+02  0.62011244634E+02  0.51100000000E-03 0.  1.
         23    2    1    0    0    0 -0.21983744759E+02  0.11953505831E+02  0.14711267036E+02  0.95972552418E+02  0.91477527867E+02 0.  0.
         11    1    3    3    0    0  0.18951866974E+02 -0.10148789367E+02 -0.26290668282E+02  0.33961307784E+02  0.51100000000E-03 0. -1.
         22    1    1    0    0    0  0.21983744759E+02 -0.11953505831E+02 -0.14711267036E+02  0.29027447582E+02  0.00000000000E+00 0.  1.
</event>
<event>
 5    1  0.1692171E-003  0.9118800E+02  0.7818608E-02  0.1130116E+00
         25   -1    0    0    0    0  0.00000000000E+00  0.00000000000E+00  0.99999998245E-14  0.12500000000E+03  0.12500000000E+03 0.  0.
        -11    1    3    3    0    0 -0.22695727825E+02 -0.17918898365E+02 -0.13718990404E+02  0.32006150629E+02  0.51100000000E-03 0.  1.
         23    2    1    0    0    0  0.25662960184E+02  0.11100386991E+02  0.12706222196E+02  0.94287556280E+02  0.89145325564E+02 0.  0.
         11    1    3    3    0    0  0.48358688009E+02  0.29019285357E+02  0.26425212600E+02  0.62281405651E+02  0.51100000000E-03 0. -1.
         22    1    1    0    0    0 -0.25662960184E+02 -0.11100386991E+02 -0.12706222196E+02  0.30712443720E+02  0.00000000000E+00 0. -1.
</event>
<event>
 5    1  0.1692171E-003  0.9118800E+02  0.7818608E-02  0.1130116E+00
         25   -1    0    0    0    0  0.00000000000E+00  0.00000000000E+00  0.99999998245E-14  0.12500000000E+03  0.12500000000E+03 0.  0.
        -11    1    3    3    0    0 -0.27811146240E+02 -0.23626269190E+02  0.18644781186E+02  0.40979120497E+02  0.51100000000E-03 0.  1.
         23    2    1    0    0    0 -0.20898986133E+02  0.15102470002E+02 -0.17040284222E+02  0.94093309658E+02  0.88872534646E+02 0.  0.
         11    1    3    3    0    0  0.69121601062E+01  0.38728739192E+02 -0.35685065408E+02  0.53114189160E+02  0.51100000000E-03 0. -1.
         22    1    1    0    0    0  0.20898986133E+02 -0.15102470002E+02  0.17040284222E+02  0.30906690342E+02  0.00000000000E+00 0. -1.
</event>
<event>
 5    1  0.1692171E-003  0.9118800E+02  0.7818608E-02  0.1130116E+00
         25   -1    0    0    0    0  0.00000000000E+00  0.00000000000E+00  0.99999998245E-14  0.12500000000E+03  0.12500000000E+03 0.  0.
        -11    1    3    3    0    0 -0.31313455760E+02  0.34147834579E+02 -0.20299282377E+02  0.50583277705E+02  0.51100000000E-03 0.  1.
         23    2    1    0    0    0  0.11741825322E+02  0.23370308203E+02 -0.13762777639E+02  0.95445714088E+02  0.90754771346E+02 0.  0.
         11    1    3    3    0    0  0.43055281082E+02 -0.10777526376E+02  0.65365047377E+01  0.44862436384E+02  0.51100000000E-03 0. -1.
         22    1    1    0    0    0 -0.11741825322E+02 -0.23370308203E+02  0.13762777639E+02  0.29554285912E+02  0.00000000000E+00 0.  1.
</event>
<event>
 5    1  0.1692171E-003  0.9118800E+02  0.7818608E-02  0.1130116E+00
         25   -1    0    0    0    0  0.00000000000E+00  0.00000000000E+00  0.99999998245E-14  0.12500000000E+03  0.12500000000E+03 0.  0.
        -11    1    3    3    0    0  0.41014890962E+02 -0.23272548469E+02  0.17087919622E+01  0.47188481254E+02  0.51100000000E-03 0.  1.
         23    2    1    0    0    0 -0.45106836252E+01 -0.25147580982E+02 -0.14588326979E+02  0.95579490486E+02  0.90938840005E+02 0.  0.
         11    1    3    3    0    0 -0.45525574587E+02 -0.18750325138E+01 -0.16297118941E+02  0.48391009232E+02  0.51100000000E-03 0. -1.
         22    1    1    0    0    0  0.45106836252E+01  0.25147580982E+02  0.14588326979E+02  0.29420509514E+02  0.00000000000E+00 0.  1.
</event>
<event>
 5    1  0.1692171E-003  0.9118800E+02  0.7818608E-02  0.1130116E+00
         25   -1    0    0    0    0  0.00000000000E+00  0.00000000000E+00  0.99999998245E-14  0.12500000000E+03  0.12500000000E+03 0.  0.
        -11    1    3    3    0    0 -0.28181445894E+01  0.57527049116E+02 -0.14906349749E+02  0.59493718845E+02  0.51100000000E-03 0. -1.
         23    2    1    0    0    0  0.98664267551E+01  0.26973475656E+02  0.11275595620E+01  0.96256545851E+02  0.91864772697E+02 0.  0.
         11    1    3    3    0    0  0.12684571344E+02 -0.30553573460E+02  0.16033909311E+02  0.36762827005E+02  0.51100000000E-03 0.  1.
         22    1    1    0    0    0 -0.98664267551E+01 -0.26973475656E+02 -0.11275595620E+01  0.28743454149E+02  0.00000000000E+00 0. -1.
</event>
<event>
 5    1  0.1692171E-003  0.9118800E+02  0.7818608E-02  0.1130116E+00
         25   -1    0    0    0    0  0.00000000000E+00  0.00000000000E+00  0.99999998245E-14  0.12500000000E+03  0.12500000000E+03 0.  0.
        -11    1    3    3    0    0  0.20174396919E+02  0.17505244470E+02 -0.23605096056E+02  0.35646043751E+02  0.51100000000E-03 0.  1.
         23    2    1    0    0    0 -0.23455984783E+02 -0.11919015131E+02  0.85713441704E+01  0.97328460746E+02  0.93311924139E+02 0.  0.
         11    1    3    3    0    0 -0.43630381702E+02 -0.29424259601E+02  0.32176440227E+02  0.61682416995E+02  0.51100000000E-03 0. -1.
         22    1    1    0    0    0  0.23455984783E+02  0.11919015131E+02 -0.85713441704E+01  0.27671539254E+02  0.00000000000E+00 0. -1.
</event>
<event>
 5    1  0.1692171E-003  0.9118800E+02  0.7818608E-02  0.1130116E+00
         25   -1    0    0    0    0  0.00000000000E+00  0.00000000000E+00  0.99999998245E-14  0.12500000000E+03  0.12500000000E+03 0.  0.
        -11    1    3    3    0    0 -0.18606980847E+02  0.37025483199E+01 -0.29753040597E+02  0.35286995131E+02  0.51100000000E-03 0.  1.
         23    2    1    0    0    0  0.18216478969E+02 -0.15233697423E+02  0.15513290836E+02  0.96635094998E+02  0.92378426862E+02 0.  0.
         11    1    3    3    0    0  0.36823459816E+02 -0.18936245743E+02  0.45266331433E+02  0.61348099867E+02  0.51100000000E-03 0. -1.
         22    1    1    0    0    0 -0.18216478969E+02  0.15233697423E+02 -0.15513290836E+02  0.28364905002E+02  0.00000000000E+00 0. -1.
</event>
<event>
 5    1  0.1692171E-003  0.9118800E+02  0.7818608E-02  0.1130116E+00
         25   -1    0    0    0    0  0.00000000000E+00  0.00000000000E+00  0.99999998245E-14  0.12500000000E+03  0.12500000000E+03 0.  0.
        -11    1    3    3    0    0  0.30647203824E+02  0.19331095207E+02 -0.19127504621E+02  0.40973208043E+02  0.51100000000E-03 0. -1.
         23    2    1    0    0    0 -0.22042126000E+02  0.16065775218E+02  0.15772663865E+01  0.97678722190E+02  0.93779958133E+02 0.  0.
         11    1    3    3    0    0 -0.52689329823E+02 -0.32653199887E+01  0.20704771007E+02  0.56705514146E+02  0.51100000000E-03 0.  1.
         22    1    1    0    0    0  0.22042126000E+02 -0.16065775218E+02 -0.15772663865E+01  0.27321277810E+02  0.00000000000E+00 0.  1.
</event>
<event>
 5    1  0.1692171E-003  0.9118800E+02  0.7818608E-02  0.1130116E+00
         25   -1    0    0    0    0  0.00000000000E+00  0.00000000000E+00  0.99999998245E-14  0.12500000000E+03  0.12500000000E+03 0.  0.
        -11    1    3    3    0    0  0.25449137912E+02 -0.46277367835E+02  0.85843970253E+01  0.53506497426E+02  0.51100000000E-03 0.  1.
         23    2    1    0    0    0  0.29756611505E+01 -0.21944508859E+02 -0.18382678619E+02  0.96219122641E+02  0.91813836976E+02 0.  0.
         11    1    3    3    0    0 -0.22473476761E+02  0.24332858977E+02 -0.26967075644E+02  0.42712625215E+02  0.51100000000E-03 0. -1.
         22    1    1    0    0    0 -0.29756611505E+01  0.21944508859E+02  0.18382678619E+02  0.28780877359E+02  0.00000000000E+00 0.  1.
</event>
<event>
 5    1  0.1692171E-003  0.9118800E+02  0.7818608E-02  0.1130116E+00
         25   -1    0    0    0    0  0.00000000000E+00  0.00000000000E+00  0.99999998245E-14  0.12500000000E+03  0.12500000000E+03 0.  0.
        -11    1    3    3    0    0 -0.30135355404E+02 -0.20010102848E+02 -0.47039701845E+02  0.59340352301E+02  0.51100000000E-03 0. -1.
         23    2    1    0    0    0 -0.18919206682E+01 -0.83424296368E+01 -0.28862635591E+02  0.94896391756E+02  0.89994988410E+02 0.  0.
         11    1    3    3    0    0  0.28243434736E+02  0.11667673211E+02  0.18177066254E+02  0.35556039455E+02  0.51100000000E-03 0.  1.
         22    1    1    0    0    0  0.18919206682E+01  0.83424296368E+01  0.28862635591E+02  0.30103608244E+02  0.00000000000E+00 0. -1.
</event>
<event>
 5    1  0.1692171E-003  0.9118800E+02  0.7818608E-02  0.1130116E+00
         25   -1    0    0    0    0  0.00000000000E+00  0.00000000000E+00  0.99999998245E-14  0.12500000000E+03  0.12500000000E+03 0.  0.
        -11    1    3    3    0    0  0.27445235900E+02 -0.24597831133E+02 -0.48702552478E+02  0.61075632524E+02  0.51100000000E-03 0.  1.
         23    2    1    0    0    0  0.12969969230E+02 -0.23070349361E+02 -0.27135828764E+02  0.87094666283E+02  0.78413433612E+02 0.  0.
         11    1    3    3    0    0 -0.14475266671E+02  0.15274817729E+01  0.21566723714E+02  0.26019033759E+02  0.51100000000E-03 0. -1.
         22    1    1    0    0    0 -0.12969969230E+02  0.23070349361E+02  0.27135828764E+02  0.37905333717E+02  0.00000000000E+00 0.  1.
</event>
<event>
 5    1  0.1692171E-003  0.9118800E+02  0.7818608E-02  0.1130116E+00
         25   -1    0    0    0    0  0.00000000000E+00  0.00000000000E+00  0.99999998245E-14  0.12500000000E+03  0.12500000000E+03 0.  0.
        -11    1    3    3    0    0 -0.43525000893E+02  0.84511998792E+01  0.34108814789E+02  0.55939786635E+02  0.51100000000E-03 0. -1.
         23    2    1    0    0    0 -0.14122472821E+02 -0.14938109721E+02  0.20686603518E+02  0.95836205224E+02  0.91291025331E+02 0.  0.
         11    1    3    3    0    0  0.29402528073E+02 -0.23389309600E+02 -0.13422211270E+02  0.39896418589E+02  0.51100000000E-03 0.  1.
         22    1    1    0    0    0  0.14122472821E+02  0.14938109721E+02 -0.20686603518E+02  0.29163794776E+02  0.00000000000E+00 0. -1.
</event>
<event>
 5    1  0.1692171E-003  0.9118800E+02  0.7818608E-02  0.1130116E+00
         25   -1    0    0    0    0  0.00000000000E+00  0.00000000000E+00  0.99999998245E-14  0.12500000000E+03  0.12500000000E+03 0.  0.
        -11    1    3    3    0    0 -0.30881331378E+02  0.76372511777E+01 -0.18523604390E+02  0.36811793668E+02  0.51100000000E-03 0. -1.
         23    2    1    0    0    0  0.25314974231E+02 -0.86446952873E+00 -0.18476450238E+02  0.93647576788E+02  0.88243380471E+02 0.  0.
         11    1    3    3    0    0  0.56196305609E+02 -0.85017207064E+01  0.47154151610E-01  0.56835783120E+02  0.51100000000E-03 0.  1.
         22    1    1    0    0    0 -0.25314974231E+02  0.86446952873E+00  0.18476450238E+02  0.31352423212E+02  0.00000000000E+00 0.  1.
</event>
<event>
 5    1  0.1692171E-003  0.9118800E+02  0.7818608E-02  0.1130116E+00
         25   -1    0    0    0    0  0.00000000000E+00  0.00000000000E+00  0.99999998245E-14  0.12500000000E+03  0.12500000000E+03 0.  0.
        -11    1    3    3    0    0 -0.32514372426E+02  0.77238100235E+01 -0.35506724350E+02  0.48760323316E+02  0.51100000000E-03 0.  1.
         23    2    1    0    0    0  0.33237197578E+01 -0.20149791688E+02 -0.19107564645E+02  0.97032872068E+02  0.92915111888E+02 0.  0.
         11    1    3    3    0    0  0.35838092184E+02 -0.27873601711E+02  0.16399159705E+02  0.48272548752E+02  0.51100000000E-03 0. -1.
         22    1    1    0    0    0 -0.33237197578E+01  0.20149791688E+02  0.19107564645E+02  0.27967127932E+02  0.00000000000E+00 0. -1.
</event>
<event>
 5    1  0.1692171E-003  0.9118800E+02  0.7818608E-02  0.1130116E+00
         25   -1    0    0    0    0  0.00000000000E+00  0.00000000000E+00  0.99999998245E-14  0.12500000000E+03  0.12500000000E+03 0.  0.
        -11    1    3    3    0    0  0.34743760576E+02  0.12261595754E+00  0.16600401930E+02  0.38506068069E+02  0.51100000000E-03 0.  1.
         23    2    1    0    0    0 -0.10856059380E+02 -0.28730936472E+02  0.31039810489E+01  0.94130023741E+02  0.88924158334E+02 0.  0.
         11    1    3    3    0    0 -0.45599819956E+02 -0.28853552430E+02 -0.13496420881E+02  0.55623955673E+02  0.51100000000E-03 0. -1.
         22    1    1    0    0    0  0.10856059380E+02  0.28730936472E+02 -0.31039810489E+01  0.30869976259E+02  0.00000000000E+00 0. -1.
</event>
<event>
 5    1  0.1692171E-003  0.9118800E+02  0.7818608E-02  0.1130116E+00
         25   -1    0    0    0    0  0.00000000000E+00  0.00000000000E+00  0.99999998245E-14  0.12500000000E+03  0.12500000000E+03 0.  0.
        -11    1    3    3    0    0  0.40062765357E+02 -0.11109610393E+02 -0.11037333917E+02  0.43014780616E+02  0.51100000000E-03 0.  1.
         23    2    1    0    0    0  0.66392052874E+01  0.27637664021E+02 -0.11881049567E+02  0.94192876503E+02  0.89012466125E+02 0.  0.
         11    1    3    3    0    0 -0.33423560070E+02  0.38747274414E+02 -0.84371564998E+00  0.51178095887E+02  0.51100000000E-03 0. -1.
         22    1    1    0    0    0 -0.66392052874E+01 -0.27637664021E+02  0.11881049567E+02  0.30807123497E+02  0.00000000000E+00 0. -1.
</event>
<event>
 5    1  0.1692171E-003  0.9118800E+02  0.7818608E-02  0.1130116E+00
         25   -1    0    0    0    0  0.00000000000E+00  0.00000000000E+00  0.99999998245E-14  0.12500000000E+03  0.12500000000E+03 0.  0.
        -11    1    3    3    0    0  0.23650941825E+02 -0.28922118621E+01  0.35844513943E+02  0.43041388439E+02  0.51100000000E-03 0.  1.
         23    2    1    0    0    0  0.30763908758E+02  0.27516246732E+02  0.13025548411E+02  0.81719209484E+02  0.69316681766E+02 0.  0.
         11    1    3    3    0    0  0.71129669323E+01  0.30408458594E+02 -0.22818965531E+02  0.38677821046E+02  0.51100000000E-03 0. -1.
         22    1    1    0    0    0 -0.30763908758E+02 -0.27516246732E+02 -0.13025548411E+02  0.43280790516E+02  0.00000000000E+00 0.  1.
</event>
<event>
 5    1  0.1692171E-003  0.9118800E+02  0.7818608E-02  0.1130116E+00
         25   -1    0    0    0    0  0.00000000000E+00  0.00000000000E+00  0.99999998245E-14  0.12500000000E+03  0.12500000000E+03 0.  0.
        -11    1    3    3    0    0 -0.14965494737E+02 -0.32184539717E+02 -0.50741472304E+02  0.61923401403E+02  0.51100000000E-03 0. -1.
         23    2    1    0    0    0 -0.16950380171E+01 -0.17627974401E+02 -0.22208398473E+02  0.96595218745E+02  0.92324453350E+02 0.  0.
         11    1    3    3    0    0  0.13270456720E+02  0.14556565316E+02  0.28533073830E+02  0.34671817342E+02  0.51100000000E-03 0.  1.
         22    1    1    0    0    0  0.16950380171E+01  0.17627974401E+02  0.22208398473E+02  0.28404781255E+02  0.00000000000E+00 0. -1.
</event>
<event>
 5    1  0.1692171E-003  0.9118800E+02  0.7818608E-02  0.1130116E+00
         25   -1    0    0    0    0  0.00000000000E+00  0.00000000000E+00  0.99999998245E-14  0.12500000000E+03  0.12500000000E+03 0.  0.
        -11    1    3    3    0    0  0.58346353527E+02 -0.74964185101E+01  0.99569642897E+01  0.59662671735E+02  0.51100000000E-03 0. -1.
         23    2    1    0    0    0  0.22203210160E+02 -0.12709483427E+02  0.12993792464E+02  0.96305886440E+02  0.91931885709E+02 0.  0.
         11    1    3    3    0    0 -0.36143143367E+02 -0.52130649170E+01  0.30368281744E+01  0.36643214705E+02  0.51100000000E-03 0.  1.
         22    1    1    0    0    0 -0.22203210160E+02  0.12709483427E+02 -0.12993792464E+02  0.28694113560E+02  0.00000000000E+00 0. -1.
</event>
<event>
 5    1  0.1692171E-003  0.9118800E+02  0.7818608E-02  0.1130116E+00
         25   -1    0    0    0    0  0.00000000000E+00  0.00000000000E+00  0.99999998245E-14  0.12500000000E+03  0.12500000000E+03 0.  0.
        -11    1    3    3    0    0 -0.33927792767E+02  0.30933215012E+02  0.38466232324E+02  0.59896660529E+02  0.51100000000E-03 0.  1.
         23    2    1    0    0    0 -0.25637107343E+02  0.93615768124E+01  0.11574285440E+02  0.95354351470E+02  0.90628846774E+02 0.  0.
         11    1    3    3    0    0  0.82906854242E+01 -0.21571638199E+02 -0.26891946884E+02  0.35457690941E+02  0.51100000000E-03 0. -1.
         22    1    1    0    0    0  0.25637107343E+02 -0.93615768124E+01 -0.11574285440E+02  0.29645648530E+02  0.00000000000E+00 0.  1.
</event>
<event>
 5    1  0.1692171E-003  0.9118800E+02  0.7818608E-02  0.1130116E+00
         25   -1    0    0    0    0  0.00000000000E+00  0.00000000000E+00  0.99999998245E-14  0.12500000000E+03  0.12500000000E+03 0.  0.
        -11    1    3    3    0    0  0.24755008398E+02  0.36110467312E+02 -0.38827494919E+02  0.58517951538E+02  0.51100000000E-03 0. -1.
         23    2    1    0    0    0  0.24337567871E+02  0.95587642119E+01 -0.12120618740E+02  0.96179927450E+02  0.91760459145E+02 0.  0.
         11    1    3    3    0    0 -0.41744052716E+00 -0.26551703100E+02  0.26706876179E+02  0.37661975912E+02  0.51100000000E-03 0.  1.
         22    1    1    0    0    0 -0.24337567871E+02 -0.95587642119E+01  0.12120618740E+02  0.28820072550E+02  0.00000000000E+00 0. -1.
</event>
<event>
 5    1  0.1692171E-003  0.9118800E+02  0.7818608E-02  0.1130116E+00
         25   -1    0    0    0    0  0.00000000000E+00  0.00000000000E+00  0.99999998245E-14  0.12500000000E+03  0.12500000000E+03 0.  0.
        -11    1    3    3    0    0  0.14468964345E+02 -0.24272301041E+02 -0.15224852187E+02  0.32098156511E+02  0.51100000000E-03 0. -1.
         23    2    1    0    0    0  0.93014901417E+00  0.25081910696E+02 -0.30494098609E+02  0.85504969030E+02  0.75836945201E+02 0.  0.
         11    1    3    3    0    0 -0.13538815330E+02  0.49354211738E+02 -0.15269246422E+02  0.53406812518E+02  0.51100000000E-03 0.  1.
         22    1    1    0    0    0 -0.93014901417E+00 -0.25081910696E+02  0.30494098609E+02  0.39495030970E+02  0.00000000000E+00 0.  1.
</event>
<event>
 5    1  0.1692171E-003  0.9118800E+02  0.7818608E-02  0.1130116E+00
         25   -1    0    0    0    0  0.00000000000E+00  0.00000000000E+00  0.99999998245E-14  0.12500000000E+03  0.12500000000E+03 0.  0.
        -11    1    3    3    0    0 -0.48948103888E+02 -0.15043432306E+02  0.32510099556E+02  0.60655818379E+02  0.51100000000E-03 0.  1.
         23    2    1    0    0    0 -0.31039047886E+02 -0.27284050137E+01  0.92341715360E+01  0.92501744484E+02  0.86605058288E+02 0.  0.
         11    1    3    3    0    0  0.17909056002E+02  0.12315027293E+02 -0.23275928020E+02  0.31845926106E+02  0.51100000000E-03 0. -1.
         22    1    1    0    0    0  0.31039047886E+02  0.27284050137E+01 -0.92341715360E+01  0.32498255516E+02  0.00000000000E+00 0.  1.
</event>
<event>
 5    1  0.1692171E-003  0.9118800E+02  0.7818608E-02  0.1130116E+00
         25   -1    0    0    0    0  0.00000000000E+00  0.00000000000E+00  0.99999998245E-14  0.12500000000E+03  0.12500000000E+03 0.  0.
        -11    1    3    3    0    0 -0.44039168902E+02  0.13104330502E+02  0.72454725149E+01  0.46515252850E+02  0.51100000000E-03 0. -1.
         23    2    1    0    0    0 -0.18964157191E+00  0.30850183679E+01  0.28548558484E+02  0.96284612247E+02  0.91902954587E+02 0.  0.
         11    1    3    3    0    0  0.43849527330E+02 -0.10019312134E+02  0.21303085969E+02  0.49769359397E+02  0.51100000000E-03 0.  1.
         22    1    1    0    0    0  0.18964157191E+00 -0.30850183679E+01 -0.28548558484E+02  0.28715387753E+02  0.00000000000E+00 0. -1.
</event>
<event>
 5    1  0.1692171E-003  0.9118800E+02  0.7818608E-02  0.1130116E+00
         25   -1    0    0    0    0  0.00000000000E+00  0.00000000000E+00  0.99999998245E-14  0.12500000000E+03  0.12500000000E+03 0.  0.
        -11    1    3    3    0    0  0.20794340874E+02  0.34270710591E+02  0.13419261772E+01  0.40108440295E+02  0.51100000000E-03 0. -1.
         23    2    1    0    0    0  0.14158249830E+02 -0.19778616865E+02 -0.14323513406E+02  0.96772127965E+02  0.92563664531E+02 0.  0.
         11    1    3    3    0    0 -0.66360910437E+01 -0.54049327456E+02 -0.15665439583E+02  0.56663687670E+02  0.51100000000E-03 0.  1.
         22    1    1    0    0    0 -0.14158249830E+02  0.19778616865E+02  0.14323513406E+02  0.28227872035E+02  0.00000000000E+00 0.  1.
</event>
<event>
 5    1  0.1692171E-003  0.9118800E+02  0.7818608E-02  0.1130116E+00
         25   -1    0    0    0    0  0.00000000000E+00  0.00000000000E+00  0.99999998245E-14  0.12500000000E+03  0.12500000000E+03 0.  0.
        -11    1    3    3    0    0  0.48337147347E+01  0.30981956297E+02  0.10024217055E+02  0.32920075060E+02  0.51100000000E-03 0.  1.
         23    2    1    0    0    0 -0.36709990191E+01 -0.13801522619E+02 -0.28836766740E+02  0.92820544187E+02  0.87063976746E+02 0.  0.
         11    1    3    3    0    0 -0.85047137537E+01 -0.44783478916E+02 -0.38860983795E+02  0.59900469127E+02  0.51100000000E-03 0. -1.
         22    1    1    0    0    0  0.36709990191E+01  0.13801522619E+02  0.28836766740E+02  0.32179455813E+02  0.00000000000E+00 0. -1.
</event>
<event>
 5    1  0.1692171E-003  0.9118800E+02  0.7818608E-02  0.1130116E+00
         25   -1    0    0    0    0  0.00000000000E+00  0.00000000000E+00  0.99999998245E-14  0.12500000000E+03  0.12500000000E+03 0.  0.
        -11    1    3    3    0    0  0.12570953317E+01 -0.27659466392E+02  0.15132650708E+02  0.31553501984E+02  0.51100000000E-03 0.  1.
         23    2    1    0    0    0  0.30948010781E+01  0.27164269157E+02 -0.14661210875E+02  0.93977001807E+02  0.88708795798E+02 0.  0.
         11    1    3    3    0    0  0.18377057464E+01  0.54823735549E+02 -0.29793861583E+02  0.62423499823E+02  0.51100000000E-03 0. -1.
         22    1    1    0    0    0 -0.30948010781E+01 -0.27164269157E+02  0.14661210875E+02  0.31022998193E+02  0.00000000000E+00 0. -1.
</event>
<event>
 5    1  0.1692171E-003  0.9118800E+02  0.7818608E-02  0.1130116E+00
         25   -1    0    0    0    0  0.00000000000E+00  0.00000000000E+00  0.99999998245E-14  0.12500000000E+03  0.12500000000E+03 0.  0.
        -11    1    3    3    0    0  0.35640558273E+02 -0.19967188604E+02  0.30962326817E+02  0.51260157013E+02  0.51100000000E-03 0. -1.
         23    2    1    0    0    0  0.50211265096E+01 -0.30507219169E+02  0.31950296736E+01  0.93917684329E+02  0.88625171832E+02 0.  0.
         11    1    3    3    0    0 -0.30619431763E+02 -0.10540030565E+02 -0.27767297144E+02  0.42657527316E+02  0.51100000000E-03 0.  1.
         22    1    1    0    0    0 -0.50211265096E+01  0.30507219169E+02 -0.31950296736E+01  0.31082315671E+02  0.00000000000E+00 0.  1.
</event>
<event>
 5    1  0.1692171E-003  0.9118800E+02  0.7818608E-02  0.1130116E+00
         25   -1    0    0    0    0  0.00000000000E+00  0.00000000000E+00  0.99999998245E-14  0.12500000000E+03  0.12500000000E+03 0.  0.
        -11    1    3    3    0    0 -0.50536670289E+02 -0.57440836695E+01 -0.28974309423E+02  0.58535973109E+02  0.51100000000E-03 0. -1.
         23    2    1    0    0    0 -0.26541044920E+02  0.11272172542E+02 -0.68014187349E+01  0.95373183835E+02  0.90654817625E+02 0.  0.
         11    1    3    3    0    0  0.23995625368E+02  0.17016256212E+02  0.22172890688E+02  0.36837210725E+02  0.51100000000E-03 0.  1.
         22    1    1    0    0    0  0.26541044920E+02 -0.11272172542E+02  0.68014187349E+01  0.29626816165E+02  0.00000000000E+00 0. -1.
</event>
<event>
 5    1  0.1692171E-003  0.9118800E+02  0.7818608E-02  0.1130116E+00
         25   -1    0    0    0    0  0.00000000000E+00  0.00000000000E+00  0.99999998245E-14  0.12500000000E+03  0.12500000000E+03 0.  0.
        -11    1    3    3    0    0  0.34730325276E+02 -0.17619164626E+02  0.11901242065E+02  0.40721861682E+02  0.51100000000E-03 0.  1.
         23    2    1    0    0    0 -0.18883013564E+02 -0.11484668823E+02  0.19881914365E+02  0.95271960407E+02  0.90515137417E+02 0.  0.
         11    1    3    3    0    0 -0.53613338840E+02  0.61344958031E+01  0.79806723005E+01  0.54550098725E+02  0.51100000000E-03 0. -1.
         22    1    1    0    0    0  0.18883013564E+02  0.11484668823E+02 -0.19881914365E+02  0.29728039593E+02  0.00000000000E+00 0. -1.
</event>
<event>
 5    1  0.1692171E-003  0.9118800E+02  0.7818608E-02  0.1130116E+00
         25   -1    0    0    0    0  0.00000000000E+00  0.00000000000E+00  0.99999998245E-14  0.12500000000E+03  0.12500000000E+03 0.  0.
        -11    1    3    3    0    0 -0.19876855323E+02  0.24742096126E+02  0.18925133909E+02  0.36951608787E+02  0.51100000000E-03 0. -1.
         23    2    1    0    0    0  0.96163668452E+01  0.27128784436E+01 -0.27233220325E+02  0.95991682054E+02  0.91503663935E+02 0.  0.
         11    1    3    3    0    0  0.29493222168E+02 -0.22029217682E+02 -0.46158354234E+02  0.59040073267E+02  0.51100000000E-03 0.  1.
         22    1    1    0    0    0 -0.96163668452E+01 -0.27128784436E+01  0.27233220325E+02  0.29008317946E+02  0.00000000000E+00 0.  1.
</event>
<event>
 5    1  0.1692171E-003  0.9118800E+02  0.7818608E-02  0.1130116E+00
         25   -1    0    0    0    0  0.00000000000E+00  0.00000000000E+00  0.99999998245E-14  0.12500000000E+03  0.12500000000E+03 0.  0.
        -11    1    3    3    0    0 -0.21483987807E+02  0.24945826615E+02 -0.17924751726E+02  0.37485366775E+02  0.51100000000E-03 0. -1.
         23    2    1    0    0    0 -0.17341625907E+02 -0.25397366974E+02 -0.20460573382E+02  0.88062305142E+02  0.79941080087E+02 0.  0.
         11    1    3    3    0    0  0.41423619000E+01 -0.50343193589E+02 -0.25358216567E+01  0.50576938367E+02  0.51100000000E-03 0.  1.
         22    1    1    0    0    0  0.17341625907E+02  0.25397366974E+02  0.20460573382E+02  0.36937694858E+02  0.00000000000E+00 0.  1.
</event>
<event>
 5    1  0.1692171E-003  0.9118800E+02  0.7818608E-02  0.1130116E+00
         25   -1    0    0    0    0  0.00000000000E+00  0.00000000000E+00  0.99999998245E-14  0.12500000000E+03  0.12500000000E+03 0.  0.
        -11    1    3    3    0    0  0.10856414695E+02  0.14104006799E+02 -0.52947121009E+02  0.55858592635E+02  0.51100000000E-03 0. -1.
         23    2    1    0    0    0  0.14813121799E+00 -0.12684694642E+02 -0.28980817615E+02  0.93364399632E+02  0.87841333710E+02 0.  0.
         11    1    3    3    0    0 -0.10708283477E+02 -0.26788701440E+02  0.23966303393E+02  0.37505806997E+02  0.51100000000E-03 0.  1.
         22    1    1    0    0    0 -0.14813121799E+00  0.12684694642E+02  0.28980817615E+02  0.31635600368E+02  0.00000000000E+00 0. -1.
</event>
<event>
 5    1  0.1692171E-003  0.9118800E+02  0.7818608E-02  0.1130116E+00
         25   -1    0    0    0    0  0.00000000000E+00  0.00000000000E+00  0.99999998245E-14  0.12500000000E+03  0.12500000000E+03 0.  0.
        -11    1    3    3    0    0  0.14143585333E+02 -0.11144771204E+02  0.58443985087E+02  0.61155100558E+02  0.51100000000E-03 0. -1.
         23    2    1    0    0    0 -0.28994968457E+01 -0.52272412261E+01  0.26428725596E+02  0.97903714841E+02  0.94079374521E+02 0.  0.
         11    1    3    3    0    0 -0.17043082178E+02  0.59175299778E+01 -0.32015259491E+02  0.36748614283E+02  0.51100000000E-03 0.  1.
         22    1    1    0    0    0  0.28994968457E+01  0.52272412261E+01 -0.26428725596E+02  0.27096285159E+02  0.00000000000E+00 0. -1.
</event>
<event>
 5    1  0.1692171E-003  0.9118800E+02  0.7818608E-02  0.1130116E+00
         25   -1    0    0    0    0  0.00000000000E+00  0.00000000000E+00  0.99999998245E-14  0.12500000000E+03  0.12500000000E+03 0.  0.
        -11    1    3    3    0    0  0.14007107041E+02  0.35065459318E+02 -0.25652189275E+02  0.45648880596E+02  0.51100000000E-03 0.  1.
         23    2    1    0    0    0  0.14755969785E+02  0.18823763325E+02  0.19817879869E+02  0.93938430940E+02  0.88654428738E+02 0.  0.
         11    1    3    3    0    0  0.74886274399E+00 -0.16241695994E+02  0.45470069144E+02  0.48289550343E+02  0.51100000000E-03 0. -1.
         22    1    1    0    0    0 -0.14755969785E+02 -0.18823763325E+02 -0.19817879869E+02  0.31061569060E+02  0.00000000000E+00 0. -1.
</event>
<event>
 5    1  0.1692171E-003  0.9118800E+02  0.7818608E-02  0.1130116E+00
         25   -1    0    0    0    0  0.00000000000E+00  0.00000000000E+00  0.99999998245E-14  0.12500000000E+03  0.12500000000E+03 0.  0.
        -11    1    3    3    0    0 -0.41199977882E+02 -0.19797116228E+02 -0.13321908498E+02  0.47611314146E+02  0.51100000000E-03 0.  1.
         23    2    1    0    0    0 -0.48446043624E-01 -0.29646388943E+02  0.69792818991E+01  0.94543127209E+02  0.89502970913E+02 0.  0.
         11    1    3    3    0    0  0.41151531838E+02 -0.98492727144E+01  0.20301190397E+02  0.46931813063E+02  0.51100000000E-03 0. -1.
         22    1    1    0    0    0  0.48446043624E-01  0.29646388943E+02 -0.69792818991E+01  0.30456872791E+02  0.00000000000E+00 0.  1.
</event>
<event>
 5    1  0.1692171E-003  0.9118800E+02  0.7818608E-02  0.1130116E+00
         25   -1    0    0    0    0  0.00000000000E+00  0.00000000000E+00  0.99999998245E-14  0.12500000000E+03  0.12500000000E+03 0.  0.
        -11    1    3    3    0    0 -0.56429116694E+02 -0.13483490605E+02  0.48089330542E+00  0.58019660361E+02  0.51100000000E-03 0.  1.
         23    2    1    0    0    0 -0.22273174144E+02 -0.16316899586E+02  0.12966684269E+02  0.94496387108E+02  0.89437669788E+02 0.  0.
         11    1    3    3    0    0  0.34155942550E+02 -0.28334089811E+01  0.12485790964E+02  0.36476726747E+02  0.51100000000E-03 0. -1.
         22    1    1    0    0    0  0.22273174144E+02  0.16316899586E+02 -0.12966684269E+02  0.30503612892E+02  0.00000000000E+00 0.  1.
</event>
<event>
 5    1  0.1692171E-003  0.9118800E+02  0.7818608E-02  0.1130116E+00
         25   -1    0    0    0    0  0.00000000000E+00  0.00000000000E+00  0.99999998245E-14  0.12500000000E+03  0.12500000000E+03 0.  0.
        -11    1    3    3    0    0 -0.13150241114E+02  0.44064612734E+02 -0.64452387474E+01  0.46434470381E+02  0.51100000000E-03 0. -1.
         23    2    1    0    0    0 -0.63861805873E+01  0.15033421394E+02  0.28367885328E+02  0.92265859118E+02  0.86263925134E+02 0.  0.
         11    1    3    3    0    0  0.67640605265E+01 -0.29031191340E+02  0.34813124075E+02  0.45831388737E+02  0.51100000000E-03 0.  1.
         22    1    1    0    0    0  0.63861805873E+01 -0.15033421394E+02 -0.28367885328E+02  0.32734140882E+02  0.00000000000E+00 0. -1.
</event>
<event>
 5    1  0.1692171E-003  0.9118800E+02  0.7818608E-02  0.1130116E+00
         25   -1    0    0    0    0  0.00000000000E+00  0.00000000000E+00  0.99999998245E-14  0.12500000000E+03  0.12500000000E+03 0.  0.
        -11    1    3    3    0    0 -0.10038496227E+02  0.32516287575E+02  0.33586462973E+02  0.47813500808E+02  0.51100000000E-03 0. -1.
         23    2    1    0    0    0  0.25631354622E+02  0.14728683437E+02  0.16084037154E+02  0.91345925853E+02  0.84920441964E+02 0.  0.
         11    1    3    3    0    0  0.35669850848E+02 -0.17787604138E+02 -0.17502425820E+02  0.43532425046E+02  0.51100000000E-03 0.  1.
         22    1    1    0    0    0 -0.25631354622E+02 -0.14728683437E+02 -0.16084037154E+02  0.33654074147E+02  0.00000000000E+00 0.  1.
</event>
<event>
 5    1  0.1692171E-003  0.9118800E+02  0.7818608E-02  0.1130116E+00
         25   -1    0    0    0    0  0.00000000000E+00  0.00000000000E+00  0.99999998245E-14  0.12500000000E+03  0.12500000000E+03 0.  0.
        -11    1    3    3    0    0 -0.34025728364E+02 -0.55680886163E+01  0.18478067518E+02  0.39117678625E+02  0.51100000000E-03 0.  1.
         23    2    1    0    0    0  0.16367173300E+00 -0.11065032686E+02 -0.26733306256E+02  0.96066776879E+02  0.91606190946E+02 0.  0.
         11    1    3    3    0    0  0.34189400097E+02 -0.54969440699E+01 -0.45211373774E+02  0.56949098254E+02  0.51100000000E-03 0. -1.
         22    1    1    0    0    0 -0.16367173300E+00  0.11065032686E+02  0.26733306256E+02  0.28933223121E+02  0.00000000000E+00 0. -1.
</event>
<event>
 5    1  0.1692171E-003  0.9118800E+02  0.7818608E-02  0.1130116E+00
         25   -1    0    0    0    0  0.00000000000E+00  0.00000000000E+00  0.99999998245E-14  0.12500000000E+03  0.12500000000E+03 0.  0.
        -11    1    3    3    0    0 -0.36383639657E+02 -0.70692550472E+01  0.50121205888E+02  0.62336818025E+02  0.51100000000E-03 0. -1.
         23    2    1    0    0    0 -0.18923353254E+02 -0.45803183286E+01  0.21160690773E+02  0.96245044803E+02  0.91849121938E+02 0.  0.
         11    1    3    3    0    0  0.17460286403E+02  0.24889367186E+01 -0.28960515115E+02  0.33908226778E+02  0.51100000000E-03 0.  1.
         22    1    1    0    0    0  0.18923353254E+02  0.45803183286E+01 -0.21160690773E+02  0.28754955197E+02  0.00000000000E+00 0. -1.
</event>
<event>
 5    1  0.1692171E-003  0.9118800E+02  0.7818608E-02  0.1130116E+00
         25   -1    0    0    0    0  0.00000000000E+00  0.00000000000E+00  0.99999998245E-14  0.12500000000E+03  0.12500000000E+03 0.  0.
        -11    1    3    3    0    0 -0.41055817322E+02  0.11716550790E+02 -0.29279368330E+02  0.51770059962E+02  0.51100000000E-03 0.  1.
         23    2    1    0    0    0 -0.46613886829E+01  0.26334919049E+02 -0.53142647781E+01  0.97732841808E+02  0.93852066850E+02 0.  0.
         11    1    3    3    0    0  0.36394428639E+02  0.14618368258E+02  0.23965103552E+02  0.45962781846E+02  0.51100000000E-03 0. -1.
         22    1    1    0    0    0  0.46613886829E+01 -0.26334919049E+02  0.53142647781E+01  0.27267158192E+02  0.00000000000E+00 0. -1.
</event>
<event>
 5    1  0.1692171E-003  0.9118800E+02  0.7818608E-02  0.1130116E+00
         25   -1    0    0    0    0  0.00000000000E+00  0.00000000000E+00  0.99999998245E-14  0.12500000000E+03  0.12500000000E+03 0.  0.
        -11    1    3    3    0    0 -0.37337993596E+02 -0.16606881219E+02 -0.45471144669E+02  0.61135417455E+02  0.51100000000E-03 0.  1.
         23    2    1    0    0    0 -0.22667531516E+02 -0.38021897493E-01 -0.21546303346E+02  0.93726023301E+02  0.88354432969E+02 0.  0.
         11    1    3    3    0    0  0.14670462080E+02  0.16568859321E+02  0.23924841323E+02  0.32590605846E+02  0.51100000000E-03 0. -1.
         22    1    1    0    0    0  0.22667531516E+02  0.38021897493E-01  0.21546303346E+02  0.31273976699E+02  0.00000000000E+00 0.  1.
</event>
<event>
 5    1  0.1692171E-003  0.9118800E+02  0.7818608E-02  0.1130116E+00
         25   -1    0    0    0    0  0.00000000000E+00  0.00000000000E+00  0.99999998245E-14  0.12500000000E+03  0.12500000000E+03 0.  0.
        -11    1    3    3    0    0 -0.11503580116E+02  0.14013755490E+02 -0.53129196216E+02  0.56137591588E+02  0.51100000000E-03 0. -1.
         23    2    1    0    0    0 -0.22444083795E+02 -0.22561776550E+01 -0.18957022404E+02  0.95534835255E+02  0.90877438420E+02 0.  0.
         11    1    3    3    0    0 -0.10940503679E+02 -0.16269933145E+02  0.34172173812E+02  0.39397243667E+02  0.51100000000E-03 0.  1.
         22    1    1    0    0    0  0.22444083795E+02  0.22561776550E+01  0.18957022404E+02  0.29465164745E+02  0.00000000000E+00 0. -1.
</event>
<event>
 5    1  0.1692171E-003  0.9118800E+02  0.7818608E-02  0.1130116E+00
         25   -1    0    0    0    0  0.00000000000E+00  0.00000000000E+00  0.99999998245E-14  0.12500000000E+03  0.12500000000E+03 0.  0.
        -11    1    3    3    0    0  0.11775067045E+02  0.54774002000E+02 -0.72598877616E+01  0.56493800276E+02  0.51100000000E-03 0. -1.
         23    2    1    0    0    0  0.10445473771E+02  0.18062856593E+02 -0.20698062731E+02  0.95609788851E+02  0.90980477096E+02 0.  0.
         11    1    3    3    0    0 -0.13295932740E+01 -0.36711145408E+02 -0.13438174969E+02  0.39115988575E+02  0.51100000000E-03 0.  1.
         22    1    1    0    0    0 -0.10445473771E+02 -0.18062856593E+02  0.20698062731E+02  0.29390211149E+02  0.00000000000E+00 0. -1.
</event>
<event>
 5    1  0.1692171E-003  0.9118800E+02  0.7818608E-02  0.1130116E+00
         25   -1    0    0    0    0  0.00000000000E+00  0.00000000000E+00  0.99999998245E-14  0.12500000000E+03  0.12500000000E+03 0.  0.
        -11    1    3    3    0    0 -0.25635049801E+02 -0.11802519533E+02  0.31334681517E+02  0.42170102107E+02  0.51100000000E-03 0.  1.
         23    2    1    0    0    0  0.21095582628E+02 -0.16421197087E+02  0.66216452741E+00  0.98258313777E+02  0.94549343965E+02 0.  0.
         11    1    3    3    0    0  0.46730632430E+02 -0.46186775533E+01 -0.30672516990E+02  0.56088211670E+02  0.51100000000E-03 0. -1.
         22    1    1    0    0    0 -0.21095582628E+02  0.16421197087E+02 -0.66216452741E+00  0.26741686223E+02  0.00000000000E+00 0. -1.
</event>
<event>
 5    1  0.1692171E-003  0.9118800E+02  0.7818608E-02  0.1130116E+00
         25   -1    0    0    0    0  0.00000000000E+00  0.00000000000E+00  0.99999998245E-14  0.12500000000E+03  0.12500000000E+03 0.  0.
        -11    1    3    3    0    0 -0.22609956342E+02  0.56713262797E+02  0.57754318570E+01  0.61326665622E+02  0.51100000000E-03 0.  1.
         23    2    1    0    0    0 -0.53830644006E+01  0.26530429720E+02  0.95722544575E+01  0.96286429360E+02  0.91905426065E+02 0.  0.
         11    1    3    3    0    0  0.17226891942E+02 -0.30182833077E+02  0.37968226005E+01  0.34959763739E+02  0.51100000000E-03 0. -1.
         22    1    1    0    0    0  0.53830644006E+01 -0.26530429720E+02 -0.95722544575E+01  0.28713570640E+02  0.00000000000E+00 0.  1.
</event>
<event>
 5    1  0.1692171E-003  0.9118800E+02  0.7818608E-02  0.1130116E+00
         25   -1    0    0    0    0  0.00000000000E+00  0.00000000000E+00  0.99999998245E-14  0.12500000000E+03  0.12500000000E+03 0.  0.
        -11    1    3    3    0    0 -0.23627939863E+02 -0.18516736890E+02 -0.11834510773E+02  0.32267704175E+02  0.51100000000E-03 0. -1.
         23    2    1    0    0    0  0.16001557640E+02  0.20234226511E+02  0.16359494884E+02  0.94453202422E+02  0.89377293568E+02 0.  0.
         11    1    3    3    0    0  0.39629497503E+02  0.38750963402E+02  0.28194005657E+02  0.62185498247E+02  0.51100000000E-03 0.  1.
         22    1    1    0    0    0 -0.16001557640E+02 -0.20234226511E+02 -0.16359494884E+02  0.30546797578E+02  0.00000000000E+00 0.  1.
</event>
<event>
 5    1  0.1692171E-003  0.9118800E+02  0.7818608E-02  0.1130116E+00
         25   -1    0    0    0    0  0.00000000000E+00  0.00000000000E+00  0.99999998245E-14  0.12500000000E+03  0.12500000000E+03 0.  0.
        -11    1    3    3    0    0  0.23830110581E+02  0.63482506627E+01 -0.35275450669E+01  0.24912206471E+02  0.51100000000E-03 0. -1.
         23    2    1    0    0    0 -0.15869007814E+02 -0.26285984311E+02 -0.29436165663E+02  0.82464529753E+02  0.70647947162E+02 0.  0.
         11    1    3    3    0    0 -0.39699118396E+02 -0.32634234973E+02 -0.25908620596E+02  0.57552323282E+02  0.51100000000E-03 0.  1.
         22    1    1    0    0    0  0.15869007814E+02  0.26285984311E+02  0.29436165663E+02  0.42535470247E+02  0.00000000000E+00 0.  1.
</event>
<event>
 5    1  0.1692171E-003  0.9118800E+02  0.7818608E-02  0.1130116E+00
         25   -1    0    0    0    0  0.00000000000E+00  0.00000000000E+00  0.99999998245E-14  0.12500000000E+03  0.12500000000E+03 0.  0.
        -11    1    3    3    0    0  0.12909474281E+02  0.94020778982E+01 -0.53662610445E+02  0.55988653806E+02  0.51100000000E-03 0.  1.
         23    2    1    0    0    0 -0.23581102782E+01  0.22677534912E+02 -0.32836071902E+02  0.85024521370E+02  0.75040857820E+02 0.  0.
         11    1    3    3    0    0 -0.15267584559E+02  0.13275457014E+02  0.20826538543E+02  0.29035867563E+02  0.51100000000E-03 0. -1.
         22    1    1    0    0    0  0.23581102782E+01 -0.22677534912E+02  0.32836071902E+02  0.39975478630E+02  0.00000000000E+00 0.  1.
</event>
<event>
 5    1  0.1692171E-003  0.9118800E+02  0.7818608E-02  0.1130116E+00
         25   -1    0    0    0    0  0.00000000000E+00  0.00000000000E+00  0.99999998245E-14  0.12500000000E+03  0.12500000000E+03 0.  0.
        -11    1    3    3    0    0  0.46517481070E+01  0.19387649150E+02  0.57208677549E+02  0.60583434098E+02  0.51100000000E-03 0. -1.
         23    2    1    0    0    0  0.43102231399E+01 -0.13993842334E+01  0.29122788684E+02  0.95526738890E+02  0.90866301357E+02 0.  0.
         11    1    3    3    0    0 -0.34152496702E+00 -0.20787033383E+02 -0.28085888865E+02  0.34943304791E+02  0.51100000000E-03 0.  1.
         22    1    1    0    0    0 -0.43102231399E+01  0.13993842334E+01 -0.29122788684E+02  0.29473261110E+02  0.00000000000E+00 0. -1.
</event>
<event>
 5    1  0.1692171E-003  0.9118800E+02  0.7818608E-02  0.1130116E+00
         25   -1    0    0    0    0  0.00000000000E+00  0.00000000000E+00  0.99999998245E-14  0.12500000000E+03  0.12500000000E+03 0.  0.
        -11    1    3    3    0    0  0.18956030769E+02 -0.24439073925E+02  0.16099134894E+02  0.34868059616E+02  0.51100000000E-03 0. -1.
         23    2    1    0    0    0 -0.19303156708E+01  0.23927416567E+02 -0.15617215484E+02  0.96361829639E+02  0.92007920364E+02 0.  0.
         11    1    3    3    0    0 -0.20886346439E+02  0.48366490491E+02 -0.31716350379E+02  0.61493770023E+02  0.51100000000E-03 0.  1.
         22    1    1    0    0    0  0.19303156708E+01 -0.23927416567E+02  0.15617215484E+02  0.28638170361E+02  0.00000000000E+00 0.  1.
</event>
<event>
 5    1  0.1692171E-003  0.9118800E+02  0.7818608E-02  0.1130116E+00
         25   -1    0    0    0    0  0.00000000000E+00  0.00000000000E+00  0.99999998245E-14  0.12500000000E+03  0.12500000000E+03 0.  0.
        -11    1    3    3    0    0  0.46223091497E+02  0.23340479811E+02 -0.28253289830E+02  0.58988139247E+02  0.51100000000E-03 0.  1.
         23    2    1    0    0    0  0.23552224183E+02  0.17524674388E+02 -0.43369597182E-01  0.95643171879E+02  0.91026331190E+02 0.  0.
         11    1    3    3    0    0 -0.22670867314E+02 -0.58158054233E+01  0.28209920233E+02  0.36655032632E+02  0.51100000000E-03 0. -1.
         22    1    1    0    0    0 -0.23552224183E+02 -0.17524674388E+02  0.43369597182E-01  0.29356828121E+02  0.00000000000E+00 0.  1.
</event>
<event>
 5    1  0.1692171E-003  0.9118800E+02  0.7818608E-02  0.1130116E+00
         25   -1    0    0    0    0  0.00000000000E+00  0.00000000000E+00  0.99999998245E-14  0.12500000000E+03  0.12500000000E+03 0.  0.
        -11    1    3    3    0    0  0.31782823126E+02 -0.16131541249E+00 -0.14568902692E+02  0.34963220596E+02  0.51100000000E-03 0.  1.
         23    2    1    0    0    0 -0.26695524782E+02  0.11476862109E+02 -0.73737486649E+01  0.95020981059E+02  0.90167872687E+02 0.  0.
         11    1    3    3    0    0 -0.58478347909E+02  0.11638177522E+02  0.71951540267E+01  0.60057760463E+02  0.51100000000E-03 0. -1.
         22    1    1    0    0    0  0.26695524782E+02 -0.11476862109E+02  0.73737486649E+01  0.29979018941E+02  0.00000000000E+00 0. -1.
</event>
<event>
 5    1  0.1692171E-003  0.9118800E+02  0.7818608E-02  0.1130116E+00
         25   -1    0    0    0    0  0.00000000000E+00  0.00000000000E+00  0.99999998245E-14  0.12500000000E+03  0.12500000000E+03 0.  0.
        -11    1    3    3    0    0 -0.37598001289E+02 -0.80811452352E+00  0.42206912120E+02  0.56530400502E+02  0.51100000000E-03 0.  1.
         23    2    1    0    0    0 -0.21434965983E+02 -0.16994114951E+02  0.10340874565E+02  0.95756344339E+02  0.91181610453E+02 0.  0.
         11    1    3    3    0    0  0.16163035306E+02 -0.16186000427E+02 -0.31866037555E+02  0.39225943837E+02  0.51100000000E-03 0. -1.
         22    1    1    0    0    0  0.21434965983E+02  0.16994114951E+02 -0.10340874565E+02  0.29243655661E+02  0.00000000000E+00 0.  1.
</event>
<event>
 5    1  0.1692171E-003  0.9118800E+02  0.7818608E-02  0.1130116E+00
         25   -1    0    0    0    0  0.00000000000E+00  0.00000000000E+00  0.99999998245E-14  0.12500000000E+03  0.12500000000E+03 0.  0.
        -11    1    3    3    0    0 -0.19828503386E+01 -0.66198878836E+01  0.39111616849E+02  0.39717416631E+02  0.51100000000E-03 0.  1.
         23    2    1    0    0    0  0.19494876063E+02  0.19187490166E+02 -0.70069914849E+01  0.96763358889E+02  0.92551821820E+02 0.  0.
         11    1    3    3    0    0  0.21477726401E+02  0.25807378049E+02 -0.46118608334E+02  0.57045942258E+02  0.51100000000E-03 0. -1.
         22    1    1    0    0    0 -0.19494876063E+02 -0.19187490166E+02  0.70069914849E+01  0.28236641111E+02  0.00000000000E+00 0. -1.
</event>
<event>
 5    1  0.1692171E-003  0.9118800E+02  0.7818608E-02  0.1130116E+00
         25   -1    0    0    0    0  0.00000000000E+00  0.00000000000E+00  0.99999998245E-14  0.12500000000E+03  0.12500000000E+03 0.  0.
        -11    1    3    3    0    0 -0.33825243533E+02 -0.94246718216E+01  0.13992746727E+02  0.37799054224E+02  0.51100000000E-03 0.  1.
         23    2    1    0    0    0  0.19207847460E+01  0.20706713899E+02 -0.20423803373E+02  0.95852287246E+02  0.91313042943E+02 0.  0.
         11    1    3    3    0    0  0.35746028279E+02  0.30131385721E+02 -0.34416550100E+02  0.58053233022E+02  0.51100000000E-03 0. -1.
         22    1    1    0    0    0 -0.19207847460E+01 -0.20706713899E+02  0.20423803373E+02  0.29147712754E+02  0.00000000000E+00 0. -1.
</event>
<event>
 5    1  0.1692171E-003  0.9118800E+02  0.7818608E-02  0.1130116E+00
         25   -1    0    0    0    0  0.00000000000E+00  0.00000000000E+00  0.99999998245E-14  0.12500000000E+03  0.12500000000E+03 0.  0.
        -11    1    3    3    0    0 -0.17659997027E+00  0.49595701054E+02  0.35030999179E+02  0.60720142081E+02  0.51100000000E-03 0. -1.
         23    2    1    0    0    0  0.46929920088E+01  0.27311367146E+02  0.78624450596E+01  0.96194566629E+02  0.91780399091E+02 0.  0.
         11    1    3    3    0    0  0.48695919791E+01 -0.22284333909E+02 -0.27168554120E+02  0.35474424548E+02  0.51100000000E-03 0.  1.
         22    1    1    0    0    0 -0.46929920088E+01 -0.27311367146E+02 -0.78624450596E+01  0.28805433371E+02  0.00000000000E+00 0.  1.
</event>
<event>
 5    1  0.1692171E-003  0.9118800E+02  0.7818608E-02  0.1130116E+00
         25   -1    0    0    0    0  0.00000000000E+00  0.00000000000E+00  0.99999998245E-14  0.12500000000E+03  0.12500000000E+03 0.  0.
        -11    1    3    3    0    0 -0.36689665770E+02  0.82451991369E+01 -0.23663867177E+02  0.44430771917E+02  0.51100000000E-03 0.  1.
         23    2    1    0    0    0 -0.15249939739E+02  0.54418528712E+01  0.23584871516E+02  0.96391948876E+02  0.92048830623E+02 0.  0.
         11    1    3    3    0    0  0.21439726032E+02 -0.28033462657E+01  0.47248738693E+02  0.51961176959E+02  0.51100000000E-03 0. -1.
         22    1    1    0    0    0  0.15249939739E+02 -0.54418528712E+01 -0.23584871516E+02  0.28608051124E+02  0.00000000000E+00 0. -1.
</event>
<event>
 5    1  0.1692171E-003  0.9118800E+02  0.7818608E-02  0.1130116E+00
         25   -1    0    0    0    0  0.00000000000E+00  0.00000000000E+00  0.99999998245E-14  0.12500000000E+03  0.12500000000E+03 0.  0.
        -11    1    3    3    0    0 -0.41833610693E+02 -0.17748299019E+02  0.41463383814E+02  0.61516382365E+02  0.51100000000E-03 0. -1.
         23    2    1    0    0    0 -0.22007869292E+02 -0.12414751911E+02  0.13078423628E+02  0.96547978272E+02  0.92260471319E+02 0.  0.
         11    1    3    3    0    0  0.19825741401E+02  0.53335471077E+01 -0.28384960186E+02  0.35031595908E+02  0.51100000000E-03 0.  1.
         22    1    1    0    0    0  0.22007869292E+02  0.12414751911E+02 -0.13078423628E+02  0.28452021728E+02  0.00000000000E+00 0. -1.
</event>
<event>
 5    1  0.1692171E-003  0.9118800E+02  0.7818608E-02  0.1130116E+00
         25   -1    0    0    0    0  0.00000000000E+00  0.00000000000E+00  0.99999998245E-14  0.12500000000E+03  0.12500000000E+03 0.  0.
        -11    1    3    3    0    0 -0.27866125541E+02 -0.32583386206E+02  0.41671927773E+02  0.59789192785E+02  0.51100000000E-03 0.  1.
         23    2    1    0    0    0 -0.10268247183E+02 -0.45411252125E+01  0.26525491298E+02  0.96196173744E+02  0.91782587869E+02 0.  0.
         11    1    3    3    0    0  0.17597878359E+02  0.28042260994E+02 -0.15146436475E+02  0.36406980959E+02  0.51100000000E-03 0. -1.
         22    1    1    0    0    0  0.10268247183E+02  0.45411252125E+01 -0.26525491298E+02  0.28803826256E+02  0.00000000000E+00 0.  1.
</event>
<event>
 5    1  0.1692171E-003  0.9118800E+02  0.7818608E-02  0.1130116E+00
         25   -1    0    0    0    0  0.00000000000E+00  0.00000000000E+00  0.99999998245E-14  0.12500000000E+03  0.12500000000E+03 0.  0.
        -11    1    3    3    0    0 -0.10058383254E+02  0.22649379516E+02 -0.21158955902E+02  0.32586298981E+02  0.51100000000E-03 0. -1.
         23    2    1    0    0    0  0.19523922895E+02  0.29466665246E+02  0.20503719181E+02  0.84135951911E+02  0.73545822301E+02 0.  0.
         11    1    3    3    0    0  0.29582306150E+02  0.68172857296E+01  0.41662675084E+02  0.51549652930E+02  0.51100000000E-03 0.  1.
         22    1    1    0    0    0 -0.19523922895E+02 -0.29466665246E+02 -0.20503719181E+02  0.40864048089E+02  0.00000000000E+00 0.  1.
</event>
<event>
 5    1  0.1692171E-003  0.9118800E+02  0.7818608E-02  0.1130116E+00
         25   -1    0    0    0    0  0.00000000000E+00  0.00000000000E+00  0.99999998245E-14  0.12500000000E+03  0.12500000000E+03 0.  0.
        -11    1    3    3    0    0 -0.31646901746E+02 -0.14719110522E+02  0.49831380395E+02  0.60838680763E+02  0.51100000000E-03 0.  1.
         23    2    1    0    0    0 -0.97997389181E+01  0.73451315153E+00  0.27841932812E+02  0.95474627603E+02  0.90794586297E+02 0.  0.
         11    1    3    3    0    0  0.21847162828E+02  0.15453623673E+02 -0.21989447582E+02  0.34635946840E+02  0.51100000000E-03 0. -1.
         22    1    1    0    0    0  0.97997389181E+01 -0.73451315153E+00 -0.27841932812E+02  0.29525372397E+02  0.00000000000E+00 0.  1.
</event>
<event>
 5    1  0.1692171E-003  0.9118800E+02  0.7818608E-02  0.1130116E+00
         25   -1    0    0    0    0  0.00000000000E+00  0.00000000000E+00  0.99999998245E-14  0.12500000000E+03  0.12500000000E+03 0.  0.
        -11    1    3    3    0    0 -0.18733722753E+02 -0.29687287799E+02 -0.48201726296E+02  0.59629638966E+02  0.51100000000E-03 0. -1.
         23    2    1    0    0    0 -0.42833061984E+01 -0.25163880771E+02 -0.16942393658E+02  0.94363219649E+02  0.89251358041E+02 0.  0.
         11    1    3    3    0    0  0.14450416555E+02  0.45234070281E+01  0.31259332639E+02  0.34733580682E+02  0.51100000000E-03 0.  1.
         22    1    1    0    0    0  0.42833061984E+01  0.25163880771E+02  0.16942393658E+02  0.30636780351E+02  0.00000000000E+00 0. -1.
</event>
<event>
 5    1  0.1692171E-003  0.9118800E+02  0.7818608E-02  0.1130116E+00
         25   -1    0    0    0    0  0.00000000000E+00  0.00000000000E+00  0.99999998245E-14  0.12500000000E+03  0.12500000000E+03 0.  0.
        -11    1    3    3    0    0 -0.54706588982E+02  0.19703334590E+02  0.21928061716E+02  0.62143963206E+02  0.51100000000E-03 0.  1.
         23    2    1    0    0    0 -0.27434671707E+02  0.50796589198E+01  0.89720912247E+01  0.95691936820E+02  0.91093272008E+02 0.  0.
         11    1    3    3    0    0  0.27271917275E+02 -0.14623675670E+02 -0.12955970492E+02  0.33547973614E+02  0.51100000000E-03 0. -1.
         22    1    1    0    0    0  0.27434671707E+02 -0.50796589198E+01 -0.89720912247E+01  0.29308063180E+02  0.00000000000E+00 0.  1.
</event>
<event>
 5    1  0.1692171E-003  0.9118800E+02  0.7818608E-02  0.1130116E+00
         25   -1    0    0    0    0  0.00000000000E+00  0.00000000000E+00  0.99999998245E-14  0.12500000000E+03  0.12500000000E+03 0.  0.
        -11    1    3    3    0    0 -0.54170457126E+02  0.17255686209E+02 -0.10991075595E+02  0.57905102321E+02  0.51100000000E-03 0. -1.
         23    2    1    0    0    0 -0.27894082832E+02  0.11282731807E+01  0.10157852042E+02  0.95292512468E+02  0.90543515046E+02 0.  0.
         11    1    3    3    0    0  0.26276374294E+02 -0.16127413029E+02  0.21148927637E+02  0.37387410147E+02  0.51100000000E-03 0.  1.
         22    1    1    0    0    0  0.27894082832E+02 -0.11282731807E+01 -0.10157852042E+02  0.29707487532E+02  0.00000000000E+00 0. -1.
</event>
<event>
 5    1  0.1692171E-003  0.9118800E+02  0.7818608E-02  0.1130116E+00
         25   -1    0    0    0    0  0.00000000000E+00  0.00000000000E+00  0.99999998245E-14  0.12500000000E+03  0.12500000000E+03 0.  0.
        -11    1    3    3    0    0  0.17254275527E+02  0.46583907721E+02 -0.10221693928E+02  0.50717388630E+02  0.51100000000E-03 0.  1.
         23    2    1    0    0    0  0.91806173107E+01  0.66712064711E+01 -0.27726055356E+02  0.95041313854E+02  0.90196055699E+02 0.  0.
         11    1    3    3    0    0 -0.80736582160E+01 -0.39912701249E+02 -0.17504361427E+02  0.44323925224E+02  0.51100000000E-03 0. -1.
         22    1    1    0    0    0 -0.91806173107E+01 -0.66712064711E+01  0.27726055356E+02  0.29958686146E+02  0.00000000000E+00 0.  1.
</event>
<event>
 5    1  0.1692171E-003  0.9118800E+02  0.7818608E-02  0.1130116E+00
         25   -1    0    0    0    0  0.00000000000E+00  0.00000000000E+00  0.99999998245E-14  0.12500000000E+03  0.12500000000E+03 0.  0.
        -11    1    3    3    0    0  0.40138867852E+02 -0.92517160338E+00 -0.34580485865E+01  0.40298173101E+02  0.51100000000E-03 0.  1.
         23    2    1    0    0    0 -0.10422801129E+02  0.77684380081E+01 -0.25687408539E+02  0.96210655271E+02  0.91802308347E+02 0.  0.
         11    1    3    3    0    0 -0.50561668982E+02  0.86936096114E+01 -0.22229359953E+02  0.55912482170E+02  0.51100000000E-03 0. -1.
         22    1    1    0    0    0  0.10422801129E+02 -0.77684380081E+01  0.25687408539E+02  0.28789344729E+02  0.00000000000E+00 0. -1.
</event>
<event>
 5    1  0.1692171E-003  0.9118800E+02  0.7818608E-02  0.1130116E+00
         25   -1    0    0    0    0  0.00000000000E+00  0.00000000000E+00  0.99999998245E-14  0.12500000000E+03  0.12500000000E+03 0.  0.
        -11    1    3    3    0    0 -0.34846036949E+02  0.62078090662E+01 -0.12965725827E+02  0.37694737444E+02  0.51100000000E-03 0.  1.
         23    2    1    0    0    0  0.57238874972E+01  0.29236140651E+01  0.28491234360E+02  0.95792794680E+02  0.91231566192E+02 0.  0.
         11    1    3    3    0    0  0.40569924446E+02 -0.32841950011E+01  0.41456960187E+02  0.58098057236E+02  0.51100000000E-03 0. -1.
         22    1    1    0    0    0 -0.57238874972E+01 -0.29236140651E+01 -0.28491234360E+02  0.29207205320E+02  0.00000000000E+00 0. -1.
</event>
<event>
 5    1  0.1692171E-003  0.9118800E+02  0.7818608E-02  0.1130116E+00
         25   -1    0    0    0    0  0.00000000000E+00  0.00000000000E+00  0.99999998245E-14  0.12500000000E+03  0.12500000000E+03 0.  0.
        -11    1    3    3    0    0 -0.17349228102E+01  0.12487280722E+02  0.44212914613E+02  0.45975253733E+02  0.51100000000E-03 0. -1.
         23    2    1    0    0    0 -0.26215682681E+02 -0.10215917219E+02  0.69291372703E+01  0.96023459034E+02  0.91547063079E+02 0.  0.
         11    1    3    3    0    0 -0.24480759871E+02 -0.22703197940E+02 -0.37283777343E+02  0.50048205300E+02  0.51100000000E-03 0.  1.
         22    1    1    0    0    0  0.26215682681E+02  0.10215917219E+02 -0.69291372703E+01  0.28976540966E+02  0.00000000000E+00 0.  1.
</event>
<event>
 5    1  0.1692171E-003  0.9118800E+02  0.7818608E-02  0.1130116E+00
         25   -1    0    0    0    0  0.00000000000E+00  0.00000000000E+00  0.99999998245E-14  0.12500000000E+03  0.12500000000E+03 0.  0.
        -11    1    3    3    0    0  0.21437455966E+02  0.45941096028E+02  0.10187439302E+02  0.51710083565E+02  0.51100000000E-03 0. -1.
         23    2    1    0    0    0 -0.30414101061E+01  0.85983496767E+01  0.24707842238E+02  0.98662588194E+02  0.95082317223E+02 0.  0.
         11    1    3    3    0    0 -0.24478866072E+02 -0.37342746351E+02  0.14520402936E+02  0.46952504629E+02  0.51100000000E-03 0.  1.
         22    1    1    0    0    0  0.30414101061E+01 -0.85983496767E+01 -0.24707842238E+02  0.26337411806E+02  0.00000000000E+00 0. -1.
</event>
<event>
 5    1  0.1692171E-003  0.9118800E+02  0.7818608E-02  0.1130116E+00
         25   -1    0    0    0    0  0.00000000000E+00  0.00000000000E+00  0.99999998245E-14  0.12500000000E+03  0.12500000000E+03 0.  0.
        -11    1    3    3    0    0  0.59305297839E+02 -0.13469000518E+02 -0.13187939292E+02  0.62229045226E+02  0.51100000000E-03 0.  1.
         23    2    1    0    0    0  0.26907478237E+02 -0.80426046015E+01 -0.98135513083E+01  0.95251022486E+02  0.90486217854E+02 0.  0.
         11    1    3    3    0    0 -0.32397819603E+02  0.54263959162E+01  0.33743879838E+01  0.33021977260E+02  0.51100000000E-03 0. -1.
         22    1    1    0    0    0 -0.26907478237E+02  0.80426046015E+01  0.98135513083E+01  0.29748977514E+02  0.00000000000E+00 0.  1.
</event>
<event>
 5    1  0.1692171E-003  0.9118800E+02  0.7818608E-02  0.1130116E+00
         25   -1    0    0    0    0  0.00000000000E+00  0.00000000000E+00  0.99999998245E-14  0.12500000000E+03  0.12500000000E+03 0.  0.
        -11    1    3    3    0    0 -0.31297865235E+02  0.69805241335E+01  0.76260140987E+00  0.32075935632E+02  0.51100000000E-03 0. -1.
         23    2    1    0    0    0 -0.42634078615E+01 -0.16510317928E+02 -0.37084861890E+02  0.84182672478E+02  0.73625186719E+02 0.  0.
         11    1    3    3    0    0  0.27034457374E+02 -0.23490842062E+02 -0.37847463300E+02  0.52106736846E+02  0.51100000000E-03 0.  1.
         22    1    1    0    0    0  0.42634078615E+01  0.16510317928E+02  0.37084861890E+02  0.40817327522E+02  0.00000000000E+00 0. -1.
</event>
<event>
 5    1  0.1692171E-003  0.9118800E+02  0.7818608E-02  0.1130116E+00
         25   -1    0    0    0    0  0.00000000000E+00  0.00000000000E+00  0.99999998245E-14  0.12500000000E+03  0.12500000000E+03 0.  0.
        -11    1    3    3    0    0  0.26090933709E+02 -0.11932553190E+02 -0.20888736290E+02  0.35488898990E+02  0.51100000000E-03 0.  1.
         23    2    1    0    0    0 -0.28509840676E+02  0.65025846171E+01 -0.44121179525E+01  0.95427015590E+02  0.90729013538E+02 0.  0.
         11    1    3    3    0    0 -0.54600774385E+02  0.18435137808E+02  0.16476618338E+02  0.59938116600E+02  0.51100000000E-03 0. -1.
         22    1    1    0    0    0  0.28509840676E+02 -0.65025846171E+01  0.44121179525E+01  0.29572984410E+02  0.00000000000E+00 0. -1.
</event>
<event>
 5    1  0.1692171E-003  0.9118800E+02  0.7818608E-02  0.1130116E+00
         25   -1    0    0    0    0  0.00000000000E+00  0.00000000000E+00  0.99999998245E-14  0.12500000000E+03  0.12500000000E+03 0.  0.
        -11    1    3    3    0    0  0.16555889256E+02  0.37722602115E+02  0.16326629232E+02  0.44313101919E+02  0.51100000000E-03 0.  1.
         23    2    1    0    0    0 -0.21201139052E+02  0.44668900002E+01  0.20977711843E+02  0.94841986180E+02  0.89919389149E+02 0.  0.
         11    1    3    3    0    0 -0.37757028308E+02 -0.33255712114E+02  0.46510826113E+01  0.50528884261E+02  0.51100000000E-03 0. -1.
         22    1    1    0    0    0  0.21201139052E+02 -0.44668900002E+01 -0.20977711843E+02  0.30158013820E+02  0.00000000000E+00 0.  1.
</event>
<event>
 5    1  0.1692171E-003  0.9118800E+02  0.7818608E-02  0.1130116E+00
         25   -1    0    0    0    0  0.00000000000E+00  0.00000000000E+00  0.99999998245E-14  0.12500000000E+03  0.12500000000E+03 0.  0.
        -11    1    3    3    0    0  0.31722148664E+02 -0.26804851484E+02 -0.28829949778E+02  0.50556510792E+02  0.51100000000E-03 0.  1.
         23    2    1    0    0    0 -0.16914224849E+01  0.43460424171E+01 -0.28378621353E+02  0.96240738107E+02  0.91843260650E+02 0.  0.
         11    1    3    3    0    0 -0.33413571149E+02  0.31150893901E+02  0.45132842525E+00  0.45684227315E+02  0.51100000000E-03 0. -1.
         22    1    1    0    0    0  0.16914224849E+01 -0.43460424171E+01  0.28378621353E+02  0.28759261893E+02  0.00000000000E+00 0.  1.
</event>
<event>
 5    1  0.1692171E-003  0.9118800E+02  0.7818608E-02  0.1130116E+00
         25   -1    0    0    0    0  0.00000000000E+00  0.00000000000E+00  0.99999998245E-14  0.12500000000E+03  0.12500000000E+03 0.  0.
        -11    1    3    3    0    0  0.15880351320E+02  0.64459087287E+01 -0.29616403353E+02  0.34217928710E+02  0.51100000000E-03 0. -1.
         23    2    1    0    0    0 -0.10352427708E+02 -0.16035228312E+02  0.21712768576E+02  0.96090734605E+02  0.91638876309E+02 0.  0.
         11    1    3    3    0    0 -0.26232779028E+02 -0.22481137041E+02  0.51329171928E+02  0.61872805895E+02  0.51100000000E-03 0.  1.
         22    1    1    0    0    0  0.10352427708E+02  0.16035228312E+02 -0.21712768576E+02  0.28909265395E+02  0.00000000000E+00 0.  1.
</event>
<event>
 5    1  0.1692171E-003  0.9118800E+02  0.7818608E-02  0.1130116E+00
         25   -1    0    0    0    0  0.00000000000E+00  0.00000000000E+00  0.99999998245E-14  0.12500000000E+03  0.12500000000E+03 0.  0.
        -11    1    3    3    0    0  0.47138553734E+02  0.17902763835E+02  0.76625208263E+01  0.51002611960E+02  0.51100000000E-03 0.  1.
         23    2    1    0    0    0  0.11329388057E+02  0.17912167563E+02 -0.19695923020E+02  0.96066798239E+02  0.91606220093E+02 0.  0.
         11    1    3    3    0    0 -0.35809165678E+02  0.94037279563E-02 -0.27358443846E+02  0.45064186278E+02  0.51100000000E-03 0. -1.
         22    1    1    0    0    0 -0.11329388057E+02 -0.17912167563E+02  0.19695923020E+02  0.28933201761E+02  0.00000000000E+00 0. -1.
</event>
<event>
 4    1  0.1692171E-003  0.9118800E+02  0.7818608E-02  0.1130116E+00
         25   -1    0    0    0    0  0.00000000000E+00  0.00000000000E+00  0.99999998245E-14  0.12500000000E+03  0.12500000000E+03 0.  0.
        -11    1    1    0    0    0 -0.54791451289E-01 -0.60100585006E+01  0.16781086453E+02  0.17824945108E+02  0.51100000000E-03 0.  1.
         11    1    1    0    0    0  0.48478856337E+02 -0.11505610027E+02 -0.23776018014E+02  0.55207586496E+02  0.51100000000E-03 0. -1.
         22    1    1    0    0    0 -0.48424064886E+02  0.17515668527E+02  0.69949315604E+01  0.51967468397E+02  0.00000000000E+00 0. -1.
</event>
<event>
 5    1  0.1692171E-003  0.9118800E+02  0.7818608E-02  0.1130116E+00
         25   -1    0    0    0    0  0.00000000000E+00  0.00000000000E+00  0.99999998245E-14  0.12500000000E+03  0.12500000000E+03 0.  0.
        -11    1    3    3    0    0  0.11984394119E+02  0.41268168162E+02  0.12896140398E+02  0.44866444513E+02  0.51100000000E-03 0.  1.
         23    2    1    0    0    0  0.45144872276E+01 -0.73811309883E+01  0.27471121056E+02  0.96198538550E+02  0.91785808475E+02 0.  0.
         11    1    3    3    0    0 -0.74699068915E+01 -0.48649299150E+02  0.14574980657E+02  0.51332094037E+02  0.51100000000E-03 0. -1.
         22    1    1    0    0    0 -0.45144872276E+01  0.73811309883E+01 -0.27471121056E+02  0.28801461450E+02  0.00000000000E+00 0.  1.
</event>
<event>
 5    1  0.1692171E-003  0.9118800E+02  0.7818608E-02  0.1130116E+00
         25   -1    0    0    0    0  0.00000000000E+00  0.00000000000E+00  0.99999998245E-14  0.12500000000E+03  0.12500000000E+03 0.  0.
        -11    1    3    3    0    0 -0.26506229525E+02 -0.47664651335E+02 -0.14515413155E+02  0.56437544329E+02  0.51100000000E-03 0.  1.
         23    2    1    0    0    0 -0.16441712863E+02 -0.20386008032E+02  0.12367284299E+02  0.96036765265E+02  0.91565229844E+02 0.  0.
         11    1    3    3    0    0  0.10064516663E+02  0.27278643303E+02  0.26882697454E+02  0.39599220937E+02  0.51100000000E-03 0. -1.
         22    1    1    0    0    0  0.16441712863E+02  0.20386008032E+02 -0.12367284299E+02  0.28963234735E+02  0.00000000000E+00 0.  1.
</event>
<event>
 5    1  0.1692171E-003  0.9118800E+02  0.7818608E-02  0.1130116E+00
         25   -1    0    0    0    0  0.00000000000E+00  0.00000000000E+00  0.99999998245E-14  0.12500000000E+03  0.12500000000E+03 0.  0.
        -11    1    3    3    0    0  0.35483056893E+02  0.13245423484E+02  0.12210776933E+02  0.39794366979E+02  0.51100000000E-03 0.  1.
         23    2    1    0    0    0  0.18829213923E+01 -0.29685951708E+02  0.58972433497E+01  0.94675445578E+02  0.89687576589E+02 0.  0.
         11    1    3    3    0    0 -0.33600135500E+02 -0.42931375192E+02 -0.63135335830E+01  0.54881078598E+02  0.51100000000E-03 0. -1.
         22    1    1    0    0    0 -0.18829213923E+01  0.29685951708E+02 -0.58972433497E+01  0.30324554422E+02  0.00000000000E+00 0. -1.
</event>
<event>
 5    1  0.1692171E-003  0.9118800E+02  0.7818608E-02  0.1130116E+00
         25   -1    0    0    0    0  0.00000000000E+00  0.00000000000E+00  0.99999998245E-14  0.12500000000E+03  0.12500000000E+03 0.  0.
        -11    1    3    3    0    0 -0.90075404857E+01 -0.12616892277E+02 -0.32847539109E+02  0.36321929769E+02  0.51100000000E-03 0. -1.
         23    2    1    0    0    0  0.23309375615E+02 -0.21094973923E+02  0.11217494054E+02  0.91621008265E+02  0.85324393149E+02 0.  0.
         11    1    3    3    0    0  0.32316916101E+02 -0.84780816460E+01  0.44065033163E+02  0.55299078496E+02  0.51100000000E-03 0.  1.
         22    1    1    0    0    0 -0.23309375615E+02  0.21094973923E+02 -0.11217494054E+02  0.33378991735E+02  0.00000000000E+00 0.  1.
</event>
<event>
 5    1  0.1692171E-003  0.9118800E+02  0.7818608E-02  0.1130116E+00
         25   -1    0    0    0    0  0.00000000000E+00  0.00000000000E+00  0.99999998245E-14  0.12500000000E+03  0.12500000000E+03 0.  0.
        -11    1    3    3    0    0  0.80200441370E+01 -0.20439913691E+02  0.36315916147E+02  0.42437683083E+02  0.51100000000E-03 0.  1.
         23    2    1    0    0    0 -0.25572034723E+02 -0.24023679493E+02  0.31617602339E+01  0.89771277855E+02  0.82570088190E+02 0.  0.
         11    1    3    3    0    0 -0.33592078860E+02 -0.35837658023E+01 -0.33154155913E+02  0.47333594771E+02  0.51100000000E-03 0. -1.
         22    1    1    0    0    0  0.25572034723E+02  0.24023679493E+02 -0.31617602339E+01  0.35228722145E+02  0.00000000000E+00 0.  1.
</event>
<event>
 5    1  0.1692171E-003  0.9118800E+02  0.7818608E-02  0.1130116E+00
         25   -1    0    0    0    0  0.00000000000E+00  0.00000000000E+00  0.99999998245E-14  0.12500000000E+03  0.12500000000E+03 0.  0.
        -11    1    3    3    0    0  0.29301523870E+02 -0.14749403472E+02 -0.63105548428E+01  0.33405797499E+02  0.51100000000E-03 0.  1.
         23    2    1    0    0    0 -0.24888957617E+02  0.13504653203E+02  0.67279042280E+01  0.95895007908E+02  0.91371505279E+02 0.  0.
         11    1    3    3    0    0 -0.54190481487E+02  0.28254056674E+02  0.13038459071E+02  0.62489210409E+02  0.51100000000E-03 0. -1.
         22    1    1    0    0    0  0.24888957617E+02 -0.13504653203E+02 -0.67279042280E+01  0.29104992092E+02  0.00000000000E+00 0. -1.
</event>
<event>
 5    1  0.1692171E-003  0.9118800E+02  0.7818608E-02  0.1130116E+00
         25   -1    0    0    0    0  0.00000000000E+00  0.00000000000E+00  0.99999998245E-14  0.12500000000E+03  0.12500000000E+03 0.  0.
        -11    1    3    3    0    0 -0.28172106895E+02  0.49754074718E+02  0.18733474132E+02  0.60167089104E+02  0.51100000000E-03 0.  1.
         23    2    1    0    0    0 -0.62456015471E+01  0.28618409345E+02  0.41799327631E+00  0.95705024143E+02  0.91111228922E+02 0.  0.
         11    1    3    3    0    0  0.21926505348E+02 -0.21135665374E+02 -0.18315480855E+02  0.35537935038E+02  0.51100000000E-03 0. -1.
         22    1    1    0    0    0  0.62456015471E+01 -0.28618409345E+02 -0.41799327631E+00  0.29294975857E+02  0.00000000000E+00 0.  1.
</event>
<event>
 5    1  0.1692171E-003  0.9118800E+02  0.7818608E-02  0.1130116E+00
         25   -1    0    0    0    0  0.00000000000E+00  0.00000000000E+00  0.99999998245E-14  0.12500000000E+03  0.12500000000E+03 0.  0.
        -11    1    3    3    0    0  0.43515415470E+02  0.14288424574E+02  0.84730229350E+01  0.46578348814E+02  0.51100000000E-03 0.  1.
         23    2    1    0    0    0  0.15652692063E+02 -0.23077821622E+02 -0.79594278470E+01  0.96000946373E+02  0.91516318726E+02 0.  0.
         11    1    3    3    0    0 -0.27862723407E+02 -0.37366246196E+02 -0.16432450782E+02  0.49422597559E+02  0.51100000000E-03 0. -1.
         22    1    1    0    0    0 -0.15652692063E+02  0.23077821622E+02  0.79594278470E+01  0.28999053627E+02  0.00000000000E+00 0.  1.
</event>
<event>
 5    1  0.1692171E-003  0.9118800E+02  0.7818608E-02  0.1130116E+00
         25   -1    0    0    0    0  0.00000000000E+00  0.00000000000E+00  0.99999998245E-14  0.12500000000E+03  0.12500000000E+03 0.  0.
        -11    1    3    3    0    0  0.19097617635E+02 -0.35591556021E+02  0.42235935683E+02  0.58441014045E+02  0.51100000000E-03 0.  1.
         23    2    1    0    0    0 -0.54984084191E+01 -0.17300319478E+02  0.26452392877E+02  0.92917876659E+02  0.87203607521E+02 0.  0.
         11    1    3    3    0    0 -0.24596026054E+02  0.18291236543E+02 -0.15783542806E+02  0.34476862614E+02  0.51100000000E-03 0. -1.
         22    1    1    0    0    0  0.54984084191E+01  0.17300319478E+02 -0.26452392877E+02  0.32082123341E+02  0.00000000000E+00 0.  1.
</event>
<event>
 5    1  0.1692171E-003  0.9118800E+02  0.7818608E-02  0.1130116E+00
         25   -1    0    0    0    0  0.00000000000E+00  0.00000000000E+00  0.99999998245E-14  0.12500000000E+03  0.12500000000E+03 0.  0.
        -11    1    3    3    0    0 -0.28481957646E+02 -0.11137828243E+01 -0.18587028663E+02  0.34028518308E+02  0.51100000000E-03 0.  1.
         23    2    1    0    0    0  0.24488577819E+02 -0.55272345583E+01  0.13879987931E+02  0.96313856474E+02  0.91942721944E+02 0.  0.
         11    1    3    3    0    0  0.52970535465E+02 -0.44134517341E+01  0.32467016593E+02  0.62285338165E+02  0.51100000000E-03 0. -1.
         22    1    1    0    0    0 -0.24488577819E+02  0.55272345583E+01 -0.13879987931E+02  0.28686143526E+02  0.00000000000E+00 0. -1.
</event>
<event>
 5    1  0.1692171E-003  0.9118800E+02  0.7818608E-02  0.1130116E+00
         25   -1    0    0    0    0  0.00000000000E+00  0.00000000000E+00  0.99999998245E-14  0.12500000000E+03  0.12500000000E+03 0.  0.
        -11    1    3    3    0    0  0.15110358882E+02 -0.20628165952E+02 -0.23624104446E+02  0.34812964355E+02  0.51100000000E-03 0. -1.
         23    2    1    0    0    0  0.14013613860E+01  0.93722296802E+01  0.27644986429E+02  0.95775904162E+02  0.91208420885E+02 0.  0.
         11    1    3    3    0    0 -0.13708997496E+02  0.30000395632E+02  0.51269090875E+02  0.60962939806E+02  0.51100000000E-03 0.  1.
         22    1    1    0    0    0 -0.14013613860E+01 -0.93722296802E+01 -0.27644986429E+02  0.29224095838E+02  0.00000000000E+00 0.  1.
</event>
<event>
 5    1  0.1692171E-003  0.9118800E+02  0.7818608E-02  0.1130116E+00
         25   -1    0    0    0    0  0.00000000000E+00  0.00000000000E+00  0.99999998245E-14  0.12500000000E+03  0.12500000000E+03 0.  0.
        -11    1    3    3    0    0  0.19011394794E+02  0.50318411335E+01  0.37991464551E+02  0.42779714074E+02  0.51100000000E-03 0. -1.
         23    2    1    0    0    0 -0.88760481058E+00  0.28995406389E+02 -0.46857609491E+01  0.95615007408E+02  0.90987646700E+02 0.  0.
         11    1    3    3    0    0 -0.19898999605E+02  0.23963565256E+02 -0.42677225500E+02  0.52835293334E+02  0.51100000000E-03 0.  1.
         22    1    1    0    0    0  0.88760481058E+00 -0.28995406389E+02  0.46857609491E+01  0.29384992592E+02  0.00000000000E+00 0.  1.
</event>
<event>
 5    1  0.1692171E-003  0.9118800E+02  0.7818608E-02  0.1130116E+00
         25   -1    0    0    0    0  0.00000000000E+00  0.00000000000E+00  0.99999998245E-14  0.12500000000E+03  0.12500000000E+03 0.  0.
        -11    1    3    3    0    0 -0.29119293673E+01  0.27377984667E+00  0.34952237073E+02  0.35074394717E+02  0.51100000000E-03 0.  1.
         23    2    1    0    0    0  0.23746093319E+02 -0.12002591651E+02 -0.16056276662E+02  0.93923591351E+02  0.88633502908E+02 0.  0.
         11    1    3    3    0    0  0.26658022686E+02 -0.12276371498E+02 -0.51008513736E+02  0.58849196634E+02  0.51100000000E-03 0. -1.
         22    1    1    0    0    0 -0.23746093319E+02  0.12002591651E+02  0.16056276662E+02  0.31076408649E+02  0.00000000000E+00 0. -1.
</event>
<event>
 5    1  0.1692171E-003  0.9118800E+02  0.7818608E-02  0.1130116E+00
         25   -1    0    0    0    0  0.00000000000E+00  0.00000000000E+00  0.99999998245E-14  0.12500000000E+03  0.12500000000E+03 0.  0.
        -11    1    3    3    0    0 -0.12912055202E+02  0.45730729406E+02 -0.13731769764E+02  0.49462938476E+02  0.51100000000E-03 0. -1.
         23    2    1    0    0    0  0.17304011647E+02  0.11751341073E+02 -0.20825003900E+02  0.95483841315E+02  0.90807270242E+02 0.  0.
         11    1    3    3    0    0  0.30216066849E+02 -0.33979388333E+02 -0.70932341351E+01  0.46020902839E+02  0.51100000000E-03 0.  1.
         22    1    1    0    0    0 -0.17304011647E+02 -0.11751341073E+02  0.20825003900E+02  0.29516158685E+02  0.00000000000E+00 0. -1.
</event>
<event>
 5    1  0.1692171E-003  0.9118800E+02  0.7818608E-02  0.1130116E+00
         25   -1    0    0    0    0  0.00000000000E+00  0.00000000000E+00  0.99999998245E-14  0.12500000000E+03  0.12500000000E+03 0.  0.
        -11    1    3    3    0    0 -0.15843115818E+02 -0.43632833423E+02  0.19309893062E+02  0.50276241325E+02  0.51100000000E-03 0.  1.
         23    2    1    0    0    0 -0.31153676342E+02 -0.66034652039E+01  0.53514748052E+01  0.92707654391E+02  0.86901746805E+02 0.  0.
         11    1    3    3    0    0 -0.15310560524E+02  0.37029368220E+02 -0.13958418257E+02  0.42431413066E+02  0.51100000000E-03 0. -1.
         22    1    1    0    0    0  0.31153676342E+02  0.66034652039E+01 -0.53514748052E+01  0.32292345609E+02  0.00000000000E+00 0.  1.
</event>
<event>
 5    1  0.1692171E-003  0.9118800E+02  0.7818608E-02  0.1130116E+00
         25   -1    0    0    0    0  0.00000000000E+00  0.00000000000E+00  0.99999998245E-14  0.12500000000E+03  0.12500000000E+03 0.  0.
        -11    1    3    3    0    0 -0.25189813374E+02 -0.19447845366E+02  0.19122222322E+02  0.37126874013E+02  0.51100000000E-03 0.  1.
         23    2    1    0    0    0  0.11947807781E+02  0.25073756278E+02  0.69648805077E+01  0.96365179848E+02  0.92012471774E+02 0.  0.
         11    1    3    3    0    0  0.37137621155E+02  0.44521601643E+02 -0.12157341814E+02  0.59238305835E+02  0.51100000000E-03 0. -1.
         22    1    1    0    0    0 -0.11947807781E+02 -0.25073756278E+02 -0.69648805077E+01  0.28634820152E+02  0.00000000000E+00 0. -1.
</event>
<event>
 5    1  0.1692171E-003  0.9118800E+02  0.7818608E-02  0.1130116E+00
         25   -1    0    0    0    0  0.00000000000E+00  0.00000000000E+00  0.99999998245E-14  0.12500000000E+03  0.12500000000E+03 0.  0.
        -11    1    3    3    0    0 -0.26691535121E+02 -0.47945918802E+02 -0.12971776832E+00  0.54875003452E+02  0.51100000000E-03 0. -1.
         23    2    1    0    0    0 -0.14825352130E+02 -0.14934055050E+02 -0.20651133966E+02  0.95516336725E+02  0.90851990519E+02 0.  0.
         11    1    3    3    0    0  0.11866182992E+02  0.33011863752E+02 -0.20521416198E+02  0.40641333273E+02  0.51100000000E-03 0.  1.
         22    1    1    0    0    0  0.14825352130E+02  0.14934055050E+02  0.20651133966E+02  0.29483663275E+02  0.00000000000E+00 0. -1.
</event>
<event>
 5    1  0.1692171E-003  0.9118800E+02  0.7818608E-02  0.1130116E+00
         25   -1    0    0    0    0  0.00000000000E+00  0.00000000000E+00  0.99999998245E-14  0.12500000000E+03  0.12500000000E+03 0.  0.
        -11    1    3    3    0    0  0.29061082477E+02  0.17793675273E+02 -0.14778792028E+02  0.37142618224E+02  0.51100000000E-03 0.  1.
         23    2    1    0    0    0 -0.60950088814E+01 -0.26369755204E+02  0.59724207444E+01  0.97283886774E+02  0.93252194041E+02 0.  0.
         11    1    3    3    0    0 -0.35156091358E+02 -0.44163430478E+02  0.20751212772E+02  0.60141268551E+02  0.51100000000E-03 0. -1.
         22    1    1    0    0    0  0.60950088814E+01  0.26369755204E+02 -0.59724207444E+01  0.27716113226E+02  0.00000000000E+00 0. -1.
</event>
<event>
 5    1  0.1692171E-003  0.9118800E+02  0.7818608E-02  0.1130116E+00
         25   -1    0    0    0    0  0.00000000000E+00  0.00000000000E+00  0.99999998245E-14  0.12500000000E+03  0.12500000000E+03 0.  0.
        -11    1    3    3    0    0 -0.26210819424E+02 -0.18847669935E+02 -0.26756379095E+02  0.41930246116E+02  0.51100000000E-03 0. -1.
         23    2    1    0    0    0 -0.14515338137E+02 -0.23554798757E+01  0.24161503135E+02  0.96715347617E+02  0.92486955320E+02 0.  0.
         11    1    3    3    0    0  0.11695481287E+02  0.16492190059E+02  0.50917882229E+02  0.54785101501E+02  0.51100000000E-03 0.  1.
         22    1    1    0    0    0  0.14515338137E+02  0.23554798757E+01 -0.24161503135E+02  0.28284652383E+02  0.00000000000E+00 0.  1.
</event>
<event>
 5    1  0.1692171E-003  0.9118800E+02  0.7818608E-02  0.1130116E+00
         25   -1    0    0    0    0  0.00000000000E+00  0.00000000000E+00  0.99999998245E-14  0.12500000000E+03  0.12500000000E+03 0.  0.
        -11    1    3    3    0    0 -0.30554331995E+02 -0.14297252277E+02 -0.19390402215E+02  0.38909720182E+02  0.51100000000E-03 0.  1.
         23    2    1    0    0    0 -0.55815397708E+01  0.31841195155E+00  0.29094910574E+02  0.95372836895E+02  0.90654339243E+02 0.  0.
         11    1    3    3    0    0  0.24972792224E+02  0.14615664228E+02  0.48485312789E+02  0.56463116712E+02  0.51100000000E-03 0. -1.
         22    1    1    0    0    0  0.55815397708E+01 -0.31841195155E+00 -0.29094910574E+02  0.29627163105E+02  0.00000000000E+00 0. -1.
</event>
<event>
 5    1  0.1692171E-003  0.9118800E+02  0.7818608E-02  0.1130116E+00
         25   -1    0    0    0    0  0.00000000000E+00  0.00000000000E+00  0.99999998245E-14  0.12500000000E+03  0.12500000000E+03 0.  0.
        -11    1    3    3    0    0 -0.49608913923E+02 -0.16516017200E+02  0.13117415338E+01  0.52302426625E+02  0.51100000000E-03 0.  1.
         23    2    1    0    0    0 -0.23043361011E+02  0.15853751163E+02  0.10411249539E+02  0.95154865898E+02  0.90353287015E+02 0.  0.
         11    1    3    3    0    0  0.26565552912E+02  0.32369768364E+02  0.90995080050E+01  0.42852439273E+02  0.51100000000E-03 0. -1.
         22    1    1    0    0    0  0.23043361011E+02 -0.15853751163E+02 -0.10411249539E+02  0.29845134102E+02  0.00000000000E+00 0.  1.
</event>
<event>
 5    1  0.1692171E-003  0.9118800E+02  0.7818608E-02  0.1130116E+00
         25   -1    0    0    0    0  0.00000000000E+00  0.00000000000E+00  0.99999998245E-14  0.12500000000E+03  0.12500000000E+03 0.  0.
        -11    1    3    3    0    0  0.12884887196E+02 -0.13423288572E+01  0.52969204518E+02  0.54530347443E+02  0.51100000000E-03 0. -1.
         23    2    1    0    0    0 -0.14187941009E+02 -0.10592350844E+02  0.23159865664E+02  0.95847385296E+02  0.91306332333E+02 0.  0.
         11    1    3    3    0    0 -0.27072828206E+02 -0.92500219864E+01 -0.29809338853E+02  0.41317037853E+02  0.51100000000E-03 0.  1.
         22    1    1    0    0    0  0.14187941009E+02  0.10592350844E+02 -0.23159865664E+02  0.29152614704E+02  0.00000000000E+00 0. -1.
</event>
<event>
 5    1  0.1692171E-003  0.9118800E+02  0.7818608E-02  0.1130116E+00
         25   -1    0    0    0    0  0.00000000000E+00  0.00000000000E+00  0.99999998245E-14  0.12500000000E+03  0.12500000000E+03 0.  0.
        -11    1    3    3    0    0  0.93469393755E+01  0.36033966667E+01 -0.33462904062E+02  0.34930154476E+02  0.51100000000E-03 0.  1.
         23    2    1    0    0    0 -0.27333294971E+01 -0.76273000960E+01  0.26587871517E+02  0.97205005690E+02  0.93146397797E+02 0.  0.
         11    1    3    3    0    0 -0.12080268873E+02 -0.11230696763E+02  0.60050775579E+02  0.62274851214E+02  0.51100000000E-03 0. -1.
         22    1    1    0    0    0  0.27333294971E+01  0.76273000960E+01 -0.26587871517E+02  0.27794994310E+02  0.00000000000E+00 0. -1.
</event>
<event>
 5    1  0.1692171E-003  0.9118800E+02  0.7818608E-02  0.1130116E+00
         25   -1    0    0    0    0  0.00000000000E+00  0.00000000000E+00  0.99999998245E-14  0.12500000000E+03  0.12500000000E+03 0.  0.
        -11    1    3    3    0    0 -0.92449138487E+01  0.37623820948E+02 -0.10366558783E+02  0.40105933177E+02  0.51100000000E-03 0.  1.
         23    2    1    0    0    0 -0.13141209726E+02 -0.20779336869E+02 -0.94915660199E+01  0.98645454675E+02  0.95059789968E+02 0.  0.
         11    1    3    3    0    0 -0.38962958768E+01 -0.58403157817E+02  0.87499276273E+00  0.58539521498E+02  0.51100000000E-03 0. -1.
         22    1    1    0    0    0  0.13141209726E+02  0.20779336869E+02  0.94915660199E+01  0.26354545325E+02  0.00000000000E+00 0. -1.
</event>
<event>
 5    1  0.1692171E-003  0.9118800E+02  0.7818608E-02  0.1130116E+00
         25   -1    0    0    0    0  0.00000000000E+00  0.00000000000E+00  0.99999998245E-14  0.12500000000E+03  0.12500000000E+03 0.  0.
        -11    1    3    3    0    0 -0.20844657387E+02  0.31316275171E+02 -0.28105345974E+02  0.46958697861E+02  0.51100000000E-03 0.  1.
         23    2    1    0    0    0  0.11321943023E+00 -0.13038691549E+02 -0.25826373016E+02  0.96068670284E+02  0.91608774531E+02 0.  0.
         11    1    3    3    0    0  0.20957876817E+02 -0.44354966720E+02  0.22789729581E+01  0.49109972424E+02  0.51100000000E-03 0. -1.
         22    1    1    0    0    0 -0.11321943023E+00  0.13038691549E+02  0.25826373016E+02  0.28931329716E+02  0.00000000000E+00 0. -1.
</event>
<event>
 5    1  0.1692171E-003  0.9118800E+02  0.7818608E-02  0.1130116E+00
         25   -1    0    0    0    0  0.00000000000E+00  0.00000000000E+00  0.99999998245E-14  0.12500000000E+03  0.12500000000E+03 0.  0.
        -11    1    3    3    0    0  0.11337209496E+02  0.31540763593E+02  0.18727956690E+02  0.38393859525E+02  0.51100000000E-03 0.  1.
         23    2    1    0    0    0 -0.12820103961E+02 -0.14096329330E+00 -0.24602852719E+02  0.97256977487E+02  0.93216116481E+02 0.  0.
         11    1    3    3    0    0 -0.24157313457E+02 -0.31681726886E+02 -0.43330809409E+02  0.58863117962E+02  0.51100000000E-03 0. -1.
         22    1    1    0    0    0  0.12820103961E+02  0.14096329330E+00  0.24602852719E+02  0.27743022513E+02  0.00000000000E+00 0. -1.
</event>
<event>
 5    1  0.1692171E-003  0.9118800E+02  0.7818608E-02  0.1130116E+00
         25   -1    0    0    0    0  0.00000000000E+00  0.00000000000E+00  0.99999998245E-14  0.12500000000E+03  0.12500000000E+03 0.  0.
        -11    1    3    3    0    0 -0.54137700329E+02  0.73833336843E+01 -0.26440934058E+02  0.60700306485E+02  0.51100000000E-03 0.  1.
         23    2    1    0    0    0 -0.23889898229E+02  0.13909116972E+02 -0.13393467609E+02  0.94282321915E+02  0.89137985611E+02 0.  0.
         11    1    3    3    0    0  0.30247802100E+02  0.65257832874E+01  0.13047466449E+02  0.33582015431E+02  0.51100000000E-03 0. -1.
         22    1    1    0    0    0  0.23889898229E+02 -0.13909116972E+02  0.13393467609E+02  0.30717678085E+02  0.00000000000E+00 0.  1.
</event>
<event>
 5    1  0.1692171E-003  0.9118800E+02  0.7818608E-02  0.1130116E+00
         25   -1    0    0    0    0  0.00000000000E+00  0.00000000000E+00  0.99999998245E-14  0.12500000000E+03  0.12500000000E+03 0.  0.
        -11    1    3    3    0    0  0.19607436157E+02 -0.42670098023E+02  0.35555960916E+02  0.58901741696E+02  0.51100000000E-03 0. -1.
         23    2    1    0    0    0 -0.58654934118E+01 -0.22388391662E+02  0.15538602711E+02  0.97123625265E+02  0.93037123323E+02 0.  0.
         11    1    3    3    0    0 -0.25472929568E+02  0.20281706361E+02 -0.20017358206E+02  0.38221883568E+02  0.51100000000E-03 0.  1.
         22    1    1    0    0    0  0.58654934118E+01  0.22388391662E+02 -0.15538602711E+02  0.27876374735E+02  0.00000000000E+00 0. -1.
</event>
<event>
 5    1  0.1692171E-003  0.9118800E+02  0.7818608E-02  0.1130116E+00
         25   -1    0    0    0    0  0.00000000000E+00  0.00000000000E+00  0.99999998245E-14  0.12500000000E+03  0.12500000000E+03 0.  0.
        -11    1    3    3    0    0  0.48214966957E+02  0.49321806737E+01  0.20290105527E+02  0.52542343185E+02  0.51100000000E-03 0.  1.
         23    2    1    0    0    0  0.27896158166E+02 -0.65458926816E+01  0.34722419283E+02  0.79981217783E+02  0.66108278195E+02 0.  0.
         11    1    3    3    0    0 -0.20318808791E+02 -0.11478073355E+02  0.14432313756E+02  0.27438874598E+02  0.51100000000E-03 0. -1.
         22    1    1    0    0    0 -0.27896158166E+02  0.65458926816E+01 -0.34722419283E+02  0.45018782217E+02  0.00000000000E+00 0.  1.
</event>
<event>
 5    1  0.1692171E-003  0.9118800E+02  0.7818608E-02  0.1130116E+00
         25   -1    0    0    0    0  0.00000000000E+00  0.00000000000E+00  0.99999998245E-14  0.12500000000E+03  0.12500000000E+03 0.  0.
        -11    1    3    3    0    0 -0.26594069366E+02  0.20810935479E+02  0.14043931032E+02  0.36572825432E+02  0.51100000000E-03 0.  1.
         23    2    1    0    0    0 -0.33513298873E+02  0.41612561158E+01 -0.27233689216E+02  0.81616465310E+02  0.69131153090E+02 0.  0.
         11    1    3    3    0    0 -0.69192295076E+01 -0.16649679363E+02 -0.41277620249E+02  0.45043639879E+02  0.51100000000E-03 0. -1.
         22    1    1    0    0    0  0.33513298873E+02 -0.41612561158E+01  0.27233689216E+02  0.43383534690E+02  0.00000000000E+00 0. -1.
</event>
<event>
 5    1  0.1692171E-003  0.9118800E+02  0.7818608E-02  0.1130116E+00
         25   -1    0    0    0    0  0.00000000000E+00  0.00000000000E+00  0.99999998245E-14  0.12500000000E+03  0.12500000000E+03 0.  0.
        -11    1    3    3    0    0 -0.13658951268E+02 -0.45672587192E+02  0.13859911249E+02  0.49645234521E+02  0.51100000000E-03 0.  1.
         23    2    1    0    0    0 -0.27613768813E+02 -0.18384612101E+01  0.89773699156E+01  0.95905441432E+02  0.91385777657E+02 0.  0.
         11    1    3    3    0    0 -0.13954817545E+02  0.43834125982E+02 -0.48825413334E+01  0.46260206911E+02  0.51100000000E-03 0. -1.
         22    1    1    0    0    0  0.27613768813E+02  0.18384612101E+01 -0.89773699156E+01  0.29094558568E+02  0.00000000000E+00 0. -1.
</event>
<event>
 5    1  0.1692171E-003  0.9118800E+02  0.7818608E-02  0.1130116E+00
         25   -1    0    0    0    0  0.00000000000E+00  0.00000000000E+00  0.99999998245E-14  0.12500000000E+03  0.12500000000E+03 0.  0.
        -11    1    3    3    0    0  0.67064034349E+01 -0.36764252583E+02 -0.27758423098E+02  0.46552294983E+02  0.51100000000E-03 0.  1.
         23    2    1    0    0    0  0.27405859318E+02 -0.61422701882E+01  0.56230783058E+01  0.96356892319E+02  0.92001212382E+02 0.  0.
         11    1    3    3    0    0  0.20699455883E+02  0.30621982395E+02  0.33381501403E+02  0.49804597336E+02  0.51100000000E-03 0. -1.
         22    1    1    0    0    0 -0.27405859318E+02  0.61422701882E+01 -0.56230783058E+01  0.28643107681E+02  0.00000000000E+00 0. -1.
</event>
<event>
 5    1  0.1692171E-003  0.9118800E+02  0.7818608E-02  0.1130116E+00
         25   -1    0    0    0    0  0.00000000000E+00  0.00000000000E+00  0.99999998245E-14  0.12500000000E+03  0.12500000000E+03 0.  0.
        -11    1    3    3    0    0  0.91931263978E+01 -0.15897594615E+02  0.31994006485E+02  0.36889883962E+02  0.51100000000E-03 0.  1.
         23    2    1    0    0    0 -0.80318688947E+01  0.28311320158E+02 -0.23742885596E+01  0.95475789372E+02  0.90796185730E+02 0.  0.
         11    1    3    3    0    0 -0.17224995292E+02  0.44208914773E+02 -0.34368295045E+02  0.58585905410E+02  0.51100000000E-03 0. -1.
         22    1    1    0    0    0  0.80318688947E+01 -0.28311320158E+02  0.23742885596E+01  0.29524210628E+02  0.00000000000E+00 0. -1.
</event>
<event>
 5    1  0.1692171E-003  0.9118800E+02  0.7818608E-02  0.1130116E+00
         25   -1    0    0    0    0  0.00000000000E+00  0.00000000000E+00  0.99999998245E-14  0.12500000000E+03  0.12500000000E+03 0.  0.
        -11    1    3    3    0    0 -0.19012606127E+02  0.17543470073E+02 -0.48921377704E+02  0.55340344512E+02  0.51100000000E-03 0.  1.
         23    2    1    0    0    0 -0.21064047335E+02  0.17622161778E+02 -0.78862378559E+01  0.96426805860E+02  0.92096153366E+02 0.  0.
         11    1    3    3    0    0 -0.20514412078E+01  0.78691704794E-01  0.41035139848E+02  0.41086461347E+02  0.51100000000E-03 0. -1.
         22    1    1    0    0    0  0.21064047335E+02 -0.17622161778E+02  0.78862378559E+01  0.28573194140E+02  0.00000000000E+00 0.  1.
</event>
<event>
 5    1  0.1692171E-003  0.9118800E+02  0.7818608E-02  0.1130116E+00
         25   -1    0    0    0    0  0.00000000000E+00  0.00000000000E+00  0.99999998245E-14  0.12500000000E+03  0.12500000000E+03 0.  0.
        -11    1    3    3    0    0 -0.32386385199E+02  0.37843988694E+02  0.13852184487E+02  0.51700371777E+02  0.51100000000E-03 0.  1.
         23    2    1    0    0    0 -0.12445007928E+02  0.17398444419E+02 -0.19809351149E+02  0.95845335134E+02  0.91303525581E+02 0.  0.
         11    1    3    3    0    0  0.19941377272E+02 -0.20445544275E+02 -0.33661535636E+02  0.44144963357E+02  0.51100000000E-03 0. -1.
         22    1    1    0    0    0  0.12445007928E+02 -0.17398444419E+02  0.19809351149E+02  0.29154664866E+02  0.00000000000E+00 0.  1.
</event>
<event>
 5    1  0.1692171E-003  0.9118800E+02  0.7818608E-02  0.1130116E+00
         25   -1    0    0    0    0  0.00000000000E+00  0.00000000000E+00  0.99999998245E-14  0.12500000000E+03  0.12500000000E+03 0.  0.
        -11    1    3    3    0    0  0.10674460137E+01  0.33584183795E+02  0.12127022943E+02  0.35722563288E+02  0.51100000000E-03 0.  1.
         23    2    1    0    0    0  0.72517106932E+01 -0.25330960758E+02  0.14338592736E+02  0.95002664743E+02  0.90142477144E+02 0.  0.
         11    1    3    3    0    0  0.61842646796E+01 -0.58915144552E+02  0.22115697927E+01  0.59280101455E+02  0.51100000000E-03 0. -1.
         22    1    1    0    0    0 -0.72517106932E+01  0.25330960758E+02 -0.14338592736E+02  0.29997335257E+02  0.00000000000E+00 0. -1.
</event>
<event>
 5    1  0.1692171E-003  0.9118800E+02  0.7818608E-02  0.1130116E+00
         25   -1    0    0    0    0  0.00000000000E+00  0.00000000000E+00  0.99999998245E-14  0.12500000000E+03  0.12500000000E+03 0.  0.
        -11    1    3    3    0    0 -0.24499967636E+02 -0.44476455645E+01 -0.34499021959E+02  0.42546591892E+02  0.51100000000E-03 0.  1.
         23    2    1    0    0    0  0.13356033457E+02 -0.26449750777E+02 -0.60633373206E+01  0.94755380555E+02  0.89798915020E+02 0.  0.
         11    1    3    3    0    0  0.37856001093E+02 -0.22002105213E+02  0.28435684639E+02  0.52208788663E+02  0.51100000000E-03 0. -1.
         22    1    1    0    0    0 -0.13356033457E+02  0.26449750777E+02  0.60633373206E+01  0.30244619445E+02  0.00000000000E+00 0. -1.
</event>
<event>
 5    1  0.1692171E-003  0.9118800E+02  0.7818608E-02  0.1130116E+00
         25   -1    0    0    0    0  0.00000000000E+00  0.00000000000E+00  0.99999998245E-14  0.12500000000E+03  0.12500000000E+03 0.  0.
        -11    1    3    3    0    0  0.19524119889E+02  0.29835824145E+02  0.75709613816E+01  0.36451160700E+02  0.51100000000E-03 0.  1.
         23    2    1    0    0    0 -0.18174924038E+02 -0.94959311744E+01 -0.18980455886E+02  0.97057947851E+02  0.92948840567E+02 0.  0.
         11    1    3    3    0    0 -0.37699043927E+02 -0.39331755320E+02 -0.26551417268E+02  0.60606787151E+02  0.51100000000E-03 0. -1.
         22    1    1    0    0    0  0.18174924038E+02  0.94959311744E+01  0.18980455886E+02  0.27942052149E+02  0.00000000000E+00 0. -1.
</event>
<event>
 5    1  0.1692171E-003  0.9118800E+02  0.7818608E-02  0.1130116E+00
         25   -1    0    0    0    0  0.00000000000E+00  0.00000000000E+00  0.99999998245E-14  0.12500000000E+03  0.12500000000E+03 0.  0.
        -11    1    3    3    0    0 -0.28313972717E+02  0.55871699337E+01  0.23116233296E+02  0.36976448733E+02  0.51100000000E-03 0. -1.
         23    2    1    0    0    0 -0.71611044961E+01 -0.12754276300E+02 -0.26948434804E+02  0.94337790036E+02  0.89215735770E+02 0.  0.
         11    1    3    3    0    0  0.21152868221E+02 -0.18341446234E+02 -0.50064668099E+02  0.57361341303E+02  0.51100000000E-03 0.  1.
         22    1    1    0    0    0  0.71611044961E+01  0.12754276300E+02  0.26948434804E+02  0.30662209964E+02  0.00000000000E+00 0.  1.
</event>
<event>
 5    1  0.1692171E-003  0.9118800E+02  0.7818608E-02  0.1130116E+00
         25   -1    0    0    0    0  0.00000000000E+00  0.00000000000E+00  0.99999998245E-14  0.12500000000E+03  0.12500000000E+03 0.  0.
        -11    1    3    3    0    0 -0.41003935234E+02 -0.36940862247E+02  0.38429792791E+01  0.55323760702E+02  0.51100000000E-03 0.  1.
         23    2    1    0    0    0 -0.27322841419E+02  0.27572134903E+01 -0.47240811703E+00  0.97534329448E+02  0.93587298081E+02 0.  0.
         11    1    3    3    0    0  0.13681093815E+02  0.39698075737E+02 -0.43153873961E+01  0.42210568746E+02  0.51100000000E-03 0. -1.
         22    1    1    0    0    0  0.27322841419E+02 -0.27572134903E+01  0.47240811703E+00  0.27465670552E+02  0.00000000000E+00 0.  1.
</event>
<event>
 5    1  0.1692171E-003  0.9118800E+02  0.7818608E-02  0.1130116E+00
         25   -1    0    0    0    0  0.00000000000E+00  0.00000000000E+00  0.99999998245E-14  0.12500000000E+03  0.12500000000E+03 0.  0.
        -11    1    3    3    0    0  0.61284876824E+02 -0.53447797410E+01  0.81655804349E+01  0.62057066495E+02  0.51100000000E-03 0. -1.
         23    2    1    0    0    0  0.28311502678E+02 -0.41928431994E+01  0.88022811848E+01  0.95056699046E+02  0.90217375053E+02 0.  0.
         11    1    3    3    0    0 -0.32973374146E+02  0.11519365416E+01  0.63670074995E+00  0.32999632551E+02  0.51100000000E-03 0.  1.
         22    1    1    0    0    0 -0.28311502678E+02  0.41928431994E+01 -0.88022811848E+01  0.29943300954E+02  0.00000000000E+00 0. -1.
</event>
<event>
 5    1  0.1692171E-003  0.9118800E+02  0.7818608E-02  0.1130116E+00
         25   -1    0    0    0    0  0.00000000000E+00  0.00000000000E+00  0.99999998245E-14  0.12500000000E+03  0.12500000000E+03 0.  0.
        -11    1    3    3    0    0  0.58149762007E+02 -0.14716487733E+02  0.13849773373E+02  0.61561238254E+02  0.51100000000E-03 0.  1.
         23    2    1    0    0    0  0.28526173990E+02 -0.75946711218E+01 -0.10172034207E+01  0.95462628167E+02  0.90778064762E+02 0.  0.
         11    1    3    3    0    0 -0.29623588017E+02  0.71218166114E+01 -0.14866976793E+02  0.33901389913E+02  0.51100000000E-03 0. -1.
         22    1    1    0    0    0 -0.28526173990E+02  0.75946711218E+01  0.10172034207E+01  0.29537371833E+02  0.00000000000E+00 0.  1.
</event>
<event>
 5    1  0.1692171E-003  0.9118800E+02  0.7818608E-02  0.1130116E+00
         25   -1    0    0    0    0  0.00000000000E+00  0.00000000000E+00  0.99999998245E-14  0.12500000000E+03  0.12500000000E+03 0.  0.
        -11    1    3    3    0    0 -0.35799987980E+02  0.30871369251E+02 -0.39969895323E+02  0.61905356079E+02  0.51100000000E-03 0.  1.
         23    2    1    0    0    0 -0.19020367547E+02  0.18916716395E+02 -0.15043399012E+02  0.94244181126E+02  0.89084483954E+02 0.  0.
         11    1    3    3    0    0  0.16779620432E+02 -0.11954652856E+02  0.24926496312E+02  0.32338825047E+02  0.51100000000E-03 0. -1.
         22    1    1    0    0    0  0.19020367547E+02 -0.18916716395E+02  0.15043399012E+02  0.30755818874E+02  0.00000000000E+00 0.  1.
</event>
<event>
 5    1  0.1692171E-003  0.9118800E+02  0.7818608E-02  0.1130116E+00
         25   -1    0    0    0    0  0.00000000000E+00  0.00000000000E+00  0.99999998245E-14  0.12500000000E+03  0.12500000000E+03 0.  0.
        -11    1    3    3    0    0  0.27800352964E+02  0.23718753692E+02 -0.16057978246E+02  0.39916131667E+02  0.51100000000E-03 0.  1.
         23    2    1    0    0    0 -0.22279865289E+02  0.80145112855E+01 -0.21928210033E+02  0.92728167333E+02  0.86931247738E+02 0.  0.
         11    1    3    3    0    0 -0.50080218252E+02 -0.15704242406E+02 -0.58702317865E+01  0.52812035667E+02  0.51100000000E-03 0. -1.
         22    1    1    0    0    0  0.22279865289E+02 -0.80145112855E+01  0.21928210033E+02  0.32271832667E+02  0.00000000000E+00 0. -1.
</event>
<event>
 5    1  0.1692171E-003  0.9118800E+02  0.7818608E-02  0.1130116E+00
         25   -1    0    0    0    0  0.00000000000E+00  0.00000000000E+00  0.99999998245E-14  0.12500000000E+03  0.12500000000E+03 0.  0.
        -11    1    3    3    0    0 -0.26579112518E+02 -0.44683673805E+02  0.30254835147E+02  0.60153428639E+02  0.51100000000E-03 0.  1.
         23    2    1    0    0    0 -0.83106974265E+01 -0.27757957657E+02  0.50473895899E+01  0.95588300854E+02  0.90950949492E+02 0.  0.
         11    1    3    3    0    0  0.18268415092E+02  0.16925716148E+02 -0.25207445557E+02  0.35434872215E+02  0.51100000000E-03 0. -1.
         22    1    1    0    0    0  0.83106974265E+01  0.27757957657E+02 -0.50473895899E+01  0.29411699146E+02  0.00000000000E+00 0.  1.
</event>
<event>
 5    1  0.1692171E-003  0.9118800E+02  0.7818608E-02  0.1130116E+00
         25   -1    0    0    0    0  0.00000000000E+00  0.00000000000E+00  0.99999998245E-14  0.12500000000E+03  0.12500000000E+03 0.  0.
        -11    1    3    3    0    0  0.26087106418E+01  0.33526087779E+02  0.26611556059E+02  0.42883316676E+02  0.51100000000E-03 0.  1.
         23    2    1    0    0    0 -0.29338897819E+02  0.31530711603E+01 -0.19810256512E+01  0.95425733388E+02  0.90727246994E+02 0.  0.
         11    1    3    3    0    0 -0.31947608461E+02 -0.30373016619E+02 -0.28592581710E+02  0.52542416713E+02  0.51100000000E-03 0. -1.
         22    1    1    0    0    0  0.29338897819E+02 -0.31530711603E+01  0.19810256512E+01  0.29574266612E+02  0.00000000000E+00 0. -1.
</event>
<event>
 5    1  0.1692171E-003  0.9118800E+02  0.7818608E-02  0.1130116E+00
         25   -1    0    0    0    0  0.00000000000E+00  0.00000000000E+00  0.99999998245E-14  0.12500000000E+03  0.12500000000E+03 0.  0.
        -11    1    3    3    0    0  0.97246570576E+01  0.44681186676E+02  0.25771490925E+02  0.52489495544E+02  0.51100000000E-03 0. -1.
         23    2    1    0    0    0  0.28266163950E+02  0.14007274551E+02  0.15936108830E+02  0.89656834756E+02  0.82396654599E+02 0.  0.
         11    1    3    3    0    0  0.18541506893E+02 -0.30673912125E+02 -0.98353820957E+01  0.37167339212E+02  0.51100000000E-03 0.  1.
         22    1    1    0    0    0 -0.28266163950E+02 -0.14007274551E+02 -0.15936108830E+02  0.35343165244E+02  0.00000000000E+00 0. -1.
</event>
<event>
 5    1  0.1692171E-003  0.9118800E+02  0.7818608E-02  0.1130116E+00
         25   -1    0    0    0    0  0.00000000000E+00  0.00000000000E+00  0.99999998245E-14  0.12500000000E+03  0.12500000000E+03 0.  0.
        -11    1    3    3    0    0 -0.39408254662E+02 -0.13394022745E+01  0.33440477338E+02  0.51701741352E+02  0.51100000000E-03 0.  1.
         23    2    1    0    0    0 -0.18373674709E+02  0.21101326722E+02  0.15834234581E+00  0.97019953823E+02  0.92897731166E+02 0.  0.
         11    1    3    3    0    0  0.21034579952E+02  0.22440728997E+02 -0.33282134992E+02  0.45318212471E+02  0.51100000000E-03 0. -1.
         22    1    1    0    0    0  0.18373674709E+02 -0.21101326722E+02 -0.15834234581E+00  0.27980046177E+02  0.00000000000E+00 0.  1.
</event>
<event>
 5    1  0.1692171E-003  0.9118800E+02  0.7818608E-02  0.1130116E+00
         25   -1    0    0    0    0  0.00000000000E+00  0.00000000000E+00  0.99999998245E-14  0.12500000000E+03  0.12500000000E+03 0.  0.
        -11    1    3    3    0    0 -0.23083914509E+02 -0.34165178552E+02 -0.64378297680E+01  0.41732148123E+02  0.51100000000E-03 0.  1.
         23    2    1    0    0    0  0.22352026682E+02 -0.29133139766E+02 -0.77772238962E+01  0.87465507317E+02  0.79002384959E+02 0.  0.
         11    1    3    3    0    0  0.45435941192E+02  0.50320387855E+01 -0.13393941282E+01  0.45733359194E+02  0.51100000000E-03 0. -1.
         22    1    1    0    0    0 -0.22352026682E+02  0.29133139766E+02  0.77772238962E+01  0.37534492683E+02  0.00000000000E+00 0. -1.
</event>
<event>
 5    1  0.1692171E-003  0.9118800E+02  0.7818608E-02  0.1130116E+00
         25   -1    0    0    0    0  0.00000000000E+00  0.00000000000E+00  0.99999998245E-14  0.12500000000E+03  0.12500000000E+03 0.  0.
        -11    1    3    3    0    0 -0.39545699519E+02  0.11260132009E+01  0.34180234637E+02  0.52282106846E+02  0.51100000000E-03 0.  1.
         23    2    1    0    0    0 -0.11462408933E+02  0.24774053818E+02  0.17229227962E+02  0.92720178791E+02  0.86919760111E+02 0.  0.
         11    1    3    3    0    0  0.28083290586E+02  0.23648040617E+02 -0.16951006674E+02  0.40438071946E+02  0.51100000000E-03 0. -1.
         22    1    1    0    0    0  0.11462408933E+02 -0.24774053818E+02 -0.17229227962E+02  0.32279821209E+02  0.00000000000E+00 0.  1.
</event>
<event>
 5    1  0.1692171E-003  0.9118800E+02  0.7818608E-02  0.1130116E+00
         25   -1    0    0    0    0  0.00000000000E+00  0.00000000000E+00  0.99999998245E-14  0.12500000000E+03  0.12500000000E+03 0.  0.
        -11    1    3    3    0    0 -0.18926785059E+02 -0.28001280914E+02  0.21011654122E+02  0.39796790508E+02  0.51100000000E-03 0.  1.
         23    2    1    0    0    0 -0.18396892878E+02  0.18170494357E+02 -0.11935297085E+02  0.96520817265E+02  0.92223664622E+02 0.  0.
         11    1    3    3    0    0  0.52989218177E+00  0.46171775271E+02 -0.32946951208E+02  0.56724026757E+02  0.51100000000E-03 0. -1.
         22    1    1    0    0    0  0.18396892878E+02 -0.18170494357E+02  0.11935297085E+02  0.28479182735E+02  0.00000000000E+00 0. -1.
</event>
<event>
 5    1  0.1692171E-003  0.9118800E+02  0.7818608E-02  0.1130116E+00
         25   -1    0    0    0    0  0.00000000000E+00  0.00000000000E+00  0.99999998245E-14  0.12500000000E+03  0.12500000000E+03 0.  0.
        -11    1    3    3    0    0 -0.45937150628E+02  0.53328706430E+01 -0.35589392237E+02  0.58354658401E+02  0.51100000000E-03 0.  1.
         23    2    1    0    0    0 -0.10945828522E+02  0.82954455120E+01 -0.27305554729E+02  0.94435005360E+02  0.89351840161E+02 0.  0.
         11    1    3    3    0    0  0.34991322106E+02  0.29625748691E+01  0.82838375079E+01  0.36080346959E+02  0.51100000000E-03 0. -1.
         22    1    1    0    0    0  0.10945828522E+02 -0.82954455120E+01  0.27305554729E+02  0.30564994640E+02  0.00000000000E+00 0.  1.
</event>
<event>
 5    1  0.1692171E-003  0.9118800E+02  0.7818608E-02  0.1130116E+00
         25   -1    0    0    0    0  0.00000000000E+00  0.00000000000E+00  0.99999998245E-14  0.12500000000E+03  0.12500000000E+03 0.  0.
        -11    1    3    3    0    0  0.13929983660E+02 -0.19385328445E+02 -0.26375595612E+02  0.35573971494E+02  0.51100000000E-03 0. -1.
         23    2    1    0    0    0  0.17087316697E+01  0.33477099626E+01  0.28519520612E+02  0.96233874403E+02  0.91833918575E+02 0.  0.
         11    1    3    3    0    0 -0.12221251990E+02  0.22733038408E+02  0.54895116224E+02  0.60659902909E+02  0.51100000000E-03 0.  1.
         22    1    1    0    0    0 -0.17087316697E+01 -0.33477099626E+01 -0.28519520612E+02  0.28766125597E+02  0.00000000000E+00 0.  1.
</event>
<event>
 5    1  0.1692171E-003  0.9118800E+02  0.7818608E-02  0.1130116E+00
         25   -1    0    0    0    0  0.00000000000E+00  0.00000000000E+00  0.99999998245E-14  0.12500000000E+03  0.12500000000E+03 0.  0.
        -11    1    3    3    0    0 -0.10677979462E+02  0.49927618586E+01  0.41973636036E+02  0.43597397155E+02  0.51100000000E-03 0. -1.
         23    2    1    0    0    0  0.21938968950E+02  0.17643951737E+02  0.19161516458E+01  0.96781229144E+02  0.92575954146E+02 0.  0.
         11    1    3    3    0    0  0.32616948412E+02  0.12651189878E+02 -0.40057484390E+02  0.53183831989E+02  0.51100000000E-03 0.  1.
         22    1    1    0    0    0 -0.21938968950E+02 -0.17643951737E+02 -0.19161516458E+01  0.28218770856E+02  0.00000000000E+00 0.  1.
</event>
<event>
 5    1  0.1692171E-003  0.9118800E+02  0.7818608E-02  0.1130116E+00
         25   -1    0    0    0    0  0.00000000000E+00  0.00000000000E+00  0.99999998245E-14  0.12500000000E+03  0.12500000000E+03 0.  0.
        -11    1    3    3    0    0 -0.14097942543E+02  0.13351096416E+02  0.76933452765E+01  0.20885193828E+02  0.51100000000E-03 0.  1.
         23    2    1    0    0    0  0.41131147651E+02  0.19019608206E+02  0.15832970938E+02  0.76997919085E+02  0.60203652475E+02 0.  0.
         11    1    3    3    0    0  0.55229090194E+02  0.56685117899E+01  0.81396256611E+01  0.56112725257E+02  0.51100000000E-03 0. -1.
         22    1    1    0    0    0 -0.41131147651E+02 -0.19019608206E+02 -0.15832970938E+02  0.48002080915E+02  0.00000000000E+00 0. -1.
</event>
<event>
 5    1  0.1692171E-003  0.9118800E+02  0.7818608E-02  0.1130116E+00
         25   -1    0    0    0    0  0.00000000000E+00  0.00000000000E+00  0.99999998245E-14  0.12500000000E+03  0.12500000000E+03 0.  0.
        -11    1    3    3    0    0 -0.42470063127E-01 -0.28395950637E+02 -0.39349978984E+02  0.48525793786E+02  0.51100000000E-03 0. -1.
         23    2    1    0    0    0 -0.24086707322E+02  0.47889889358E+01 -0.15964145748E+02  0.95709082737E+02  0.91116796939E+02 0.  0.
         11    1    3    3    0    0 -0.24044237259E+02  0.33184939573E+02  0.23385833236E+02  0.47183288951E+02  0.51100000000E-03 0.  1.
         22    1    1    0    0    0  0.24086707322E+02 -0.47889889358E+01  0.15964145748E+02  0.29290917263E+02  0.00000000000E+00 0.  1.
</event>
<event>
 5    1  0.1692171E-003  0.9118800E+02  0.7818608E-02  0.1130116E+00
         25   -1    0    0    0    0  0.00000000000E+00  0.00000000000E+00  0.99999998245E-14  0.12500000000E+03  0.12500000000E+03 0.  0.
        -11    1    3    3    0    0 -0.72357562747E+01 -0.31634265236E+02  0.39049178979E+02  0.50773233944E+02  0.51100000000E-03 0.  1.
         23    2    1    0    0    0  0.69618587509E+01 -0.28354542756E+02 -0.33549668909E+01  0.95611169213E+02  0.90982373586E+02 0.  0.
         11    1    3    3    0    0  0.14197615026E+02  0.32797224794E+01 -0.42404145870E+02  0.44837935269E+02  0.51100000000E-03 0. -1.
         22    1    1    0    0    0 -0.69618587509E+01  0.28354542756E+02  0.33549668909E+01  0.29388830787E+02  0.00000000000E+00 0.  1.
</event>
<event>
 5    1  0.1692171E-003  0.9118800E+02  0.7818608E-02  0.1130116E+00
         25   -1    0    0    0    0  0.00000000000E+00  0.00000000000E+00  0.99999998245E-14  0.12500000000E+03  0.12500000000E+03 0.  0.
        -11    1    3    3    0    0  0.24042420752E+02 -0.12272445579E+02  0.17586208945E+02  0.32216853686E+02  0.51100000000E-03 0.  1.
         23    2    1    0    0    0  0.10163540517E+02  0.23419123146E+02 -0.24846927505E+02  0.89375251703E+02  0.81968365397E+02 0.  0.
         11    1    3    3    0    0 -0.13878880235E+02  0.35691568725E+02 -0.42433136450E+02  0.57158398017E+02  0.51100000000E-03 0. -1.
         22    1    1    0    0    0 -0.10163540517E+02 -0.23419123146E+02  0.24846927505E+02  0.35624748297E+02  0.00000000000E+00 0. -1.
</event>
<event>
 5    1  0.1692171E-003  0.9118800E+02  0.7818608E-02  0.1130116E+00
         25   -1    0    0    0    0  0.00000000000E+00  0.00000000000E+00  0.99999998245E-14  0.12500000000E+03  0.12500000000E+03 0.  0.
        -11    1    3    3    0    0  0.25421388369E+02  0.40460743908E+02  0.77892780418E+01  0.48414787379E+02  0.51100000000E-03 0.  1.
         23    2    1    0    0    0  0.25397418710E+02 -0.83113301532E+01  0.77110161400E+01  0.97186930124E+02  0.93122137706E+02 0.  0.
         11    1    3    3    0    0 -0.23969659868E-01 -0.48772074061E+02 -0.78261901891E-01  0.48772142745E+02  0.51100000000E-03 0. -1.
         22    1    1    0    0    0 -0.25397418710E+02  0.83113301532E+01 -0.77110161400E+01  0.27813069876E+02  0.00000000000E+00 0. -1.
</event>
<event>
 5    1  0.1692171E-003  0.9118800E+02  0.7818608E-02  0.1130116E+00
         25   -1    0    0    0    0  0.00000000000E+00  0.00000000000E+00  0.99999998245E-14  0.12500000000E+03  0.12500000000E+03 0.  0.
        -11    1    3    3    0    0 -0.89300387763E+01 -0.43988324044E+02 -0.24992167713E+02  0.51374377777E+02  0.51100000000E-03 0.  1.
         23    2    1    0    0    0 -0.39136538086E+01 -0.22658170262E+02  0.15398886446E+02  0.97326274744E+02  0.93308995740E+02 0.  0.
         11    1    3    3    0    0  0.50163849677E+01  0.21330153783E+02  0.40391054159E+02  0.45951896967E+02  0.51100000000E-03 0. -1.
         22    1    1    0    0    0  0.39136538086E+01  0.22658170262E+02 -0.15398886446E+02  0.27673725256E+02  0.00000000000E+00 0.  1.
</event>
<event>
 5    1  0.1692171E-003  0.9118800E+02  0.7818608E-02  0.1130116E+00
         25   -1    0    0    0    0  0.00000000000E+00  0.00000000000E+00  0.99999998245E-14  0.12500000000E+03  0.12500000000E+03 0.  0.
        -11    1    3    3    0    0  0.32407594315E+02  0.27276782612E+02  0.41154616647E+02  0.59059101843E+02  0.51100000000E-03 0.  1.
         23    2    1    0    0    0  0.14226433644E+02 -0.31832041013E+00  0.25882757201E+02  0.95463414848E+02  0.90779148002E+02 0.  0.
         11    1    3    3    0    0 -0.18181160672E+02 -0.27595103022E+02 -0.15271859446E+02  0.36404313005E+02  0.51100000000E-03 0. -1.
         22    1    1    0    0    0 -0.14226433644E+02  0.31832041013E+00 -0.25882757201E+02  0.29536585152E+02  0.00000000000E+00 0.  1.
</event>
<event>
 5    1  0.1692171E-003  0.9118800E+02  0.7818608E-02  0.1130116E+00
         25   -1    0    0    0    0  0.00000000000E+00  0.00000000000E+00  0.99999998245E-14  0.12500000000E+03  0.12500000000E+03 0.  0.
        -11    1    3    3    0    0  0.24823159662E+02  0.22629785448E+02 -0.17594897118E+02  0.37919346644E+02  0.51100000000E-03 0.  1.
         23    2    1    0    0    0 -0.24888827456E+02 -0.75327263396E+01 -0.12080509562E+02  0.96327113687E+02  0.91960743917E+02 0.  0.
         11    1    3    3    0    0 -0.49711987118E+02 -0.30162511787E+02  0.55143875556E+01  0.58407767043E+02  0.51100000000E-03 0. -1.
         22    1    1    0    0    0  0.24888827456E+02  0.75327263396E+01  0.12080509562E+02  0.28672886313E+02  0.00000000000E+00 0. -1.
</event>
<event>
 5    1  0.1692171E-003  0.9118800E+02  0.7818608E-02  0.1130116E+00
         25   -1    0    0    0    0  0.00000000000E+00  0.00000000000E+00  0.99999998245E-14  0.12500000000E+03  0.12500000000E+03 0.  0.
        -11    1    3    3    0    0  0.53573074185E+02  0.13933281767E+02 -0.60561729832E+01  0.55685616184E+02  0.51100000000E-03 0. -1.
         23    2    1    0    0    0  0.24084211435E+02 -0.32250698182E+01  0.15626298412E+02  0.96110010076E+02  0.91665165242E+02 0.  0.
         11    1    3    3    0    0 -0.29488862750E+02 -0.17158351585E+02  0.21682471395E+02  0.40424393891E+02  0.51100000000E-03 0.  1.
         22    1    1    0    0    0 -0.24084211435E+02  0.32250698182E+01 -0.15626298412E+02  0.28889989924E+02  0.00000000000E+00 0. -1.
</event>
<event>
 5    1  0.1692171E-003  0.9118800E+02  0.7818608E-02  0.1130116E+00
         25   -1    0    0    0    0  0.00000000000E+00  0.00000000000E+00  0.99999998245E-14  0.12500000000E+03  0.12500000000E+03 0.  0.
        -11    1    3    3    0    0 -0.40160965743E+01 -0.19065596457E+02 -0.31110511373E+02  0.36708172361E+02  0.51100000000E-03 0.  1.
         23    2    1    0    0    0 -0.15274644345E+02  0.14061352180E+02  0.18349175844E+02  0.97292083457E+02  0.93263180647E+02 0.  0.
         11    1    3    3    0    0 -0.11258547770E+02  0.33126948637E+02  0.49459687217E+02  0.60583911096E+02  0.51100000000E-03 0. -1.
         22    1    1    0    0    0  0.15274644345E+02 -0.14061352180E+02 -0.18349175844E+02  0.27707916543E+02  0.00000000000E+00 0. -1.
</event>
<event>
 5    1  0.1692171E-003  0.9118800E+02  0.7818608E-02  0.1130116E+00
         25   -1    0    0    0    0  0.00000000000E+00  0.00000000000E+00  0.99999998245E-14  0.12500000000E+03  0.12500000000E+03 0.  0.
        -11    1    3    3    0    0  0.44662763826E+02 -0.92094039956E+01  0.35899325053E+02  0.58037377043E+02  0.51100000000E-03 0.  1.
         23    2    1    0    0    0  0.17242188250E+02 -0.19586732752E+02  0.10345094640E+02  0.96929479188E+02  0.92775911728E+02 0.  0.
         11    1    3    3    0    0 -0.27420575576E+02 -0.10377328756E+02 -0.25554230412E+02  0.38892102145E+02  0.51100000000E-03 0. -1.
         22    1    1    0    0    0 -0.17242188250E+02  0.19586732752E+02 -0.10345094640E+02  0.28070520812E+02  0.00000000000E+00 0.  1.
</event>
<event>
 5    1  0.1692171E-003  0.9118800E+02  0.7818608E-02  0.1130116E+00
         25   -1    0    0    0    0  0.00000000000E+00  0.00000000000E+00  0.99999998245E-14  0.12500000000E+03  0.12500000000E+03 0.  0.
        -11    1    3    3    0    0  0.89290002941E+01  0.41849079596E+02  0.17929309289E+02  0.46395394611E+02  0.51100000000E-03 0. -1.
         23    2    1    0    0    0  0.25838268873E+02  0.13544978303E+02 -0.14307823552E+02  0.92506979358E+02  0.86612613629E+02 0.  0.
         11    1    3    3    0    0  0.16909268579E+02 -0.28304101293E+02 -0.32237132841E+02  0.46111584747E+02  0.51100000000E-03 0.  1.
         22    1    1    0    0    0 -0.25838268873E+02 -0.13544978303E+02  0.14307823552E+02  0.32493020642E+02  0.00000000000E+00 0. -1.
</event>
<event>
 5    1  0.1692171E-003  0.9118800E+02  0.7818608E-02  0.1130116E+00
         25   -1    0    0    0    0  0.00000000000E+00  0.00000000000E+00  0.99999998245E-14  0.12500000000E+03  0.12500000000E+03 0.  0.
        -11    1    3    3    0    0 -0.18872362521E+02  0.40575903451E+02 -0.23912318951E+02  0.50738240074E+02  0.51100000000E-03 0.  1.
         23    2    1    0    0    0 -0.45015081454E+01  0.28262883887E+02  0.14021573614E+02  0.93130599193E+02  0.87507998481E+02 0.  0.
         11    1    3    3    0    0  0.14370854375E+02 -0.12313019564E+02  0.37933892565E+02  0.42392359119E+02  0.51100000000E-03 0. -1.
         22    1    1    0    0    0  0.45015081454E+01 -0.28262883887E+02 -0.14021573614E+02  0.31869400807E+02  0.00000000000E+00 0.  1.
</event>
<event>
 5    1  0.1692171E-003  0.9118800E+02  0.7818608E-02  0.1130116E+00
         25   -1    0    0    0    0  0.00000000000E+00  0.00000000000E+00  0.99999998245E-14  0.12500000000E+03  0.12500000000E+03 0.  0.
        -11    1    3    3    0    0  0.36408362129E+02 -0.12853361385E+02 -0.10922541371E+01  0.38626037218E+02  0.51100000000E-03 0.  1.
         23    2    1    0    0    0 -0.63827121566E+01  0.25454954170E+02 -0.10328944136E+02  0.96797503777E+02  0.92597926241E+02 0.  0.
         11    1    3    3    0    0 -0.42791074286E+02  0.38308315554E+02 -0.92366899990E+01  0.58171466558E+02  0.51100000000E-03 0. -1.
         22    1    1    0    0    0  0.63827121566E+01 -0.25454954170E+02  0.10328944136E+02  0.28202496223E+02  0.00000000000E+00 0. -1.
</event>
<event>
 5    1  0.1692171E-003  0.9118800E+02  0.7818608E-02  0.1130116E+00
         25   -1    0    0    0    0  0.00000000000E+00  0.00000000000E+00  0.99999998245E-14  0.12500000000E+03  0.12500000000E+03 0.  0.
        -11    1    3    3    0    0  0.29560472934E+02  0.26223323076E+01 -0.53589029334E+02  0.61257507720E+02  0.51100000000E-03 0.  1.
         23    2    1    0    0    0  0.14558878623E+02  0.96444737456E+01 -0.22143621976E+02  0.96798638068E+02  0.92599457434E+02 0.  0.
         11    1    3    3    0    0 -0.15001594311E+02  0.70221414381E+01  0.31445407358E+02  0.35541130348E+02  0.51100000000E-03 0. -1.
         22    1    1    0    0    0 -0.14558878623E+02 -0.96444737456E+01  0.22143621976E+02  0.28201361932E+02  0.00000000000E+00 0.  1.
</event>
<event>
 5    1  0.1692171E-003  0.9118800E+02  0.7818608E-02  0.1130116E+00
         25   -1    0    0    0    0  0.00000000000E+00  0.00000000000E+00  0.99999998245E-14  0.12500000000E+03  0.12500000000E+03 0.  0.
        -11    1    3    3    0    0  0.31809209742E+02 -0.23087348831E+02  0.31284166935E+02  0.50234953982E+02  0.51100000000E-03 0.  1.
         23    2    1    0    0    0  0.32446750009E+02  0.99825277782E+01  0.98368667908E+01  0.89655885989E+02  0.82395215257E+02 0.  0.
         11    1    3    3    0    0  0.63754026708E+00  0.33069876610E+02 -0.21447300145E+02  0.39420932007E+02  0.51100000000E-03 0. -1.
         22    1    1    0    0    0 -0.32446750009E+02 -0.99825277782E+01 -0.98368667908E+01  0.35344114011E+02  0.00000000000E+00 0.  1.
</event>
<event>
 5    1  0.1692171E-003  0.9118800E+02  0.7818608E-02  0.1130116E+00
         25   -1    0    0    0    0  0.00000000000E+00  0.00000000000E+00  0.99999998245E-14  0.12500000000E+03  0.12500000000E+03 0.  0.
        -11    1    3    3    0    0 -0.19638544512E+02 -0.31143554575E+02  0.13496549675E+02  0.39214159120E+02  0.51100000000E-03 0.  1.
         23    2    1    0    0    0  0.22488219715E+02  0.76117482093E+00 -0.13709826865E+02  0.98651209406E+02  0.95067356919E+02 0.  0.
         11    1    3    3    0    0  0.42126764227E+02  0.31904729395E+02 -0.27206376540E+02  0.59437050287E+02  0.51100000000E-03 0. -1.
         22    1    1    0    0    0 -0.22488219715E+02 -0.76117482093E+00  0.13709826865E+02  0.26348790594E+02  0.00000000000E+00 0. -1.
</event>
<event>
 5    1  0.1692171E-003  0.9118800E+02  0.7818608E-02  0.1130116E+00
         25   -1    0    0    0    0  0.00000000000E+00  0.00000000000E+00  0.99999998245E-14  0.12500000000E+03  0.12500000000E+03 0.  0.
        -11    1    3    3    0    0 -0.48777729557E+02 -0.20904906288E+02 -0.19722202079E+02  0.56614903186E+02  0.51100000000E-03 0. -1.
         23    2    1    0    0    0 -0.28205984573E+02  0.29848283912E+01  0.43816692540E+01  0.96300073315E+02  0.91923981249E+02 0.  0.
         11    1    3    3    0    0  0.20571744983E+02  0.23889734679E+02  0.24103871333E+02  0.39685170129E+02  0.51100000000E-03 0.  1.
         22    1    1    0    0    0  0.28205984573E+02 -0.29848283912E+01 -0.43816692540E+01  0.28699926685E+02  0.00000000000E+00 0. -1.
</event>
<event>
 5    1  0.1692171E-003  0.9118800E+02  0.7818608E-02  0.1130116E+00
         25   -1    0    0    0    0  0.00000000000E+00  0.00000000000E+00  0.99999998245E-14  0.12500000000E+03  0.12500000000E+03 0.  0.
        -11    1    3    3    0    0  0.97288639665E+01 -0.14070480288E+02  0.33375064384E+02  0.37503654922E+02  0.51100000000E-03 0.  1.
         23    2    1    0    0    0 -0.80634596485E+01 -0.70436353682E+01 -0.24395163854E+02  0.98358750026E+02  0.94682033705E+02 0.  0.
         11    1    3    3    0    0 -0.17792323615E+02  0.70268449200E+01 -0.57770228238E+02  0.60855095104E+02  0.51100000000E-03 0. -1.
         22    1    1    0    0    0  0.80634596485E+01  0.70436353682E+01  0.24395163854E+02  0.26641249974E+02  0.00000000000E+00 0. -1.
</event>
<event>
 5    1  0.1692171E-003  0.9118800E+02  0.7818608E-02  0.1130116E+00
         25   -1    0    0    0    0  0.00000000000E+00  0.00000000000E+00  0.99999998245E-14  0.12500000000E+03  0.12500000000E+03 0.  0.
        -11    1    3    3    0    0 -0.38824641445E+02 -0.18577931249E+02 -0.39755934643E+02  0.58592035742E+02  0.51100000000E-03 0. -1.
         23    2    1    0    0    0 -0.17713207011E+02  0.60296516194E+01 -0.23791916836E+02  0.94731704574E+02  0.89765952028E+02 0.  0.
         11    1    3    3    0    0  0.21111434434E+02  0.24607582868E+02  0.15964017807E+02  0.36139668832E+02  0.51100000000E-03 0.  1.
         22    1    1    0    0    0  0.17713207011E+02 -0.60296516194E+01  0.23791916836E+02  0.30268295426E+02  0.00000000000E+00 0. -1.
</event>
<event>
 5    1  0.1692171E-003  0.9118800E+02  0.7818608E-02  0.1130116E+00
         25   -1    0    0    0    0  0.00000000000E+00  0.00000000000E+00  0.99999998245E-14  0.12500000000E+03  0.12500000000E+03 0.  0.
        -11    1    3    3    0    0 -0.81760642690E+01 -0.33868753512E+02 -0.43745368422E+02  0.55924929593E+02  0.51100000000E-03 0. -1.
         23    2    1    0    0    0  0.15306378162E+02 -0.70284127543E+01 -0.20382789464E+02  0.98558708340E+02  0.94945653324E+02 0.  0.
         11    1    3    3    0    0  0.23482442431E+02  0.26840340758E+02  0.23362578957E+02  0.42633778747E+02  0.51100000000E-03 0.  1.
         22    1    1    0    0    0 -0.15306378162E+02  0.70284127543E+01  0.20382789464E+02  0.26441291660E+02  0.00000000000E+00 0. -1.
</event>
<event>
 5    1  0.1692171E-003  0.9118800E+02  0.7818608E-02  0.1130116E+00
         25   -1    0    0    0    0  0.00000000000E+00  0.00000000000E+00  0.99999998245E-14  0.12500000000E+03  0.12500000000E+03 0.  0.
        -11    1    3    3    0    0  0.35841706914E+02  0.39693708829E+02 -0.27791364930E+02  0.60270875554E+02  0.51100000000E-03 0.  1.
         23    2    1    0    0    0  0.17887678656E+02  0.98942324504E+01 -0.20953978886E+02  0.95726562986E+02  0.91140774335E+02 0.  0.
         11    1    3    3    0    0 -0.17954028258E+02 -0.29799476378E+02  0.68373860442E+01  0.35455687432E+02  0.51100000000E-03 0. -1.
         22    1    1    0    0    0 -0.17887678656E+02 -0.98942324504E+01  0.20953978886E+02  0.29273437014E+02  0.00000000000E+00 0.  1.
</event>
<event>
 5    1  0.1692171E-003  0.9118800E+02  0.7818608E-02  0.1130116E+00
         25   -1    0    0    0    0  0.00000000000E+00  0.00000000000E+00  0.99999998245E-14  0.12500000000E+03  0.12500000000E+03 0.  0.
        -11    1    3    3    0    0  0.11385322771E+01  0.22997182902E+02  0.30275734915E+02  0.38036650774E+02  0.51100000000E-03 0. -1.
         23    2    1    0    0    0 -0.19096775357E+02 -0.85061589565E+01 -0.16795507486E+02  0.98183388713E+02  0.94450236517E+02 0.  0.
         11    1    3    3    0    0 -0.20235307634E+02 -0.31503341858E+02 -0.47071242401E+02  0.60146737939E+02  0.51100000000E-03 0.  1.
         22    1    1    0    0    0  0.19096775357E+02  0.85061589565E+01  0.16795507486E+02  0.26816611287E+02  0.00000000000E+00 0.  1.
</event>
<event>
 5    1  0.1692171E-003  0.9118800E+02  0.7818608E-02  0.1130116E+00
         25   -1    0    0    0    0  0.00000000000E+00  0.00000000000E+00  0.99999998245E-14  0.12500000000E+03  0.12500000000E+03 0.  0.
        -11    1    3    3    0    0 -0.37003358700E+02  0.13304001706E+02  0.16554543986E+02  0.42664949822E+02  0.51100000000E-03 0. -1.
         23    2    1    0    0    0  0.72501117084E+01 -0.14805632395E+02  0.24274688104E+02  0.95656664250E+02  0.91044857419E+02 0.  0.
         11    1    3    3    0    0  0.44253470408E+02 -0.28109634101E+02  0.77201441183E+01  0.52991714427E+02  0.51100000000E-03 0.  1.
         22    1    1    0    0    0 -0.72501117084E+01  0.14805632395E+02 -0.24274688104E+02  0.29343335750E+02  0.00000000000E+00 0.  1.
</event>
<event>
 5    1  0.1692171E-003  0.9118800E+02  0.7818608E-02  0.1130116E+00
         25   -1    0    0    0    0  0.00000000000E+00  0.00000000000E+00  0.99999998245E-14  0.12500000000E+03  0.12500000000E+03 0.  0.
        -11    1    3    3    0    0  0.13254538213E+02  0.46265341641E+02 -0.19541276682E+02  0.51942527037E+02  0.51100000000E-03 0.  1.
         23    2    1    0    0    0  0.23969973204E+02  0.14489839044E+02  0.85793000029E+01  0.95706324242E+02  0.91113012574E+02 0.  0.
         11    1    3    3    0    0  0.10715434991E+02 -0.31775502597E+02  0.28120576685E+02  0.43763797204E+02  0.51100000000E-03 0. -1.
         22    1    1    0    0    0 -0.23969973204E+02 -0.14489839044E+02 -0.85793000029E+01  0.29293675758E+02  0.00000000000E+00 0.  1.
</event>
<event>
 5    1  0.1692171E-003  0.9118800E+02  0.7818608E-02  0.1130116E+00
         25   -1    0    0    0    0  0.00000000000E+00  0.00000000000E+00  0.99999998245E-14  0.12500000000E+03  0.12500000000E+03 0.  0.
        -11    1    3    3    0    0  0.23714379661E+02 -0.21635046944E+02 -0.21174893969E+02  0.38455470272E+02  0.51100000000E-03 0.  1.
         23    2    1    0    0    0  0.35377886861E+01 -0.98731264543E+00  0.28690822255E+02  0.96075027801E+02  0.91617448940E+02 0.  0.
         11    1    3    3    0    0 -0.20176590975E+02  0.20647734299E+02  0.49865716224E+02  0.57619557529E+02  0.51100000000E-03 0. -1.
         22    1    1    0    0    0 -0.35377886861E+01  0.98731264543E+00 -0.28690822255E+02  0.28924972199E+02  0.00000000000E+00 0. -1.
</event>
<event>
 5    1  0.1692171E-003  0.9118800E+02  0.7818608E-02  0.1130116E+00
         25   -1    0    0    0    0  0.00000000000E+00  0.00000000000E+00  0.99999998245E-14  0.12500000000E+03  0.12500000000E+03 0.  0.
        -11    1    3    3    0    0  0.17157960069E+01 -0.27754188552E+01 -0.59458233543E+02  0.59547698882E+02  0.51100000000E-03 0. -1.
         23    2    1    0    0    0  0.11099666797E+02  0.70543365443E+01 -0.22330128342E+02  0.99084736180E+02  0.95635683952E+02 0.  0.
         11    1    3    3    0    0  0.93838707903E+01  0.98297553994E+01  0.37128105201E+02  0.39537037298E+02  0.51100000000E-03 0.  1.
         22    1    1    0    0    0 -0.11099666797E+02 -0.70543365443E+01  0.22330128342E+02  0.25915263820E+02  0.00000000000E+00 0. -1.
</event>
<event>
 5    1  0.1692171E-003  0.9118800E+02  0.7818608E-02  0.1130116E+00
         25   -1    0    0    0    0  0.00000000000E+00  0.00000000000E+00  0.99999998245E-14  0.12500000000E+03  0.12500000000E+03 0.  0.
        -11    1    3    3    0    0 -0.33190353540E+00  0.35963070405E+02 -0.68856771855E+01  0.36617825488E+02  0.51100000000E-03 0. -1.
         23    2    1    0    0    0  0.18909635479E+02 -0.12551486861E+02  0.19479947508E+02  0.95090428099E+02  0.90264095989E+02 0.  0.
         11    1    3    3    0    0  0.19241539014E+02 -0.48514557266E+02  0.26365624694E+02  0.58472602611E+02  0.51100000000E-03 0.  1.
         22    1    1    0    0    0 -0.18909635479E+02  0.12551486861E+02 -0.19479947508E+02  0.29909571901E+02  0.00000000000E+00 0.  1.
</event>
<event>
 5    1  0.1692171E-003  0.9118800E+02  0.7818608E-02  0.1130116E+00
         25   -1    0    0    0    0  0.00000000000E+00  0.00000000000E+00  0.99999998245E-14  0.12500000000E+03  0.12500000000E+03 0.  0.
        -11    1    3    3    0    0  0.49094901072E+02  0.31857289928E+01 -0.10359689461E+02  0.50277045920E+02  0.51100000000E-03 0.  1.
         23    2    1    0    0    0  0.99228533078E+01  0.21398850166E+02 -0.19456237174E+02  0.94423555289E+02  0.89335820488E+02 0.  0.
         11    1    3    3    0    0 -0.39172047764E+02  0.18213121173E+02 -0.90965477134E+01  0.44146509369E+02  0.51100000000E-03 0. -1.
         22    1    1    0    0    0 -0.99228533078E+01 -0.21398850166E+02  0.19456237174E+02  0.30576444711E+02  0.00000000000E+00 0.  1.
</event>
<event>
 5    1  0.1692171E-003  0.9118800E+02  0.7818608E-02  0.1130116E+00
         25   -1    0    0    0    0  0.00000000000E+00  0.00000000000E+00  0.99999998245E-14  0.12500000000E+03  0.12500000000E+03 0.  0.
        -11    1    3    3    0    0 -0.10239003009E+01 -0.60405264894E+01  0.43785100938E+02  0.44211665842E+02  0.51100000000E-03 0. -1.
         23    2    1    0    0    0 -0.66799565066E+01 -0.28941039521E+02 -0.14873356189E+01  0.95260838029E+02  0.90499776283E+02 0.  0.
         11    1    3    3    0    0 -0.56560562057E+01 -0.22900513032E+02 -0.45272436557E+02  0.51049172187E+02  0.51100000000E-03 0.  1.
         22    1    1    0    0    0  0.66799565066E+01  0.28941039521E+02  0.14873356189E+01  0.29739161971E+02  0.00000000000E+00 0.  1.
</event>
<event>
 5    1  0.1692171E-003  0.9118800E+02  0.7818608E-02  0.1130116E+00
         25   -1    0    0    0    0  0.00000000000E+00  0.00000000000E+00  0.99999998245E-14  0.12500000000E+03  0.12500000000E+03 0.  0.
        -11    1    3    3    0    0  0.47696856515E+02  0.31134169520E+02  0.97181898474E+01  0.57782089330E+02  0.51100000000E-03 0.  1.
         23    2    1    0    0    0  0.76194041172E+01  0.24081744471E+02  0.79745600800E+01  0.98512656903E+02  0.94885005273E+02 0.  0.
         11    1    3    3    0    0 -0.40077452398E+02 -0.70524250487E+01 -0.17436297674E+01  0.40730567573E+02  0.51100000000E-03 0. -1.
         22    1    1    0    0    0 -0.76194041172E+01 -0.24081744471E+02 -0.79745600800E+01  0.26487343097E+02  0.00000000000E+00 0.  1.
</event>
<event>
 5    1  0.1692171E-003  0.9118800E+02  0.7818608E-02  0.1130116E+00
         25   -1    0    0    0    0  0.00000000000E+00  0.00000000000E+00  0.99999998245E-14  0.12500000000E+03  0.12500000000E+03 0.  0.
        -11    1    3    3    0    0 -0.26573001281E+02  0.21308816116E+02  0.79706320430E+01  0.34981724040E+02  0.51100000000E-03 0.  1.
         23    2    1    0    0    0  0.15918128943E+02 -0.17943271451E+02 -0.14422663621E+02  0.97011412231E+02  0.92886237181E+02 0.  0.
         11    1    3    3    0    0  0.42491130224E+02 -0.39252087567E+02 -0.22393295664E+02  0.62029688191E+02  0.51100000000E-03 0. -1.
         22    1    1    0    0    0 -0.15918128943E+02  0.17943271451E+02  0.14422663621E+02  0.27988587769E+02  0.00000000000E+00 0. -1.
</event>
<event>
 5    1  0.1692171E-003  0.9118800E+02  0.7818608E-02  0.1130116E+00
         25   -1    0    0    0    0  0.00000000000E+00  0.00000000000E+00  0.99999998245E-14  0.12500000000E+03  0.12500000000E+03 0.  0.
        -11    1    3    3    0    0  0.34390103270E+02 -0.10678918695E+02  0.48400702608E+02  0.60326996615E+02  0.51100000000E-03 0. -1.
         23    2    1    0    0    0  0.16539076938E+02 -0.15710836803E+02  0.17985543931E+02  0.95950882122E+02  0.91447911570E+02 0.  0.
         11    1    3    3    0    0 -0.17851026332E+02 -0.50319181080E+01 -0.30415158678E+02  0.35623885507E+02  0.51100000000E-03 0.  1.
         22    1    1    0    0    0 -0.16539076938E+02  0.15710836803E+02 -0.17985543931E+02  0.29049117878E+02  0.00000000000E+00 0. -1.
</event>
<event>
 5    1  0.1692171E-003  0.9118800E+02  0.7818608E-02  0.1130116E+00
         25   -1    0    0    0    0  0.00000000000E+00  0.00000000000E+00  0.99999998245E-14  0.12500000000E+03  0.12500000000E+03 0.  0.
        -11    1    3    3    0    0  0.27678577431E+02 -0.20531367927E+02  0.22923687116E+02  0.41390048910E+02  0.51100000000E-03 0.  1.
         23    2    1    0    0    0 -0.15986572189E+02 -0.31151961923E+02  0.56562026603E+01  0.89531593628E+02  0.82206437747E+02 0.  0.
         11    1    3    3    0    0 -0.43665149620E+02 -0.10620593997E+02 -0.17267484456E+02  0.48141544718E+02  0.51100000000E-03 0. -1.
         22    1    1    0    0    0  0.15986572189E+02  0.31151961923E+02 -0.56562026603E+01  0.35468406372E+02  0.00000000000E+00 0.  1.
</event>
<event>
 5    1  0.1692171E-003  0.9118800E+02  0.7818608E-02  0.1130116E+00
         25   -1    0    0    0    0  0.00000000000E+00  0.00000000000E+00  0.99999998245E-14  0.12500000000E+03  0.12500000000E+03 0.  0.
        -11    1    3    3    0    0  0.41162444799E+02  0.13762079264E+02 -0.23252471686E+02  0.49238390786E+02  0.51100000000E-03 0. -1.
         23    2    1    0    0    0  0.17187260498E+02  0.11939159701E+02  0.18269791117E+02  0.97219958148E+02  0.93166461439E+02 0.  0.
         11    1    3    3    0    0 -0.23975184300E+02 -0.18229195628E+01  0.41522262803E+02  0.47981567362E+02  0.51100000000E-03 0.  1.
         22    1    1    0    0    0 -0.17187260498E+02 -0.11939159701E+02 -0.18269791117E+02  0.27780041852E+02  0.00000000000E+00 0. -1.
</event>
<event>
 5    1  0.1692171E-003  0.9118800E+02  0.7818608E-02  0.1130116E+00
         25   -1    0    0    0    0  0.00000000000E+00  0.00000000000E+00  0.99999998245E-14  0.12500000000E+03  0.12500000000E+03 0.  0.
        -11    1    3    3    0    0  0.48367717122E+02 -0.11251875737E+02 -0.36210279139E+02  0.61459133436E+02  0.51100000000E-03 0.  1.
         23    2    1    0    0    0  0.24292687368E+02  0.25297173710E+01 -0.18328863601E+02  0.94463442067E+02  0.89391613235E+02 0.  0.
         11    1    3    3    0    0 -0.24075029754E+02  0.13781593108E+02  0.17881415539E+02  0.33004308630E+02  0.51100000000E-03 0. -1.
         22    1    1    0    0    0 -0.24292687368E+02 -0.25297173710E+01  0.18328863601E+02  0.30536557933E+02  0.00000000000E+00 0.  1.
</event>
<event>
 5    1  0.1692171E-003  0.9118800E+02  0.7818608E-02  0.1130116E+00
         25   -1    0    0    0    0  0.00000000000E+00  0.00000000000E+00  0.99999998245E-14  0.12500000000E+03  0.12500000000E+03 0.  0.
        -11    1    3    3    0    0 -0.75758167145E+01  0.48954072328E+02  0.32972122152E+02  0.59506764623E+02  0.51100000000E-03 0.  1.
         23    2    1    0    0    0 -0.17340392980E+02  0.38799722967E+02  0.25011477278E+02  0.75687915004E+02  0.57419323847E+02 0.  0.
         11    1    3    3    0    0 -0.97645762656E+01 -0.10154349361E+02 -0.79606448744E+01  0.16181150382E+02  0.51100000000E-03 0. -1.
         22    1    1    0    0    0  0.17340392980E+02 -0.38799722967E+02 -0.25011477278E+02  0.49312084996E+02  0.00000000000E+00 0.  1.
</event>
<event>
 5    1  0.1692171E-003  0.9118800E+02  0.7818608E-02  0.1130116E+00
         25   -1    0    0    0    0  0.00000000000E+00  0.00000000000E+00  0.99999998245E-14  0.12500000000E+03  0.12500000000E+03 0.  0.
        -11    1    3    3    0    0  0.15057522705E+02  0.12435257004E+02 -0.27253312123E+02  0.33527714338E+02  0.51100000000E-03 0.  1.
         23    2    1    0    0    0 -0.16862391736E+02 -0.24182971146E+02  0.90376103184E+01  0.94164391545E+02  0.88972455773E+02 0.  0.
         11    1    3    3    0    0 -0.31919914441E+02 -0.36618228150E+02  0.36290922442E+02  0.60636677207E+02  0.51100000000E-03 0. -1.
         22    1    1    0    0    0  0.16862391736E+02  0.24182971146E+02 -0.90376103184E+01  0.30835608455E+02  0.00000000000E+00 0. -1.
</event>
<event>
 5    1  0.1692171E-003  0.9118800E+02  0.7818608E-02  0.1130116E+00
         25   -1    0    0    0    0  0.00000000000E+00  0.00000000000E+00  0.99999998245E-14  0.12500000000E+03  0.12500000000E+03 0.  0.
        -11    1    3    3    0    0  0.33947938737E+02  0.22685203639E+02  0.38286611816E+02  0.55972722403E+02  0.51100000000E-03 0.  1.
         23    2    1    0    0    0  0.26432512640E+02  0.14010222827E+02  0.91185550296E+00  0.95070156221E+02  0.90236018614E+02 0.  0.
         11    1    3    3    0    0 -0.75154260963E+01 -0.86749808114E+01 -0.37374756313E+02  0.39097433818E+02  0.51100000000E-03 0. -1.
         22    1    1    0    0    0 -0.26432512640E+02 -0.14010222827E+02 -0.91185550296E+00  0.29929843779E+02  0.00000000000E+00 0.  1.
</event>
<event>
 5    1  0.1692171E-003  0.9118800E+02  0.7818608E-02  0.1130116E+00
         25   -1    0    0    0    0  0.00000000000E+00  0.00000000000E+00  0.99999998245E-14  0.12500000000E+03  0.12500000000E+03 0.  0.
        -11    1    3    3    0    0  0.94174951812E+01  0.15258970112E+02  0.55927070136E+02  0.58731274111E+02  0.51100000000E-03 0. -1.
         23    2    1    0    0    0  0.11235512637E+02  0.19117686927E+02  0.19310047716E+02  0.95595907760E+02  0.90961403573E+02 0.  0.
         11    1    3    3    0    0  0.18180174560E+01  0.38587168148E+01 -0.36617022420E+02  0.36864633649E+02  0.51100000000E-03 0.  1.
         22    1    1    0    0    0 -0.11235512637E+02 -0.19117686927E+02 -0.19310047716E+02  0.29404092240E+02  0.00000000000E+00 0. -1.
</event>
<event>
 5    1  0.1692171E-003  0.9118800E+02  0.7818608E-02  0.1130116E+00
         25   -1    0    0    0    0  0.00000000000E+00  0.00000000000E+00  0.99999998245E-14  0.12500000000E+03  0.12500000000E+03 0.  0.
        -11    1    3    3    0    0  0.45079189260E+02 -0.28514285168E+02 -0.71258189113E+01  0.53814264451E+02  0.51100000000E-03 0.  1.
         23    2    1    0    0    0  0.13321479307E+02 -0.95348696119E+01 -0.25163240838E+02  0.94973940669E+02  0.90102636850E+02 0.  0.
         11    1    3    3    0    0 -0.31757709953E+02  0.18979415556E+02 -0.18037421927E+02  0.41159676218E+02  0.51100000000E-03 0. -1.
         22    1    1    0    0    0 -0.13321479307E+02  0.95348696119E+01  0.25163240838E+02  0.30026059331E+02  0.00000000000E+00 0.  1.
</event>
<event>
 5    1  0.1692171E-003  0.9118800E+02  0.7818608E-02  0.1130116E+00
         25   -1    0    0    0    0  0.00000000000E+00  0.00000000000E+00  0.99999998245E-14  0.12500000000E+03  0.12500000000E+03 0.  0.
        -11    1    3    3    0    0  0.22484950157E+02 -0.55813029323E+02  0.89062538406E+01  0.60827531460E+02  0.51100000000E-03 0.  1.
         23    2    1    0    0    0  0.92451361916E+01 -0.23408559714E+02  0.13998458649E+02  0.96200867103E+02  0.91788979599E+02 0.  0.
         11    1    3    3    0    0 -0.13239813965E+02  0.32404469609E+02  0.50922048081E+01  0.35373335643E+02  0.51100000000E-03 0. -1.
         22    1    1    0    0    0 -0.92451361916E+01  0.23408559714E+02 -0.13998458649E+02  0.28799132897E+02  0.00000000000E+00 0.  1.
</event>
<event>
 5    1  0.1692171E-003  0.9118800E+02  0.7818608E-02  0.1130116E+00
         25   -1    0    0    0    0  0.00000000000E+00  0.00000000000E+00  0.99999998245E-14  0.12500000000E+03  0.12500000000E+03 0.  0.
        -11    1    3    3    0    0  0.54347837030E+02 -0.14022902562E+02  0.23648836117E+02  0.60906458081E+02  0.51100000000E-03 0. -1.
         23    2    1    0    0    0  0.21946593828E+02 -0.17582387498E+01  0.19108122973E+02  0.95847560175E+02  0.91306571745E+02 0.  0.
         11    1    3    3    0    0 -0.32401243201E+02  0.12264663812E+02 -0.45407131438E+01  0.34941102094E+02  0.51100000000E-03 0.  1.
         22    1    1    0    0    0 -0.21946593828E+02  0.17582387498E+01 -0.19108122973E+02  0.29152439825E+02  0.00000000000E+00 0. -1.
</event>
<event>
 5    1  0.1692171E-003  0.9118800E+02  0.7818608E-02  0.1130116E+00
         25   -1    0    0    0    0  0.00000000000E+00  0.00000000000E+00  0.99999998245E-14  0.12500000000E+03  0.12500000000E+03 0.  0.
        -11    1    3    3    0    0 -0.12954785340E+02 -0.35641330179E+02 -0.15173022616E+00  0.37922999650E+02  0.51100000000E-03 0. -1.
         23    2    1    0    0    0 -0.17233347945E+02  0.21458980314E+02  0.92806962280E+01  0.95955078929E+02  0.91453647999E+02 0.  0.
         11    1    3    3    0    0 -0.42785626059E+01  0.57100310493E+02  0.94324264542E+01  0.58032079279E+02  0.51100000000E-03 0.  1.
         22    1    1    0    0    0  0.17233347945E+02 -0.21458980314E+02 -0.92806962280E+01  0.29044921071E+02  0.00000000000E+00 0.  1.
</event>
<event>
 5    1  0.1692171E-003  0.9118800E+02  0.7818608E-02  0.1130116E+00
         25   -1    0    0    0    0  0.00000000000E+00  0.00000000000E+00  0.99999998245E-14  0.12500000000E+03  0.12500000000E+03 0.  0.
        -11    1    3    3    0    0  0.32981238930E+02 -0.18429875054E+02  0.36304858988E+02  0.52397186969E+02  0.51100000000E-03 0.  1.
         23    2    1    0    0    0 -0.48547181168E+00  0.79497077137E+01  0.28099726604E+02  0.95793353996E+02  0.91232332531E+02 0.  0.
         11    1    3    3    0    0 -0.33466710742E+02  0.26379582768E+02 -0.82051323848E+01  0.43396167027E+02  0.51100000000E-03 0. -1.
         22    1    1    0    0    0  0.48547181168E+00 -0.79497077137E+01 -0.28099726604E+02  0.29206646004E+02  0.00000000000E+00 0.  1.
</event>
<event>
 5    1  0.1692171E-003  0.9118800E+02  0.7818608E-02  0.1130116E+00
         25   -1    0    0    0    0  0.00000000000E+00  0.00000000000E+00  0.99999998245E-14  0.12500000000E+03  0.12500000000E+03 0.  0.
        -11    1    3    3    0    0 -0.13697446934E+01  0.27532156393E+02 -0.32560312078E+02  0.42662275596E+02  0.51100000000E-03 0. -1.
         23    2    1    0    0    0  0.21310430815E+02  0.11930831475E+02  0.14071656365E+02  0.96813288343E+02  0.92619231727E+02 0.  0.
         11    1    3    3    0    0  0.22680175508E+02 -0.15601324918E+02  0.46631968444E+02  0.54151012746E+02  0.51100000000E-03 0.  1.
         22    1    1    0    0    0 -0.21310430815E+02 -0.11930831475E+02 -0.14071656365E+02  0.28186711657E+02  0.00000000000E+00 0.  1.
</event>
<event>
 5    1  0.1692171E-003  0.9118800E+02  0.7818608E-02  0.1130116E+00
         25   -1    0    0    0    0  0.00000000000E+00  0.00000000000E+00  0.99999998245E-14  0.12500000000E+03  0.12500000000E+03 0.  0.
        -11    1    3    3    0    0 -0.17188109454E+02 -0.32773615250E+02  0.71048104976E+01  0.37683143388E+02  0.51100000000E-03 0. -1.
         23    2    1    0    0    0  0.13378925319E+02  0.56671975331E+01 -0.24805790913E+02  0.96252129933E+02  0.91858763781E+02 0.  0.
         11    1    3    3    0    0  0.30567034773E+02  0.38440812783E+02 -0.31910601410E+02  0.58568986545E+02  0.51100000000E-03 0.  1.
         22    1    1    0    0    0 -0.13378925319E+02 -0.56671975331E+01  0.24805790913E+02  0.28747870067E+02  0.00000000000E+00 0.  1.
</event>
<event>
 5    1  0.1692171E-003  0.9118800E+02  0.7818608E-02  0.1130116E+00
         25   -1    0    0    0    0  0.00000000000E+00  0.00000000000E+00  0.99999998245E-14  0.12500000000E+03  0.12500000000E+03 0.  0.
        -11    1    3    3    0    0 -0.17181743936E+02  0.24432059139E+01 -0.29456346534E+02  0.34188564334E+02  0.51100000000E-03 0. -1.
         23    2    1    0    0    0  0.39833467796E+01  0.46329561656E+01  0.28460832588E+02  0.95890717529E+02  0.91365635675E+02 0.  0.
         11    1    3    3    0    0  0.21165090716E+02  0.21897502517E+01  0.57917179122E+02  0.61702153195E+02  0.51100000000E-03 0.  1.
         22    1    1    0    0    0 -0.39833467796E+01 -0.46329561656E+01 -0.28460832588E+02  0.29109282471E+02  0.00000000000E+00 0.  1.
</event>
<event>
 5    1  0.1692171E-003  0.9118800E+02  0.7818608E-02  0.1130116E+00
         25   -1    0    0    0    0  0.00000000000E+00  0.00000000000E+00  0.99999998245E-14  0.12500000000E+03  0.12500000000E+03 0.  0.
        -11    1    3    3    0    0  0.12390822928E+02 -0.21818206927E+02 -0.22199814909E+02  0.33502215279E+02  0.51100000000E-03 0. -1.
         23    2    1    0    0    0  0.44790455901E+01 -0.60208948229E+00  0.32230308298E+02  0.92454383795E+02  0.86536674011E+02 0.  0.
         11    1    3    3    0    0 -0.79117773381E+01  0.21216117445E+02  0.54430123208E+02  0.58952168516E+02  0.51100000000E-03 0.  1.
         22    1    1    0    0    0 -0.44790455901E+01  0.60208948229E+00 -0.32230308298E+02  0.32545616205E+02  0.00000000000E+00 0.  1.
</event>
<event>
 5    1  0.1692171E-003  0.9118800E+02  0.7818608E-02  0.1130116E+00
         25   -1    0    0    0    0  0.00000000000E+00  0.00000000000E+00  0.99999998245E-14  0.12500000000E+03  0.12500000000E+03 0.  0.
        -11    1    3    3    0    0 -0.33659488227E+02  0.44616088715E+02 -0.27117962050E+02  0.62120370137E+02  0.51100000000E-03 0.  1.
         23    2    1    0    0    0 -0.16206192869E+02  0.22780155367E+02 -0.82307579388E+01  0.95856878306E+02  0.91319327508E+02 0.  0.
         11    1    3    3    0    0  0.17453295358E+02 -0.21835933348E+02  0.18887204112E+02  0.33736508169E+02  0.51100000000E-03 0. -1.
         22    1    1    0    0    0  0.16206192869E+02 -0.22780155367E+02  0.82307579388E+01  0.29143121694E+02  0.00000000000E+00 0.  1.
</event>
<event>
 5    1  0.1692171E-003  0.9118800E+02  0.7818608E-02  0.1130116E+00
         25   -1    0    0    0    0  0.00000000000E+00  0.00000000000E+00  0.99999998245E-14  0.12500000000E+03  0.12500000000E+03 0.  0.
        -11    1    3    3    0    0  0.35238897944E+02 -0.29995971961E+02  0.40437574906E+02  0.61455152158E+02  0.51100000000E-03 0.  1.
         23    2    1    0    0    0  0.28806881037E+02 -0.15633519879E+02  0.22907975794E+02  0.85012268208E+02  0.75020444227E+02 0.  0.
         11    1    3    3    0    0 -0.64320169073E+01  0.14362452083E+02 -0.17529599112E+02  0.23557116050E+02  0.51100000000E-03 0. -1.
         22    1    1    0    0    0 -0.28806881037E+02  0.15633519879E+02 -0.22907975794E+02  0.39987731792E+02  0.00000000000E+00 0.  1.
</event>
<event>
 5    1  0.1692171E-003  0.9118800E+02  0.7818608E-02  0.1130116E+00
         25   -1    0    0    0    0  0.00000000000E+00  0.00000000000E+00  0.99999998245E-14  0.12500000000E+03  0.12500000000E+03 0.  0.
        -11    1    3    3    0    0 -0.33573956570E+02 -0.43153328822E+01  0.43258591626E+02  0.54928484481E+02  0.51100000000E-03 0. -1.
         23    2    1    0    0    0  0.30773037170E+01 -0.76879941906E+01  0.29723663340E+02  0.94144348731E+02  0.88944292582E+02 0.  0.
         11    1    3    3    0    0  0.36651260287E+02 -0.33726613085E+01 -0.13534928286E+02  0.39215864250E+02  0.51100000000E-03 0.  1.
         22    1    1    0    0    0 -0.30773037170E+01  0.76879941906E+01 -0.29723663340E+02  0.30855651269E+02  0.00000000000E+00 0.  1.
</event>
<event>
 4    1  0.1692171E-003  0.9118800E+02  0.7818608E-02  0.1130116E+00
         25   -1    0    0    0    0  0.00000000000E+00  0.00000000000E+00  0.99999998245E-14  0.12500000000E+03  0.12500000000E+03 0.  0.
        -11    1    1    0    0    0 -0.76103268569E+01 -0.39047716424E+02  0.44002295992E+02  0.59319838888E+02  0.51100000000E-03 0. -1.
         11    1    1    0    0    0 -0.89086662452E+01  0.90892221751E+01 -0.46834591443E+01  0.13561455815E+02  0.51100000000E-03 0.  1.
         22    1    1    0    0    0  0.16518993102E+02  0.29958494249E+02 -0.39318836848E+02  0.52118705297E+02  0.00000000000E+00 0. -1.
</event>
<event>
 5    1  0.1692171E-003  0.9118800E+02  0.7818608E-02  0.1130116E+00
         25   -1    0    0    0    0  0.00000000000E+00  0.00000000000E+00  0.99999998245E-14  0.12500000000E+03  0.12500000000E+03 0.  0.
        -11    1    3    3    0    0 -0.21985043586E+01 -0.40336783780E+02  0.33403644336E+02  0.52418441433E+02  0.51100000000E-03 0. -1.
         23    2    1    0    0    0 -0.25748692890E+01  0.30229371560E+01  0.28691425439E+02  0.96035090288E+02  0.91562943225E+02 0.  0.
         11    1    3    3    0    0 -0.37636493037E+00  0.43359720936E+02 -0.47122188967E+01  0.43616648855E+02  0.51100000000E-03 0.  1.
         22    1    1    0    0    0  0.25748692890E+01 -0.30229371560E+01 -0.28691425439E+02  0.28964909712E+02  0.00000000000E+00 0. -1.
</event>
<event>
 5    1  0.1692171E-003  0.9118800E+02  0.7818608E-02  0.1130116E+00
         25   -1    0    0    0    0  0.00000000000E+00  0.00000000000E+00  0.99999998245E-14  0.12500000000E+03  0.12500000000E+03 0.  0.
        -11    1    3    3    0    0 -0.39704243079E+02  0.17071926039E+02  0.25158049161E+02  0.50008049503E+02  0.51100000000E-03 0. -1.
         23    2    1    0    0    0 -0.12254865262E+02 -0.20000571018E+02  0.14734689598E+02  0.97299537167E+02  0.93273170267E+02 0.  0.
         11    1    3    3    0    0  0.27449377817E+02 -0.37072497057E+02 -0.10423359563E+02  0.47291487664E+02  0.51100000000E-03 0.  1.
         22    1    1    0    0    0  0.12254865262E+02  0.20000571018E+02 -0.14734689598E+02  0.27700462833E+02  0.00000000000E+00 0.  1.
</event>
<event>
 5    1  0.1692171E-003  0.9118800E+02  0.7818608E-02  0.1130116E+00
         25   -1    0    0    0    0  0.00000000000E+00  0.00000000000E+00  0.99999998245E-14  0.12500000000E+03  0.12500000000E+03 0.  0.
        -11    1    3    3    0    0 -0.20361408008E+02  0.44469406118E+02 -0.16090777003E+02  0.51488135734E+02  0.51100000000E-03 0. -1.
         23    2    1    0    0    0  0.15497034858E+02  0.19531061037E+02 -0.16382722051E+02  0.95166897305E+02  0.90369930431E+02 0.  0.
         11    1    3    3    0    0  0.35858442866E+02 -0.24938345081E+02 -0.29194504812E+00  0.43678761571E+02  0.51100000000E-03 0.  1.
         22    1    1    0    0    0 -0.15497034858E+02 -0.19531061037E+02  0.16382722051E+02  0.29833102695E+02  0.00000000000E+00 0. -1.
</event>
<event>
 5    1  0.1692171E-003  0.9118800E+02  0.7818608E-02  0.1130116E+00
         25   -1    0    0    0    0  0.00000000000E+00  0.00000000000E+00  0.99999998245E-14  0.12500000000E+03  0.12500000000E+03 0.  0.
        -11    1    3    3    0    0 -0.14859883818E+01  0.27569595519E+02 -0.37535546116E+02  0.46596222820E+02  0.51100000000E-03 0. -1.
         23    2    1    0    0    0 -0.10558747527E+02 -0.18264085017E+02 -0.18109717743E+02  0.97196657978E+02  0.93135194714E+02 0.  0.
         11    1    3    3    0    0 -0.90727591450E+01 -0.45833680536E+02  0.19425828373E+02  0.50600435158E+02  0.51100000000E-03 0.  1.
         22    1    1    0    0    0  0.10558747527E+02  0.18264085017E+02  0.18109717743E+02  0.27803342022E+02  0.00000000000E+00 0.  1.
</event>
<event>
 5    1  0.1692171E-003  0.9118800E+02  0.7818608E-02  0.1130116E+00
         25   -1    0    0    0    0  0.00000000000E+00  0.00000000000E+00  0.99999998245E-14  0.12500000000E+03  0.12500000000E+03 0.  0.
        -11    1    3    3    0    0  0.72558290508E+00 -0.25211596072E+02 -0.23830233460E+02  0.34699150913E+02  0.51100000000E-03 0.  1.
         23    2    1    0    0    0  0.14864161926E+02  0.26777845639E+02  0.17135557809E+01  0.94325375304E+02  0.89198339816E+02 0.  0.
         11    1    3    3    0    0  0.14138579021E+02  0.51989441711E+02  0.25543789241E+02  0.59626224391E+02  0.51100000000E-03 0. -1.
         22    1    1    0    0    0 -0.14864161926E+02 -0.26777845639E+02 -0.17135557809E+01  0.30674624696E+02  0.00000000000E+00 0. -1.
</event>
<event>
 5    1  0.1692171E-003  0.9118800E+02  0.7818608E-02  0.1130116E+00
         25   -1    0    0    0    0  0.00000000000E+00  0.00000000000E+00  0.99999998245E-14  0.12500000000E+03  0.12500000000E+03 0.  0.
        -11    1    3    3    0    0 -0.28169743904E+02  0.34507562870E+01 -0.28228152592E+02  0.40028374806E+02  0.51100000000E-03 0. -1.
         23    2    1    0    0    0  0.11103586537E+02 -0.26992898660E+02 -0.32855626570E+01  0.95628225555E+02  0.91005804149E+02 0.  0.
         11    1    3    3    0    0  0.39273330441E+02 -0.30443654947E+02  0.24942589934E+02  0.55599850750E+02  0.51100000000E-03 0.  1.
         22    1    1    0    0    0 -0.11103586537E+02  0.26992898660E+02  0.32855626570E+01  0.29371774445E+02  0.00000000000E+00 0.  1.
</event>
<event>
 5    1  0.1692171E-003  0.9118800E+02  0.7818608E-02  0.1130116E+00
         25   -1    0    0    0    0  0.00000000000E+00  0.00000000000E+00  0.99999998245E-14  0.12500000000E+03  0.12500000000E+03 0.  0.
        -11    1    3    3    0    0 -0.24305715142E+02  0.25376718335E+02  0.25048187349E+01  0.35228110071E+02  0.51100000000E-03 0. -1.
         23    2    1    0    0    0  0.15375111724E+02 -0.15932145485E+02 -0.18407946699E+02  0.96206253771E+02  0.91796314973E+02 0.  0.
         11    1    3    3    0    0  0.39680826865E+02 -0.41308863820E+02 -0.20912765434E+02  0.60978143700E+02  0.51100000000E-03 0.  1.
         22    1    1    0    0    0 -0.15375111724E+02  0.15932145485E+02  0.18407946699E+02  0.28793746229E+02  0.00000000000E+00 0.  1.
</event>
<event>
 5    1  0.1692171E-003  0.9118800E+02  0.7818608E-02  0.1130116E+00
         25   -1    0    0    0    0  0.00000000000E+00  0.00000000000E+00  0.99999998245E-14  0.12500000000E+03  0.12500000000E+03 0.  0.
        -11    1    3    3    0    0 -0.93318380731E+01 -0.25150302246E+02  0.25003893273E+02  0.36671727311E+02  0.51100000000E-03 0.  1.
         23    2    1    0    0    0  0.31538052225E+01 -0.17930465777E+01 -0.28446004875E+02  0.96323586403E+02  0.91955949241E+02 0.  0.
         11    1    3    3    0    0  0.12485643296E+02  0.23357255668E+02 -0.53449898149E+02  0.59651859092E+02  0.51100000000E-03 0. -1.
         22    1    1    0    0    0 -0.31538052225E+01  0.17930465777E+01  0.28446004875E+02  0.28676413597E+02  0.00000000000E+00 0. -1.
</event>
<event>
 5    1  0.1692171E-003  0.9118800E+02  0.7818608E-02  0.1130116E+00
         25   -1    0    0    0    0  0.00000000000E+00  0.00000000000E+00  0.99999998245E-14  0.12500000000E+03  0.12500000000E+03 0.  0.
        -11    1    3    3    0    0  0.51923129313E+02  0.26828576492E+02  0.10447157919E+02  0.59371095518E+02  0.51100000000E-03 0.  1.
         23    2    1    0    0    0  0.19192324955E+02  0.22517841967E+02 -0.34936623748E+01  0.95207312629E+02  0.90425815767E+02 0.  0.
         11    1    3    3    0    0 -0.32730804358E+02 -0.43107345254E+01 -0.13940820294E+02  0.35836217110E+02  0.51100000000E-03 0. -1.
         22    1    1    0    0    0 -0.19192324955E+02 -0.22517841967E+02  0.34936623748E+01  0.29792687371E+02  0.00000000000E+00 0.  1.
</event>
<event>
 5    1  0.1692171E-003  0.9118800E+02  0.7818608E-02  0.1130116E+00
         25   -1    0    0    0    0  0.00000000000E+00  0.00000000000E+00  0.99999998245E-14  0.12500000000E+03  0.12500000000E+03 0.  0.
        -11    1    3    3    0    0  0.17333387272E+02 -0.31351745582E+02  0.91200619884E+01  0.36966928413E+02  0.51100000000E-03 0.  1.
         23    2    1    0    0    0 -0.14137392633E+01  0.96393149720E+01 -0.27996590005E+02  0.95356719080E+02  0.90632112245E+02 0.  0.
         11    1    3    3    0    0 -0.18747126536E+02  0.40991060554E+02 -0.37116651993E+02  0.58389790667E+02  0.51100000000E-03 0. -1.
         22    1    1    0    0    0  0.14137392633E+01 -0.96393149720E+01  0.27996590005E+02  0.29643280920E+02  0.00000000000E+00 0. -1.
</event>
<event>
 5    1  0.1692171E-003  0.9118800E+02  0.7818608E-02  0.1130116E+00
         25   -1    0    0    0    0  0.00000000000E+00  0.00000000000E+00  0.99999998245E-14  0.12500000000E+03  0.12500000000E+03 0.  0.
        -11    1    3    3    0    0 -0.23756276512E+02  0.41168927415E+02 -0.78847231624E+01  0.48181014080E+02  0.51100000000E-03 0. -1.
         23    2    1    0    0    0 -0.58699480421E+01  0.40607447640E+01 -0.29463281342E+02  0.94684477813E+02  0.89700164176E+02 0.  0.
         11    1    3    3    0    0  0.17886328470E+02 -0.37108182651E+02 -0.21578558180E+02  0.46503463733E+02  0.51100000000E-03 0.  1.
         22    1    1    0    0    0  0.58699480421E+01 -0.40607447640E+01  0.29463281342E+02  0.30315522187E+02  0.00000000000E+00 0.  1.
</event>
<event>
 5    1  0.1692171E-003  0.9118800E+02  0.7818608E-02  0.1130116E+00
         25   -1    0    0    0    0  0.00000000000E+00  0.00000000000E+00  0.99999998245E-14  0.12500000000E+03  0.12500000000E+03 0.  0.
        -11    1    3    3    0    0  0.38774096542E+02 -0.17590104583E+02 -0.75401289723E+01  0.43239980193E+02  0.51100000000E-03 0. -1.
         23    2    1    0    0    0  0.12889251576E+02  0.15739625061E+02  0.22216126493E+02  0.94876506186E+02  0.89967363785E+02 0.  0.
         11    1    3    3    0    0 -0.25884844966E+02  0.33329729644E+02  0.29756255465E+02  0.51636525993E+02  0.51100000000E-03 0.  1.
         22    1    1    0    0    0 -0.12889251576E+02 -0.15739625061E+02 -0.22216126493E+02  0.30123493814E+02  0.00000000000E+00 0.  1.
</event>
<event>
 5    1  0.1692171E-003  0.9118800E+02  0.7818608E-02  0.1130116E+00
         25   -1    0    0    0    0  0.00000000000E+00  0.00000000000E+00  0.99999998245E-14  0.12500000000E+03  0.12500000000E+03 0.  0.
        -11    1    3    3    0    0 -0.11523556953E+02 -0.37719661484E+02  0.27036737392E+02  0.47817887829E+02  0.51100000000E-03 0.  1.
         23    2    1    0    0    0 -0.17182363000E+02 -0.21917708280E+02 -0.15203278540E+02  0.93270530845E+02  0.87707654804E+02 0.  0.
         11    1    3    3    0    0 -0.56588060470E+01  0.15801953205E+02 -0.42240015932E+02  0.45452643016E+02  0.51100000000E-03 0. -1.
         22    1    1    0    0    0  0.17182363000E+02  0.21917708280E+02  0.15203278540E+02  0.31729469155E+02  0.00000000000E+00 0.  1.
</event>
<event>
 5    1  0.1692171E-003  0.9118800E+02  0.7818608E-02  0.1130116E+00
         25   -1    0    0    0    0  0.00000000000E+00  0.00000000000E+00  0.99999998245E-14  0.12500000000E+03  0.12500000000E+03 0.  0.
        -11    1    3    3    0    0 -0.22447151768E+02  0.31695804246E+02 -0.66827205664E+01  0.39410117784E+02  0.51100000000E-03 0. -1.
         23    2    1    0    0    0  0.28306114776E+01 -0.17325358420E+02  0.18018575581E+02  0.99843500408E+02  0.96622332316E+02 0.  0.
         11    1    3    3    0    0  0.25277763246E+02 -0.49021162666E+02  0.24701296147E+02  0.60433382625E+02  0.51100000000E-03 0.  1.
         22    1    1    0    0    0 -0.28306114776E+01  0.17325358420E+02 -0.18018575581E+02  0.25156499592E+02  0.00000000000E+00 0.  1.
</event>
<event>
 5    1  0.1692171E-003  0.9118800E+02  0.7818608E-02  0.1130116E+00
         25   -1    0    0    0    0  0.00000000000E+00  0.00000000000E+00  0.99999998245E-14  0.12500000000E+03  0.12500000000E+03 0.  0.
        -11    1    3    3    0    0  0.99999935174E+01 -0.58205557787E+02  0.14308287168E+02  0.60766881684E+02  0.51100000000E-03 0. -1.
         23    2    1    0    0    0  0.12434882793E+02 -0.25710541946E+02  0.13616536466E+02  0.93360335929E+02  0.87835550788E+02 0.  0.
         11    1    3    3    0    0  0.24348892754E+01  0.32495015841E+02 -0.69175070184E+00  0.32593454245E+02  0.51100000000E-03 0.  1.
         22    1    1    0    0    0 -0.12434882793E+02  0.25710541946E+02 -0.13616536466E+02  0.31639664071E+02  0.00000000000E+00 0. -1.
</event>
<event>
 5    1  0.1692171E-003  0.9118800E+02  0.7818608E-02  0.1130116E+00
         25   -1    0    0    0    0  0.00000000000E+00  0.00000000000E+00  0.99999998245E-14  0.12500000000E+03  0.12500000000E+03 0.  0.
        -11    1    3    3    0    0  0.23107923221E+02 -0.39419891296E+02  0.35372116300E+02  0.57784864431E+02  0.51100000000E-03 0. -1.
         23    2    1    0    0    0  0.14837553733E+02 -0.79508522883E+01  0.29768562101E+02  0.90801515495E+02  0.84115271346E+02 0.  0.
         11    1    3    3    0    0 -0.82703694885E+01  0.31469039008E+02 -0.56035541991E+01  0.33016651064E+02  0.51100000000E-03 0.  1.
         22    1    1    0    0    0 -0.14837553733E+02  0.79508522883E+01 -0.29768562101E+02  0.34198484505E+02  0.00000000000E+00 0. -1.
</event>
<event>
 5    1  0.1692171E-003  0.9118800E+02  0.7818608E-02  0.1130116E+00
         25   -1    0    0    0    0  0.00000000000E+00  0.00000000000E+00  0.99999998245E-14  0.12500000000E+03  0.12500000000E+03 0.  0.
        -11    1    3    3    0    0 -0.29619816402E+02 -0.42017853111E+01 -0.54472124049E+02  0.62146607488E+02  0.51100000000E-03 0.  1.
         23    2    1    0    0    0 -0.17059949930E+02  0.12221147275E+01 -0.24207014357E+02  0.95360246288E+02  0.90636976848E+02 0.  0.
         11    1    3    3    0    0  0.12559866473E+02  0.54239000386E+01  0.30265109692E+02  0.33213638801E+02  0.51100000000E-03 0. -1.
         22    1    1    0    0    0  0.17059949930E+02 -0.12221147275E+01  0.24207014357E+02  0.29639753712E+02  0.00000000000E+00 0.  1.
</event>
<event>
 5    1  0.1692171E-003  0.9118800E+02  0.7818608E-02  0.1130116E+00
         25   -1    0    0    0    0  0.00000000000E+00  0.00000000000E+00  0.99999998245E-14  0.12500000000E+03  0.12500000000E+03 0.  0.
        -11    1    3    3    0    0 -0.43506351385E+02 -0.57615786405E+00 -0.22367245938E+02  0.48922676335E+02  0.51100000000E-03 0.  1.
         23    2    1    0    0    0  0.10108728798E+01 -0.18219101327E+02 -0.21478728532E+02  0.96816790522E+02  0.92623958189E+02 0.  0.
         11    1    3    3    0    0  0.44517224265E+02 -0.17642943463E+02  0.88851740599E+00  0.47894114187E+02  0.51100000000E-03 0. -1.
         22    1    1    0    0    0 -0.10108728798E+01  0.18219101327E+02  0.21478728532E+02  0.28183209478E+02  0.00000000000E+00 0.  1.
</event>
<event>
 5    1  0.1692171E-003  0.9118800E+02  0.7818608E-02  0.1130116E+00
         25   -1    0    0    0    0  0.00000000000E+00  0.00000000000E+00  0.99999998245E-14  0.12500000000E+03  0.12500000000E+03 0.  0.
        -11    1    3    3    0    0 -0.34428951008E+02 -0.11467593270E+01  0.22614815721E+02  0.41207979989E+02  0.51100000000E-03 0.  1.
         23    2    1    0    0    0 -0.28519503113E+01 -0.13800089962E+02 -0.22948988237E+02  0.98069865120E+02  0.94299874231E+02 0.  0.
         11    1    3    3    0    0  0.31577000697E+02 -0.12653330635E+02 -0.45563803958E+02  0.56861885130E+02  0.51100000000E-03 0. -1.
         22    1    1    0    0    0  0.28519503113E+01  0.13800089962E+02  0.22948988237E+02  0.26930134880E+02  0.00000000000E+00 0. -1.
</event>
<event>
 5    1  0.1692171E-003  0.9118800E+02  0.7818608E-02  0.1130116E+00
         25   -1    0    0    0    0  0.00000000000E+00  0.00000000000E+00  0.99999998245E-14  0.12500000000E+03  0.12500000000E+03 0.  0.
        -11    1    3    3    0    0 -0.19293264123E+02 -0.56915499914E+02 -0.12047641937E+02  0.61292331065E+02  0.51100000000E-03 0.  1.
         23    2    1    0    0    0 -0.17857926713E+01 -0.27015109955E+02 -0.15464412844E+00  0.97925489179E+02  0.94108300882E+02 0.  0.
         11    1    3    3    0    0  0.17507471452E+02  0.29900389958E+02  0.11892997808E+02  0.36633158114E+02  0.51100000000E-03 0. -1.
         22    1    1    0    0    0  0.17857926713E+01  0.27015109955E+02  0.15464412844E+00  0.27074510821E+02  0.00000000000E+00 0.  1.
</event>
<event>
 5    1  0.1692171E-003  0.9118800E+02  0.7818608E-02  0.1130116E+00
         25   -1    0    0    0    0  0.00000000000E+00  0.00000000000E+00  0.99999998245E-14  0.12500000000E+03  0.12500000000E+03 0.  0.
        -11    1    3    3    0    0  0.89108916540E+01  0.55303698934E+02 -0.10930360622E+02  0.57073425422E+02  0.51100000000E-03 0. -1.
         23    2    1    0    0    0  0.92858969840E+01  0.19577900676E+02 -0.21644504250E+02  0.94373105905E+02  0.89265203054E+02 0.  0.
         11    1    3    3    0    0  0.37500533001E+00 -0.35725798258E+02 -0.10714143628E+02  0.37299680483E+02  0.51100000000E-03 0.  1.
         22    1    1    0    0    0 -0.92858969840E+01 -0.19577900676E+02  0.21644504250E+02  0.30626894095E+02  0.00000000000E+00 0. -1.
</event>
<event>
 5    1  0.1692171E-003  0.9118800E+02  0.7818608E-02  0.1130116E+00
         25   -1    0    0    0    0  0.00000000000E+00  0.00000000000E+00  0.99999998245E-14  0.12500000000E+03  0.12500000000E+03 0.  0.
        -11    1    3    3    0    0 -0.19548123465E+02 -0.28760161659E+02 -0.19544195007E+02  0.39890494963E+02  0.51100000000E-03 0.  1.
         23    2    1    0    0    0  0.67238587914E+01  0.19510242056E+02 -0.21914553269E+02  0.94898380989E+02  0.89997751346E+02 0.  0.
         11    1    3    3    0    0  0.26271982256E+02  0.48270403715E+02 -0.23703582613E+01  0.55007886026E+02  0.51100000000E-03 0. -1.
         22    1    1    0    0    0 -0.67238587914E+01 -0.19510242056E+02  0.21914553269E+02  0.30101619011E+02  0.00000000000E+00 0. -1.
</event>
<event>
 5    1  0.1692171E-003  0.9118800E+02  0.7818608E-02  0.1130116E+00
         25   -1    0    0    0    0  0.00000000000E+00  0.00000000000E+00  0.99999998245E-14  0.12500000000E+03  0.12500000000E+03 0.  0.
        -11    1    3    3    0    0  0.50933559589E+01 -0.11750775578E+02  0.41450070253E+02  0.43383537498E+02  0.51100000000E-03 0. -1.
         23    2    1    0    0    0 -0.22039284451E+02 -0.11338923426E+02 -0.72871413805E+01  0.99165842900E+02  0.95741635274E+02 0.  0.
         11    1    3    3    0    0 -0.27132640410E+02  0.41185215229E+00 -0.48737211634E+02  0.55782305402E+02  0.51100000000E-03 0.  1.
         22    1    1    0    0    0  0.22039284451E+02  0.11338923426E+02  0.72871413805E+01  0.25834157100E+02  0.00000000000E+00 0.  1.
</event>
<event>
 5    1  0.1692171E-003  0.9118800E+02  0.7818608E-02  0.1130116E+00
         25   -1    0    0    0    0  0.00000000000E+00  0.00000000000E+00  0.99999998245E-14  0.12500000000E+03  0.12500000000E+03 0.  0.
        -11    1    3    3    0    0 -0.38019296689E+02 -0.37007659734E+02  0.20741309459E+02  0.56966970413E+02  0.51100000000E-03 0. -1.
         23    2    1    0    0    0 -0.21401328004E+01 -0.21203051449E+02  0.19377543220E+02  0.96196549853E+02  0.91783100095E+02 0.  0.
         11    1    3    3    0    0  0.35879163888E+02  0.15804608285E+02 -0.13637662382E+01  0.39229579440E+02  0.51100000000E-03 0.  1.
         22    1    1    0    0    0  0.21401328004E+01  0.21203051449E+02 -0.19377543220E+02  0.28803450147E+02  0.00000000000E+00 0. -1.
</event>
<event>
 5    1  0.1692171E-003  0.9118800E+02  0.7818608E-02  0.1130116E+00
         25   -1    0    0    0    0  0.00000000000E+00  0.00000000000E+00  0.99999998245E-14  0.12500000000E+03  0.12500000000E+03 0.  0.
        -11    1    3    3    0    0 -0.47215397507E+01 -0.71589870787E+01 -0.47065712173E+02  0.47840623912E+02  0.51100000000E-03 0.  1.
         23    2    1    0    0    0 -0.57833533149E+01  0.26542137756E+02 -0.24552340783E+02  0.88383751009E+02  0.80442139157E+02 0.  0.
         11    1    3    3    0    0 -0.10618135642E+01  0.33701124835E+02  0.22513371390E+02  0.40543127097E+02  0.51100000000E-03 0. -1.
         22    1    1    0    0    0  0.57833533149E+01 -0.26542137756E+02  0.24552340783E+02  0.36616248991E+02  0.00000000000E+00 0.  1.
</event>
<event>
 5    1  0.1692171E-003  0.9118800E+02  0.7818608E-02  0.1130116E+00
         25   -1    0    0    0    0  0.00000000000E+00  0.00000000000E+00  0.99999998245E-14  0.12500000000E+03  0.12500000000E+03 0.  0.
        -11    1    3    3    0    0 -0.16247247775E+02 -0.25802605323E+02  0.40175199779E+02  0.50436040480E+02  0.51100000000E-03 0.  1.
         23    2    1    0    0    0  0.17344900333E+02 -0.21887556910E+01  0.53536687516E+00  0.10750935002E+03  0.10607703571E+03 0.  0.
         11    1    3    3    0    0  0.33592148108E+02  0.23613849632E+02 -0.39639832904E+02  0.57073309540E+02  0.51100000000E-03 0. -1.
         22    1    1    0    0    0 -0.17344900333E+02  0.21887556910E+01 -0.53536687516E+00  0.17490649980E+02  0.00000000000E+00 0. -1.
</event>
<event>
 5    1  0.1692171E-003  0.9118800E+02  0.7818608E-02  0.1130116E+00
         25   -1    0    0    0    0  0.00000000000E+00  0.00000000000E+00  0.99999998245E-14  0.12500000000E+03  0.12500000000E+03 0.  0.
        -11    1    3    3    0    0 -0.16557250112E+02  0.45371369436E+02 -0.20053380307E+02  0.52295714525E+02  0.51100000000E-03 0.  1.
         23    2    1    0    0    0  0.17444958964E+02  0.21502082716E+02 -0.32037857581E+01  0.97126528785E+02  0.93041024265E+02 0.  0.
         11    1    3    3    0    0  0.34002209075E+02 -0.23869286720E+02  0.16849594548E+02  0.44830814260E+02  0.51100000000E-03 0. -1.
         22    1    1    0    0    0 -0.17444958964E+02 -0.21502082716E+02  0.32037857581E+01  0.27873471215E+02  0.00000000000E+00 0.  1.
</event>
<event>
 5    1  0.1692171E-003  0.9118800E+02  0.7818608E-02  0.1130116E+00
         25   -1    0    0    0    0  0.00000000000E+00  0.00000000000E+00  0.99999998245E-14  0.12500000000E+03  0.12500000000E+03 0.  0.
        -11    1    3    3    0    0  0.32790575488E+02 -0.22231487595E+02 -0.39547633882E+02  0.55977461781E+02  0.51100000000E-03 0. -1.
         23    2    1    0    0    0  0.12986867807E+02  0.90330607146E+01 -0.24300177191E+02  0.96004249745E+02  0.91520830614E+02 0.  0.
         11    1    3    3    0    0 -0.19803707681E+02  0.31264548310E+02  0.15247456691E+02  0.40026787964E+02  0.51100000000E-03 0.  1.
         22    1    1    0    0    0 -0.12986867807E+02 -0.90330607146E+01  0.24300177191E+02  0.28995750255E+02  0.00000000000E+00 0. -1.
</event>
<event>
 5    1  0.1692171E-003  0.9118800E+02  0.7818608E-02  0.1130116E+00
         25   -1    0    0    0    0  0.00000000000E+00  0.00000000000E+00  0.99999998245E-14  0.12500000000E+03  0.12500000000E+03 0.  0.
        -11    1    3    3    0    0  0.57294157040E+00  0.54257713153E+02  0.94260852963E+01  0.55073394511E+02  0.51100000000E-03 0.  1.
         23    2    1    0    0    0  0.18152575998E+02  0.20850463806E+02 -0.73664270202E+01  0.96390174706E+02  0.92046421313E+02 0.  0.
         11    1    3    3    0    0  0.17579634428E+02 -0.33407249347E+02 -0.16792512317E+02  0.41316780196E+02  0.51100000000E-03 0. -1.
         22    1    1    0    0    0 -0.18152575998E+02 -0.20850463806E+02  0.73664270202E+01  0.28609825294E+02  0.00000000000E+00 0. -1.
</event>
<event>
 5    1  0.1692171E-003  0.9118800E+02  0.7818608E-02  0.1130116E+00
         25   -1    0    0    0    0  0.00000000000E+00  0.00000000000E+00  0.99999998245E-14  0.12500000000E+03  0.12500000000E+03 0.  0.
        -11    1    3    3    0    0 -0.10720625714E+02 -0.28267982977E+01 -0.58387957354E+02  0.59431272648E+02  0.51100000000E-03 0.  1.
         23    2    1    0    0    0  0.30722320550E+01 -0.12568472299E+02 -0.26170450128E+02  0.95805864192E+02  0.91249471494E+02 0.  0.
         11    1    3    3    0    0  0.13792857769E+02 -0.97416740009E+01  0.32217507227E+02  0.36374591543E+02  0.51100000000E-03 0. -1.
         22    1    1    0    0    0 -0.30722320550E+01  0.12568472299E+02  0.26170450128E+02  0.29194135808E+02  0.00000000000E+00 0.  1.
</event>
<event>
 5    1  0.1692171E-003  0.9118800E+02  0.7818608E-02  0.1130116E+00
         25   -1    0    0    0    0  0.00000000000E+00  0.00000000000E+00  0.99999998245E-14  0.12500000000E+03  0.12500000000E+03 0.  0.
        -11    1    3    3    0    0  0.18316485465E+02  0.21974132903E+02  0.16846648491E+02  0.33198881341E+02  0.51100000000E-03 0.  1.
         23    2    1    0    0    0 -0.37214494184E+01 -0.25126654633E+02 -0.16256264560E+02  0.94842677568E+02  0.89920350266E+02 0.  0.
         11    1    3    3    0    0 -0.22037934884E+02 -0.47100787536E+02 -0.33102913051E+02  0.61643796227E+02  0.51100000000E-03 0. -1.
         22    1    1    0    0    0  0.37214494184E+01  0.25126654633E+02  0.16256264560E+02  0.30157322432E+02  0.00000000000E+00 0. -1.
</event>
<event>
 5    1  0.1692171E-003  0.9118800E+02  0.7818608E-02  0.1130116E+00
         25   -1    0    0    0    0  0.00000000000E+00  0.00000000000E+00  0.99999998245E-14  0.12500000000E+03  0.12500000000E+03 0.  0.
        -11    1    3    3    0    0 -0.80738579844E+01 -0.33722569570E+02 -0.20543213945E+02  0.40304125354E+02  0.51100000000E-03 0. -1.
         23    2    1    0    0    0  0.13718861092E+01  0.20827233750E+02 -0.20611728897E+02  0.95665734962E+02  0.91057310198E+02 0.  0.
         11    1    3    3    0    0  0.94457440937E+01  0.54549803320E+02 -0.68514952623E-01  0.55361609607E+02  0.51100000000E-03 0.  1.
         22    1    1    0    0    0 -0.13718861092E+01 -0.20827233750E+02  0.20611728897E+02  0.29334265038E+02  0.00000000000E+00 0.  1.
</event>
<event>
 5    1  0.1692171E-003  0.9118800E+02  0.7818608E-02  0.1130116E+00
         25   -1    0    0    0    0  0.00000000000E+00  0.00000000000E+00  0.99999998245E-14  0.12500000000E+03  0.12500000000E+03 0.  0.
        -11    1    3    3    0    0 -0.26424167283E+02 -0.22391757675E+02 -0.18028716585E+00  0.34636107346E+02  0.51100000000E-03 0. -1.
         23    2    1    0    0    0  0.17633026901E+02  0.14630726155E+02  0.18935883592E+02  0.95275439904E+02  0.90519942421E+02 0.  0.
         11    1    3    3    0    0  0.44057194184E+02  0.37022483830E+02  0.19116170758E+02  0.60639332557E+02  0.51100000000E-03 0.  1.
         22    1    1    0    0    0 -0.17633026901E+02 -0.14630726155E+02 -0.18935883592E+02  0.29724560096E+02  0.00000000000E+00 0.  1.
</event>
<event>
 5    1  0.1692171E-003  0.9118800E+02  0.7818608E-02  0.1130116E+00
         25   -1    0    0    0    0  0.00000000000E+00  0.00000000000E+00  0.99999998245E-14  0.12500000000E+03  0.12500000000E+03 0.  0.
        -11    1    3    3    0    0  0.23582750133E+02  0.42771117451E+02 -0.23553893406E+02  0.54224537681E+02  0.51100000000E-03 0. -1.
         23    2    1    0    0    0  0.19643497140E+01  0.57813851973E+01 -0.27105430059E+02  0.97215338345E+02  0.93160262914E+02 0.  0.
         11    1    3    3    0    0 -0.21618400419E+02 -0.36989732254E+02 -0.35515366534E+01  0.42990800664E+02  0.51100000000E-03 0.  1.
         22    1    1    0    0    0 -0.19643497140E+01 -0.57813851973E+01  0.27105430059E+02  0.27784661655E+02  0.00000000000E+00 0. -1.
</event>
<event>
 5    1  0.1692171E-003  0.9118800E+02  0.7818608E-02  0.1130116E+00
         25   -1    0    0    0    0  0.00000000000E+00  0.00000000000E+00  0.99999998245E-14  0.12500000000E+03  0.12500000000E+03 0.  0.
        -11    1    3    3    0    0  0.31174408135E+02  0.12820864092E+02  0.16108076281E+02  0.37358913266E+02  0.51100000000E-03 0.  1.
         23    2    1    0    0    0 -0.21519621575E+02  0.14930139411E+02 -0.10926167152E+02  0.96620706419E+02  0.92358955195E+02 0.  0.
         11    1    3    3    0    0 -0.52694029710E+02  0.21092753186E+01 -0.27034243433E+02  0.59261793153E+02  0.51100000000E-03 0. -1.
         22    1    1    0    0    0  0.21519621575E+02 -0.14930139411E+02  0.10926167152E+02  0.28379293581E+02  0.00000000000E+00 0. -1.
</event>
<event>
 5    1  0.1692171E-003  0.9118800E+02  0.7818608E-02  0.1130116E+00
         25   -1    0    0    0    0  0.00000000000E+00  0.00000000000E+00  0.99999998245E-14  0.12500000000E+03  0.12500000000E+03 0.  0.
        -11    1    3    3    0    0 -0.13827841429E+02 -0.28169100530E+02 -0.97235064476E+01  0.32852001479E+02  0.51100000000E-03 0.  1.
         23    2    1    0    0    0  0.18694056988E+01  0.27868157522E+02 -0.18203464940E+02  0.91660908573E+02  0.85382826981E+02 0.  0.
         11    1    3    3    0    0  0.15697247127E+02  0.56037258052E+02 -0.84799584925E+01  0.58808907095E+02  0.51100000000E-03 0. -1.
         22    1    1    0    0    0 -0.18694056988E+01 -0.27868157522E+02  0.18203464940E+02  0.33339091427E+02  0.00000000000E+00 0. -1.
</event>
<event>
 5    1  0.1692171E-003  0.9118800E+02  0.7818608E-02  0.1130116E+00
         25   -1    0    0    0    0  0.00000000000E+00  0.00000000000E+00  0.99999998245E-14  0.12500000000E+03  0.12500000000E+03 0.  0.
        -11    1    3    3    0    0  0.46594292629E+02 -0.17022656474E+02 -0.33781930139E+02  0.60016812171E+02  0.51100000000E-03 0.  1.
         23    2    1    0    0    0  0.15391642234E+02 -0.14207921583E+02 -0.24654389006E+02  0.92648700434E+02  0.86816905661E+02 0.  0.
         11    1    3    3    0    0 -0.31202650395E+02  0.28147348902E+01  0.91275411329E+01  0.32631888263E+02  0.51100000000E-03 0. -1.
         22    1    1    0    0    0 -0.15391642234E+02  0.14207921583E+02  0.24654389006E+02  0.32351299566E+02  0.00000000000E+00 0.  1.
</event>
<event>
 5    1  0.1692171E-003  0.9118800E+02  0.7818608E-02  0.1130116E+00
         25   -1    0    0    0    0  0.00000000000E+00  0.00000000000E+00  0.99999998245E-14  0.12500000000E+03  0.12500000000E+03 0.  0.
        -11    1    3    3    0    0  0.25833032407E+02  0.31909067881E+02 -0.23095127118E+01  0.41120165681E+02  0.51100000000E-03 0. -1.
         23    2    1    0    0    0  0.18039066804E+02 -0.21129464649E+02  0.87799164590E+01  0.95863268190E+02  0.91328073710E+02 0.  0.
         11    1    3    3    0    0 -0.77939656033E+01 -0.53038532530E+02  0.11089429171E+02  0.54743102510E+02  0.51100000000E-03 0.  1.
         22    1    1    0    0    0 -0.18039066804E+02  0.21129464649E+02 -0.87799164590E+01  0.29136731810E+02  0.00000000000E+00 0.  1.
</event>
<event>
 5    1  0.1692171E-003  0.9118800E+02  0.7818608E-02  0.1130116E+00
         25   -1    0    0    0    0  0.00000000000E+00  0.00000000000E+00  0.99999998245E-14  0.12500000000E+03  0.12500000000E+03 0.  0.
        -11    1    3    3    0    0  0.15109364520E+02  0.44814595576E+02  0.19179380903E+02  0.51034199562E+02  0.51100000000E-03 0.  1.
         23    2    1    0    0    0  0.13572652037E+02  0.11596998279E+00  0.25410884915E+02  0.96191261663E+02  0.91775897794E+02 0.  0.
         11    1    3    3    0    0 -0.15367124824E+01 -0.44698625593E+02  0.62315040124E+01  0.45157062102E+02  0.51100000000E-03 0. -1.
         22    1    1    0    0    0 -0.13572652037E+02 -0.11596998279E+00 -0.25410884915E+02  0.28808738337E+02  0.00000000000E+00 0. -1.
</event>
<event>
 5    1  0.1692171E-003  0.9118800E+02  0.7818608E-02  0.1130116E+00
         25   -1    0    0    0    0  0.00000000000E+00  0.00000000000E+00  0.99999998245E-14  0.12500000000E+03  0.12500000000E+03 0.  0.
        -11    1    3    3    0    0  0.10722861852E+01 -0.46828553742E+02 -0.27686214217E+02  0.54411301226E+02  0.51100000000E-03 0.  1.
         23    2    1    0    0    0  0.15325493208E+02 -0.25230020480E+02  0.38770128269E+01  0.95226590656E+02  0.90452460795E+02 0.  0.
         11    1    3    3    0    0  0.14253207023E+02  0.21598533261E+02  0.31563227044E+02  0.40815289429E+02  0.51100000000E-03 0. -1.
         22    1    1    0    0    0 -0.15325493208E+02  0.25230020480E+02 -0.38770128269E+01  0.29773409344E+02  0.00000000000E+00 0.  1.
</event>
<event>
 5    1  0.1692171E-003  0.9118800E+02  0.7818608E-02  0.1130116E+00
         25   -1    0    0    0    0  0.00000000000E+00  0.00000000000E+00  0.99999998245E-14  0.12500000000E+03  0.12500000000E+03 0.  0.
        -11    1    3    3    0    0 -0.30518330875E+02  0.36332931553E+01 -0.96252513050E+01  0.32205819374E+02  0.51100000000E-03 0. -1.
         23    2    1    0    0    0  0.21950090352E+02  0.25537291044E+02  0.51073738332E+01  0.90940567124E+02  0.84321656655E+02 0.  0.
         11    1    3    3    0    0  0.52468421228E+02  0.21903997888E+02  0.14732625138E+02  0.58734747751E+02  0.51100000000E-03 0.  1.
         22    1    1    0    0    0 -0.21950090352E+02 -0.25537291044E+02 -0.51073738332E+01  0.34059432876E+02  0.00000000000E+00 0.  1.
</event>
<event>
 5    1  0.1692171E-003  0.9118800E+02  0.7818608E-02  0.1130116E+00
         25   -1    0    0    0    0  0.00000000000E+00  0.00000000000E+00  0.99999998245E-14  0.12500000000E+03  0.12500000000E+03 0.  0.
        -11    1    3    3    0    0 -0.12553798537E+01  0.53870698653E+02  0.25660855111E+02  0.59683394987E+02  0.51100000000E-03 0.  1.
         23    2    1    0    0    0 -0.98701206099E+01  0.19179434471E+02  0.19433574766E+02  0.95966677496E+02  0.91469499692E+02 0.  0.
         11    1    3    3    0    0 -0.86147407562E+01 -0.34691264182E+02 -0.62272803450E+01  0.36283282509E+02  0.51100000000E-03 0. -1.
         22    1    1    0    0    0  0.98701206099E+01 -0.19179434471E+02 -0.19433574766E+02  0.29033322504E+02  0.00000000000E+00 0.  1.
</event>
<event>
 5    1  0.1692171E-003  0.9118800E+02  0.7818608E-02  0.1130116E+00
         25   -1    0    0    0    0  0.00000000000E+00  0.00000000000E+00  0.99999998245E-14  0.12500000000E+03  0.12500000000E+03 0.  0.
        -11    1    3    3    0    0  0.39797207814E+02  0.87900075172E+01 -0.21165567343E+02  0.45924538356E+02  0.51100000000E-03 0.  1.
         23    2    1    0    0    0 -0.77848998669E+01 -0.30947480931E+01 -0.28301287912E+02  0.95484833912E+02  0.90808636583E+02 0.  0.
         11    1    3    3    0    0 -0.47582107681E+02 -0.11884755610E+02 -0.71357205695E+01  0.49560295556E+02  0.51100000000E-03 0. -1.
         22    1    1    0    0    0  0.77848998669E+01  0.30947480931E+01  0.28301287912E+02  0.29515166088E+02  0.00000000000E+00 0. -1.
</event>
<event>
 5    1  0.1692171E-003  0.9118800E+02  0.7818608E-02  0.1130116E+00
         25   -1    0    0    0    0  0.00000000000E+00  0.00000000000E+00  0.99999998245E-14  0.12500000000E+03  0.12500000000E+03 0.  0.
        -11    1    3    3    0    0 -0.35597899044E+02  0.59217774467E+01  0.17501386991E+02  0.40107061864E+02  0.51100000000E-03 0. -1.
         23    2    1    0    0    0 -0.24006800974E+02 -0.79527468128E+01 -0.26918513528E+02  0.88065205491E+02  0.79945615094E+02 0.  0.
         11    1    3    3    0    0  0.11591098070E+02 -0.13874524260E+02 -0.44419900518E+02  0.47958143628E+02  0.51100000000E-03 0.  1.
         22    1    1    0    0    0  0.24006800974E+02  0.79527468128E+01  0.26918513528E+02  0.36934794509E+02  0.00000000000E+00 0. -1.
</event>
<event>
 5    1  0.1692171E-003  0.9118800E+02  0.7818608E-02  0.1130116E+00
         25   -1    0    0    0    0  0.00000000000E+00  0.00000000000E+00  0.99999998245E-14  0.12500000000E+03  0.12500000000E+03 0.  0.
        -11    1    3    3    0    0 -0.50731220255E+02  0.13324635556E+02 -0.29664836454E+01  0.52535727336E+02  0.51100000000E-03 0. -1.
         23    2    1    0    0    0 -0.19718800398E+02 -0.74949705658E+01  0.19624015117E+02  0.96188411320E+02  0.91772015506E+02 0.  0.
         11    1    3    3    0    0  0.31012419857E+02 -0.20819606122E+02  0.22590498763E+02  0.43652683984E+02  0.51100000000E-03 0.  1.
         22    1    1    0    0    0  0.19718800398E+02  0.74949705658E+01 -0.19624015117E+02  0.28811588680E+02  0.00000000000E+00 0. -1.
</event>
<event>
 5    1  0.1692171E-003  0.9118800E+02  0.7818608E-02  0.1130116E+00
         25   -1    0    0    0    0  0.00000000000E+00  0.00000000000E+00  0.99999998245E-14  0.12500000000E+03  0.12500000000E+03 0.  0.
        -11    1    3    3    0    0 -0.30872378133E+02  0.22595914758E+02 -0.35315110493E+02  0.52065690476E+02  0.51100000000E-03 0.  1.
         23    2    1    0    0    0 -0.21836948787E+02  0.12573831928E+02  0.88861586672E+01  0.98280767272E+02  0.94579024197E+02 0.  0.
         11    1    3    3    0    0  0.90354293454E+01 -0.10022082830E+02  0.44201269160E+02  0.46215076797E+02  0.51100000000E-03 0. -1.
         22    1    1    0    0    0  0.21836948787E+02 -0.12573831928E+02 -0.88861586672E+01  0.26719232728E+02  0.00000000000E+00 0.  1.
</event>
<event>
 5    1  0.1692171E-003  0.9118800E+02  0.7818608E-02  0.1130116E+00
         25   -1    0    0    0    0  0.00000000000E+00  0.00000000000E+00  0.99999998245E-14  0.12500000000E+03  0.12500000000E+03 0.  0.
        -11    1    3    3    0    0  0.38518021901E+01 -0.33418407549E+02 -0.14398863699E+02  0.36591715173E+02  0.51100000000E-03 0.  1.
         23    2    1    0    0    0  0.84436080057E+01  0.26147328434E+02 -0.51112131655E+01  0.97051801482E+02  0.92940574404E+02 0.  0.
         11    1    3    3    0    0  0.45918058156E+01  0.59565735983E+02  0.92876505332E+01  0.60460086309E+02  0.51100000000E-03 0. -1.
         22    1    1    0    0    0 -0.84436080057E+01 -0.26147328434E+02  0.51112131655E+01  0.27948198518E+02  0.00000000000E+00 0. -1.
</event>
<event>
 5    1  0.1692171E-003  0.9118800E+02  0.7818608E-02  0.1130116E+00
         25   -1    0    0    0    0  0.00000000000E+00  0.00000000000E+00  0.99999998245E-14  0.12500000000E+03  0.12500000000E+03 0.  0.
        -11    1    3    3    0    0  0.13716290212E+02 -0.15369106397E+02  0.54520792292E+02  0.58282611824E+02  0.51100000000E-03 0. -1.
         23    2    1    0    0    0  0.17360090762E+02 -0.17073610692E+02  0.18777888778E+02  0.94251178230E+02  0.89094301487E+02 0.  0.
         11    1    3    3    0    0  0.36438005496E+01 -0.17045042952E+01 -0.35742903515E+02  0.35968566405E+02  0.51100000000E-03 0.  1.
         22    1    1    0    0    0 -0.17360090762E+02  0.17073610692E+02 -0.18777888778E+02  0.30748821770E+02  0.00000000000E+00 0. -1.
</event>
<event>
 5    1  0.1692171E-003  0.9118800E+02  0.7818608E-02  0.1130116E+00
         25   -1    0    0    0    0  0.00000000000E+00  0.00000000000E+00  0.99999998245E-14  0.12500000000E+03  0.12500000000E+03 0.  0.
        -11    1    3    3    0    0 -0.33636466222E+02 -0.13855519459E+02  0.25812992044E+02  0.44606029166E+02  0.51100000000E-03 0. -1.
         23    2    1    0    0    0 -0.93413533179E+00 -0.31832999983E+02 -0.46971841830E+01  0.92808758397E+02  0.87047053937E+02 0.  0.
         11    1    3    3    0    0  0.32702330891E+02 -0.17977480524E+02 -0.30510176227E+02  0.48202729231E+02  0.51100000000E-03 0.  1.
         22    1    1    0    0    0  0.93413533179E+00  0.31832999983E+02  0.46971841830E+01  0.32191241603E+02  0.00000000000E+00 0. -1.
</event>
<event>
 5    1  0.1692171E-003  0.9118800E+02  0.7818608E-02  0.1130116E+00
         25   -1    0    0    0    0  0.00000000000E+00  0.00000000000E+00  0.99999998245E-14  0.12500000000E+03  0.12500000000E+03 0.  0.
        -11    1    3    3    0    0 -0.24107582666E+02  0.45515137912E+02 -0.19414781474E+02  0.55043047346E+02  0.51100000000E-03 0.  1.
         23    2    1    0    0    0  0.95477486298E+01  0.23796379267E+02 -0.14882622168E+02  0.95353421568E+02  0.90627564195E+02 0.  0.
         11    1    3    3    0    0  0.33655331296E+02 -0.21718758645E+02  0.45321593061E+01  0.40310374222E+02  0.51100000000E-03 0. -1.
         22    1    1    0    0    0 -0.95477486298E+01 -0.23796379267E+02  0.14882622168E+02  0.29646578432E+02  0.00000000000E+00 0.  1.
</event>
<event>
 5    1  0.1692171E-003  0.9118800E+02  0.7818608E-02  0.1130116E+00
         25   -1    0    0    0    0  0.00000000000E+00  0.00000000000E+00  0.99999998245E-14  0.12500000000E+03  0.12500000000E+03 0.  0.
        -11    1    3    3    0    0 -0.57340746764E+02 -0.91191474461E+01  0.14106046521E+02  0.59750319148E+02  0.51100000000E-03 0.  1.
         23    2    1    0    0    0 -0.27277451103E+02  0.74178695821E+01  0.12478146348E+02  0.94100351715E+02  0.88882438810E+02 0.  0.
         11    1    3    3    0    0  0.30063295660E+02  0.16537017028E+02 -0.16279001736E+01  0.34350032567E+02  0.51100000000E-03 0. -1.
         22    1    1    0    0    0  0.27277451103E+02 -0.74178695821E+01 -0.12478146348E+02  0.30899648285E+02  0.00000000000E+00 0.  1.
</event>
<event>
 5    1  0.1692171E-003  0.9118800E+02  0.7818608E-02  0.1130116E+00
         25   -1    0    0    0    0  0.00000000000E+00  0.00000000000E+00  0.99999998245E-14  0.12500000000E+03  0.12500000000E+03 0.  0.
        -11    1    3    3    0    0 -0.24940108019E+02  0.41094315671E+02 -0.99641308442E+01  0.49092114155E+02  0.51100000000E-03 0. -1.
         23    2    1    0    0    0  0.15862314236E+02  0.24667092127E+02  0.43593774187E+01  0.95350672547E+02  0.90623772470E+02 0.  0.
         11    1    3    3    0    0  0.40802422256E+02 -0.16427223544E+02  0.14323508263E+02  0.46258558392E+02  0.51100000000E-03 0.  1.
         22    1    1    0    0    0 -0.15862314236E+02 -0.24667092127E+02 -0.43593774187E+01  0.29649327453E+02  0.00000000000E+00 0. -1.
</event>
<event>
 5    1  0.1692171E-003  0.9118800E+02  0.7818608E-02  0.1130116E+00
         25   -1    0    0    0    0  0.00000000000E+00  0.00000000000E+00  0.99999998245E-14  0.12500000000E+03  0.12500000000E+03 0.  0.
        -11    1    3    3    0    0 -0.13030271501E+02  0.27306188593E+02 -0.24193656461E+02  0.38739500824E+02  0.51100000000E-03 0. -1.
         23    2    1    0    0    0 -0.93501155419E+01  0.65024510541E+01  0.27851880899E+02  0.94909572951E+02  0.90013294784E+02 0.  0.
         11    1    3    3    0    0  0.36801559588E+01 -0.20803737539E+02  0.52045537360E+02  0.56170072127E+02  0.51100000000E-03 0.  1.
         22    1    1    0    0    0  0.93501155419E+01 -0.65024510541E+01 -0.27851880899E+02  0.30090427049E+02  0.00000000000E+00 0.  1.
</event>
<event>
 5    1  0.1692171E-003  0.9118800E+02  0.7818608E-02  0.1130116E+00
         25   -1    0    0    0    0  0.00000000000E+00  0.00000000000E+00  0.99999998245E-14  0.12500000000E+03  0.12500000000E+03 0.  0.
        -11    1    3    3    0    0  0.33070852094E+02 -0.17421734868E+02  0.19959408085E+02  0.42374238346E+02  0.51100000000E-03 0. -1.
         23    2    1    0    0    0 -0.14544496831E+02 -0.25575521665E+02 -0.21456681756E+01  0.95499939180E+02  0.90829426922E+02 0.  0.
         11    1    3    3    0    0 -0.47615348925E+02 -0.81537867964E+01 -0.22105076260E+02  0.53125700834E+02  0.51100000000E-03 0.  1.
         22    1    1    0    0    0  0.14544496831E+02  0.25575521665E+02  0.21456681756E+01  0.29500060820E+02  0.00000000000E+00 0.  1.
</event>
<event>
 5    1  0.1692171E-003  0.9118800E+02  0.7818608E-02  0.1130116E+00
         25   -1    0    0    0    0  0.00000000000E+00  0.00000000000E+00  0.99999998245E-14  0.12500000000E+03  0.12500000000E+03 0.  0.
        -11    1    3    3    0    0  0.22728874035E+02 -0.26883550370E+02 -0.47545589866E+02  0.59160038128E+02  0.51100000000E-03 0. -1.
         23    2    1    0    0    0  0.22266423419E+01 -0.33506892038E+01 -0.29529424225E+02  0.95197786167E+02  0.90412645918E+02 0.  0.
         11    1    3    3    0    0 -0.20502231693E+02  0.23532861166E+02  0.18016165641E+02  0.36037748039E+02  0.51100000000E-03 0.  1.
         22    1    1    0    0    0 -0.22266423419E+01  0.33506892038E+01  0.29529424225E+02  0.29802213833E+02  0.00000000000E+00 0. -1.
</event>
<event>
 5    1  0.1692171E-003  0.9118800E+02  0.7818608E-02  0.1130116E+00
         25   -1    0    0    0    0  0.00000000000E+00  0.00000000000E+00  0.99999998245E-14  0.12500000000E+03  0.12500000000E+03 0.  0.
        -11    1    3    3    0    0 -0.33321339924E+02 -0.30338694174E+02  0.73823014126E+01  0.45664498606E+02  0.51100000000E-03 0.  1.
         23    2    1    0    0    0  0.65774707460E+01 -0.86902002820E+01  0.27576981765E+02  0.95347468479E+02  0.90619352898E+02 0.  0.
         11    1    3    3    0    0  0.39898810669E+02  0.21648493892E+02  0.20194680352E+02  0.49682969873E+02  0.51100000000E-03 0. -1.
         22    1    1    0    0    0 -0.65774707460E+01  0.86902002820E+01 -0.27576981765E+02  0.29652531521E+02  0.00000000000E+00 0. -1.
</event>
<event>
 5    1  0.1692171E-003  0.9118800E+02  0.7818608E-02  0.1130116E+00
         25   -1    0    0    0    0  0.00000000000E+00  0.00000000000E+00  0.99999998245E-14  0.12500000000E+03  0.12500000000E+03 0.  0.
        -11    1    3    3    0    0 -0.22481542805E+02  0.27480594601E+02  0.48539011182E+02  0.60138493940E+02  0.51100000000E-03 0.  1.
         23    2    1    0    0    0 -0.20607540710E+02  0.69506108159E+01  0.19243929408E+02  0.95960190361E+02  0.91460634101E+02 0.  0.
         11    1    3    3    0    0  0.18740020951E+01 -0.20529983785E+02 -0.29295081774E+02  0.35821696421E+02  0.51100000000E-03 0. -1.
         22    1    1    0    0    0  0.20607540710E+02 -0.69506108159E+01 -0.19243929408E+02  0.29039809639E+02  0.00000000000E+00 0.  1.
</event>
<event>
 5    1  0.1692171E-003  0.9118800E+02  0.7818608E-02  0.1130116E+00
         25   -1    0    0    0    0  0.00000000000E+00  0.00000000000E+00  0.99999998245E-14  0.12500000000E+03  0.12500000000E+03 0.  0.
        -11    1    3    3    0    0 -0.36534415696E+02 -0.22336554468E+02  0.37739535809E+02  0.57078522748E+02  0.51100000000E-03 0.  1.
         23    2    1    0    0    0 -0.13345240606E+02  0.48701570010E+01  0.27142714695E+02  0.94364386132E+02  0.89252991731E+02 0.  0.
         11    1    3    3    0    0  0.23189175091E+02  0.27206711469E+02 -0.10596821113E+02  0.37285863384E+02  0.51100000000E-03 0. -1.
         22    1    1    0    0    0  0.13345240606E+02 -0.48701570010E+01 -0.27142714695E+02  0.30635613868E+02  0.00000000000E+00 0.  1.
</event>
<event>
 5    1  0.1692171E-003  0.9118800E+02  0.7818608E-02  0.1130116E+00
         25   -1    0    0    0    0  0.00000000000E+00  0.00000000000E+00  0.99999998245E-14  0.12500000000E+03  0.12500000000E+03 0.  0.
        -11    1    3    3    0    0 -0.16150106811E+02  0.52722185229E+01  0.23173700151E+02  0.28733997583E+02  0.51100000000E-03 0.  1.
         23    2    1    0    0    0  0.33543936358E+00 -0.24039353521E+02 -0.26817249879E+02  0.88983782426E+02  0.81369193227E+02 0.  0.
         11    1    3    3    0    0  0.16485546174E+02 -0.29311572044E+02 -0.49990950030E+02  0.60249784842E+02  0.51100000000E-03 0. -1.
         22    1    1    0    0    0 -0.33543936358E+00  0.24039353521E+02  0.26817249879E+02  0.36016217574E+02  0.00000000000E+00 0. -1.
</event>
<event>
 5    1  0.1692171E-003  0.9118800E+02  0.7818608E-02  0.1130116E+00
         25   -1    0    0    0    0  0.00000000000E+00  0.00000000000E+00  0.99999998245E-14  0.12500000000E+03  0.12500000000E+03 0.  0.
        -11    1    3    3    0    0 -0.39889591697E+02  0.34946998347E+02 -0.66997421722E+01  0.53454267974E+02  0.51100000000E-03 0. -1.
         23    2    1    0    0    0 -0.14591787921E+01  0.20929590967E+02 -0.19540503990E+02  0.96329313281E+02  0.91963733722E+02 0.  0.
         11    1    3    3    0    0  0.38430412905E+02 -0.14017407380E+02 -0.12840761817E+02  0.42875045306E+02  0.51100000000E-03 0.  1.
         22    1    1    0    0    0  0.14591787921E+01 -0.20929590967E+02  0.19540503990E+02  0.28670686719E+02  0.00000000000E+00 0. -1.
</event>
<event>
 5    1  0.1692171E-003  0.9118800E+02  0.7818608E-02  0.1130116E+00
         25   -1    0    0    0    0  0.00000000000E+00  0.00000000000E+00  0.99999998245E-14  0.12500000000E+03  0.12500000000E+03 0.  0.
        -11    1    3    3    0    0 -0.11766186481E+02 -0.43366322071E+02 -0.29424850901E+02  0.53711291970E+02  0.51100000000E-03 0. -1.
         23    2    1    0    0    0 -0.23930975085E+02 -0.55932252762E+01 -0.16303675188E+02  0.95507872879E+02  0.90840344670E+02 0.  0.
         11    1    3    3    0    0 -0.12164788604E+02  0.37773096795E+02  0.13121175713E+02  0.41796580909E+02  0.51100000000E-03 0.  1.
         22    1    1    0    0    0  0.23930975085E+02  0.55932252762E+01  0.16303675188E+02  0.29492127121E+02  0.00000000000E+00 0.  1.
</event>
<event>
 5    1  0.1692171E-003  0.9118800E+02  0.7818608E-02  0.1130116E+00
         25   -1    0    0    0    0  0.00000000000E+00  0.00000000000E+00  0.99999998245E-14  0.12500000000E+03  0.12500000000E+03 0.  0.
        -11    1    3    3    0    0 -0.20844854843E+02 -0.24141705161E+02 -0.25572947815E+02  0.40881604197E+02  0.51100000000E-03 0. -1.
         23    2    1    0    0    0 -0.18324702633E+02  0.43657033284E+01  0.21775613826E+02  0.96207093762E+02  0.91797458791E+02 0.  0.
         11    1    3    3    0    0  0.25201522105E+01  0.28507408489E+02  0.47348561641E+02  0.55325489565E+02  0.51100000000E-03 0.  1.
         22    1    1    0    0    0  0.18324702633E+02 -0.43657033284E+01 -0.21775613826E+02  0.28792906238E+02  0.00000000000E+00 0.  1.
</event>
<event>
 5    1  0.1692171E-003  0.9118800E+02  0.7818608E-02  0.1130116E+00
         25   -1    0    0    0    0  0.00000000000E+00  0.00000000000E+00  0.99999998245E-14  0.12500000000E+03  0.12500000000E+03 0.  0.
        -11    1    3    3    0    0 -0.46765616853E+01  0.31760575848E+02  0.12658967170E+02  0.34508750448E+02  0.51100000000E-03 0. -1.
         23    2    1    0    0    0 -0.83278172605E+01 -0.27865653533E+02  0.97807310258E+01  0.94315966912E+02  0.89185154190E+02 0.  0.
         11    1    3    3    0    0 -0.36512555751E+01 -0.59626229382E+02 -0.28782361441E+01  0.59807216464E+02  0.51100000000E-03 0.  1.
         22    1    1    0    0    0  0.83278172605E+01  0.27865653533E+02 -0.97807310258E+01  0.30684033088E+02  0.00000000000E+00 0.  1.
</event>
<event>
 5    1  0.1692171E-003  0.9118800E+02  0.7818608E-02  0.1130116E+00
         25   -1    0    0    0    0  0.00000000000E+00  0.00000000000E+00  0.99999998245E-14  0.12500000000E+03  0.12500000000E+03 0.  0.
        -11    1    3    3    0    0  0.35460819565E+01 -0.91382908196E+01 -0.53662419561E+02  0.54550328411E+02  0.51100000000E-03 0.  1.
         23    2    1    0    0    0 -0.13363562163E+02  0.12398660739E+02 -0.22785335185E+02  0.95819816976E+02  0.91268583006E+02 0.  0.
         11    1    3    3    0    0 -0.16909644119E+02  0.21536951559E+02  0.30877084375E+02  0.41269488565E+02  0.51100000000E-03 0. -1.
         22    1    1    0    0    0  0.13363562163E+02 -0.12398660739E+02  0.22785335185E+02  0.29180183024E+02  0.00000000000E+00 0.  1.
</event>
<event>
 5    1  0.1692171E-003  0.9118800E+02  0.7818608E-02  0.1130116E+00
         25   -1    0    0    0    0  0.00000000000E+00  0.00000000000E+00  0.99999998245E-14  0.12500000000E+03  0.12500000000E+03 0.  0.
        -11    1    3    3    0    0 -0.32435068031E+02  0.39027250852E+02  0.68364813054E+01  0.51204466838E+02  0.51100000000E-03 0.  1.
         23    2    1    0    0    0 -0.13591317726E+02  0.10274821287E+02  0.28469255142E+02  0.91821778855E+02  0.85618016292E+02 0.  0.
         11    1    3    3    0    0  0.18843750304E+02 -0.28752429565E+02  0.21632773836E+02  0.40617312017E+02  0.51100000000E-03 0. -1.
         22    1    1    0    0    0  0.13591317726E+02 -0.10274821287E+02 -0.28469255142E+02  0.33178221145E+02  0.00000000000E+00 0.  1.
</event>
<event>
 5    1  0.1692171E-003  0.9118800E+02  0.7818608E-02  0.1130116E+00
         25   -1    0    0    0    0  0.00000000000E+00  0.00000000000E+00  0.99999998245E-14  0.12500000000E+03  0.12500000000E+03 0.  0.
        -11    1    3    3    0    0 -0.31094647010E+02 -0.17004395480E+02 -0.10534008320E+02  0.36972853147E+02  0.51100000000E-03 0. -1.
         23    2    1    0    0    0  0.25424516997E+02 -0.21829405339E+01 -0.14698760371E+02  0.95551318360E+02  0.90900107756E+02 0.  0.
         11    1    3    3    0    0  0.56519164007E+02  0.14821454946E+02 -0.41647520509E+01  0.58578465213E+02  0.51100000000E-03 0.  1.
         22    1    1    0    0    0 -0.25424516997E+02  0.21829405339E+01  0.14698760371E+02  0.29448681640E+02  0.00000000000E+00 0.  1.
</event>
<event>
 5    1  0.1692171E-003  0.9118800E+02  0.7818608E-02  0.1130116E+00
         25   -1    0    0    0    0  0.00000000000E+00  0.00000000000E+00  0.99999998245E-14  0.12500000000E+03  0.12500000000E+03 0.  0.
        -11    1    3    3    0    0  0.56683438358E+01  0.12735496642E+02 -0.44642800980E+02  0.46768607807E+02  0.51100000000E-03 0. -1.
         23    2    1    0    0    0 -0.54383270903E+01  0.25813147080E+02  0.39725074516E+01  0.98322766651E+02  0.94634516234E+02 0.  0.
         11    1    3    3    0    0 -0.11106670926E+02  0.13077650437E+02  0.48615308432E+02  0.51554158845E+02  0.51100000000E-03 0.  1.
         22    1    1    0    0    0  0.54383270903E+01 -0.25813147080E+02 -0.39725074516E+01  0.26677233349E+02  0.00000000000E+00 0.  1.
</event>
<event>
 5    1  0.1692171E-003  0.9118800E+02  0.7818608E-02  0.1130116E+00
         25   -1    0    0    0    0  0.00000000000E+00  0.00000000000E+00  0.99999998245E-14  0.12500000000E+03  0.12500000000E+03 0.  0.
        -11    1    3    3    0    0 -0.20280130762E+02  0.17307341062E+02 -0.22476902557E+02  0.34871749413E+02  0.51100000000E-03 0.  1.
         23    2    1    0    0    0  0.27671009119E+02  0.67256758700E+01 -0.28938697448E+02  0.84399905523E+02  0.73993083330E+02 0.  0.
         11    1    3    3    0    0  0.47951139881E+02 -0.10581665192E+02 -0.64617948914E+01  0.49528156109E+02  0.51100000000E-03 0. -1.
         22    1    1    0    0    0 -0.27671009119E+02 -0.67256758700E+01  0.28938697448E+02  0.40600094477E+02  0.00000000000E+00 0. -1.
</event>
<event>
 5    1  0.1692171E-003  0.9118800E+02  0.7818608E-02  0.1130116E+00
         25   -1    0    0    0    0  0.00000000000E+00  0.00000000000E+00  0.99999998245E-14  0.12500000000E+03  0.12500000000E+03 0.  0.
        -11    1    3    3    0    0 -0.70097851110E+01 -0.13130943897E+02  0.34678027258E+02  0.37737572122E+02  0.51100000000E-03 0.  1.
         23    2    1    0    0    0 -0.15926101525E+02  0.21277647909E+02 -0.11524630717E+02  0.96031118014E+02  0.91557520191E+02 0.  0.
         11    1    3    3    0    0 -0.89163164142E+01  0.34408591806E+02 -0.46202657975E+02  0.58293545892E+02  0.51100000000E-03 0. -1.
         22    1    1    0    0    0  0.15926101525E+02 -0.21277647909E+02  0.11524630717E+02  0.28968881986E+02  0.00000000000E+00 0. -1.
</event>
<event>
 5    1  0.1692171E-003  0.9118800E+02  0.7818608E-02  0.1130116E+00
         25   -1    0    0    0    0  0.00000000000E+00  0.00000000000E+00  0.99999998245E-14  0.12500000000E+03  0.12500000000E+03 0.  0.
        -11    1    3    3    0    0 -0.53059183120E+02  0.18063562191E+02  0.59384504309E+00  0.56052848676E+02  0.51100000000E-03 0. -1.
         23    2    1    0    0    0 -0.17556521831E+02  0.17261904196E+02  0.16907515019E+02  0.95132478184E+02  0.90322309238E+02 0.  0.
         11    1    3    3    0    0  0.35502661290E+02 -0.80165799463E+00  0.16313669976E+02  0.39079629509E+02  0.51100000000E-03 0.  1.
         22    1    1    0    0    0  0.17556521831E+02 -0.17261904196E+02 -0.16907515019E+02  0.29867521816E+02  0.00000000000E+00 0. -1.
</event>
<event>
 5    1  0.1692171E-003  0.9118800E+02  0.7818608E-02  0.1130116E+00
         25   -1    0    0    0    0  0.00000000000E+00  0.00000000000E+00  0.99999998245E-14  0.12500000000E+03  0.12500000000E+03 0.  0.
        -11    1    3    3    0    0  0.25352503478E+02 -0.28975304011E+02 -0.46053000196E+02  0.60026631610E+02  0.51100000000E-03 0.  1.
         23    2    1    0    0    0  0.15616101178E+01 -0.19838872874E+02 -0.15751801018E+02  0.99620111537E+02  0.96332901359E+02 0.  0.
         11    1    3    3    0    0 -0.23790893360E+02  0.91364311368E+01  0.30301199179E+02  0.39593479927E+02  0.51100000000E-03 0. -1.
         22    1    1    0    0    0 -0.15616101178E+01  0.19838872874E+02  0.15751801018E+02  0.25379888463E+02  0.00000000000E+00 0.  1.
</event>
<event>
 5    1  0.1692171E-003  0.9118800E+02  0.7818608E-02  0.1130116E+00
         25   -1    0    0    0    0  0.00000000000E+00  0.00000000000E+00  0.99999998245E-14  0.12500000000E+03  0.12500000000E+03 0.  0.
        -11    1    3    3    0    0 -0.28424110198E+02 -0.16596841000E+02  0.71833097324E+01  0.33689540078E+02  0.51100000000E-03 0. -1.
         23    2    1    0    0    0  0.29566979148E+02  0.86830222764E+00 -0.35864387227E+01  0.95203645401E+02  0.90420746237E+02 0.  0.
         11    1    3    3    0    0  0.57991089346E+02  0.17465143227E+02 -0.10769748455E+02  0.61514105322E+02  0.51100000000E-03 0.  1.
         22    1    1    0    0    0 -0.29566979148E+02 -0.86830222764E+00  0.35864387227E+01  0.29796354599E+02  0.00000000000E+00 0.  1.
</event>
<event>
 5    1  0.1692171E-003  0.9118800E+02  0.7818608E-02  0.1130116E+00
         25   -1    0    0    0    0  0.00000000000E+00  0.00000000000E+00  0.99999998245E-14  0.12500000000E+03  0.12500000000E+03 0.  0.
        -11    1    3    3    0    0 -0.27149113876E+02  0.18648869816E+02 -0.18659269787E+02  0.37855291293E+02  0.51100000000E-03 0.  1.
         23    2    1    0    0    0 -0.11996905533E+02 -0.16306533077E+02  0.23034380012E+02  0.94333871683E+02  0.89210245605E+02 0.  0.
         11    1    3    3    0    0  0.15152208343E+02 -0.34955402893E+02  0.41693649799E+02  0.56478580390E+02  0.51100000000E-03 0. -1.
         22    1    1    0    0    0  0.11996905533E+02  0.16306533077E+02 -0.23034380012E+02  0.30666128317E+02  0.00000000000E+00 0. -1.
</event>
<event>
 5    1  0.1692171E-003  0.9118800E+02  0.7818608E-02  0.1130116E+00
         25   -1    0    0    0    0  0.00000000000E+00  0.00000000000E+00  0.99999998245E-14  0.12500000000E+03  0.12500000000E+03 0.  0.
        -11    1    3    3    0    0 -0.12302444283E+00  0.21695828129E+02 -0.26008802959E+02  0.33870074178E+02  0.51100000000E-03 0.  1.
         23    2    1    0    0    0 -0.31473573988E+01 -0.17706017039E+02  0.22344436024E+02  0.96317553814E+02  0.91947748496E+02 0.  0.
         11    1    3    3    0    0 -0.30243329560E+01 -0.39401845168E+02  0.48353238983E+02  0.62447479636E+02  0.51100000000E-03 0. -1.
         22    1    1    0    0    0  0.31473573988E+01  0.17706017039E+02 -0.22344436024E+02  0.28682446186E+02  0.00000000000E+00 0. -1.
</event>
<event>
 5    1  0.1692171E-003  0.9118800E+02  0.7818608E-02  0.1130116E+00
         25   -1    0    0    0    0  0.00000000000E+00  0.00000000000E+00  0.99999998245E-14  0.12500000000E+03  0.12500000000E+03 0.  0.
        -11    1    3    3    0    0  0.29052956911E+02 -0.36764914430E+02 -0.21699033189E+02  0.51638951189E+02  0.51100000000E-03 0. -1.
         23    2    1    0    0    0  0.11896596303E+02  0.28922496532E+01 -0.27175643482E+02  0.95193797452E+02  0.90407131152E+02 0.  0.
         11    1    3    3    0    0 -0.17156360607E+02  0.39657164084E+02 -0.54766102930E+01  0.43554846263E+02  0.51100000000E-03 0.  1.
         22    1    1    0    0    0 -0.11896596303E+02 -0.28922496532E+01  0.27175643482E+02  0.29806202548E+02  0.00000000000E+00 0. -1.
</event>
<event>
 5    1  0.1692171E-003  0.9118800E+02  0.7818608E-02  0.1130116E+00
         25   -1    0    0    0    0  0.00000000000E+00  0.00000000000E+00  0.99999998245E-14  0.12500000000E+03  0.12500000000E+03 0.  0.
        -11    1    3    3    0    0 -0.20196858526E+02 -0.55151073511E+02  0.19700615212E+02  0.61948916405E+02  0.51100000000E-03 0.  1.
         23    2    1    0    0    0 -0.13213904508E+02 -0.26750618403E+02  0.47737329702E+01  0.94784252719E+02  0.89839096053E+02 0.  0.
         11    1    3    3    0    0  0.69829540182E+01  0.28400455108E+02 -0.14926882241E+02  0.32835336314E+02  0.51100000000E-03 0. -1.
         22    1    1    0    0    0  0.13213904508E+02  0.26750618403E+02 -0.47737329702E+01  0.30215747281E+02  0.00000000000E+00 0.  1.
</event>
<event>
 5    1  0.1692171E-003  0.9118800E+02  0.7818608E-02  0.1130116E+00
         25   -1    0    0    0    0  0.00000000000E+00  0.00000000000E+00  0.99999998245E-14  0.12500000000E+03  0.12500000000E+03 0.  0.
        -11    1    3    3    0    0  0.50676943445E+02 -0.19500677849E+02  0.27870315972E+02  0.61034281728E+02  0.51100000000E-03 0. -1.
         23    2    1    0    0    0  0.25653842992E+02  0.10823810162E+00  0.10319184623E+02  0.97348292150E+02  0.93338486368E+02 0.  0.
         11    1    3    3    0    0 -0.25023100453E+02  0.19608915951E+02 -0.17551131349E+02  0.36314010422E+02  0.51100000000E-03 0.  1.
         22    1    1    0    0    0 -0.25653842992E+02 -0.10823810162E+00 -0.10319184623E+02  0.27651707850E+02  0.00000000000E+00 0. -1.
</event>
<event>
 5    1  0.1692171E-003  0.9118800E+02  0.7818608E-02  0.1130116E+00
         25   -1    0    0    0    0  0.00000000000E+00  0.00000000000E+00  0.99999998245E-14  0.12500000000E+03  0.12500000000E+03 0.  0.
        -11    1    3    3    0    0  0.21642280904E+02 -0.15593047512E+02 -0.19109500846E+02  0.32813175346E+02  0.51100000000E-03 0. -1.
         23    2    1    0    0    0 -0.23119819710E+02  0.38691101980E+01  0.19069813079E+02  0.94781564434E+02  0.89835355560E+02 0.  0.
         11    1    3    3    0    0 -0.44762100614E+02  0.19462157710E+02  0.38179313925E+02  0.61968389088E+02  0.51100000000E-03 0.  1.
         22    1    1    0    0    0  0.23119819710E+02 -0.38691101980E+01 -0.19069813079E+02  0.30218435566E+02  0.00000000000E+00 0.  1.
</event>
<event>
 5    1  0.1692171E-003  0.9118800E+02  0.7818608E-02  0.1130116E+00
         25   -1    0    0    0    0  0.00000000000E+00  0.00000000000E+00  0.99999998245E-14  0.12500000000E+03  0.12500000000E+03 0.  0.
        -11    1    3    3    0    0  0.29836740181E+01  0.57718889077E+01 -0.44846063576E+02  0.45314307131E+02  0.51100000000E-03 0.  1.
         23    2    1    0    0    0 -0.28404323879E+02 -0.33933078723E+01 -0.65827736409E+01  0.95646072458E+02  0.91030314261E+02 0.  0.
         11    1    3    3    0    0 -0.31387997897E+02 -0.91651967800E+01  0.38263289935E+02  0.50331765327E+02  0.51100000000E-03 0. -1.
         22    1    1    0    0    0  0.28404323879E+02  0.33933078723E+01  0.65827736409E+01  0.29353927542E+02  0.00000000000E+00 0. -1.
</event>
<event>
 5    1  0.1692171E-003  0.9118800E+02  0.7818608E-02  0.1130116E+00
         25   -1    0    0    0    0  0.00000000000E+00  0.00000000000E+00  0.99999998245E-14  0.12500000000E+03  0.12500000000E+03 0.  0.
        -11    1    3    3    0    0  0.50691479816E+02  0.18977058544E+02  0.12422144818E+02  0.55534354764E+02  0.51100000000E-03 0. -1.
         23    2    1    0    0    0  0.22530309375E+02  0.18096219401E+02 -0.12841659842E+02  0.93377283092E+02  0.87859665222E+02 0.  0.
         11    1    3    3    0    0 -0.28161170441E+02 -0.88083914283E+00 -0.25263804661E+02  0.37842928327E+02  0.51100000000E-03 0.  1.
         22    1    1    0    0    0 -0.22530309375E+02 -0.18096219401E+02  0.12841659842E+02  0.31622716908E+02  0.00000000000E+00 0. -1.
</event>
<event>
 5    1  0.1692171E-003  0.9118800E+02  0.7818608E-02  0.1130116E+00
         25   -1    0    0    0    0  0.00000000000E+00  0.00000000000E+00  0.99999998245E-14  0.12500000000E+03  0.12500000000E+03 0.  0.
        -11    1    3    3    0    0  0.44107957283E+02 -0.34781724779E+02 -0.24247616307E+02  0.61181918662E+02  0.51100000000E-03 0. -1.
         23    2    1    0    0    0  0.27025197305E+02 -0.17275487543E+02 -0.22727679807E+02  0.85689044929E+02  0.76139748044E+02 0.  0.
         11    1    3    3    0    0 -0.17082759979E+02  0.17506237236E+02  0.15199365003E+01  0.24507126267E+02  0.51100000000E-03 0.  1.
         22    1    1    0    0    0 -0.27025197305E+02  0.17275487543E+02  0.22727679807E+02  0.39310955071E+02  0.00000000000E+00 0. -1.
</event>
<event>
 5    1  0.1692171E-003  0.9118800E+02  0.7818608E-02  0.1130116E+00
         25   -1    0    0    0    0  0.00000000000E+00  0.00000000000E+00  0.99999998245E-14  0.12500000000E+03  0.12500000000E+03 0.  0.
        -11    1    3    3    0    0  0.48559553865E+02 -0.99660927818E+01  0.36532711867E+02  0.61579154862E+02  0.51100000000E-03 0. -1.
         23    2    1    0    0    0  0.22837867310E+02 -0.11044434372E+02  0.12835946001E+02  0.96569220489E+02  0.92289247056E+02 0.  0.
         11    1    3    3    0    0 -0.25721686555E+02 -0.10783415907E+01 -0.23696765866E+02  0.34990065627E+02  0.51100000000E-03 0.  1.
         22    1    1    0    0    0 -0.22837867310E+02  0.11044434372E+02 -0.12835946001E+02  0.28430779511E+02  0.00000000000E+00 0. -1.
</event>
<event>
 5    1  0.1692171E-003  0.9118800E+02  0.7818608E-02  0.1130116E+00
         25   -1    0    0    0    0  0.00000000000E+00  0.00000000000E+00  0.99999998245E-14  0.12500000000E+03  0.12500000000E+03 0.  0.
        -11    1    3    3    0    0 -0.21592310417E+02  0.25772073838E+02  0.93908790450E+01  0.34908684716E+02  0.51100000000E-03 0.  1.
         23    2    1    0    0    0  0.90520993014E+01 -0.24716005304E+02 -0.96542505977E+01  0.96963845225E+02  0.92822202658E+02 0.  0.
         11    1    3    3    0    0  0.30644409719E+02 -0.50488079142E+02 -0.19045129643E+02  0.62055160509E+02  0.51100000000E-03 0. -1.
         22    1    1    0    0    0 -0.90520993014E+01  0.24716005304E+02  0.96542505977E+01  0.28036154775E+02  0.00000000000E+00 0. -1.
</event>
<event>
 5    1  0.1692171E-003  0.9118800E+02  0.7818608E-02  0.1130116E+00
         25   -1    0    0    0    0  0.00000000000E+00  0.00000000000E+00  0.99999998245E-14  0.12500000000E+03  0.12500000000E+03 0.  0.
        -11    1    3    3    0    0 -0.22008361679E+02  0.14250315490E+02 -0.39199836349E+02  0.47160011084E+02  0.51100000000E-03 0. -1.
         23    2    1    0    0    0 -0.33673847207E+01  0.28014418081E+02  0.43111373891E+01  0.96456475238E+02  0.92136414134E+02 0.  0.
         11    1    3    3    0    0  0.18640976959E+02  0.13764102591E+02  0.43510973739E+02  0.49296464154E+02  0.51100000000E-03 0.  1.
         22    1    1    0    0    0  0.33673847207E+01 -0.28014418081E+02 -0.43111373891E+01  0.28543524762E+02  0.00000000000E+00 0.  1.
</event>
<event>
 5    1  0.1692171E-003  0.9118800E+02  0.7818608E-02  0.1130116E+00
         25   -1    0    0    0    0  0.00000000000E+00  0.00000000000E+00  0.99999998245E-14  0.12500000000E+03  0.12500000000E+03 0.  0.
        -11    1    3    3    0    0  0.35739819254E+02  0.47514582602E+02  0.11672198195E+02  0.60590514531E+02  0.51100000000E-03 0. -1.
         23    2    1    0    0    0  0.78681231811E+01  0.27526983238E+02  0.16476443542E+01  0.96323234135E+02  0.91955470385E+02 0.  0.
         11    1    3    3    0    0 -0.27871696073E+02 -0.19987599364E+02 -0.10024553841E+02  0.35732719604E+02  0.51100000000E-03 0.  1.
         22    1    1    0    0    0 -0.78681231811E+01 -0.27526983238E+02 -0.16476443542E+01  0.28676765865E+02  0.00000000000E+00 0. -1.
</event>
<event>
 5    1  0.1692171E-003  0.9118800E+02  0.7818608E-02  0.1130116E+00
         25   -1    0    0    0    0  0.00000000000E+00  0.00000000000E+00  0.99999998245E-14  0.12500000000E+03  0.12500000000E+03 0.  0.
        -11    1    3    3    0    0 -0.29913762909E+02 -0.15467432455E+02  0.51161628072E+02  0.61250198901E+02  0.51100000000E-03 0.  1.
         23    2    1    0    0    0 -0.10510152110E+02  0.92804909872E+00  0.25706949335E+02  0.97212020285E+02  0.93155810722E+02 0.  0.
         11    1    3    3    0    0  0.19403610798E+02  0.16395481554E+02 -0.25454678737E+02  0.35961821384E+02  0.51100000000E-03 0. -1.
         22    1    1    0    0    0  0.10510152110E+02 -0.92804909872E+00 -0.25706949335E+02  0.27787979715E+02  0.00000000000E+00 0.  1.
</event>
<event>
 5    1  0.1692171E-003  0.9118800E+02  0.7818608E-02  0.1130116E+00
         25   -1    0    0    0    0  0.00000000000E+00  0.00000000000E+00  0.99999998245E-14  0.12500000000E+03  0.12500000000E+03 0.  0.
        -11    1    3    3    0    0  0.36126913711E+02  0.11799302903E+00 -0.18995201916E+02  0.40816485795E+02  0.51100000000E-03 0. -1.
         23    2    1    0    0    0  0.15298278885E+01  0.29073958746E+02  0.97328375369E+01  0.94302059075E+02  0.89165659134E+02 0.  0.
         11    1    3    3    0    0 -0.34597085822E+02  0.28955965717E+02  0.28728039453E+02  0.53485573279E+02  0.51100000000E-03 0.  1.
         22    1    1    0    0    0 -0.15298278885E+01 -0.29073958746E+02 -0.97328375369E+01  0.30697940925E+02  0.00000000000E+00 0.  1.
</event>
<event>
 5    1  0.1692171E-003  0.9118800E+02  0.7818608E-02  0.1130116E+00
         25   -1    0    0    0    0  0.00000000000E+00  0.00000000000E+00  0.99999998245E-14  0.12500000000E+03  0.12500000000E+03 0.  0.
        -11    1    3    3    0    0 -0.66277250558E+01 -0.32522813199E+02 -0.40236060473E+02  0.52159377684E+02  0.51100000000E-03 0. -1.
         23    2    1    0    0    0 -0.20219608569E+01  0.12197875877E+02 -0.20058193550E+02  0.10143715573E+03  0.98662500132E+02 0.  0.
         11    1    3    3    0    0  0.46057641989E+01  0.44720689076E+02  0.20177866922E+02  0.49277778045E+02  0.51100000000E-03 0.  1.
         22    1    1    0    0    0  0.20219608569E+01 -0.12197875877E+02  0.20058193550E+02  0.23562844270E+02  0.00000000000E+00 0. -1.
</event>
<event>
 5    1  0.1692171E-003  0.9118800E+02  0.7818608E-02  0.1130116E+00
         25   -1    0    0    0    0  0.00000000000E+00  0.00000000000E+00  0.99999998245E-14  0.12500000000E+03  0.12500000000E+03 0.  0.
        -11    1    3    3    0    0  0.13066287751E+02 -0.30092948925E+02  0.26940204647E+02  0.42451007966E+02  0.51100000000E-03 0. -1.
         23    2    1    0    0    0 -0.21017380658E+02  0.10371684415E+02  0.16393743931E+02  0.96398304816E+02  0.92057461425E+02 0.  0.
         11    1    3    3    0    0 -0.34083668408E+02  0.40464633341E+02 -0.10546460715E+02  0.53947296850E+02  0.51100000000E-03 0.  1.
         22    1    1    0    0    0  0.21017380658E+02 -0.10371684415E+02 -0.16393743931E+02  0.28601695184E+02  0.00000000000E+00 0.  1.
</event>
<event>
 5    1  0.1692171E-003  0.9118800E+02  0.7818608E-02  0.1130116E+00
         25   -1    0    0    0    0  0.00000000000E+00  0.00000000000E+00  0.99999998245E-14  0.12500000000E+03  0.12500000000E+03 0.  0.
        -11    1    3    3    0    0 -0.46798225587E+02  0.99762544526E+01  0.22994386431E+02  0.53088053069E+02  0.51100000000E-03 0.  1.
         23    2    1    0    0    0 -0.21119846104E+02  0.21090453456E+02 -0.72443990626E+01  0.94286217357E+02  0.89143448101E+02 0.  0.
         11    1    3    3    0    0  0.25678379483E+02  0.11114199004E+02 -0.30238785493E+02  0.41198164289E+02  0.51100000000E-03 0. -1.
         22    1    1    0    0    0  0.21119846104E+02 -0.21090453456E+02  0.72443990626E+01  0.30713782643E+02  0.00000000000E+00 0.  1.
</event>
<event>
 5    1  0.1692171E-003  0.9118800E+02  0.7818608E-02  0.1130116E+00
         25   -1    0    0    0    0  0.00000000000E+00  0.00000000000E+00  0.99999998245E-14  0.12500000000E+03  0.12500000000E+03 0.  0.
        -11    1    3    3    0    0  0.13006961630E+02 -0.32859860877E+02  0.30450832296E+01  0.35471453873E+02  0.51100000000E-03 0. -1.
         23    2    1    0    0    0 -0.17990902324E+02  0.53917507498E+01 -0.26220214062E+02  0.92747199067E+02  0.86958609503E+02 0.  0.
         11    1    3    3    0    0 -0.30997863954E+02  0.38251611627E+02 -0.29265297291E+02  0.57275745194E+02  0.51100000000E-03 0.  1.
         22    1    1    0    0    0  0.17990902324E+02 -0.53917507498E+01  0.26220214062E+02  0.32252800933E+02  0.00000000000E+00 0.  1.
</event>
<event>
 5    1  0.1692171E-003  0.9118800E+02  0.7818608E-02  0.1130116E+00
         25   -1    0    0    0    0  0.00000000000E+00  0.00000000000E+00  0.99999998245E-14  0.12500000000E+03  0.12500000000E+03 0.  0.
        -11    1    3    3    0    0  0.42395948914E+02  0.40922935878E+02 -0.19897498000E+02  0.62193356495E+02  0.51100000000E-03 0. -1.
         23    2    1    0    0    0  0.23884563521E+02  0.18308853197E+02 -0.72058482206E+01  0.94054713953E+02  0.88818232859E+02 0.  0.
         11    1    3    3    0    0 -0.18511385393E+02 -0.22614082681E+02  0.12691649779E+02  0.31861357458E+02  0.51100000000E-03 0.  1.
         22    1    1    0    0    0 -0.23884563521E+02 -0.18308853197E+02  0.72058482206E+01  0.30945286047E+02  0.00000000000E+00 0. -1.
</event>
<event>
 5    1  0.1692171E-003  0.9118800E+02  0.7818608E-02  0.1130116E+00
         25   -1    0    0    0    0  0.00000000000E+00  0.00000000000E+00  0.99999998245E-14  0.12500000000E+03  0.12500000000E+03 0.  0.
        -11    1    3    3    0    0  0.31308120132E+02  0.40157490225E+02 -0.54938344214E+01  0.51215277255E+02  0.51100000000E-03 0.  1.
         23    2    1    0    0    0  0.22718584278E+01  0.16892683858E+02  0.21776679485E+02  0.97345924748E+02  0.93335315862E+02 0.  0.
         11    1    3    3    0    0 -0.29036261705E+02 -0.23264806368E+02  0.27270513907E+02  0.46130647493E+02  0.51100000000E-03 0. -1.
         22    1    1    0    0    0 -0.22718584278E+01 -0.16892683858E+02 -0.21776679485E+02  0.27654075252E+02  0.00000000000E+00 0. -1.
</event>
<event>
 5    1  0.1692171E-003  0.9118800E+02  0.7818608E-02  0.1130116E+00
         25   -1    0    0    0    0  0.00000000000E+00  0.00000000000E+00  0.99999998245E-14  0.12500000000E+03  0.12500000000E+03 0.  0.
        -11    1    3    3    0    0 -0.31111541847E+02  0.26617717292E+02  0.75358324956E+00  0.40951175782E+02  0.51100000000E-03 0.  1.
         23    2    1    0    0    0 -0.11204665167E+02 -0.23987215691E+02  0.11075268524E+02  0.96301696723E+02  0.91926188764E+02 0.  0.
         11    1    3    3    0    0  0.19906876680E+02 -0.50604932982E+02  0.10321685275E+02  0.55350520941E+02  0.51100000000E-03 0. -1.
         22    1    1    0    0    0  0.11204665167E+02  0.23987215691E+02 -0.11075268524E+02  0.28698303277E+02  0.00000000000E+00 0. -1.
</event>
<event>
 5    1  0.1692171E-003  0.9118800E+02  0.7818608E-02  0.1130116E+00
         25   -1    0    0    0    0  0.00000000000E+00  0.00000000000E+00  0.99999998245E-14  0.12500000000E+03  0.12500000000E+03 0.  0.
        -11    1    3    3    0    0  0.11871629039E+02 -0.57869964555E+02 -0.13759984931E+02  0.60656455215E+02  0.51100000000E-03 0.  1.
         23    2    1    0    0    0  0.14216903294E+02 -0.26716969579E+02 -0.14475942100E+00  0.94735536383E+02  0.89771287702E+02 0.  0.
         11    1    3    3    0    0  0.23452742546E+01  0.31152994976E+02  0.13615225510E+02  0.34079081168E+02  0.51100000000E-03 0. -1.
         22    1    1    0    0    0 -0.14216903294E+02  0.26716969579E+02  0.14475942100E+00  0.30264463617E+02  0.00000000000E+00 0.  1.
</event>
<event>
 5    1  0.1692171E-003  0.9118800E+02  0.7818608E-02  0.1130116E+00
         25   -1    0    0    0    0  0.00000000000E+00  0.00000000000E+00  0.99999998245E-14  0.12500000000E+03  0.12500000000E+03 0.  0.
        -11    1    3    3    0    0  0.27710131787E+02  0.32081375440E+02  0.14339534038E+02  0.44751405458E+02  0.51100000000E-03 0. -1.
         23    2    1    0    0    0  0.32614335831E+02 -0.70512129251E+00  0.29327395043E+02  0.81133290553E+02  0.68251905748E+02 0.  0.
         11    1    3    3    0    0  0.49042040432E+01 -0.32786496732E+02  0.14987861005E+02  0.36381885095E+02  0.51100000000E-03 0.  1.
         22    1    1    0    0    0 -0.32614335831E+02  0.70512129251E+00 -0.29327395043E+02  0.43866709447E+02  0.00000000000E+00 0. -1.
</event>
<event>
 5    1  0.1692171E-003  0.9118800E+02  0.7818608E-02  0.1130116E+00
         25   -1    0    0    0    0  0.00000000000E+00  0.00000000000E+00  0.99999998245E-14  0.12500000000E+03  0.12500000000E+03 0.  0.
        -11    1    3    3    0    0  0.49849685335E+02  0.61570527793E+00  0.27807478655E+02  0.57084376938E+02  0.51100000000E-03 0.  1.
         23    2    1    0    0    0  0.15994394141E+02  0.15937991563E+02  0.19506441407E+02  0.95161409628E+02  0.90362339539E+02 0.  0.
         11    1    3    3    0    0 -0.33855291194E+02  0.15322286285E+02 -0.83010372479E+01  0.38077032690E+02  0.51100000000E-03 0. -1.
         22    1    1    0    0    0 -0.15994394141E+02 -0.15937991563E+02 -0.19506441407E+02  0.29838590372E+02  0.00000000000E+00 0.  1.
</event>
<event>
 5    1  0.1692171E-003  0.9118800E+02  0.7818608E-02  0.1130116E+00
         25   -1    0    0    0    0  0.00000000000E+00  0.00000000000E+00  0.99999998245E-14  0.12500000000E+03  0.12500000000E+03 0.  0.
        -11    1    3    3    0    0 -0.15779213592E+02  0.43563910581E+02 -0.18283064273E+02  0.49810323490E+02  0.51100000000E-03 0.  1.
         23    2    1    0    0    0  0.20704580447E+02  0.19404550737E+02 -0.18103864548E+01  0.96565975665E+02  0.92284852041E+02 0.  0.
         11    1    3    3    0    0  0.36483794038E+02 -0.24159359844E+02  0.16472677819E+02  0.46755652175E+02  0.51100000000E-03 0. -1.
         22    1    1    0    0    0 -0.20704580447E+02 -0.19404550737E+02  0.18103864548E+01  0.28434024335E+02  0.00000000000E+00 0.  1.
</event>
<event>
 5    1  0.1692171E-003  0.9118800E+02  0.7818608E-02  0.1130116E+00
         25   -1    0    0    0    0  0.00000000000E+00  0.00000000000E+00  0.99999998245E-14  0.12500000000E+03  0.12500000000E+03 0.  0.
        -11    1    3    3    0    0  0.19901562074E+02  0.28928616399E+02 -0.28804233216E+01  0.35231148981E+02  0.51100000000E-03 0.  1.
         23    2    1    0    0    0 -0.17082574478E+02 -0.13810890065E+02 -0.21025615453E+02  0.94592245391E+02  0.89571543181E+02 0.  0.
         11    1    3    3    0    0 -0.36984136552E+02 -0.42739506464E+02 -0.18145192131E+02  0.59361096410E+02  0.51100000000E-03 0. -1.
         22    1    1    0    0    0  0.17082574478E+02  0.13810890065E+02  0.21025615453E+02  0.30407754609E+02  0.00000000000E+00 0. -1.
</event>
<event>
 5    1  0.1692171E-003  0.9118800E+02  0.7818608E-02  0.1130116E+00
         25   -1    0    0    0    0  0.00000000000E+00  0.00000000000E+00  0.99999998245E-14  0.12500000000E+03  0.12500000000E+03 0.  0.
        -11    1    3    3    0    0 -0.50116533460E+02  0.31619348405E+02  0.19439030018E+02  0.62364461097E+02  0.51100000000E-03 0. -1.
         23    2    1    0    0    0 -0.22788167031E+02  0.14899478444E+02  0.11954067808E+02  0.95264587581E+02  0.90504955087E+02 0.  0.
         11    1    3    3    0    0  0.27328366428E+02 -0.16719869962E+02 -0.74849622092E+01  0.32900126485E+02  0.51100000000E-03 0.  1.
         22    1    1    0    0    0  0.22788167031E+02 -0.14899478444E+02 -0.11954067808E+02  0.29735412419E+02  0.00000000000E+00 0. -1.
</event>
<event>
 5    1  0.1692171E-003  0.9118800E+02  0.7818608E-02  0.1130116E+00
         25   -1    0    0    0    0  0.00000000000E+00  0.00000000000E+00  0.99999998245E-14  0.12500000000E+03  0.12500000000E+03 0.  0.
        -11    1    3    3    0    0  0.27040347462E+02  0.27077821406E+02  0.46733087710E+02  0.60401740788E+02  0.51100000000E-03 0. -1.
         23    2    1    0    0    0  0.19057317491E+01  0.67183157049E+01  0.24174349605E+02  0.99837194945E+02  0.96614174613E+02 0.  0.
         11    1    3    3    0    0 -0.25134615713E+02 -0.20359505701E+02 -0.22558738105E+02  0.39435454157E+02  0.51100000000E-03 0.  1.
         22    1    1    0    0    0 -0.19057317491E+01 -0.67183157049E+01 -0.24174349605E+02  0.25162805055E+02  0.00000000000E+00 0. -1.
</event>
<event>
 5    1  0.1692171E-003  0.9118800E+02  0.7818608E-02  0.1130116E+00
         25   -1    0    0    0    0  0.00000000000E+00  0.00000000000E+00  0.99999998245E-14  0.12500000000E+03  0.12500000000E+03 0.  0.
        -11    1    3    3    0    0 -0.22167166160E+02 -0.24125777339E+02 -0.27528492414E+02  0.42793156960E+02  0.51100000000E-03 0.  1.
         23    2    1    0    0    0  0.21099141852E+02  0.64346858948E+01 -0.17811975099E+02  0.96647832069E+02  0.92395660165E+02 0.  0.
         11    1    3    3    0    0  0.43266308012E+02  0.30560463233E+02  0.97165173153E+01  0.53854675109E+02  0.51100000000E-03 0. -1.
         22    1    1    0    0    0 -0.21099141852E+02 -0.64346858948E+01  0.17811975099E+02  0.28352167931E+02  0.00000000000E+00 0. -1.
</event>
<event>
 5    1  0.1692171E-003  0.9118800E+02  0.7818608E-02  0.1130116E+00
         25   -1    0    0    0    0  0.00000000000E+00  0.00000000000E+00  0.99999998245E-14  0.12500000000E+03  0.12500000000E+03 0.  0.
        -11    1    3    3    0    0 -0.31598403659E+02  0.38938101059E+02 -0.31339175046E+02  0.59133566785E+02  0.51100000000E-03 0.  1.
         23    2    1    0    0    0 -0.11389182694E+01  0.20953671021E+02 -0.19273957305E+02  0.96507213294E+02  0.92205223949E+02 0.  0.
         11    1    3    3    0    0  0.30459485390E+02 -0.17984430038E+02  0.12065217741E+02  0.37373646509E+02  0.51100000000E-03 0. -1.
         22    1    1    0    0    0  0.11389182694E+01 -0.20953671021E+02  0.19273957305E+02  0.28492786706E+02  0.00000000000E+00 0.  1.
</event>
<event>
 5    1  0.1692171E-003  0.9118800E+02  0.7818608E-02  0.1130116E+00
         25   -1    0    0    0    0  0.00000000000E+00  0.00000000000E+00  0.99999998245E-14  0.12500000000E+03  0.12500000000E+03 0.  0.
        -11    1    3    3    0    0 -0.90355802244E+01 -0.35886158327E+02  0.78516812099E+01  0.37829974459E+02  0.51100000000E-03 0. -1.
         23    2    1    0    0    0  0.51739776011E+00  0.21086539250E+02  0.18938826331E+02  0.96652354934E+02  0.92401778844E+02 0.  0.
         11    1    3    3    0    0  0.95529779845E+01  0.56972697577E+02  0.11087145121E+02  0.58822380475E+02  0.51100000000E-03 0.  1.
         22    1    1    0    0    0 -0.51739776011E+00 -0.21086539250E+02 -0.18938826331E+02  0.28347645066E+02  0.00000000000E+00 0.  1.
</event>
<event>
 5    1  0.1692171E-003  0.9118800E+02  0.7818608E-02  0.1130116E+00
         25   -1    0    0    0    0  0.00000000000E+00  0.00000000000E+00  0.99999998245E-14  0.12500000000E+03  0.12500000000E+03 0.  0.
        -11    1    3    3    0    0 -0.21803074898E+02  0.43445965894E+01 -0.44796016715E+02  0.50009326214E+02  0.51100000000E-03 0. -1.
         23    2    1    0    0    0 -0.27146690943E+02  0.15787533861E+02 -0.32544619251E+01  0.93428167982E+02  0.87932030544E+02 0.  0.
         11    1    3    3    0    0 -0.53436160442E+01  0.11442937272E+02  0.41541554790E+02  0.43418841768E+02  0.51100000000E-03 0.  1.
         22    1    1    0    0    0  0.27146690943E+02 -0.15787533861E+02  0.32544619251E+01  0.31571832018E+02  0.00000000000E+00 0. -1.
</event>
<event>
 5    1  0.1692171E-003  0.9118800E+02  0.7818608E-02  0.1130116E+00
         25   -1    0    0    0    0  0.00000000000E+00  0.00000000000E+00  0.99999998245E-14  0.12500000000E+03  0.12500000000E+03 0.  0.
        -11    1    3    3    0    0 -0.28273645017E+02  0.19433085621E+02 -0.18932134271E+02  0.39185067661E+02  0.51100000000E-03 0.  1.
         23    2    1    0    0    0  0.19879177614E+02  0.17608532016E+02  0.11374060823E+02  0.96110358916E+02  0.91665640941E+02 0.  0.
         11    1    3    3    0    0  0.48152822630E+02 -0.18245536051E+01  0.30306195094E+02  0.56925291255E+02  0.51100000000E-03 0. -1.
         22    1    1    0    0    0 -0.19879177614E+02 -0.17608532016E+02 -0.11374060823E+02  0.28889641084E+02  0.00000000000E+00 0. -1.
</event>
<event>
 5    1  0.1692171E-003  0.9118800E+02  0.7818608E-02  0.1130116E+00
         25   -1    0    0    0    0  0.00000000000E+00  0.00000000000E+00  0.99999998245E-14  0.12500000000E+03  0.12500000000E+03 0.  0.
        -11    1    3    3    0    0  0.31587648985E+01 -0.29312049483E+02  0.13434850373E+02  0.32398599435E+02  0.51100000000E-03 0. -1.
         23    2    1    0    0    0  0.26086671961E+01  0.26924589482E+02 -0.13514261839E+02  0.94761383359E+02  0.89807270529E+02 0.  0.
         11    1    3    3    0    0 -0.55009770235E+00  0.56236638964E+02 -0.26949112212E+02  0.62362783924E+02  0.51100000000E-03 0.  1.
         22    1    1    0    0    0 -0.26086671961E+01 -0.26924589482E+02  0.13514261839E+02  0.30238616641E+02  0.00000000000E+00 0.  1.
</event>
<event>
 5    1  0.1692171E-003  0.9118800E+02  0.7818608E-02  0.1130116E+00
         25   -1    0    0    0    0  0.00000000000E+00  0.00000000000E+00  0.99999998245E-14  0.12500000000E+03  0.12500000000E+03 0.  0.
        -11    1    3    3    0    0  0.10354865053E+02 -0.19795934687E+02  0.21176203154E+02  0.30782037630E+02  0.51100000000E-03 0.  1.
         23    2    1    0    0    0 -0.33877890836E+01  0.16648127306E+02 -0.27225207425E+02  0.92908736750E+02  0.87190505145E+02 0.  0.
         11    1    3    3    0    0 -0.13742654137E+02  0.36444061993E+02 -0.48401410578E+02  0.62126699120E+02  0.51100000000E-03 0. -1.
         22    1    1    0    0    0  0.33877890836E+01 -0.16648127306E+02  0.27225207425E+02  0.32091263250E+02  0.00000000000E+00 0. -1.
</event>
<event>
 5    1  0.1692171E-003  0.9118800E+02  0.7818608E-02  0.1130116E+00
         25   -1    0    0    0    0  0.00000000000E+00  0.00000000000E+00  0.99999998245E-14  0.12500000000E+03  0.12500000000E+03 0.  0.
        -11    1    3    3    0    0  0.12284336604E+02 -0.34423522075E+02 -0.39445528459E+02  0.53775770692E+02  0.51100000000E-03 0. -1.
         23    2    1    0    0    0 -0.14985641115E+02 -0.24421245493E+02 -0.11366861675E+02  0.94175136409E+02  0.88987550265E+02 0.  0.
         11    1    3    3    0    0 -0.27269977719E+02  0.10002276582E+02  0.28078666785E+02  0.40399365716E+02  0.51100000000E-03 0.  1.
         22    1    1    0    0    0  0.14985641115E+02  0.24421245493E+02  0.11366861675E+02  0.30824863591E+02  0.00000000000E+00 0. -1.
</event>
<event>
 5    1  0.1692171E-003  0.9118800E+02  0.7818608E-02  0.1130116E+00
         25   -1    0    0    0    0  0.00000000000E+00  0.00000000000E+00  0.99999998245E-14  0.12500000000E+03  0.12500000000E+03 0.  0.
        -11    1    3    3    0    0 -0.33376264167E+02  0.21632940777E+02  0.43237817557E+02  0.58749195771E+02  0.51100000000E-03 0.  1.
         23    2    1    0    0    0 -0.71117717947E+01  0.65532467572E+00  0.28791710821E+02  0.95335722485E+02  0.90603149069E+02 0.  0.
         11    1    3    3    0    0  0.26264492372E+02 -0.20977616101E+02 -0.14446106736E+02  0.36586526713E+02  0.51100000000E-03 0. -1.
         22    1    1    0    0    0  0.71117717947E+01 -0.65532467572E+00 -0.28791710821E+02  0.29664277515E+02  0.00000000000E+00 0.  1.
</event>
<event>
 5    1  0.1692171E-003  0.9118800E+02  0.7818608E-02  0.1130116E+00
         25   -1    0    0    0    0  0.00000000000E+00  0.00000000000E+00  0.99999998245E-14  0.12500000000E+03  0.12500000000E+03 0.  0.
        -11    1    3    3    0    0  0.18874135578E+02  0.52174560475E+02 -0.14570526173E+02  0.57364780029E+02  0.51100000000E-03 0.  1.
         23    2    1    0    0    0  0.21281728659E+02  0.15046954961E+02  0.34571619951E+01  0.98707894771E+02  0.95141860885E+02 0.  0.
         11    1    3    3    0    0  0.24075930811E+01 -0.37127605513E+02  0.18027688168E+02  0.41343114742E+02  0.51100000000E-03 0. -1.
         22    1    1    0    0    0 -0.21281728659E+02 -0.15046954961E+02 -0.34571619951E+01  0.26292105229E+02  0.00000000000E+00 0.  1.
</event>
<event>
 5    1  0.1692171E-003  0.9118800E+02  0.7818608E-02  0.1130116E+00
         25   -1    0    0    0    0  0.00000000000E+00  0.00000000000E+00  0.99999998245E-14  0.12500000000E+03  0.12500000000E+03 0.  0.
        -11    1    3    3    0    0  0.15300346466E+02 -0.30652163982E+02 -0.10973639377E+02  0.35973275082E+02  0.51100000000E-03 0.  1.
         23    2    1    0    0    0 -0.24122900182E+02  0.80523364121E+01  0.13280550853E+02  0.96309801921E+02  0.91937209443E+02 0.  0.
         11    1    3    3    0    0 -0.39423246647E+02  0.38704500394E+02  0.24254190230E+02  0.60336526838E+02  0.51100000000E-03 0. -1.
         22    1    1    0    0    0  0.24122900182E+02 -0.80523364121E+01 -0.13280550853E+02  0.28690198079E+02  0.00000000000E+00 0. -1.
</event>
<event>
 5    1  0.1692171E-003  0.9118800E+02  0.7818608E-02  0.1130116E+00
         25   -1    0    0    0    0  0.00000000000E+00  0.00000000000E+00  0.99999998245E-14  0.12500000000E+03  0.12500000000E+03 0.  0.
        -11    1    3    3    0    0  0.18148380920E+02  0.44418107365E+02  0.12649140345E+02  0.49621897824E+02  0.51100000000E-03 0.  1.
         23    2    1    0    0    0  0.32700652809E+02  0.17821618261E+02  0.22487489964E+02  0.81495632674E+02  0.68912322327E+02 0.  0.
         11    1    3    3    0    0  0.14552271889E+02 -0.26596489104E+02  0.98383496193E+01  0.31873734850E+02  0.51100000000E-03 0. -1.
         22    1    1    0    0    0 -0.32700652809E+02 -0.17821618261E+02 -0.22487489964E+02  0.43504367326E+02  0.00000000000E+00 0.  1.
</event>
<event>
 5    1  0.1692171E-003  0.9118800E+02  0.7818608E-02  0.1130116E+00
         25   -1    0    0    0    0  0.00000000000E+00  0.00000000000E+00  0.99999998245E-14  0.12500000000E+03  0.12500000000E+03 0.  0.
        -11    1    3    3    0    0 -0.49010646526E+02 -0.24859957584E+02 -0.39839015817E+01  0.55099296149E+02  0.51100000000E-03 0.  1.
         23    2    1    0    0    0 -0.10149915815E+02 -0.26081696710E+02 -0.11575702783E+02  0.94713491630E+02  0.89740586735E+02 0.  0.
         11    1    3    3    0    0  0.38860730711E+02 -0.12217391262E+01 -0.75918012010E+01  0.39614195482E+02  0.51100000000E-03 0. -1.
         22    1    1    0    0    0  0.10149915815E+02  0.26081696710E+02  0.11575702783E+02  0.30286508370E+02  0.00000000000E+00 0.  1.
</event>
<event>
 5    1  0.1692171E-003  0.9118800E+02  0.7818608E-02  0.1130116E+00
         25   -1    0    0    0    0  0.00000000000E+00  0.00000000000E+00  0.99999998245E-14  0.12500000000E+03  0.12500000000E+03 0.  0.
        -11    1    3    3    0    0 -0.26224808222E+02  0.15705817450E+02  0.48899249681E+02  0.57667580907E+02  0.51100000000E-03 0. -1.
         23    2    1    0    0    0  0.43120480484E+01  0.63716860972E+01  0.28313848415E+02  0.95659479313E+02  0.91048722277E+02 0.  0.
         11    1    3    3    0    0  0.30536856270E+02 -0.93341313531E+01 -0.20585401266E+02  0.37991898406E+02  0.51100000000E-03 0.  1.
         22    1    1    0    0    0 -0.43120480484E+01 -0.63716860972E+01 -0.28313848415E+02  0.29340520687E+02  0.00000000000E+00 0. -1.
</event>
<event>
 5    1  0.1692171E-003  0.9118800E+02  0.7818608E-02  0.1130116E+00
         25   -1    0    0    0    0  0.00000000000E+00  0.00000000000E+00  0.99999998245E-14  0.12500000000E+03  0.12500000000E+03 0.  0.
        -11    1    3    3    0    0 -0.75590348411E+00  0.28673255103E+02  0.28310576825E+02  0.40301559631E+02  0.51100000000E-03 0. -1.
         23    2    1    0    0    0  0.11762339233E+02 -0.23373374924E+02  0.11579069014E+02  0.96386329861E+02  0.92041199826E+02 0.  0.
         11    1    3    3    0    0  0.12518242717E+02 -0.52046630027E+02 -0.16731507811E+02  0.56084770230E+02  0.51100000000E-03 0.  1.
         22    1    1    0    0    0 -0.11762339233E+02  0.23373374924E+02 -0.11579069014E+02  0.28613670139E+02  0.00000000000E+00 0.  1.
</event>
<event>
 5    1  0.1692171E-003  0.9118800E+02  0.7818608E-02  0.1130116E+00
         25   -1    0    0    0    0  0.00000000000E+00  0.00000000000E+00  0.99999998245E-14  0.12500000000E+03  0.12500000000E+03 0.  0.
        -11    1    3    3    0    0  0.18144796505E+02 -0.23526388353E+02 -0.16414919432E+02  0.33943691157E+02  0.51100000000E-03 0. -1.
         23    2    1    0    0    0 -0.23733203132E+02  0.99164187612E+01  0.14153520313E+02  0.95641484554E+02  0.91024014075E+02 0.  0.
         11    1    3    3    0    0 -0.41877999637E+02  0.33442807114E+02  0.30568439745E+02  0.61697793397E+02  0.51100000000E-03 0.  1.
         22    1    1    0    0    0  0.23733203132E+02 -0.99164187612E+01 -0.14153520313E+02  0.29358515446E+02  0.00000000000E+00 0.  1.
</event>
<event>
 5    1  0.1692171E-003  0.9118800E+02  0.7818608E-02  0.1130116E+00
         25   -1    0    0    0    0  0.00000000000E+00  0.00000000000E+00  0.99999998245E-14  0.12500000000E+03  0.12500000000E+03 0.  0.
        -11    1    3    3    0    0 -0.46782734132E+01 -0.21045090978E+02 -0.21455737337E+02  0.30415962279E+02  0.51100000000E-03 0. -1.
         23    2    1    0    0    0  0.13842880943E+02  0.14082271966E+02  0.26036043412E+02  0.92322618020E+02  0.86346131963E+02 0.  0.
         11    1    3    3    0    0  0.18521154356E+02  0.35127362944E+02  0.47491780749E+02  0.61906655741E+02  0.51100000000E-03 0.  1.
         22    1    1    0    0    0 -0.13842880943E+02 -0.14082271966E+02 -0.26036043412E+02  0.32677381980E+02  0.00000000000E+00 0.  1.
</event>
<event>
 5    1  0.1692171E-003  0.9118800E+02  0.7818608E-02  0.1130116E+00
         25   -1    0    0    0    0  0.00000000000E+00  0.00000000000E+00  0.99999998245E-14  0.12500000000E+03  0.12500000000E+03 0.  0.
        -11    1    3    3    0    0  0.91596287232E+01 -0.98942360369E+01  0.33889241447E+02  0.36472940534E+02  0.51100000000E-03 0. -1.
         23    2    1    0    0    0  0.15598488634E+02 -0.40768084150E+01 -0.24591857045E+02  0.95594343275E+02  0.90959253618E+02 0.  0.
         11    1    3    3    0    0  0.64388599110E+01  0.58174276219E+01 -0.58481098491E+02  0.59121402741E+02  0.51100000000E-03 0.  1.
         22    1    1    0    0    0 -0.15598488634E+02  0.40768084150E+01  0.24591857045E+02  0.29405656725E+02  0.00000000000E+00 0.  1.
</event>
<event>
 5    1  0.1692171E-003  0.9118800E+02  0.7818608E-02  0.1130116E+00
         25   -1    0    0    0    0  0.00000000000E+00  0.00000000000E+00  0.99999998245E-14  0.12500000000E+03  0.12500000000E+03 0.  0.
        -11    1    3    3    0    0 -0.45789147512E+02 -0.32393045476E+02 -0.53639340492E+01  0.56344717710E+02  0.51100000000E-03 0. -1.
         23    2    1    0    0    0 -0.28062886823E+02 -0.21316940531E+01 -0.15525312218E+02  0.92858048350E+02  0.87117805801E+02 0.  0.
         11    1    3    3    0    0  0.17726260688E+02  0.30261351423E+02 -0.10161378169E+02  0.36513330641E+02  0.51100000000E-03 0.  1.
         22    1    1    0    0    0  0.28062886823E+02  0.21316940531E+01  0.15525312218E+02  0.32141951650E+02  0.00000000000E+00 0. -1.
</event>
<event>
 5    1  0.1692171E-003  0.9118800E+02  0.7818608E-02  0.1130116E+00
         25   -1    0    0    0    0  0.00000000000E+00  0.00000000000E+00  0.99999998245E-14  0.12500000000E+03  0.12500000000E+03 0.  0.
        -11    1    3    3    0    0  0.13062682965E+02 -0.18091958468E+02 -0.58342270266E+02  0.62464174912E+02  0.51100000000E-03 0.  1.
         23    2    1    0    0    0  0.77176837343E+01 -0.81754182603E+01 -0.28386856875E+02  0.94467824362E+02  0.89397740969E+02 0.  0.
         11    1    3    3    0    0 -0.53449992303E+01  0.99165402074E+01  0.29955413390E+02  0.32003649450E+02  0.51100000000E-03 0. -1.
         22    1    1    0    0    0 -0.77176837343E+01  0.81754182603E+01  0.28386856875E+02  0.30532175638E+02  0.00000000000E+00 0.  1.
</event>
<event>
 5    1  0.1692171E-003  0.9118800E+02  0.7818608E-02  0.1130116E+00
         25   -1    0    0    0    0  0.00000000000E+00  0.00000000000E+00  0.99999998245E-14  0.12500000000E+03  0.12500000000E+03 0.  0.
        -11    1    3    3    0    0  0.18126360495E+02  0.59112391752E+02  0.44461444569E+01  0.61988773211E+02  0.51100000000E-03 0.  1.
         23    2    1    0    0    0  0.94857967163E+01  0.25660591013E+02  0.73843373437E+01  0.96663191632E+02  0.92416437434E+02 0.  0.
         11    1    3    3    0    0 -0.86405637784E+01 -0.33451800739E+02  0.29381928868E+01  0.34674418421E+02  0.51100000000E-03 0. -1.
         22    1    1    0    0    0 -0.94857967163E+01 -0.25660591013E+02 -0.73843373437E+01  0.28336808368E+02  0.00000000000E+00 0.  1.
</event>
<event>
 5    1  0.1692171E-003  0.9118800E+02  0.7818608E-02  0.1130116E+00
         25   -1    0    0    0    0  0.00000000000E+00  0.00000000000E+00  0.99999998245E-14  0.12500000000E+03  0.12500000000E+03 0.  0.
        -11    1    3    3    0    0  0.35306931509E+02  0.12291583023E+02  0.54288144323E+01  0.37777433108E+02  0.51100000000E-03 0. -1.
         23    2    1    0    0    0 -0.20859046593E+02  0.11891415803E+02 -0.13994937960E+02  0.97208564573E+02  0.93151173602E+02 0.  0.
         11    1    3    3    0    0 -0.56165978103E+02 -0.40016722034E+00 -0.19423752392E+02  0.59431131465E+02  0.51100000000E-03 0.  1.
         22    1    1    0    0    0  0.20859046593E+02 -0.11891415803E+02  0.13994937960E+02  0.27791435427E+02  0.00000000000E+00 0.  1.
</event>
<event>
 5    1  0.1692171E-003  0.9118800E+02  0.7818608E-02  0.1130116E+00
         25   -1    0    0    0    0  0.00000000000E+00  0.00000000000E+00  0.99999998245E-14  0.12500000000E+03  0.12500000000E+03 0.  0.
        -11    1    3    3    0    0  0.12559464454E+02  0.13805161036E+02 -0.30327457817E+02  0.35610073245E+02  0.51100000000E-03 0.  1.
         23    2    1    0    0    0  0.24619108968E+02 -0.59335494279E+01  0.21124178749E+02  0.92022151935E+02  0.85910057524E+02 0.  0.
         11    1    3    3    0    0  0.12059644513E+02 -0.19738710464E+02  0.51451636566E+02  0.56412078690E+02  0.51100000000E-03 0. -1.
         22    1    1    0    0    0 -0.24619108968E+02  0.59335494279E+01 -0.21124178749E+02  0.32977848065E+02  0.00000000000E+00 0. -1.
</event>
<event>
 5    1  0.1692171E-003  0.9118800E+02  0.7818608E-02  0.1130116E+00
         25   -1    0    0    0    0  0.00000000000E+00  0.00000000000E+00  0.99999998245E-14  0.12500000000E+03  0.12500000000E+03 0.  0.
        -11    1    3    3    0    0  0.56991107010E+02 -0.13887890053E+02 -0.17399368915E+01  0.58684641509E+02  0.51100000000E-03 0. -1.
         23    2    1    0    0    0  0.40068494035E+02  0.50750376809E+01 -0.49771755100E+01  0.84305866544E+02  0.73834047945E+02 0.  0.
         11    1    3    3    0    0 -0.16922612975E+02  0.18962927734E+02 -0.32372386185E+01  0.25621225035E+02  0.51100000000E-03 0.  1.
         22    1    1    0    0    0 -0.40068494035E+02 -0.50750376809E+01  0.49771755100E+01  0.40694133456E+02  0.00000000000E+00 0. -1.
</event>
<event>
 5    1  0.1692171E-003  0.9118800E+02  0.7818608E-02  0.1130116E+00
         25   -1    0    0    0    0  0.00000000000E+00  0.00000000000E+00  0.99999998245E-14  0.12500000000E+03  0.12500000000E+03 0.  0.
        -11    1    3    3    0    0 -0.43663349025E+02  0.17941786453E+02 -0.17338066321E+02  0.50289206528E+02  0.51100000000E-03 0.  1.
         23    2    1    0    0    0 -0.19724025829E+02  0.52837640171E+01  0.20002714183E+02  0.96415669821E+02  0.92081037436E+02 0.  0.
         11    1    3    3    0    0  0.23939323195E+02 -0.12658022436E+02  0.37340780504E+02  0.46126463293E+02  0.51100000000E-03 0. -1.
         22    1    1    0    0    0  0.19724025829E+02 -0.52837640171E+01 -0.20002714183E+02  0.28584330179E+02  0.00000000000E+00 0. -1.
</event>
<event>
 5    1  0.1692171E-003  0.9118800E+02  0.7818608E-02  0.1130116E+00
         25   -1    0    0    0    0  0.00000000000E+00  0.00000000000E+00  0.99999998245E-14  0.12500000000E+03  0.12500000000E+03 0.  0.
        -11    1    3    3    0    0  0.27014722411E+02 -0.19927368789E+02 -0.17345113975E+02  0.37785555876E+02  0.51100000000E-03 0.  1.
         23    2    1    0    0    0  0.88460707044E+00  0.29251156126E+02 -0.14473831861E+01  0.95699699960E+02  0.91103924119E+02 0.  0.
         11    1    3    3    0    0 -0.26130115340E+02  0.49178524915E+02  0.15897730789E+02  0.57914144084E+02  0.51100000000E-03 0. -1.
         22    1    1    0    0    0 -0.88460707044E+00 -0.29251156126E+02  0.14473831861E+01  0.29300300040E+02  0.00000000000E+00 0. -1.
</event>
<event>
 5    1  0.1692171E-003  0.9118800E+02  0.7818608E-02  0.1130116E+00
         25   -1    0    0    0    0  0.00000000000E+00  0.00000000000E+00  0.99999998245E-14  0.12500000000E+03  0.12500000000E+03 0.  0.
        -11    1    3    3    0    0  0.24058905025E+02 -0.41818047712E+01  0.44551988389E+02  0.50805492536E+02  0.51100000000E-03 0.  1.
         23    2    1    0    0    0  0.28012418949E+02  0.10627274700E+02  0.32454651378E+01  0.94864180335E+02  0.89950236707E+02 0.  0.
         11    1    3    3    0    0  0.39535139237E+01  0.14809079471E+02 -0.41306523252E+02  0.44058687799E+02  0.51100000000E-03 0. -1.
         22    1    1    0    0    0 -0.28012418949E+02 -0.10627274700E+02 -0.32454651378E+01  0.30135819665E+02  0.00000000000E+00 0.  1.
</event>
<event>
 5    1  0.1692171E-003  0.9118800E+02  0.7818608E-02  0.1130116E+00
         25   -1    0    0    0    0  0.00000000000E+00  0.00000000000E+00  0.99999998245E-14  0.12500000000E+03  0.12500000000E+03 0.  0.
        -11    1    3    3    0    0  0.31216392430E+02  0.27739409421E+01 -0.25739499657E+02  0.40554651368E+02  0.51100000000E-03 0.  1.
         23    2    1    0    0    0  0.27863624826E+01 -0.28414314912E+02  0.88380926443E+01  0.95112728640E+02  0.90294973060E+02 0.  0.
         11    1    3    3    0    0 -0.28430029947E+02 -0.31188255854E+02  0.34577592301E+02  0.54558077272E+02  0.51100000000E-03 0. -1.
         22    1    1    0    0    0 -0.27863624826E+01  0.28414314912E+02 -0.88380926443E+01  0.29887271360E+02  0.00000000000E+00 0. -1.
</event>
<event>
 5    1  0.1692171E-003  0.9118800E+02  0.7818608E-02  0.1130116E+00
         25   -1    0    0    0    0  0.00000000000E+00  0.00000000000E+00  0.99999998245E-14  0.12500000000E+03  0.12500000000E+03 0.  0.
        -11    1    3    3    0    0 -0.14117746678E+02  0.51890273228E+02  0.17070346279E+02  0.56420811313E+02  0.51100000000E-03 0.  1.
         23    2    1    0    0    0  0.79078636191E+01  0.34829706456E+02 -0.35586696915E+00  0.89282085725E+02  0.81826165933E+02 0.  0.
         11    1    3    3    0    0  0.22025610297E+02 -0.17060566772E+02 -0.17426213248E+02  0.32861274412E+02  0.51100000000E-03 0. -1.
         22    1    1    0    0    0 -0.79078636191E+01 -0.34829706456E+02  0.35586696915E+00  0.35717914275E+02  0.00000000000E+00 0.  1.
</event>
<event>
 5    1  0.1692171E-003  0.9118800E+02  0.7818608E-02  0.1130116E+00
         25   -1    0    0    0    0  0.00000000000E+00  0.00000000000E+00  0.99999998245E-14  0.12500000000E+03  0.12500000000E+03 0.  0.
        -11    1    3    3    0    0 -0.36428170534E+02  0.22619987441E+02  0.83778508722E+01  0.43690546183E+02  0.51100000000E-03 0. -1.
         23    2    1    0    0    0  0.11096416194E+02  0.10333416865E+02  0.25208313603E+02  0.95582844611E+02  0.90943450301E+02 0.  0.
         11    1    3    3    0    0  0.47524586728E+02 -0.12286570576E+02  0.16830462731E+02  0.51892298428E+02  0.51100000000E-03 0.  1.
         22    1    1    0    0    0 -0.11096416194E+02 -0.10333416865E+02 -0.25208313603E+02  0.29417155389E+02  0.00000000000E+00 0.  1.
</event>
<event>
 5    1  0.1692171E-003  0.9118800E+02  0.7818608E-02  0.1130116E+00
         25   -1    0    0    0    0  0.00000000000E+00  0.00000000000E+00  0.99999998245E-14  0.12500000000E+03  0.12500000000E+03 0.  0.
        -11    1    3    3    0    0  0.10504138854E+02  0.81433344117E+00  0.34567777419E+02  0.36137671591E+02  0.51100000000E-03 0.  1.
         23    2    1    0    0    0 -0.70762859692E+01 -0.20005940039E+02 -0.19178395576E+02  0.96397162434E+02  0.92055910231E+02 0.  0.
         11    1    3    3    0    0 -0.17580424823E+02 -0.20820273480E+02 -0.53746172996E+02  0.60259490843E+02  0.51100000000E-03 0. -1.
         22    1    1    0    0    0  0.70762859692E+01  0.20005940039E+02  0.19178395576E+02  0.28602837566E+02  0.00000000000E+00 0. -1.
</event>
<event>
 5    1  0.1692171E-003  0.9118800E+02  0.7818608E-02  0.1130116E+00
         25   -1    0    0    0    0  0.00000000000E+00  0.00000000000E+00  0.99999998245E-14  0.12500000000E+03  0.12500000000E+03 0.  0.
        -11    1    3    3    0    0  0.23380602489E+02 -0.96926637297E+01  0.49642814743E+02  0.55722610839E+02  0.51100000000E-03 0. -1.
         23    2    1    0    0    0 -0.81765620566E+01 -0.12355961888E+02  0.25355926356E+02  0.95632518620E+02  0.91011700649E+02 0.  0.
         11    1    3    3    0    0 -0.31557164546E+02 -0.26632981587E+01 -0.24286888387E+02  0.39909907781E+02  0.51100000000E-03 0.  1.
         22    1    1    0    0    0  0.81765620566E+01  0.12355961888E+02 -0.25355926356E+02  0.29367481380E+02  0.00000000000E+00 0. -1.
</event>
<event>
 5    1  0.1692171E-003  0.9118800E+02  0.7818608E-02  0.1130116E+00
         25   -1    0    0    0    0  0.00000000000E+00  0.00000000000E+00  0.99999998245E-14  0.12500000000E+03  0.12500000000E+03 0.  0.
        -11    1    3    3    0    0  0.21994077153E+02 -0.28047860843E+02 -0.16440757259E+02  0.39252011760E+02  0.51100000000E-03 0.  1.
         23    2    1    0    0    0  0.13294800917E+02  0.26059670494E+02 -0.37404040886E+01  0.95506801115E+02  0.90838869867E+02 0.  0.
         11    1    3    3    0    0 -0.86992762358E+01  0.54107531338E+02  0.12700353171E+02  0.56254789355E+02  0.51100000000E-03 0. -1.
         22    1    1    0    0    0 -0.13294800917E+02 -0.26059670494E+02  0.37404040886E+01  0.29493198885E+02  0.00000000000E+00 0. -1.
</event>
<event>
 5    1  0.1692171E-003  0.9118800E+02  0.7818608E-02  0.1130116E+00
         25   -1    0    0    0    0  0.00000000000E+00  0.00000000000E+00  0.99999998245E-14  0.12500000000E+03  0.12500000000E+03 0.  0.
        -11    1    3    3    0    0  0.14554966980E+01 -0.38463260837E+02 -0.13301731093E+02  0.40724402453E+02  0.51100000000E-03 0. -1.
         23    2    1    0    0    0  0.27485569184E+02  0.91299109200E+01 -0.39909666379E+01  0.95764070025E+02  0.91192200908E+02 0.  0.
         11    1    3    3    0    0  0.26030072486E+02  0.47593171757E+02  0.93107644550E+01  0.55039667572E+02  0.51100000000E-03 0.  1.
         22    1    1    0    0    0 -0.27485569184E+02 -0.91299109200E+01  0.39909666379E+01  0.29235929975E+02  0.00000000000E+00 0.  1.
</event>
<event>
 5    1  0.1692171E-003  0.9118800E+02  0.7818608E-02  0.1130116E+00
         25   -1    0    0    0    0  0.00000000000E+00  0.00000000000E+00  0.99999998245E-14  0.12500000000E+03  0.12500000000E+03 0.  0.
        -11    1    3    3    0    0  0.27604158374E+02  0.49755053428E+02 -0.10166428288E+02  0.57800615616E+02  0.51100000000E-03 0.  1.
         23    2    1    0    0    0  0.17052846013E+02  0.21901609390E+02  0.11829211270E+02  0.94826994013E+02  0.89898545613E+02 0.  0.
         11    1    3    3    0    0 -0.10551312361E+02 -0.27853444039E+02  0.21995639558E+02  0.37026378397E+02  0.51100000000E-03 0. -1.
         22    1    1    0    0    0 -0.17052846013E+02 -0.21901609390E+02 -0.11829211270E+02  0.30173005987E+02  0.00000000000E+00 0.  1.
</event>
<event>
 5    1  0.1692171E-003  0.9118800E+02  0.7818608E-02  0.1130116E+00
         25   -1    0    0    0    0  0.00000000000E+00  0.00000000000E+00  0.99999998245E-14  0.12500000000E+03  0.12500000000E+03 0.  0.
        -11    1    3    3    0    0  0.18751903636E+02 -0.22529157800E+02  0.22712531411E+02  0.37081746513E+02  0.51100000000E-03 0. -1.
         23    2    1    0    0    0 -0.74029895829E+01  0.26438763467E+02 -0.11776189678E+01  0.97519111097E+02  0.93566969462E+02 0.  0.
         11    1    3    3    0    0 -0.26154893219E+02  0.48967921267E+02 -0.23890150378E+02  0.60437364584E+02  0.51100000000E-03 0.  1.
         22    1    1    0    0    0  0.74029895829E+01 -0.26438763467E+02  0.11776189678E+01  0.27480888903E+02  0.00000000000E+00 0.  1.
</event>
<event>
 5    1  0.1692171E-003  0.9118800E+02  0.7818608E-02  0.1130116E+00
         25   -1    0    0    0    0  0.00000000000E+00  0.00000000000E+00  0.99999998245E-14  0.12500000000E+03  0.12500000000E+03 0.  0.
        -11    1    3    3    0    0 -0.36840288142E+00 -0.22335314227E+02  0.31078835971E+02  0.38273960180E+02  0.51100000000E-03 0.  1.
         23    2    1    0    0    0  0.24756099335E+02  0.65331095211E+01 -0.12697910928E+02  0.96420585796E+02  0.92087710630E+02 0.  0.
         11    1    3    3    0    0  0.25124502216E+02  0.28868423748E+02 -0.43776746899E+02  0.58146625617E+02  0.51100000000E-03 0. -1.
         22    1    1    0    0    0 -0.24756099335E+02 -0.65331095211E+01  0.12697910928E+02  0.28579414204E+02  0.00000000000E+00 0. -1.
</event>
<event>
 5    1  0.1692171E-003  0.9118800E+02  0.7818608E-02  0.1130116E+00
         25   -1    0    0    0    0  0.00000000000E+00  0.00000000000E+00  0.99999998245E-14  0.12500000000E+03  0.12500000000E+03 0.  0.
        -11    1    3    3    0    0  0.15320671462E+02 -0.55804534087E+02  0.15140313804E+01  0.57889215662E+02  0.51100000000E-03 0. -1.
         23    2    1    0    0    0  0.94400626074E+01 -0.21551257884E+02  0.17035495359E+02  0.95952115386E+02  0.91449597301E+02 0.  0.
         11    1    3    3    0    0 -0.58806088546E+01  0.34253276203E+02  0.15521463979E+02  0.38062899724E+02  0.51100000000E-03 0.  1.
         22    1    1    0    0    0 -0.94400626074E+01  0.21551257884E+02 -0.17035495359E+02  0.29047884614E+02  0.00000000000E+00 0. -1.
</event>
<event>
 5    1  0.1692171E-003  0.9118800E+02  0.7818608E-02  0.1130116E+00
         25   -1    0    0    0    0  0.00000000000E+00  0.00000000000E+00  0.99999998245E-14  0.12500000000E+03  0.12500000000E+03 0.  0.
        -11    1    3    3    0    0 -0.20122657015E+02  0.21463857644E+02  0.31273114192E+02  0.42937468274E+02  0.51100000000E-03 0.  1.
         23    2    1    0    0    0 -0.18873475166E+02  0.67853388620E+01 -0.20234250779E+02  0.96510110690E+02  0.92209151783E+02 0.  0.
         11    1    3    3    0    0  0.12491818487E+01 -0.14678518782E+02 -0.51507364971E+02  0.53572642416E+02  0.51100000000E-03 0. -1.
         22    1    1    0    0    0  0.18873475166E+02 -0.67853388620E+01  0.20234250779E+02  0.28489889310E+02  0.00000000000E+00 0. -1.
</event>
<event>
 5    1  0.1692171E-003  0.9118800E+02  0.7818608E-02  0.1130116E+00
         25   -1    0    0    0    0  0.00000000000E+00  0.00000000000E+00  0.99999998245E-14  0.12500000000E+03  0.12500000000E+03 0.  0.
        -11    1    3    3    0    0  0.70045086792E+00 -0.16803801612E+02  0.54642528081E+02  0.57172233255E+02  0.51100000000E-03 0.  1.
         23    2    1    0    0    0  0.13303769324E+02  0.52163067690E+01  0.25126539671E+02  0.96094237074E+02  0.91643653727E+02 0.  0.
         11    1    3    3    0    0  0.12603318456E+02  0.22020108381E+02 -0.29515988410E+02  0.38922003819E+02  0.51100000000E-03 0. -1.
         22    1    1    0    0    0 -0.13303769324E+02 -0.52163067690E+01 -0.25126539671E+02  0.28905762926E+02  0.00000000000E+00 0.  1.
</event>
<event>
 5    1  0.1692171E-003  0.9118800E+02  0.7818608E-02  0.1130116E+00
         25   -1    0    0    0    0  0.00000000000E+00  0.00000000000E+00  0.99999998245E-14  0.12500000000E+03  0.12500000000E+03 0.  0.
        -11    1    3    3    0    0 -0.47877735861E+02  0.22022528240E+02  0.30175015395E+02  0.60727266492E+02  0.51100000000E-03 0. -1.
         23    2    1    0    0    0 -0.28177848920E+02  0.84114088529E+01  0.55505049210E+01  0.95074240636E+02  0.90241676398E+02 0.  0.
         11    1    3    3    0    0  0.19699886941E+02 -0.13611119387E+02 -0.24624510474E+02  0.34346974144E+02  0.51100000000E-03 0.  1.
         22    1    1    0    0    0  0.28177848920E+02 -0.84114088529E+01 -0.55505049210E+01  0.29925759364E+02  0.00000000000E+00 0. -1.
</event>
<event>
 5    1  0.1692171E-003  0.9118800E+02  0.7818608E-02  0.1130116E+00
         25   -1    0    0    0    0  0.00000000000E+00  0.00000000000E+00  0.99999998245E-14  0.12500000000E+03  0.12500000000E+03 0.  0.
        -11    1    3    3    0    0  0.15212781057E+02 -0.53431543408E+02  0.15622119014E+02  0.57709697116E+02  0.51100000000E-03 0. -1.
         23    2    1    0    0    0 -0.98117222997E+01 -0.25025598412E+02  0.11404241391E+02  0.95800561785E+02  0.91242207592E+02 0.  0.
         11    1    3    3    0    0 -0.25024503357E+02  0.28405944996E+02 -0.42178776234E+01  0.38090864670E+02  0.51100000000E-03 0.  1.
         22    1    1    0    0    0  0.98117222997E+01  0.25025598412E+02 -0.11404241391E+02  0.29199438215E+02  0.00000000000E+00 0. -1.
</event>
<event>
 5    1  0.1692171E-003  0.9118800E+02  0.7818608E-02  0.1130116E+00
         25   -1    0    0    0    0  0.00000000000E+00  0.00000000000E+00  0.99999998245E-14  0.12500000000E+03  0.12500000000E+03 0.  0.
        -11    1    3    3    0    0  0.41598231885E+02  0.52595612174E+01  0.20520270490E+02  0.46681445794E+02  0.51100000000E-03 0. -1.
         23    2    1    0    0    0 -0.21802291053E+01 -0.16116084406E+02  0.24534603329E+02  0.95564845235E+02  0.90918707144E+02 0.  0.
         11    1    3    3    0    0 -0.43778460990E+02 -0.21375645624E+02  0.40143328388E+01  0.48883399441E+02  0.51100000000E-03 0.  1.
         22    1    1    0    0    0  0.21802291053E+01  0.16116084406E+02 -0.24534603329E+02  0.29435154765E+02  0.00000000000E+00 0. -1.
</event>
<event>
 5    1  0.1692171E-003  0.9118800E+02  0.7818608E-02  0.1130116E+00
         25   -1    0    0    0    0  0.00000000000E+00  0.00000000000E+00  0.99999998245E-14  0.12500000000E+03  0.12500000000E+03 0.  0.
        -11    1    3    3    0    0 -0.38510177874E+02 -0.17321121532E+02 -0.97023380119E+01  0.43326555531E+02  0.51100000000E-03 0. -1.
         23    2    1    0    0    0  0.34056572490E+01 -0.10390586092E+02 -0.31912107701E+02  0.91266553711E+02  0.84803528392E+02 0.  0.
         11    1    3    3    0    0  0.41915835123E+02  0.69305354395E+01 -0.22209769689E+02  0.47939998180E+02  0.51100000000E-03 0.  1.
         22    1    1    0    0    0 -0.34056572490E+01  0.10390586092E+02  0.31912107701E+02  0.33733446289E+02  0.00000000000E+00 0. -1.
</event>
<event>
 5    1  0.1692171E-003  0.9118800E+02  0.7818608E-02  0.1130116E+00
         25   -1    0    0    0    0  0.00000000000E+00  0.00000000000E+00  0.99999998245E-14  0.12500000000E+03  0.12500000000E+03 0.  0.
        -11    1    3    3    0    0  0.95606813612E+01  0.24498279140E+02  0.24106686743E+02  0.35674986404E+02  0.51100000000E-03 0.  1.
         23    2    1    0    0    0 -0.17280789013E+02  0.89103865238E+00 -0.23878507694E+02  0.95510972405E+02  0.90844609644E+02 0.  0.
         11    1    3    3    0    0 -0.26841470374E+02 -0.23607240488E+02 -0.47985194437E+02  0.59835986001E+02  0.51100000000E-03 0. -1.
         22    1    1    0    0    0  0.17280789013E+02 -0.89103865238E+00  0.23878507694E+02  0.29489027595E+02  0.00000000000E+00 0. -1.
</event>
<event>
 5    1  0.1692171E-003  0.9118800E+02  0.7818608E-02  0.1130116E+00
         25   -1    0    0    0    0  0.00000000000E+00  0.00000000000E+00  0.99999998245E-14  0.12500000000E+03  0.12500000000E+03 0.  0.
        -11    1    3    3    0    0 -0.37558330031E+02  0.32028940572E+02 -0.16702657981E+02  0.52110075539E+02  0.51100000000E-03 0. -1.
         23    2    1    0    0    0 -0.14925423831E+02 -0.27880539671E+01 -0.26208513976E+02  0.94710930581E+02  0.89737019368E+02 0.  0.
         11    1    3    3    0    0  0.22632906200E+02 -0.34816994539E+02 -0.95058559953E+01  0.42600855041E+02  0.51100000000E-03 0.  1.
         22    1    1    0    0    0  0.14925423831E+02  0.27880539671E+01  0.26208513976E+02  0.30289069419E+02  0.00000000000E+00 0. -1.
</event>
<event>
 5    1  0.1692171E-003  0.9118800E+02  0.7818608E-02  0.1130116E+00
         25   -1    0    0    0    0  0.00000000000E+00  0.00000000000E+00  0.99999998245E-14  0.12500000000E+03  0.12500000000E+03 0.  0.
        -11    1    3    3    0    0  0.45859003885E+02 -0.27958111653E+02  0.22551934701E+02  0.58251987120E+02  0.51100000000E-03 0. -1.
         23    2    1    0    0    0  0.26597037819E+02 -0.38079052947E+01 -0.24877694177E+01  0.98016828205E+02  0.94229544471E+02 0.  0.
         11    1    3    3    0    0 -0.19261966066E+02  0.24150206358E+02 -0.25039704119E+02  0.39764841084E+02  0.51100000000E-03 0.  1.
         22    1    1    0    0    0 -0.26597037819E+02  0.38079052947E+01  0.24877694177E+01  0.26983171795E+02  0.00000000000E+00 0. -1.
</event>
<event>
 5    1  0.1692171E-003  0.9118800E+02  0.7818608E-02  0.1130116E+00
         25   -1    0    0    0    0  0.00000000000E+00  0.00000000000E+00  0.99999998245E-14  0.12500000000E+03  0.12500000000E+03 0.  0.
        -11    1    3    3    0    0 -0.31515846250E+02  0.23259451742E+02  0.31532741717E+01  0.39296231352E+02  0.51100000000E-03 0. -1.
         23    2    1    0    0    0 -0.30811826296E+01 -0.23741682872E+02 -0.14517487862E+02  0.97001452791E+02  0.92872833475E+02 0.  0.
         11    1    3    3    0    0  0.28434663620E+02 -0.47001134614E+02 -0.17670762034E+02  0.57705221439E+02  0.51100000000E-03 0.  1.
         22    1    1    0    0    0  0.30811826296E+01  0.23741682872E+02  0.14517487862E+02  0.27998547209E+02  0.00000000000E+00 0.  1.
</event>
<event>
 5    1  0.1692171E-003  0.9118800E+02  0.7818608E-02  0.1130116E+00
         25   -1    0    0    0    0  0.00000000000E+00  0.00000000000E+00  0.99999998245E-14  0.12500000000E+03  0.12500000000E+03 0.  0.
        -11    1    3    3    0    0 -0.13704222456E+02 -0.46514519528E+02  0.64386970064E+01  0.48916899528E+02  0.51100000000E-03 0.  1.
         23    2    1    0    0    0  0.18495831726E+02 -0.17657537144E+02  0.18065210390E+02  0.93691275407E+02  0.88305259480E+02 0.  0.
         11    1    3    3    0    0  0.32200054181E+02  0.28856982384E+02  0.11626513384E+02  0.44774375879E+02  0.51100000000E-03 0. -1.
         22    1    1    0    0    0 -0.18495831726E+02  0.17657537144E+02 -0.18065210390E+02  0.31308724593E+02  0.00000000000E+00 0.  1.
</event>
<event>
 5    1  0.1692171E-003  0.9118800E+02  0.7818608E-02  0.1130116E+00
         25   -1    0    0    0    0  0.00000000000E+00  0.00000000000E+00  0.99999998245E-14  0.12500000000E+03  0.12500000000E+03 0.  0.
        -11    1    3    3    0    0  0.62003787372E+01  0.65331115706E+01  0.33945220182E+02  0.35119855022E+02  0.51100000000E-03 0. -1.
         23    2    1    0    0    0  0.14656066797E+02 -0.13670626330E+02 -0.22023985397E+02  0.95221782273E+02  0.90445815648E+02 0.  0.
         11    1    3    3    0    0  0.84556880603E+01 -0.20203737901E+02 -0.55969205580E+02  0.60101927251E+02  0.51100000000E-03 0.  1.
         22    1    1    0    0    0 -0.14656066797E+02  0.13670626330E+02  0.22023985397E+02  0.29778217727E+02  0.00000000000E+00 0.  1.
</event>
<event>
 5    1  0.1692171E-003  0.9118800E+02  0.7818608E-02  0.1130116E+00
         25   -1    0    0    0    0  0.00000000000E+00  0.00000000000E+00  0.99999998245E-14  0.12500000000E+03  0.12500000000E+03 0.  0.
        -11    1    3    3    0    0 -0.21473936214E+02  0.27936684936E+02  0.34056334889E+02  0.49004308464E+02  0.51100000000E-03 0.  1.
         23    2    1    0    0    0  0.12008971285E+02  0.25670392233E+02  0.22304313562E+00  0.96658613708E+02  0.92410245249E+02 0.  0.
         11    1    3    3    0    0  0.33482907498E+02 -0.22662927028E+01 -0.33833291753E+02  0.47654305244E+02  0.51100000000E-03 0. -1.
         22    1    1    0    0    0 -0.12008971285E+02 -0.25670392233E+02 -0.22304313562E+00  0.28341386292E+02  0.00000000000E+00 0. -1.
</event>
<event>
 5    1  0.1692171E-003  0.9118800E+02  0.7818608E-02  0.1130116E+00
         25   -1    0    0    0    0  0.00000000000E+00  0.00000000000E+00  0.99999998245E-14  0.12500000000E+03  0.12500000000E+03 0.  0.
        -11    1    3    3    0    0 -0.18031612104E+02 -0.42597094199E+02  0.23917269948E+02  0.52073863610E+02  0.51100000000E-03 0. -1.
         23    2    1    0    0    0 -0.18044570235E+02 -0.20822092953E+02 -0.12687941625E+02  0.94666026759E+02  0.89674448366E+02 0.  0.
         11    1    3    3    0    0 -0.12958130840E-01  0.21775001246E+02 -0.36605211572E+02  0.42592163149E+02  0.51100000000E-03 0.  1.
         22    1    1    0    0    0  0.18044570235E+02  0.20822092953E+02  0.12687941625E+02  0.30333973241E+02  0.00000000000E+00 0. -1.
</event>
<event>
 5    1  0.1692171E-003  0.9118800E+02  0.7818608E-02  0.1130116E+00
         25   -1    0    0    0    0  0.00000000000E+00  0.00000000000E+00  0.99999998245E-14  0.12500000000E+03  0.12500000000E+03 0.  0.
        -11    1    3    3    0    0 -0.20140581863E+02  0.22903462750E+02  0.13536820805E+01  0.30529397294E+02  0.51100000000E-03 0. -1.
         23    2    1    0    0    0 -0.75700182876E+01 -0.16418839746E+02 -0.35044459700E+02  0.85566541729E+02  0.75938366011E+02 0.  0.
         11    1    3    3    0    0  0.12570563575E+02 -0.39322302496E+02 -0.36398141781E+02  0.55037144435E+02  0.51100000000E-03 0.  1.
         22    1    1    0    0    0  0.75700182876E+01  0.16418839746E+02  0.35044459700E+02  0.39433458271E+02  0.00000000000E+00 0.  1.
</event>
<event>
 5    1  0.1692171E-003  0.9118800E+02  0.7818608E-02  0.1130116E+00
         25   -1    0    0    0    0  0.00000000000E+00  0.00000000000E+00  0.99999998245E-14  0.12500000000E+03  0.12500000000E+03 0.  0.
        -11    1    3    3    0    0 -0.44775154380E+02 -0.19875360804E+02 -0.13069393264E+02  0.50701611980E+02  0.51100000000E-03 0. -1.
         23    2    1    0    0    0 -0.19973484730E+02 -0.79774337674E+01  0.21304323851E+02  0.94727012759E+02  0.89759418390E+02 0.  0.
         11    1    3    3    0    0  0.24801669650E+02  0.11897927036E+02  0.34373717115E+02  0.44025400779E+02  0.51100000000E-03 0.  1.
         22    1    1    0    0    0  0.19973484730E+02  0.79774337674E+01 -0.21304323851E+02  0.30272987241E+02  0.00000000000E+00 0. -1.
</event>
<event>
 5    1  0.1692171E-003  0.9118800E+02  0.7818608E-02  0.1130116E+00
         25   -1    0    0    0    0  0.00000000000E+00  0.00000000000E+00  0.99999998245E-14  0.12500000000E+03  0.12500000000E+03 0.  0.
        -11    1    3    3    0    0  0.15139388539E+02 -0.52853537008E+02  0.11859964331E+02  0.56243721550E+02  0.51100000000E-03 0.  1.
         23    2    1    0    0    0 -0.12526552036E+02 -0.21038825441E+02  0.10306405233E+02  0.98433692943E+02  0.94780922319E+02 0.  0.
         11    1    3    3    0    0 -0.27665940575E+02  0.31814711567E+02 -0.15535590981E+01  0.42189971393E+02  0.51100000000E-03 0. -1.
         22    1    1    0    0    0  0.12526552036E+02  0.21038825441E+02 -0.10306405233E+02  0.26566307057E+02  0.00000000000E+00 0.  1.
</event>
<event>
 5    1  0.1692171E-003  0.9118800E+02  0.7818608E-02  0.1130116E+00
         25   -1    0    0    0    0  0.00000000000E+00  0.00000000000E+00  0.99999998245E-14  0.12500000000E+03  0.12500000000E+03 0.  0.
        -11    1    3    3    0    0  0.49302312963E+01  0.79858375448E+01 -0.45410030544E+02  0.46369727799E+02  0.51100000000E-03 0. -1.
         23    2    1    0    0    0  0.13199568626E+02  0.26498883185E+02 -0.78488948066E+00  0.95385215289E+02  0.90671405759E+02 0.  0.
         11    1    3    3    0    0  0.82693373299E+01  0.18513045640E+02  0.44625141063E+02  0.49015487490E+02  0.51100000000E-03 0.  1.
         22    1    1    0    0    0 -0.13199568626E+02 -0.26498883185E+02  0.78488948066E+00  0.29614784711E+02  0.00000000000E+00 0.  1.
</event>
<event>
 5    1  0.1692171E-003  0.9118800E+02  0.7818608E-02  0.1130116E+00
         25   -1    0    0    0    0  0.00000000000E+00  0.00000000000E+00  0.99999998245E-14  0.12500000000E+03  0.12500000000E+03 0.  0.
        -11    1    3    3    0    0  0.31642465812E+00  0.10435639780E+02  0.36021716191E+02  0.37504222959E+02  0.51100000000E-03 0. -1.
         23    2    1    0    0    0 -0.12202163545E+00 -0.26264549155E+02 -0.10459419903E+02  0.96729151122E+02  0.92505609454E+02 0.  0.
         11    1    3    3    0    0 -0.43844629357E+00 -0.36700188935E+02 -0.46481136094E+02  0.59224928162E+02  0.51100000000E-03 0.  1.
         22    1    1    0    0    0  0.12202163545E+00  0.26264549155E+02  0.10459419903E+02  0.28270848878E+02  0.00000000000E+00 0.  1.
</event>
<event>
 5    1  0.1692171E-003  0.9118800E+02  0.7818608E-02  0.1130116E+00
         25   -1    0    0    0    0  0.00000000000E+00  0.00000000000E+00  0.99999998245E-14  0.12500000000E+03  0.12500000000E+03 0.  0.
        -11    1    3    3    0    0  0.31633903305E+00 -0.91566161054E+01 -0.61258476003E+02  0.61939846394E+02  0.51100000000E-03 0.  1.
         23    2    1    0    0    0 -0.15598000929E+01  0.13073959130E+01 -0.29489652017E+02  0.95440198978E+02  0.90747174857E+02 0.  0.
         11    1    3    3    0    0 -0.18761391259E+01  0.10464012018E+02  0.31768823986E+02  0.33500352584E+02  0.51100000000E-03 0. -1.
         22    1    1    0    0    0  0.15598000929E+01 -0.13073959130E+01  0.29489652017E+02  0.29559801022E+02  0.00000000000E+00 0.  1.
</event>
<event>
 5    1  0.1692171E-003  0.9118800E+02  0.7818608E-02  0.1130116E+00
         25   -1    0    0    0    0  0.00000000000E+00  0.00000000000E+00  0.99999998245E-14  0.12500000000E+03  0.12500000000E+03 0.  0.
        -11    1    3    3    0    0  0.37634771136E+02 -0.30193907698E+02  0.14658845443E+01  0.48272112843E+02  0.51100000000E-03 0.  1.
         23    2    1    0    0    0  0.21469224603E+02  0.16025135564E+02  0.63122121907E+01  0.97475890611E+02  0.93509211593E+02 0.  0.
         11    1    3    3    0    0 -0.16165546532E+02  0.46219043262E+02  0.48463276465E+01  0.49203777768E+02  0.51100000000E-03 0. -1.
         22    1    1    0    0    0 -0.21469224603E+02 -0.16025135564E+02 -0.63122121907E+01  0.27524109389E+02  0.00000000000E+00 0. -1.
</event>
<event>
 5    1  0.1692171E-003  0.9118800E+02  0.7818608E-02  0.1130116E+00
         25   -1    0    0    0    0  0.00000000000E+00  0.00000000000E+00  0.99999998245E-14  0.12500000000E+03  0.12500000000E+03 0.  0.
        -11    1    3    3    0    0 -0.36759939112E+02 -0.18367814531E+02 -0.66818604155E+01  0.41633123748E+02  0.51100000000E-03 0.  1.
         23    2    1    0    0    0 -0.76829883243E+01  0.25769370946E+02  0.87971727671E+01  0.96707261758E+02  0.92476026296E+02 0.  0.
         11    1    3    3    0    0  0.29076950787E+02  0.44137185478E+02  0.15479033183E+02  0.55074138010E+02  0.51100000000E-03 0. -1.
         22    1    1    0    0    0  0.76829883243E+01 -0.25769370946E+02 -0.87971727671E+01  0.28292738242E+02  0.00000000000E+00 0. -1.
</event>
<event>
 5    1  0.1692171E-003  0.9118800E+02  0.7818608E-02  0.1130116E+00
         25   -1    0    0    0    0  0.00000000000E+00  0.00000000000E+00  0.99999998245E-14  0.12500000000E+03  0.12500000000E+03 0.  0.
        -11    1    3    3    0    0 -0.93213764691E+01 -0.42037062284E+02  0.33157420952E+01  0.43185608838E+02  0.51100000000E-03 0.  1.
         23    2    1    0    0    0  0.14141930302E+02 -0.15127482955E+02  0.30552357120E+02  0.88090902764E+02  0.79985784305E+02 0.  0.
         11    1    3    3    0    0  0.23463306771E+02  0.26909579329E+02  0.27236615025E+02  0.44905293926E+02  0.51100000000E-03 0. -1.
         22    1    1    0    0    0 -0.14141930302E+02  0.15127482955E+02 -0.30552357120E+02  0.36909097236E+02  0.00000000000E+00 0.  1.
</event>
<event>
 5    1  0.1692171E-003  0.9118800E+02  0.7818608E-02  0.1130116E+00
         25   -1    0    0    0    0  0.00000000000E+00  0.00000000000E+00  0.99999998245E-14  0.12500000000E+03  0.12500000000E+03 0.  0.
        -11    1    3    3    0    0  0.29642533525E+02  0.36997996945E+00  0.18201703050E+02  0.34786760027E+02  0.51100000000E-03 0. -1.
         23    2    1    0    0    0 -0.54854962625E+00  0.13269695277E+01 -0.31780312215E+02  0.93187266711E+02  0.87588907276E+02 0.  0.
         11    1    3    3    0    0 -0.30191083151E+02  0.95698955823E+00 -0.49982015265E+02  0.58400506685E+02  0.51100000000E-03 0.  1.
         22    1    1    0    0    0  0.54854962625E+00 -0.13269695277E+01  0.31780312215E+02  0.31812733289E+02  0.00000000000E+00 0. -1.
</event>
<event>
 5    1  0.1692171E-003  0.9118800E+02  0.7818608E-02  0.1130116E+00
         25   -1    0    0    0    0  0.00000000000E+00  0.00000000000E+00  0.99999998245E-14  0.12500000000E+03  0.12500000000E+03 0.  0.
        -11    1    3    3    0    0  0.28253997786E+02 -0.12008603997E+02  0.51122087372E+01  0.31122815414E+02  0.51100000000E-03 0. -1.
         23    2    1    0    0    0 -0.12190765144E+02  0.69830080281E+01 -0.32542014367E+02  0.89554833123E+02  0.82241767252E+02 0.  0.
         11    1    3    3    0    0 -0.40444762930E+02  0.18991612025E+02 -0.37654223104E+02  0.58432017709E+02  0.51100000000E-03 0.  1.
         22    1    1    0    0    0  0.12190765144E+02 -0.69830080281E+01  0.32542014367E+02  0.35445166877E+02  0.00000000000E+00 0.  1.
</event>
<event>
 5    1  0.1692171E-003  0.9118800E+02  0.7818608E-02  0.1130116E+00
         25   -1    0    0    0    0  0.00000000000E+00  0.00000000000E+00  0.99999998245E-14  0.12500000000E+03  0.12500000000E+03 0.  0.
        -11    1    3    3    0    0 -0.28325870450E+02 -0.12274488799E+02  0.27676421818E+02  0.41460853066E+02  0.51100000000E-03 0.  1.
         23    2    1    0    0    0 -0.53553386903E+01  0.27503344833E+02 -0.31855040329E+01  0.96799626502E+02  0.92600791710E+02 0.  0.
         11    1    3    3    0    0  0.22970531760E+02  0.39777833632E+02 -0.30861925851E+02  0.55338773435E+02  0.51100000000E-03 0. -1.
         22    1    1    0    0    0  0.53553386903E+01 -0.27503344833E+02  0.31855040329E+01  0.28200373498E+02  0.00000000000E+00 0. -1.
</event>
<event>
 5    1  0.1692171E-003  0.9118800E+02  0.7818608E-02  0.1130116E+00
         25   -1    0    0    0    0  0.00000000000E+00  0.00000000000E+00  0.99999998245E-14  0.12500000000E+03  0.12500000000E+03 0.  0.
        -11    1    3    3    0    0  0.41308192617E+02  0.79624362747E+01 -0.17568918401E+02  0.45589846048E+02  0.51100000000E-03 0. -1.
         23    2    1    0    0    0  0.86737964958E+01 -0.25511086045E+02  0.51498241975E+01  0.97566973442E+02  0.93630888924E+02 0.  0.
         11    1    3    3    0    0 -0.32634396121E+02 -0.33473522320E+02  0.22718742598E+02  0.51977127394E+02  0.51100000000E-03 0.  1.
         22    1    1    0    0    0 -0.86737964958E+01  0.25511086045E+02 -0.51498241975E+01  0.27433026558E+02  0.00000000000E+00 0.  1.
</event>
<event>
 5    1  0.1692171E-003  0.9118800E+02  0.7818608E-02  0.1130116E+00
         25   -1    0    0    0    0  0.00000000000E+00  0.00000000000E+00  0.99999998245E-14  0.12500000000E+03  0.12500000000E+03 0.  0.
        -11    1    3    3    0    0 -0.19581211281E+02  0.37051344418E+02  0.42573493467E+02  0.59738834142E+02  0.51100000000E-03 0.  1.
         23    2    1    0    0    0 -0.12240982250E+01  0.26272438779E+02  0.14512464322E+02  0.94960840949E+02  0.90084461685E+02 0.  0.
         11    1    3    3    0    0  0.18357113056E+02 -0.10778905640E+02 -0.28061029145E+02  0.35222006807E+02  0.51100000000E-03 0. -1.
         22    1    1    0    0    0  0.12240982250E+01 -0.26272438779E+02 -0.14512464322E+02  0.30039159051E+02  0.00000000000E+00 0.  1.
</event>
<event>
 5    1  0.1692171E-003  0.9118800E+02  0.7818608E-02  0.1130116E+00
         25   -1    0    0    0    0  0.00000000000E+00  0.00000000000E+00  0.99999998245E-14  0.12500000000E+03  0.12500000000E+03 0.  0.
        -11    1    3    3    0    0 -0.22698157934E+02  0.28486744637E+02 -0.13530470305E+01  0.36449029207E+02  0.51100000000E-03 0.  1.
         23    2    1    0    0    0  0.25540257722E+02 -0.39956910770E+01 -0.13465252939E+02  0.95852386917E+02  0.91313179384E+02 0.  0.
         11    1    3    3    0    0  0.48238415657E+02 -0.32482435714E+02 -0.12112205909E+02  0.59403357710E+02  0.51100000000E-03 0. -1.
         22    1    1    0    0    0 -0.25540257722E+02  0.39956910770E+01  0.13465252939E+02  0.29147613083E+02  0.00000000000E+00 0. -1.
</event>
<event>
 5    1  0.1692171E-003  0.9118800E+02  0.7818608E-02  0.1130116E+00
         25   -1    0    0    0    0  0.00000000000E+00  0.00000000000E+00  0.99999998245E-14  0.12500000000E+03  0.12500000000E+03 0.  0.
        -11    1    3    3    0    0 -0.39723774262E+01 -0.32595910225E+02 -0.48750833770E+01  0.33196981550E+02  0.51100000000E-03 0. -1.
         23    2    1    0    0    0  0.95705286405E+01  0.27993569537E+02 -0.11466508247E+01  0.95393416915E+02  0.90682711851E+02 0.  0.
         11    1    3    3    0    0  0.13542906067E+02  0.60589479762E+02  0.37284325523E+01  0.62196435365E+02  0.51100000000E-03 0.  1.
         22    1    1    0    0    0 -0.95705286405E+01 -0.27993569537E+02  0.11466508247E+01  0.29606583085E+02  0.00000000000E+00 0.  1.
</event>
<event>
 5    1  0.1692171E-003  0.9118800E+02  0.7818608E-02  0.1130116E+00
         25   -1    0    0    0    0  0.00000000000E+00  0.00000000000E+00  0.99999998245E-14  0.12500000000E+03  0.12500000000E+03 0.  0.
        -11    1    3    3    0    0  0.23032363779E+02  0.16892688306E+02 -0.36932674115E+02  0.46689132750E+02  0.51100000000E-03 0.  1.
         23    2    1    0    0    0  0.24578954564E+02  0.95423128930E+01  0.11883242769E+02  0.96079553919E+02  0.91623624027E+02 0.  0.
         11    1    3    3    0    0  0.15465907851E+01 -0.73503754125E+01  0.48815916884E+02  0.49390421169E+02  0.51100000000E-03 0. -1.
         22    1    1    0    0    0 -0.24578954564E+02 -0.95423128930E+01 -0.11883242769E+02  0.28920446081E+02  0.00000000000E+00 0. -1.
</event>
<event>
 5    1  0.1692171E-003  0.9118800E+02  0.7818608E-02  0.1130116E+00
         25   -1    0    0    0    0  0.00000000000E+00  0.00000000000E+00  0.99999998245E-14  0.12500000000E+03  0.12500000000E+03 0.  0.
        -11    1    3    3    0    0 -0.34912553371E+02  0.40914247944E+02  0.21618866276E+02  0.57967555123E+02  0.51100000000E-03 0.  1.
         23    2    1    0    0    0 -0.16946055178E+02  0.19880840279E+02 -0.71885819242E+01  0.97905862140E+02  0.94082227520E+02 0.  0.
         11    1    3    3    0    0  0.17966498193E+02 -0.21033407665E+02 -0.28807448200E+02  0.39938307017E+02  0.51100000000E-03 0. -1.
         22    1    1    0    0    0  0.16946055178E+02 -0.19880840279E+02  0.71885819242E+01  0.27094137860E+02  0.00000000000E+00 0.  1.
</event>
<event>
 5    1  0.1692171E-003  0.9118800E+02  0.7818608E-02  0.1130116E+00
         25   -1    0    0    0    0  0.00000000000E+00  0.00000000000E+00  0.99999998245E-14  0.12500000000E+03  0.12500000000E+03 0.  0.
        -11    1    3    3    0    0  0.21577236966E+02  0.13097140676E+02 -0.47182228485E+02  0.53509577966E+02  0.51100000000E-03 0.  1.
         23    2    1    0    0    0 -0.12445849999E+02 -0.20333968406E+01 -0.25382482117E+02  0.96657376915E+02  0.92408572269E+02 0.  0.
         11    1    3    3    0    0 -0.34023086965E+02 -0.15130537517E+02  0.21799746368E+02  0.43147798949E+02  0.51100000000E-03 0. -1.
         22    1    1    0    0    0  0.12445849999E+02  0.20333968406E+01  0.25382482117E+02  0.28342623085E+02  0.00000000000E+00 0.  1.
</event>
<event>
 5    1  0.1692171E-003  0.9118800E+02  0.7818608E-02  0.1130116E+00
         25   -1    0    0    0    0  0.00000000000E+00  0.00000000000E+00  0.99999998245E-14  0.12500000000E+03  0.12500000000E+03 0.  0.
        -11    1    3    3    0    0  0.37497761644E+02 -0.12826822384E+02  0.71746150438E+01  0.40275111447E+02  0.51100000000E-03 0.  1.
         23    2    1    0    0    0 -0.22802949446E+02 -0.68999918796E+01  0.24505428843E+01  0.10105027032E+03  0.98171113775E+02 0.  0.
         11    1    3    3    0    0 -0.60300711090E+02  0.59268305049E+01 -0.47240721595E+01  0.60775158871E+02  0.51100000000E-03 0. -1.
         22    1    1    0    0    0  0.22802949446E+02  0.68999918796E+01 -0.24505428843E+01  0.23949729681E+02  0.00000000000E+00 0. -1.
</event>
<event>
 5    1  0.1692171E-003  0.9118800E+02  0.7818608E-02  0.1130116E+00
         25   -1    0    0    0    0  0.00000000000E+00  0.00000000000E+00  0.99999998245E-14  0.12500000000E+03  0.12500000000E+03 0.  0.
        -11    1    3    3    0    0  0.39073930692E+02 -0.87022557627E+01 -0.24050821008E+02  0.46700570730E+02  0.51100000000E-03 0. -1.
         23    2    1    0    0    0 -0.10277333731E+02 -0.21775250602E+01 -0.26451026926E+02  0.96539114043E+02  0.92248460751E+02 0.  0.
         11    1    3    3    0    0 -0.49351264423E+02  0.65247307025E+01 -0.24002059180E+01  0.49838543314E+02  0.51100000000E-03 0.  1.
         22    1    1    0    0    0  0.10277333731E+02  0.21775250602E+01  0.26451026926E+02  0.28460885957E+02  0.00000000000E+00 0.  1.
</event>
<event>
 5    1  0.1692171E-003  0.9118800E+02  0.7818608E-02  0.1130116E+00
         25   -1    0    0    0    0  0.00000000000E+00  0.00000000000E+00  0.99999998245E-14  0.12500000000E+03  0.12500000000E+03 0.  0.
        -11    1    3    3    0    0  0.14743495333E+02  0.28275524959E+02  0.29892799688E+02  0.43708757015E+02  0.51100000000E-03 0.  1.
         23    2    1    0    0    0 -0.24220699018E+02  0.26670864555E+02  0.93817833137E+01  0.87771044398E+02  0.79484344996E+02 0.  0.
         11    1    3    3    0    0 -0.38964194351E+02 -0.16046604037E+01 -0.20511016374E+02  0.44062287383E+02  0.51100000000E-03 0. -1.
         22    1    1    0    0    0  0.24220699018E+02 -0.26670864555E+02 -0.93817833137E+01  0.37228955602E+02  0.00000000000E+00 0. -1.
</event>
<event>
 5    1  0.1692171E-003  0.9118800E+02  0.7818608E-02  0.1130116E+00
         25   -1    0    0    0    0  0.00000000000E+00  0.00000000000E+00  0.99999998245E-14  0.12500000000E+03  0.12500000000E+03 0.  0.
        -11    1    3    3    0    0 -0.72652265548E+00  0.15264479206E+02 -0.30091295351E+02  0.33749343946E+02  0.51100000000E-03 0. -1.
         23    2    1    0    0    0 -0.16063249860E+02 -0.91280072334E+00  0.26177810139E+02  0.94273155956E+02  0.89125131074E+02 0.  0.
         11    1    3    3    0    0 -0.15336727205E+02 -0.16177279929E+02  0.56269105491E+02  0.60523812010E+02  0.51100000000E-03 0.  1.
         22    1    1    0    0    0  0.16063249860E+02  0.91280072334E+00 -0.26177810139E+02  0.30726844044E+02  0.00000000000E+00 0.  1.
</event>
<event>
 5    1  0.1692171E-003  0.9118800E+02  0.7818608E-02  0.1130116E+00
         25   -1    0    0    0    0  0.00000000000E+00  0.00000000000E+00  0.99999998245E-14  0.12500000000E+03  0.12500000000E+03 0.  0.
        -11    1    3    3    0    0  0.34628699506E+02  0.65890524751E+01  0.16576218021E+02  0.38952964536E+02  0.51100000000E-03 0.  1.
         23    2    1    0    0    0 -0.24725245572E+02  0.29969945475E+01  0.33405059195E+01  0.99870759568E+02  0.96657590969E+02 0.  0.
         11    1    3    3    0    0 -0.59353945078E+02 -0.35920579276E+01 -0.13235712101E+02  0.60917795032E+02  0.51100000000E-03 0. -1.
         22    1    1    0    0    0  0.24725245572E+02 -0.29969945475E+01 -0.33405059195E+01  0.25129240432E+02  0.00000000000E+00 0. -1.
</event>
<event>
 5    1  0.1692171E-003  0.9118800E+02  0.7818608E-02  0.1130116E+00
         25   -1    0    0    0    0  0.00000000000E+00  0.00000000000E+00  0.99999998245E-14  0.12500000000E+03  0.12500000000E+03 0.  0.
        -11    1    3    3    0    0  0.49629381847E+02 -0.25767814331E+02  0.23926218851E+02  0.60823677516E+02  0.51100000000E-03 0.  1.
         23    2    1    0    0    0  0.21798608272E+02 -0.47806478820E+01  0.18316254264E+02  0.96129269372E+02  0.91691424588E+02 0.  0.
         11    1    3    3    0    0 -0.27830773575E+02  0.20987166449E+02 -0.56099645872E+01  0.35305591855E+02  0.51100000000E-03 0. -1.
         22    1    1    0    0    0 -0.21798608272E+02  0.47806478820E+01 -0.18316254264E+02  0.28870730628E+02  0.00000000000E+00 0.  1.
</event>
<event>
 5    1  0.1692171E-003  0.9118800E+02  0.7818608E-02  0.1130116E+00
         25   -1    0    0    0    0  0.00000000000E+00  0.00000000000E+00  0.99999998245E-14  0.12500000000E+03  0.12500000000E+03 0.  0.
        -11    1    3    3    0    0 -0.54567209496E+01 -0.28654482025E+02  0.37641081184E+02  0.47620438224E+02  0.51100000000E-03 0. -1.
         23    2    1    0    0    0  0.26474788120E+02 -0.37267608596E+01  0.18921715242E+02  0.92245848199E+02  0.86234923609E+02 0.  0.
         11    1    3    3    0    0  0.31931509069E+02  0.24927721165E+02 -0.18719365942E+02  0.44625409975E+02  0.51100000000E-03 0.  1.
         22    1    1    0    0    0 -0.26474788120E+02  0.37267608596E+01 -0.18921715242E+02  0.32754151801E+02  0.00000000000E+00 0.  1.
</event>
<event>
 5    1  0.1692171E-003  0.9118800E+02  0.7818608E-02  0.1130116E+00
         25   -1    0    0    0    0  0.00000000000E+00  0.00000000000E+00  0.99999998245E-14  0.12500000000E+03  0.12500000000E+03 0.  0.
        -11    1    3    3    0    0  0.13121587059E+02 -0.43506006445E+02 -0.38216223334E+01  0.45602121017E+02  0.51100000000E-03 0.  1.
         23    2    1    0    0    0  0.30257705913E+02  0.22246916869E+01  0.74860521940E+00  0.94651385040E+02  0.89654036495E+02 0.  0.
         11    1    3    3    0    0  0.17136118855E+02  0.45730698132E+02  0.45702275528E+01  0.49049264023E+02  0.51100000000E-03 0. -1.
         22    1    1    0    0    0 -0.30257705913E+02 -0.22246916869E+01 -0.74860521940E+00  0.30348614960E+02  0.00000000000E+00 0. -1.
</event>
<event>
 5    1  0.1692171E-003  0.9118800E+02  0.7818608E-02  0.1130116E+00
         25   -1    0    0    0    0  0.00000000000E+00  0.00000000000E+00  0.99999998245E-14  0.12500000000E+03  0.12500000000E+03 0.  0.
        -11    1    3    3    0    0  0.49358484249E+02  0.21981052661E+02 -0.18399909273E+02  0.57078746526E+02  0.51100000000E-03 0.  1.
         23    2    1    0    0    0  0.29702850875E+02  0.26417655056E+01  0.67785596192E+01  0.94419170293E+02  0.89329684726E+02 0.  0.
         11    1    3    3    0    0 -0.19655633374E+02 -0.19339287156E+02  0.25178468893E+02  0.37340423767E+02  0.51100000000E-03 0. -1.
         22    1    1    0    0    0 -0.29702850875E+02 -0.26417655056E+01 -0.67785596192E+01  0.30580829707E+02  0.00000000000E+00 0.  1.
</event>
<event>
 5    1  0.1692171E-003  0.9118800E+02  0.7818608E-02  0.1130116E+00
         25   -1    0    0    0    0  0.00000000000E+00  0.00000000000E+00  0.99999998245E-14  0.12500000000E+03  0.12500000000E+03 0.  0.
        -11    1    3    3    0    0 -0.25915768841E+02 -0.40197637652E+02 -0.34796233021E+02  0.59146047882E+02  0.51100000000E-03 0.  1.
         23    2    1    0    0    0 -0.68671789831E+01 -0.93494556882E+01 -0.26112128748E+02  0.96427045365E+02  0.92096478441E+02 0.  0.
         11    1    3    3    0    0  0.19048589858E+02  0.30848181963E+02  0.86841042729E+01  0.37280997483E+02  0.51100000000E-03 0. -1.
         22    1    1    0    0    0  0.68671789831E+01  0.93494556882E+01  0.26112128748E+02  0.28572954635E+02  0.00000000000E+00 0. -1.
</event>
<event>
 5    1  0.1692171E-003  0.9118800E+02  0.7818608E-02  0.1130116E+00
         25   -1    0    0    0    0  0.00000000000E+00  0.00000000000E+00  0.99999998245E-14  0.12500000000E+03  0.12500000000E+03 0.  0.
        -11    1    3    3    0    0 -0.36774647175E+02 -0.19934107890E+02  0.17333918668E+02  0.45279223369E+02  0.51100000000E-03 0. -1.
         23    2    1    0    0    0  0.60999510996E+01 -0.27147290378E+02 -0.85671017444E+01  0.95886772584E+02  0.91360238320E+02 0.  0.
         11    1    3    3    0    0  0.42874598275E+02 -0.72131824884E+01 -0.25901020413E+02  0.50607549215E+02  0.51100000000E-03 0.  1.
         22    1    1    0    0    0 -0.60999510996E+01  0.27147290378E+02  0.85671017444E+01  0.29113227416E+02  0.00000000000E+00 0.  1.
</event>
<event>
 5    1  0.1692171E-003  0.9118800E+02  0.7818608E-02  0.1130116E+00
         25   -1    0    0    0    0  0.00000000000E+00  0.00000000000E+00  0.99999998245E-14  0.12500000000E+03  0.12500000000E+03 0.  0.
        -11    1    3    3    0    0  0.42135211452E+02  0.33592224561E+02 -0.26578767465E+02  0.60085309979E+02  0.51100000000E-03 0.  1.
         23    2    1    0    0    0  0.11014579031E+02  0.16331854193E+02 -0.21173148123E+02  0.96080238347E+02  0.91624557771E+02 0.  0.
         11    1    3    3    0    0 -0.31120632421E+02 -0.17260370367E+02  0.54056193414E+01  0.35994928368E+02  0.51100000000E-03 0. -1.
         22    1    1    0    0    0 -0.11014579031E+02 -0.16331854193E+02  0.21173148123E+02  0.28919761653E+02  0.00000000000E+00 0.  1.
</event>
<event>
 5    1  0.1692171E-003  0.9118800E+02  0.7818608E-02  0.1130116E+00
         25   -1    0    0    0    0  0.00000000000E+00  0.00000000000E+00  0.99999998245E-14  0.12500000000E+03  0.12500000000E+03 0.  0.
        -11    1    3    3    0    0  0.16063827935E+02 -0.38902519996E+02 -0.10838448526E+02  0.43461760165E+02  0.51100000000E-03 0. -1.
         23    2    1    0    0    0 -0.26949519266E+02 -0.16887377672E+02  0.88767155978E+00  0.93184153727E+02  0.87584464557E+02 0.  0.
         11    1    3    3    0    0 -0.43013347201E+02  0.22015142324E+02  0.11726120086E+02  0.49722393562E+02  0.51100000000E-03 0.  1.
         22    1    1    0    0    0  0.26949519266E+02  0.16887377672E+02 -0.88767155978E+00  0.31815846273E+02  0.00000000000E+00 0.  1.
</event>
<event>
 5    1  0.1692171E-003  0.9118800E+02  0.7818608E-02  0.1130116E+00
         25   -1    0    0    0    0  0.00000000000E+00  0.00000000000E+00  0.99999998245E-14  0.12500000000E+03  0.12500000000E+03 0.  0.
        -11    1    3    3    0    0 -0.21989186048E+02  0.23729398957E+02  0.80562549510E+01  0.33339344954E+02  0.51100000000E-03 0. -1.
         23    2    1    0    0    0  0.17881567778E+02 -0.17978384216E+02 -0.15072462633E+02  0.95501662842E+02  0.90831799006E+02 0.  0.
         11    1    3    3    0    0  0.39870753826E+02 -0.41707783173E+02 -0.23128717584E+02  0.62162317888E+02  0.51100000000E-03 0.  1.
         22    1    1    0    0    0 -0.17881567778E+02  0.17978384216E+02  0.15072462633E+02  0.29498337158E+02  0.00000000000E+00 0.  1.
</event>
<event>
 5    1  0.1692171E-003  0.9118800E+02  0.7818608E-02  0.1130116E+00
         25   -1    0    0    0    0  0.00000000000E+00  0.00000000000E+00  0.99999998245E-14  0.12500000000E+03  0.12500000000E+03 0.  0.
        -11    1    3    3    0    0 -0.34768603103E+02 -0.24058169568E+02 -0.64380856142E+01  0.42767981380E+02  0.51100000000E-03 0. -1.
         23    2    1    0    0    0 -0.93673510763E+01  0.14590273111E+02  0.21945448193E+02  0.97031695939E+02  0.92913529611E+02 0.  0.
         11    1    3    3    0    0  0.25401252027E+02  0.38648442679E+02  0.28383533807E+02  0.54263714559E+02  0.51100000000E-03 0.  1.
         22    1    1    0    0    0  0.93673510763E+01 -0.14590273111E+02 -0.21945448193E+02  0.27968304061E+02  0.00000000000E+00 0.  1.
</event>
<event>
 5    1  0.1692171E-003  0.9118800E+02  0.7818608E-02  0.1130116E+00
         25   -1    0    0    0    0  0.00000000000E+00  0.00000000000E+00  0.99999998245E-14  0.12500000000E+03  0.12500000000E+03 0.  0.
        -11    1    3    3    0    0 -0.16454301319E+02  0.31392869581E+01  0.32243254360E+02  0.36334922685E+02  0.51100000000E-03 0.  1.
         23    2    1    0    0    0 -0.12045829321E+02 -0.70820798849E+01 -0.25919768309E+02  0.95553569848E+02  0.90903203804E+02 0.  0.
         11    1    3    3    0    0  0.44084719983E+01 -0.10221366843E+02 -0.58163022669E+02  0.59218647163E+02  0.51100000000E-03 0. -1.
         22    1    1    0    0    0  0.12045829321E+02  0.70820798849E+01  0.25919768309E+02  0.29446430152E+02  0.00000000000E+00 0. -1.
</event>
<event>
 5    1  0.1692171E-003  0.9118800E+02  0.7818608E-02  0.1130116E+00
         25   -1    0    0    0    0  0.00000000000E+00  0.00000000000E+00  0.99999998245E-14  0.12500000000E+03  0.12500000000E+03 0.  0.
        -11    1    3    3    0    0 -0.26670120121E+02  0.20650212804E+02 -0.20446278286E+02  0.39443337741E+02  0.51100000000E-03 0.  1.
         23    2    1    0    0    0  0.25728436058E+02  0.13846426837E+02 -0.94065935836E+00  0.95767128124E+02  0.91196392642E+02 0.  0.
         11    1    3    3    0    0  0.52398556179E+02 -0.68037859669E+01  0.19505618928E+02  0.56323790383E+02  0.51100000000E-03 0. -1.
         22    1    1    0    0    0 -0.25728436058E+02 -0.13846426837E+02  0.94065935836E+00  0.29232871876E+02  0.00000000000E+00 0. -1.
</event>
<event>
 5    1  0.1692171E-003  0.9118800E+02  0.7818608E-02  0.1130116E+00
         25   -1    0    0    0    0  0.00000000000E+00  0.00000000000E+00  0.99999998245E-14  0.12500000000E+03  0.12500000000E+03 0.  0.
        -11    1    3    3    0    0 -0.16745136198E+02 -0.48192030167E+01  0.30184904171E+02  0.34853303202E+02  0.51100000000E-03 0.  1.
         23    2    1    0    0    0  0.19718547955E+02 -0.27466846737E+02 -0.55871159160E+01  0.90729536516E+02  0.84008238460E+02 0.  0.
         11    1    3    3    0    0  0.36463684153E+02 -0.22647643720E+02 -0.35772020087E+02  0.55876233315E+02  0.51100000000E-03 0. -1.
         22    1    1    0    0    0 -0.19718547955E+02  0.27466846737E+02  0.55871159160E+01  0.34270463484E+02  0.00000000000E+00 0. -1.
</event>
<event>
 5    1  0.1692171E-003  0.9118800E+02  0.7818608E-02  0.1130116E+00
         25   -1    0    0    0    0  0.00000000000E+00  0.00000000000E+00  0.99999998245E-14  0.12500000000E+03  0.12500000000E+03 0.  0.
        -11    1    3    3    0    0  0.27182023435E+02  0.37659920626E+02  0.41597379873E+02  0.62349611323E+02  0.51100000000E-03 0. -1.
         23    2    1    0    0    0  0.12453079731E+02  0.15580392458E+02  0.21735023911E+02  0.95500184944E+02  0.90829765144E+02 0.  0.
         11    1    3    3    0    0 -0.14728943704E+02 -0.22079528168E+02 -0.19862355962E+02  0.33150573621E+02  0.51100000000E-03 0.  1.
         22    1    1    0    0    0 -0.12453079731E+02 -0.15580392458E+02 -0.21735023911E+02  0.29499815056E+02  0.00000000000E+00 0. -1.
</event>
<event>
 5    1  0.1692171E-003  0.9118800E+02  0.7818608E-02  0.1130116E+00
         25   -1    0    0    0    0  0.00000000000E+00  0.00000000000E+00  0.99999998245E-14  0.12500000000E+03  0.12500000000E+03 0.  0.
        -11    1    3    3    0    0 -0.33499147062E+02  0.86837522192E+01  0.34968575015E+02  0.49197577637E+02  0.51100000000E-03 0. -1.
         23    2    1    0    0    0  0.79530779922E+01 -0.11296002565E+02  0.25233749418E+02  0.96232079791E+02  0.91831475801E+02 0.  0.
         11    1    3    3    0    0  0.41452225054E+02 -0.19979754784E+02 -0.97348255975E+01  0.47034502154E+02  0.51100000000E-03 0.  1.
         22    1    1    0    0    0 -0.79530779922E+01  0.11296002565E+02 -0.25233749418E+02  0.28767920209E+02  0.00000000000E+00 0. -1.
</event>
<event>
 5    1  0.1692171E-003  0.9118800E+02  0.7818608E-02  0.1130116E+00
         25   -1    0    0    0    0  0.00000000000E+00  0.00000000000E+00  0.99999998245E-14  0.12500000000E+03  0.12500000000E+03 0.  0.
        -11    1    3    3    0    0  0.40657913700E+02  0.35819508733E+02  0.29075175369E+02  0.61493649878E+02  0.51100000000E-03 0. -1.
         23    2    1    0    0    0  0.11568127240E+02  0.18725672086E+02  0.16460443924E+02  0.97515120937E+02  0.93561638690E+02 0.  0.
         11    1    3    3    0    0 -0.29089786460E+02 -0.17093836647E+02 -0.12614731445E+02  0.36021471060E+02  0.51100000000E-03 0.  1.
         22    1    1    0    0    0 -0.11568127240E+02 -0.18725672086E+02 -0.16460443924E+02  0.27484879063E+02  0.00000000000E+00 0. -1.
</event>
<event>
 5    1  0.1692171E-003  0.9118800E+02  0.7818608E-02  0.1130116E+00
         25   -1    0    0    0    0  0.00000000000E+00  0.00000000000E+00  0.99999998245E-14  0.12500000000E+03  0.12500000000E+03 0.  0.
        -11    1    3    3    0    0 -0.17977647991E+02  0.15233655696E+02  0.27027112304E+02  0.35857006190E+02  0.51100000000E-03 0.  1.
         23    2    1    0    0    0  0.14017243032E+02  0.10214934694E+02 -0.23451449948E+02  0.95831549618E+02  0.91284650432E+02 0.  0.
         11    1    3    3    0    0  0.31994891023E+02 -0.50187210013E+01 -0.50478562252E+02  0.59974543428E+02  0.51100000000E-03 0. -1.
         22    1    1    0    0    0 -0.14017243032E+02 -0.10214934694E+02  0.23451449948E+02  0.29168450382E+02  0.00000000000E+00 0. -1.
</event>
<event>
 5    1  0.1692171E-003  0.9118800E+02  0.7818608E-02  0.1130116E+00
         25   -1    0    0    0    0  0.00000000000E+00  0.00000000000E+00  0.99999998245E-14  0.12500000000E+03  0.12500000000E+03 0.  0.
        -11    1    3    3    0    0 -0.26103493244E+01 -0.13891842104E+02  0.46667732558E+02  0.48761403415E+02  0.51100000000E-03 0.  1.
         23    2    1    0    0    0 -0.26576081004E+02  0.64744782098E+01  0.13405270125E+02  0.94538414080E+02  0.89496388307E+02 0.  0.
         11    1    3    3    0    0 -0.23965731680E+02  0.20366320314E+02 -0.33262462432E+02  0.45777010665E+02  0.51100000000E-03 0. -1.
         22    1    1    0    0    0  0.26576081004E+02 -0.64744782098E+01 -0.13405270125E+02  0.30461585920E+02  0.00000000000E+00 0.  1.
</event>
<event>
 5    1  0.1692171E-003  0.9118800E+02  0.7818608E-02  0.1130116E+00
         25   -1    0    0    0    0  0.00000000000E+00  0.00000000000E+00  0.99999998245E-14  0.12500000000E+03  0.12500000000E+03 0.  0.
        -11    1    3    3    0    0  0.45938985239E+02  0.23496929377E+02  0.34114710019E+02  0.61857170117E+02  0.51100000000E-03 0.  1.
         23    2    1    0    0    0  0.19436611496E+02  0.16773951433E+02  0.18626385863E+02  0.93281085084E+02  0.87722695302E+02 0.  0.
         11    1    3    3    0    0 -0.26502373743E+02 -0.67229779439E+01 -0.15488324156E+02  0.31423914967E+02  0.51100000000E-03 0. -1.
         22    1    1    0    0    0 -0.19436611496E+02 -0.16773951433E+02 -0.18626385863E+02  0.31718914916E+02  0.00000000000E+00 0.  1.
</event>
<event>
 5    1  0.1692171E-003  0.9118800E+02  0.7818608E-02  0.1130116E+00
         25   -1    0    0    0    0  0.00000000000E+00  0.00000000000E+00  0.99999998245E-14  0.12500000000E+03  0.12500000000E+03 0.  0.
        -11    1    3    3    0    0  0.13652602329E+02  0.58920058249E+01 -0.42933556735E+02  0.45435664154E+02  0.51100000000E-03 0. -1.
         23    2    1    0    0    0  0.21073147077E+02 -0.20643185464E+02 -0.11600279329E+01  0.95477732156E+02  0.90798860340E+02 0.  0.
         11    1    3    3    0    0  0.74205447484E+01 -0.26535191289E+02  0.41773528802E+02  0.50042068002E+02  0.51100000000E-03 0.  1.
         22    1    1    0    0    0 -0.21073147077E+02  0.20643185464E+02  0.11600279329E+01  0.29522267844E+02  0.00000000000E+00 0.  1.
</event>
<event>
 5    1  0.1692171E-003  0.9118800E+02  0.7818608E-02  0.1130116E+00
         25   -1    0    0    0    0  0.00000000000E+00  0.00000000000E+00  0.99999998245E-14  0.12500000000E+03  0.12500000000E+03 0.  0.
        -11    1    3    3    0    0 -0.15377229202E+02  0.42785303212E+02 -0.19556729926E+02  0.49492494729E+02  0.51100000000E-03 0.  1.
         23    2    1    0    0    0 -0.20222515827E+02 -0.73103671074E+01  0.23885825476E-01  0.10349669365E+03  0.10123820134E+03 0.  0.
         11    1    3    3    0    0 -0.48452866253E+01 -0.50095670319E+02  0.19580615751E+02  0.54004198917E+02  0.51100000000E-03 0. -1.
         22    1    1    0    0    0  0.20222515827E+02  0.73103671074E+01 -0.23885825476E-01  0.21503306354E+02  0.00000000000E+00 0. -1.
</event>
<event>
 5    1  0.1692171E-003  0.9118800E+02  0.7818608E-02  0.1130116E+00
         25   -1    0    0    0    0  0.00000000000E+00  0.00000000000E+00  0.99999998245E-14  0.12500000000E+03  0.12500000000E+03 0.  0.
        -11    1    3    3    0    0 -0.33943094328E+02  0.48280736151E+01  0.54062241114E+00  0.34289010196E+02  0.51100000000E-03 0.  1.
         23    2    1    0    0    0  0.23782476135E+02  0.15846053453E+01 -0.18138352258E+02  0.95048089078E+02  0.90205444789E+02 0.  0.
         11    1    3    3    0    0  0.57725570463E+02 -0.32434682698E+01 -0.18678974669E+02  0.60759078882E+02  0.51100000000E-03 0. -1.
         22    1    1    0    0    0 -0.23782476135E+02 -0.15846053453E+01  0.18138352258E+02  0.29951910922E+02  0.00000000000E+00 0. -1.
</event>
<event>
 5    1  0.1692171E-003  0.9118800E+02  0.7818608E-02  0.1130116E+00
         25   -1    0    0    0    0  0.00000000000E+00  0.00000000000E+00  0.99999998245E-14  0.12500000000E+03  0.12500000000E+03 0.  0.
        -11    1    3    3    0    0 -0.14091843467E+02  0.11859793405E+02 -0.59540182215E+02  0.62323896303E+02  0.51100000000E-03 0. -1.
         23    2    1    0    0    0 -0.95600536081E+01  0.72159788985E+01 -0.27655234751E+02  0.94862365959E+02  0.89947715312E+02 0.  0.
         11    1    3    3    0    0  0.45317898592E+01 -0.46438145061E+01  0.31884947464E+02  0.32538469656E+02  0.51100000000E-03 0.  1.
         22    1    1    0    0    0  0.95600536081E+01 -0.72159788985E+01  0.27655234751E+02  0.30137634041E+02  0.00000000000E+00 0. -1.
</event>
<event>
 5    1  0.1692171E-003  0.9118800E+02  0.7818608E-02  0.1130116E+00
         25   -1    0    0    0    0  0.00000000000E+00  0.00000000000E+00  0.99999998245E-14  0.12500000000E+03  0.12500000000E+03 0.  0.
        -11    1    3    3    0    0  0.34262746121E+01 -0.26075474373E+02  0.30895342016E+02  0.40573290229E+02  0.51100000000E-03 0. -1.
         23    2    1    0    0    0  0.27503512331E+01  0.25866018930E+02  0.15356137867E+02  0.94793604363E+02  0.89852106769E+02 0.  0.
         11    1    3    3    0    0 -0.67592337899E+00  0.51941493303E+02 -0.15539204149E+02  0.54220314134E+02  0.51100000000E-03 0.  1.
         22    1    1    0    0    0 -0.27503512331E+01 -0.25866018930E+02 -0.15356137867E+02  0.30206395637E+02  0.00000000000E+00 0.  1.
</event>
<event>
 5    1  0.1692171E-003  0.9118800E+02  0.7818608E-02  0.1130116E+00
         25   -1    0    0    0    0  0.00000000000E+00  0.00000000000E+00  0.99999998245E-14  0.12500000000E+03  0.12500000000E+03 0.  0.
        -11    1    3    3    0    0  0.58340512745E+02  0.68460460583E+01  0.61498535623E+00  0.58744037835E+02  0.51100000000E-03 0.  1.
         23    2    1    0    0    0  0.24873192792E+02  0.76812188901E+00 -0.14754251934E+02  0.96069848237E+02  0.91610381832E+02 0.  0.
         11    1    3    3    0    0 -0.33467319953E+02 -0.60779241693E+01 -0.15369237290E+02  0.37325810402E+02  0.51100000000E-03 0. -1.
         22    1    1    0    0    0 -0.24873192792E+02 -0.76812188901E+00  0.14754251934E+02  0.28930151763E+02  0.00000000000E+00 0.  1.
</event>
<event>
 5    1  0.1692171E-003  0.9118800E+02  0.7818608E-02  0.1130116E+00
         25   -1    0    0    0    0  0.00000000000E+00  0.00000000000E+00  0.99999998245E-14  0.12500000000E+03  0.12500000000E+03 0.  0.
        -11    1    3    3    0    0  0.14508034116E+02 -0.31760063985E+02  0.98801306938E+01  0.36287762414E+02  0.51100000000E-03 0.  1.
         23    2    1    0    0    0 -0.18084917742E+02  0.17910419870E+02  0.14200327655E+02  0.95853873410E+02  0.91315214245E+02 0.  0.
         11    1    3    3    0    0 -0.32592951858E+02  0.49670483855E+02  0.43201969611E+01  0.59566110996E+02  0.51100000000E-03 0. -1.
         22    1    1    0    0    0  0.18084917742E+02 -0.17910419870E+02 -0.14200327655E+02  0.29146126590E+02  0.00000000000E+00 0. -1.
</event>
<event>
 5    1  0.1692171E-003  0.9118800E+02  0.7818608E-02  0.1130116E+00
         25   -1    0    0    0    0  0.00000000000E+00  0.00000000000E+00  0.99999998245E-14  0.12500000000E+03  0.12500000000E+03 0.  0.
        -11    1    3    3    0    0  0.20722361933E+02  0.32138796205E+02  0.32891305236E+02  0.50439631898E+02  0.51100000000E-03 0. -1.
         23    2    1    0    0    0  0.32408818081E+01 -0.60291641193E+01  0.31838792344E+02  0.92433716319E+02  0.86506815221E+02 0.  0.
         11    1    3    3    0    0 -0.17481480125E+02 -0.38167960325E+02 -0.10525128919E+01  0.41994084421E+02  0.51100000000E-03 0.  1.
         22    1    1    0    0    0 -0.32408818081E+01  0.60291641193E+01 -0.31838792344E+02  0.32566283681E+02  0.00000000000E+00 0.  1.
</event>
<event>
 5    1  0.1692171E-003  0.9118800E+02  0.7818608E-02  0.1130116E+00
         25   -1    0    0    0    0  0.00000000000E+00  0.00000000000E+00  0.99999998245E-14  0.12500000000E+03  0.12500000000E+03 0.  0.
        -11    1    3    3    0    0  0.25929542306E+02  0.63355222099E+01 -0.46784655114E+02  0.53863568024E+02  0.51100000000E-03 0. -1.
         23    2    1    0    0    0  0.22793949492E+02  0.16299809832E+02 -0.55079707786E+01  0.96441539325E+02  0.92116148591E+02 0.  0.
         11    1    3    3    0    0 -0.31355928137E+01  0.99642876218E+01  0.41276684336E+02  0.42577971301E+02  0.51100000000E-03 0.  1.
         22    1    1    0    0    0 -0.22793949492E+02 -0.16299809832E+02  0.55079707786E+01  0.28558460675E+02  0.00000000000E+00 0. -1.
</event>
<event>
 5    1  0.1692171E-003  0.9118800E+02  0.7818608E-02  0.1130116E+00
         25   -1    0    0    0    0  0.00000000000E+00  0.00000000000E+00  0.99999998245E-14  0.12500000000E+03  0.12500000000E+03 0.  0.
        -11    1    3    3    0    0 -0.34582542021E+02 -0.41908324904E+01  0.26726276048E+02  0.43906823174E+02  0.51100000000E-03 0.  1.
         23    2    1    0    0    0  0.63277805004E+01  0.19122017671E+02  0.27394087862E+02  0.90998111587E+02  0.84406918536E+02 0.  0.
         11    1    3    3    0    0  0.40910322522E+02  0.23312850162E+02  0.66781181381E+00  0.47091288413E+02  0.51100000000E-03 0. -1.
         22    1    1    0    0    0 -0.63277805004E+01 -0.19122017671E+02 -0.27394087862E+02  0.34001888413E+02  0.00000000000E+00 0.  1.
</event>
<event>
 5    1  0.1692171E-003  0.9118800E+02  0.7818608E-02  0.1130116E+00
         25   -1    0    0    0    0  0.00000000000E+00  0.00000000000E+00  0.99999998245E-14  0.12500000000E+03  0.12500000000E+03 0.  0.
        -11    1    3    3    0    0  0.16269814495E+02 -0.88375557981E+00  0.33172421043E+02  0.36958049268E+02  0.51100000000E-03 0.  1.
         23    2    1    0    0    0 -0.97718124577E+01  0.24479901334E+02 -0.12907740830E+02  0.95651002379E+02  0.91037083624E+02 0.  0.
         11    1    3    3    0    0 -0.26041626953E+02  0.25363656913E+02 -0.46080161873E+02  0.58692953111E+02  0.51100000000E-03 0. -1.
         22    1    1    0    0    0  0.97718124577E+01 -0.24479901334E+02  0.12907740830E+02  0.29348997621E+02  0.00000000000E+00 0.  1.
</event>
<event>
 5    1  0.1692171E-003  0.9118800E+02  0.7818608E-02  0.1130116E+00
         25   -1    0    0    0    0  0.00000000000E+00  0.00000000000E+00  0.99999998245E-14  0.12500000000E+03  0.12500000000E+03 0.  0.
        -11    1    3    3    0    0 -0.75576172867E+01 -0.39120037738E+02 -0.43736768971E+02  0.59164177439E+02  0.51100000000E-03 0.  1.
         23    2    1    0    0    0 -0.13181163750E+02 -0.23497092822E+02 -0.10945374214E+02  0.95919806301E+02  0.91405424211E+02 0.  0.
         11    1    3    3    0    0 -0.56235464630E+01  0.15622944916E+02  0.32791394757E+02  0.36755628862E+02  0.51100000000E-03 0. -1.
         22    1    1    0    0    0  0.13181163750E+02  0.23497092822E+02  0.10945374214E+02  0.29080193699E+02  0.00000000000E+00 0.  1.
</event>
<event>
 5    1  0.1692171E-003  0.9118800E+02  0.7818608E-02  0.1130116E+00
         25   -1    0    0    0    0  0.00000000000E+00  0.00000000000E+00  0.99999998245E-14  0.12500000000E+03  0.12500000000E+03 0.  0.
        -11    1    3    3    0    0  0.18658213474E+02 -0.27242196482E+02 -0.57041930606E+01  0.33508267905E+02  0.51100000000E-03 0. -1.
         23    2    1    0    0    0 -0.97346004903E+01  0.27758652856E+02 -0.19945144626E+01  0.95516388569E+02  0.90852061849E+02 0.  0.
         11    1    3    3    0    0 -0.28392813964E+02  0.55000849338E+02  0.37096785981E+01  0.62008120664E+02  0.51100000000E-03 0.  1.
         22    1    1    0    0    0  0.97346004903E+01 -0.27758652856E+02  0.19945144626E+01  0.29483611431E+02  0.00000000000E+00 0.  1.
</event>
<event>
 5    1  0.1692171E-003  0.9118800E+02  0.7818608E-02  0.1130116E+00
         25   -1    0    0    0    0  0.00000000000E+00  0.00000000000E+00  0.99999998245E-14  0.12500000000E+03  0.12500000000E+03 0.  0.
        -11    1    3    3    0    0 -0.28750475093E+02 -0.10834636514E+02  0.54665465622E+01  0.31206766863E+02  0.51100000000E-03 0.  1.
         23    2    1    0    0    0 -0.89156449159E-01 -0.24299516004E+01  0.44542876105E+02  0.80390803355E+02  0.66878253855E+02 0.  0.
         11    1    3    3    0    0  0.28661318644E+02  0.84046849133E+01  0.39076329542E+02  0.49184036492E+02  0.51100000000E-03 0. -1.
         22    1    1    0    0    0  0.89156449159E-01  0.24299516004E+01 -0.44542876105E+02  0.44609196645E+02  0.00000000000E+00 0. -1.
</event>
<event>
 5    1  0.1692171E-003  0.9118800E+02  0.7818608E-02  0.1130116E+00
         25   -1    0    0    0    0  0.00000000000E+00  0.00000000000E+00  0.99999998245E-14  0.12500000000E+03  0.12500000000E+03 0.  0.
        -11    1    3    3    0    0  0.11835767647E+02 -0.14700450500E+02 -0.38822613929E+02  0.43166931709E+02  0.51100000000E-03 0.  1.
         23    2    1    0    0    0 -0.26704735146E+02  0.57980218562E+01 -0.82709431807E+01  0.96448845247E+02  0.92126062065E+02 0.  0.
         11    1    3    3    0    0 -0.38540502793E+02  0.20498472356E+02  0.30551670748E+02  0.53281913537E+02  0.51100000000E-03 0. -1.
         22    1    1    0    0    0  0.26704735146E+02 -0.57980218562E+01  0.82709431807E+01  0.28551154753E+02  0.00000000000E+00 0. -1.
</event>
<event>
 5    1  0.1692171E-003  0.9118800E+02  0.7818608E-02  0.1130116E+00
         25   -1    0    0    0    0  0.00000000000E+00  0.00000000000E+00  0.99999998245E-14  0.12500000000E+03  0.12500000000E+03 0.  0.
        -11    1    3    3    0    0 -0.23357041470E+02 -0.23680190751E+02  0.36162095521E+02  0.49132473711E+02  0.51100000000E-03 0.  1.
         23    2    1    0    0    0 -0.29538629040E+02  0.32867463363E+01 -0.75925843420E+00  0.95269379751E+02  0.90511573502E+02 0.  0.
         11    1    3    3    0    0 -0.61815875699E+01  0.26966937087E+02 -0.36921353956E+02  0.46136906040E+02  0.51100000000E-03 0. -1.
         22    1    1    0    0    0  0.29538629040E+02 -0.32867463363E+01  0.75925843420E+00  0.29730620249E+02  0.00000000000E+00 0.  1.
</event>
<event>
 5    1  0.1692171E-003  0.9118800E+02  0.7818608E-02  0.1130116E+00
         25   -1    0    0    0    0  0.00000000000E+00  0.00000000000E+00  0.99999998245E-14  0.12500000000E+03  0.12500000000E+03 0.  0.
        -11    1    3    3    0    0  0.55222246202E+02  0.24543610637E+02  0.70670185453E+01  0.60842649927E+02  0.51100000000E-03 0.  1.
         23    2    1    0    0    0  0.19656675723E+02  0.19374891068E+02  0.38875150567E+00  0.97397057546E+02  0.93403770729E+02 0.  0.
         11    1    3    3    0    0 -0.35565570479E+02 -0.51687195687E+01 -0.66782670396E+01  0.36554407619E+02  0.51100000000E-03 0. -1.
         22    1    1    0    0    0 -0.19656675723E+02 -0.19374891068E+02 -0.38875150567E+00  0.27602942454E+02  0.00000000000E+00 0.  1.
</event>
<event>
 5    1  0.1692171E-003  0.9118800E+02  0.7818608E-02  0.1130116E+00
         25   -1    0    0    0    0  0.00000000000E+00  0.00000000000E+00  0.99999998245E-14  0.12500000000E+03  0.12500000000E+03 0.  0.
        -11    1    3    3    0    0  0.28773223347E+02  0.17353232046E+02  0.17856489539E+02  0.38051113823E+02  0.51100000000E-03 0.  1.
         23    2    1    0    0    0 -0.10082107002E+02  0.20732820398E+02 -0.21511992103E+02  0.93468039587E+02  0.87988691868E+02 0.  0.
         11    1    3    3    0    0 -0.38855330350E+02  0.33795883516E+01 -0.39368481643E+02  0.55416925764E+02  0.51100000000E-03 0. -1.
         22    1    1    0    0    0  0.10082107002E+02 -0.20732820398E+02  0.21511992103E+02  0.31531960413E+02  0.00000000000E+00 0. -1.
</event>
<event>
 4    1  0.1692171E-003  0.9118800E+02  0.7818608E-02  0.1130116E+00
         25   -1    0    0    0    0  0.00000000000E+00  0.00000000000E+00  0.99999998245E-14  0.12500000000E+03  0.12500000000E+03 0.  0.
        -11    1    1    0    0    0 -0.95355301811E+00 -0.25188554388E+02  0.44257912694E+01  0.25592189514E+02  0.51100000000E-03 0. -1.
         11    1    1    0    0    0  0.29731431864E+02 -0.15741000155E+02 -0.28307583633E+02  0.43966537480E+02  0.51100000000E-03 0.  1.
         22    1    1    0    0    0 -0.28777878846E+02  0.40929554543E+02  0.23881792364E+02  0.55441273006E+02  0.00000000000E+00 0. -1.
</event>
<event>
 5    1  0.1692171E-003  0.9118800E+02  0.7818608E-02  0.1130116E+00
         25   -1    0    0    0    0  0.00000000000E+00  0.00000000000E+00  0.99999998245E-14  0.12500000000E+03  0.12500000000E+03 0.  0.
        -11    1    3    3    0    0  0.44763689376E+02  0.40467068769E+02 -0.10813479495E+02  0.61304998821E+02  0.51100000000E-03 0.  1.
         23    2    1    0    0    0  0.16669785403E+02  0.26719597194E+02 -0.54771383695E+01  0.93034117182E+02  0.87370070937E+02 0.  0.
         11    1    3    3    0    0 -0.28093903973E+02 -0.13747471576E+02  0.53363411251E+01  0.31729118362E+02  0.51100000000E-03 0. -1.
         22    1    1    0    0    0 -0.16669785403E+02 -0.26719597194E+02  0.54771383695E+01  0.31965882818E+02  0.00000000000E+00 0.  1.
</event>
<event>
 5    1  0.1692171E-003  0.9118800E+02  0.7818608E-02  0.1130116E+00
         25   -1    0    0    0    0  0.00000000000E+00  0.00000000000E+00  0.99999998245E-14  0.12500000000E+03  0.12500000000E+03 0.  0.
        -11    1    3    3    0    0 -0.30762757150E+02  0.22124469107E+02 -0.37538666244E+01  0.38077957871E+02  0.51100000000E-03 0. -1.
         23    2    1    0    0    0  0.60870400286E+01 -0.17385270109E+02 -0.23091588250E+02  0.95461531505E+02  0.90776554662E+02 0.  0.
         11    1    3    3    0    0  0.36849797179E+02 -0.39509739217E+02 -0.19337721626E+02  0.57383573634E+02  0.51100000000E-03 0.  1.
         22    1    1    0    0    0 -0.60870400286E+01  0.17385270109E+02  0.23091588250E+02  0.29538468495E+02  0.00000000000E+00 0.  1.
</event>
<event>
 5    1  0.1692171E-003  0.9118800E+02  0.7818608E-02  0.1130116E+00
         25   -1    0    0    0    0  0.00000000000E+00  0.00000000000E+00  0.99999998245E-14  0.12500000000E+03  0.12500000000E+03 0.  0.
        -11    1    3    3    0    0 -0.47148060524E+02  0.19452408387E+02  0.17589618094E+01  0.51033613924E+02  0.51100000000E-03 0. -1.
         23    2    1    0    0    0 -0.44357908203E+01  0.28016759995E+02  0.91001043253E+01  0.95210287354E+02  0.90429927781E+02 0.  0.
         11    1    3    3    0    0  0.42712269703E+02  0.85643516076E+01  0.73411425159E+01  0.44176673430E+02  0.51100000000E-03 0.  1.
         22    1    1    0    0    0  0.44357908203E+01 -0.28016759995E+02 -0.91001043253E+01  0.29789712646E+02  0.00000000000E+00 0.  1.
</event>
<event>
 5    1  0.1692171E-003  0.9118800E+02  0.7818608E-02  0.1130116E+00
         25   -1    0    0    0    0  0.00000000000E+00  0.00000000000E+00  0.99999998245E-14  0.12500000000E+03  0.12500000000E+03 0.  0.
        -11    1    3    3    0    0 -0.59313138007E+01 -0.14232505890E+02  0.30467990911E+02  0.34147374390E+02  0.51100000000E-03 0. -1.
         23    2    1    0    0    0  0.83874344563E+01 -0.23431190017E-01 -0.27880873344E+02  0.95884837211E+02  0.91357590286E+02 0.  0.
         11    1    3    3    0    0  0.14318748257E+02  0.14209074700E+02 -0.58348864255E+02  0.61737462821E+02  0.51100000000E-03 0.  1.
         22    1    1    0    0    0 -0.83874344563E+01  0.23431190017E-01  0.27880873344E+02  0.29115162789E+02  0.00000000000E+00 0.  1.
</event>
<event>
 5    1  0.1692171E-003  0.9118800E+02  0.7818608E-02  0.1130116E+00
         25   -1    0    0    0    0  0.00000000000E+00  0.00000000000E+00  0.99999998245E-14  0.12500000000E+03  0.12500000000E+03 0.  0.
        -11    1    3    3    0    0  0.39517159399E+02 -0.36503142337E+02 -0.27626654984E+02  0.60475758394E+02  0.51100000000E-03 0. -1.
         23    2    1    0    0    0  0.18432396159E+02 -0.22165019576E+02 -0.28454986809E+01  0.96032118067E+02  0.91558885515E+02 0.  0.
         11    1    3    3    0    0 -0.21084763241E+02  0.14338122761E+02  0.24781156303E+02  0.35556359673E+02  0.51100000000E-03 0.  1.
         22    1    1    0    0    0 -0.18432396159E+02  0.22165019576E+02  0.28454986809E+01  0.28967881933E+02  0.00000000000E+00 0. -1.
</event>
<event>
 5    1  0.1692171E-003  0.9118800E+02  0.7818608E-02  0.1130116E+00
         25   -1    0    0    0    0  0.00000000000E+00  0.00000000000E+00  0.99999998245E-14  0.12500000000E+03  0.12500000000E+03 0.  0.
        -11    1    3    3    0    0 -0.30308005147E+02  0.11476039096E+01  0.21513889997E+02  0.37185207190E+02  0.51100000000E-03 0.  1.
         23    2    1    0    0    0  0.26401403279E+02 -0.38739054557E+00  0.15865311524E+02  0.94195904879E+02  0.89016718765E+02 0.  0.
         11    1    3    3    0    0  0.56709408425E+02 -0.15349944551E+01 -0.56485784733E+01  0.57010697689E+02  0.51100000000E-03 0. -1.
         22    1    1    0    0    0 -0.26401403279E+02  0.38739054557E+00 -0.15865311524E+02  0.30804095121E+02  0.00000000000E+00 0. -1.
</event>
<event>
 5    1  0.1692171E-003  0.9118800E+02  0.7818608E-02  0.1130116E+00
         25   -1    0    0    0    0  0.00000000000E+00  0.00000000000E+00  0.99999998245E-14  0.12500000000E+03  0.12500000000E+03 0.  0.
        -11    1    3    3    0    0  0.67752071073E+01 -0.12790987467E+02  0.35320900598E+02  0.38171701705E+02  0.51100000000E-03 0. -1.
         23    2    1    0    0    0 -0.24550690970E+02 -0.23107173191E+00 -0.13082825355E+02  0.97180040608E+02  0.93112889291E+02 0.  0.
         11    1    3    3    0    0 -0.31325898078E+02  0.12559915735E+02 -0.48403725954E+02  0.59008338903E+02  0.51100000000E-03 0.  1.
         22    1    1    0    0    0  0.24550690970E+02  0.23107173191E+00  0.13082825355E+02  0.27819959392E+02  0.00000000000E+00 0.  1.
</event>
<event>
 5    1  0.1692171E-003  0.9118800E+02  0.7818608E-02  0.1130116E+00
         25   -1    0    0    0    0  0.00000000000E+00  0.00000000000E+00  0.99999998245E-14  0.12500000000E+03  0.12500000000E+03 0.  0.
        -11    1    3    3    0    0 -0.71474300025E+01  0.58389564180E+01  0.37508487961E+02  0.38627268051E+02  0.51100000000E-03 0.  1.
         23    2    1    0    0    0  0.23034537417E+02  0.14974434474E+02 -0.10096651903E+02  0.95729434896E+02  0.91144713088E+02 0.  0.
         11    1    3    3    0    0  0.30181967420E+02  0.91354780564E+01 -0.47605139864E+02  0.57102166845E+02  0.51100000000E-03 0. -1.
         22    1    1    0    0    0 -0.23034537417E+02 -0.14974434474E+02  0.10096651903E+02  0.29270565104E+02  0.00000000000E+00 0. -1.
</event>
<event>
 5    1  0.1692171E-003  0.9118800E+02  0.7818608E-02  0.1130116E+00
         25   -1    0    0    0    0  0.00000000000E+00  0.00000000000E+00  0.99999998245E-14  0.12500000000E+03  0.12500000000E+03 0.  0.
        -11    1    3    3    0    0 -0.37920806778E+02 -0.45699371561E+02 -0.11573501303E+02  0.60500959335E+02  0.51100000000E-03 0. -1.
         23    2    1    0    0    0 -0.89412976236E+01 -0.23941776554E+02 -0.12055707454E+02  0.96742336438E+02  0.92523424653E+02 0.  0.
         11    1    3    3    0    0  0.28979509154E+02  0.21757595007E+02 -0.48220615146E+00  0.36241377103E+02  0.51100000000E-03 0.  1.
         22    1    1    0    0    0  0.89412976236E+01  0.23941776554E+02  0.12055707454E+02  0.28257663562E+02  0.00000000000E+00 0. -1.
</event>
<event>
 5    1  0.1692171E-003  0.9118800E+02  0.7818608E-02  0.1130116E+00
         25   -1    0    0    0    0  0.00000000000E+00  0.00000000000E+00  0.99999998245E-14  0.12500000000E+03  0.12500000000E+03 0.  0.
        -11    1    3    3    0    0  0.22481383656E+02 -0.24127803478E+02 -0.22663700853E+02  0.40015082761E+02  0.51100000000E-03 0.  1.
         23    2    1    0    0    0 -0.17428001322E+02 -0.12131213929E+02  0.17191417058E+02  0.97678828687E+02  0.93780100083E+02 0.  0.
         11    1    3    3    0    0 -0.39909384978E+02  0.11996589549E+02  0.39855117912E+02  0.57663745925E+02  0.51100000000E-03 0. -1.
         22    1    1    0    0    0  0.17428001322E+02  0.12131213929E+02 -0.17191417058E+02  0.27321171313E+02  0.00000000000E+00 0. -1.
</event>
<event>
 5    1  0.1692171E-003  0.9118800E+02  0.7818608E-02  0.1130116E+00
         25   -1    0    0    0    0  0.00000000000E+00  0.00000000000E+00  0.99999998245E-14  0.12500000000E+03  0.12500000000E+03 0.  0.
        -11    1    3    3    0    0  0.38795625723E+02 -0.15057218024E+02 -0.24765622262E+02  0.48426815259E+02  0.51100000000E-03 0.  1.
         23    2    1    0    0    0  0.93474790749E+00 -0.29323486446E+02 -0.39551042493E+00  0.95658952992E+02  0.91047999693E+02 0.  0.
         11    1    3    3    0    0 -0.37860877815E+02 -0.14266268422E+02  0.24370111838E+02  0.47232137733E+02  0.51100000000E-03 0. -1.
         22    1    1    0    0    0 -0.93474790749E+00  0.29323486446E+02  0.39551042493E+00  0.29341047008E+02  0.00000000000E+00 0. -1.
</event>
<event>
 5    1  0.1692171E-003  0.9118800E+02  0.7818608E-02  0.1130116E+00
         25   -1    0    0    0    0  0.00000000000E+00  0.00000000000E+00  0.99999998245E-14  0.12500000000E+03  0.12500000000E+03 0.  0.
        -11    1    3    3    0    0 -0.44643657238E+02 -0.28875268423E+02 -0.33781540012E+01  0.53275221096E+02  0.51100000000E-03 0.  1.
         23    2    1    0    0    0 -0.63941731553E+01 -0.27987821284E+02 -0.14109107262E+02  0.93011400495E+02  0.87337564219E+02 0.  0.
         11    1    3    3    0    0  0.38249484083E+02  0.88744713852E+00 -0.10730953261E+02  0.39736179399E+02  0.51100000000E-03 0. -1.
         22    1    1    0    0    0  0.63941731553E+01  0.27987821284E+02  0.14109107262E+02  0.31988599505E+02  0.00000000000E+00 0.  1.
</event>
<event>
 5    1  0.1692171E-003  0.9118800E+02  0.7818608E-02  0.1130116E+00
         25   -1    0    0    0    0  0.00000000000E+00  0.00000000000E+00  0.99999998245E-14  0.12500000000E+03  0.12500000000E+03 0.  0.
        -11    1    3    3    0    0  0.11852846106E+02  0.50105969725E+02  0.30203575719E+00  0.51489701774E+02  0.51100000000E-03 0.  1.
         23    2    1    0    0    0  0.17231440752E+02  0.10741064055E+02 -0.20337402374E+02  0.96261472851E+02  0.91871476600E+02 0.  0.
         11    1    3    3    0    0  0.53785946458E+01 -0.39364905670E+02 -0.20639438131E+02  0.44771771077E+02  0.51100000000E-03 0. -1.
         22    1    1    0    0    0 -0.17231440752E+02 -0.10741064055E+02  0.20337402374E+02  0.28738527149E+02  0.00000000000E+00 0.  1.
</event>
<event>
 5    1  0.1692171E-003  0.9118800E+02  0.7818608E-02  0.1130116E+00
         25   -1    0    0    0    0  0.00000000000E+00  0.00000000000E+00  0.99999998245E-14  0.12500000000E+03  0.12500000000E+03 0.  0.
        -11    1    3    3    0    0  0.32133341819E+02 -0.23731051340E+02  0.88405372086E+01  0.40912950915E+02  0.51100000000E-03 0.  1.
         23    2    1    0    0    0  0.73164801850E+01  0.21934592100E+02 -0.14308230344E+02  0.97808408129E+02  0.93952658463E+02 0.  0.
         11    1    3    3    0    0 -0.24816861634E+02  0.45665643440E+02 -0.23148767553E+02  0.56895457214E+02  0.51100000000E-03 0. -1.
         22    1    1    0    0    0 -0.73164801850E+01 -0.21934592100E+02  0.14308230344E+02  0.27191591871E+02  0.00000000000E+00 0. -1.
</event>
<event>
 5    1  0.1692171E-003  0.9118800E+02  0.7818608E-02  0.1130116E+00
         25   -1    0    0    0    0  0.00000000000E+00  0.00000000000E+00  0.99999998245E-14  0.12500000000E+03  0.12500000000E+03 0.  0.
        -11    1    3    3    0    0  0.35771458425E+02 -0.95022593421E+01 -0.71929360510E+01  0.37704489119E+02  0.51100000000E-03 0.  1.
         23    2    1    0    0    0  0.23135358097E+02 -0.66722891775E+01 -0.42964938515E+02  0.75748094668E+02  0.57550183902E+02 0.  0.
         11    1    3    3    0    0 -0.12636100327E+02  0.28299701646E+01 -0.35772002464E+02  0.38043605549E+02  0.51100000000E-03 0. -1.
         22    1    1    0    0    0 -0.23135358097E+02  0.66722891775E+01  0.42964938515E+02  0.49251905332E+02  0.00000000000E+00 0. -1.
</event>
<event>
 5    1  0.1692171E-003  0.9118800E+02  0.7818608E-02  0.1130116E+00
         25   -1    0    0    0    0  0.00000000000E+00  0.00000000000E+00  0.99999998245E-14  0.12500000000E+03  0.12500000000E+03 0.  0.
        -11    1    3    3    0    0  0.23386074925E+02 -0.20838322163E+02 -0.15354099175E+02  0.34883986766E+02  0.51100000000E-03 0.  1.
         23    2    1    0    0    0 -0.25867594951E+00  0.28519938557E+02  0.94255247890E+01  0.94961785571E+02  0.90085772421E+02 0.  0.
         11    1    3    3    0    0 -0.23644750874E+02  0.49358260720E+02  0.24779623964E+02  0.60077798805E+02  0.51100000000E-03 0. -1.
         22    1    1    0    0    0  0.25867594951E+00 -0.28519938557E+02 -0.94255247890E+01  0.30038214429E+02  0.00000000000E+00 0. -1.
</event>
<event>
 5    1  0.1692171E-003  0.9118800E+02  0.7818608E-02  0.1130116E+00
         25   -1    0    0    0    0  0.00000000000E+00  0.00000000000E+00  0.99999998245E-14  0.12500000000E+03  0.12500000000E+03 0.  0.
        -11    1    3    3    0    0  0.38005444881E+02 -0.36301753903E+02 -0.27324121508E+01  0.52627913254E+02  0.51100000000E-03 0.  1.
         23    2    1    0    0    0  0.15237514881E+02 -0.39850544718E+01 -0.23056075448E+02  0.97077873757E+02  0.92975633578E+02 0.  0.
         11    1    3    3    0    0 -0.22767930000E+02  0.32316699431E+02 -0.20323663297E+02  0.44449960503E+02  0.51100000000E-03 0. -1.
         22    1    1    0    0    0 -0.15237514881E+02  0.39850544718E+01  0.23056075448E+02  0.27922126243E+02  0.00000000000E+00 0. -1.
</event>
<event>
 5    1  0.1692171E-003  0.9118800E+02  0.7818608E-02  0.1130116E+00
         25   -1    0    0    0    0  0.00000000000E+00  0.00000000000E+00  0.99999998245E-14  0.12500000000E+03  0.12500000000E+03 0.  0.
        -11    1    3    3    0    0 -0.47962012656E+02  0.25100193442E+02  0.50223699890E+01  0.54365417035E+02  0.51100000000E-03 0.  1.
         23    2    1    0    0    0 -0.97773738464E+01  0.22472568716E+02 -0.13645122434E+02  0.96949995539E+02  0.92803549958E+02 0.  0.
         11    1    3    3    0    0  0.38184638810E+02 -0.26276247267E+01 -0.18667492423E+02  0.42584578504E+02  0.51100000000E-03 0. -1.
         22    1    1    0    0    0  0.97773738464E+01 -0.22472568716E+02  0.13645122434E+02  0.28050004461E+02  0.00000000000E+00 0.  1.
</event>
<event>
 5    1  0.1692171E-003  0.9118800E+02  0.7818608E-02  0.1130116E+00
         25   -1    0    0    0    0  0.00000000000E+00  0.00000000000E+00  0.99999998245E-14  0.12500000000E+03  0.12500000000E+03 0.  0.
        -11    1    3    3    0    0  0.54279291026E+02  0.53140000441E+01 -0.65966669366E+00  0.54542783126E+02  0.51100000000E-03 0. -1.
         23    2    1    0    0    0  0.19907761493E+02  0.19517488391E+02 -0.13678172644E+02  0.93946115740E+02  0.88665263406E+02 0.  0.
         11    1    3    3    0    0 -0.34371529532E+02  0.14203488347E+02 -0.13018505951E+02  0.39403332614E+02  0.51100000000E-03 0.  1.
         22    1    1    0    0    0 -0.19907761493E+02 -0.19517488391E+02  0.13678172644E+02  0.31053884260E+02  0.00000000000E+00 0. -1.
</event>
<event>
 5    1  0.1692171E-003  0.9118800E+02  0.7818608E-02  0.1130116E+00
         25   -1    0    0    0    0  0.00000000000E+00  0.00000000000E+00  0.99999998245E-14  0.12500000000E+03  0.12500000000E+03 0.  0.
        -11    1    3    3    0    0  0.36986228942E+02 -0.85615250273E+01 -0.30249442666E+02  0.48541833751E+02  0.51100000000E-03 0.  1.
         23    2    1    0    0    0  0.29454975782E+01  0.21268240973E+02 -0.21449065502E+02  0.94650758808E+02  0.89653163368E+02 0.  0.
         11    1    3    3    0    0 -0.34040731363E+02  0.29829766000E+02  0.88003771641E+01  0.46108925056E+02  0.51100000000E-03 0. -1.
         22    1    1    0    0    0 -0.29454975782E+01 -0.21268240973E+02  0.21449065502E+02  0.30349241192E+02  0.00000000000E+00 0.  1.
</event>
<event>
 5    1  0.1692171E-003  0.9118800E+02  0.7818608E-02  0.1130116E+00
         25   -1    0    0    0    0  0.00000000000E+00  0.00000000000E+00  0.99999998245E-14  0.12500000000E+03  0.12500000000E+03 0.  0.
        -11    1    3    3    0    0  0.13055830729E+02 -0.21861335414E+02  0.31353303119E+02  0.40390621670E+02  0.51100000000E-03 0. -1.
         23    2    1    0    0    0 -0.80685957574E+01  0.25489483690E+02  0.10805645680E+02  0.96162905922E+02  0.91737268765E+02 0.  0.
         11    1    3    3    0    0 -0.21124426487E+02  0.47350819104E+02 -0.20547657439E+02  0.55772284252E+02  0.51100000000E-03 0.  1.
         22    1    1    0    0    0  0.80685957574E+01 -0.25489483690E+02 -0.10805645680E+02  0.28837094078E+02  0.00000000000E+00 0.  1.
</event>
<event>
 5    1  0.1692171E-003  0.9118800E+02  0.7818608E-02  0.1130116E+00
         25   -1    0    0    0    0  0.00000000000E+00  0.00000000000E+00  0.99999998245E-14  0.12500000000E+03  0.12500000000E+03 0.  0.
        -11    1    3    3    0    0  0.50395668253E+02  0.23512890617E+02 -0.22882898525E+02  0.60134902087E+02  0.51100000000E-03 0. -1.
         23    2    1    0    0    0  0.27672669263E+02 -0.39178026142E+00 -0.11584804982E+02  0.94997703048E+02  0.90135596530E+02 0.  0.
         11    1    3    3    0    0 -0.22722998989E+02 -0.23904670878E+02  0.11298093542E+02  0.34862800961E+02  0.51100000000E-03 0.  1.
         22    1    1    0    0    0 -0.27672669263E+02  0.39178026142E+00  0.11584804982E+02  0.30002296952E+02  0.00000000000E+00 0. -1.
</event>
<event>
 5    1  0.1692171E-003  0.9118800E+02  0.7818608E-02  0.1130116E+00
         25   -1    0    0    0    0  0.00000000000E+00  0.00000000000E+00  0.99999998245E-14  0.12500000000E+03  0.12500000000E+03 0.  0.
        -11    1    3    3    0    0  0.15483930879E+02 -0.87105368096E+01  0.31857104541E+02  0.36476028800E+02  0.51100000000E-03 0.  1.
         23    2    1    0    0    0 -0.15893419304E+01 -0.26716478313E+02 -0.18397573885E+02  0.92522824229E+02  0.86635478051E+02 0.  0.
         11    1    3    3    0    0 -0.17073272810E+02 -0.18005941504E+02 -0.50254678426E+02  0.56046795429E+02  0.51100000000E-03 0. -1.
         22    1    1    0    0    0  0.15893419304E+01  0.26716478313E+02  0.18397573885E+02  0.32477175771E+02  0.00000000000E+00 0. -1.
</event>
<event>
 5    1  0.1692171E-003  0.9118800E+02  0.7818608E-02  0.1130116E+00
         25   -1    0    0    0    0  0.00000000000E+00  0.00000000000E+00  0.99999998245E-14  0.12500000000E+03  0.12500000000E+03 0.  0.
        -11    1    3    3    0    0 -0.91483962714E+01 -0.66799328241E+01  0.50381027413E+02  0.51638770128E+02  0.51100000000E-03 0. -1.
         23    2    1    0    0    0  0.17585333601E+02  0.11484372191E+02  0.20123098668E+02  0.95912651161E+02  0.91395638793E+02 0.  0.
         11    1    3    3    0    0  0.26733729872E+02  0.18164305015E+02 -0.30257928745E+02  0.44273881034E+02  0.51100000000E-03 0.  1.
         22    1    1    0    0    0 -0.17585333601E+02 -0.11484372191E+02 -0.20123098668E+02  0.29087348839E+02  0.00000000000E+00 0. -1.
</event>
<event>
 5    1  0.1692171E-003  0.9118800E+02  0.7818608E-02  0.1130116E+00
         25   -1    0    0    0    0  0.00000000000E+00  0.00000000000E+00  0.99999998245E-14  0.12500000000E+03  0.12500000000E+03 0.  0.
        -11    1    3    3    0    0  0.52259063058E+01  0.12775687702E+02  0.46062708509E+02  0.48086395253E+02  0.51100000000E-03 0.  1.
         23    2    1    0    0    0  0.24478994330E+02 -0.12252939383E+02  0.10408084631E+02  0.95713758988E+02  0.91123211900E+02 0.  0.
         11    1    3    3    0    0  0.19253088024E+02 -0.25028627085E+02 -0.35654623878E+02  0.47627363735E+02  0.51100000000E-03 0. -1.
         22    1    1    0    0    0 -0.24478994330E+02  0.12252939383E+02 -0.10408084631E+02  0.29286241012E+02  0.00000000000E+00 0.  1.
</event>
<event>
 5    1  0.1692171E-003  0.9118800E+02  0.7818608E-02  0.1130116E+00
         25   -1    0    0    0    0  0.00000000000E+00  0.00000000000E+00  0.99999998245E-14  0.12500000000E+03  0.12500000000E+03 0.  0.
        -11    1    3    3    0    0  0.19300201500E+02 -0.36920865854E+02 -0.17253916756E+02  0.45092635286E+02  0.51100000000E-03 0. -1.
         23    2    1    0    0    0  0.46787705892E+01 -0.11779819214E+02  0.25338836227E+02  0.96667833541E+02  0.92422715743E+02 0.  0.
         11    1    3    3    0    0 -0.14621430911E+02  0.25141046641E+02  0.42592752983E+02  0.51575198255E+02  0.51100000000E-03 0.  1.
         22    1    1    0    0    0 -0.46787705892E+01  0.11779819214E+02 -0.25338836227E+02  0.28332166459E+02  0.00000000000E+00 0.  1.
</event>
<event>
 5    1  0.1692171E-003  0.9118800E+02  0.7818608E-02  0.1130116E+00
         25   -1    0    0    0    0  0.00000000000E+00  0.00000000000E+00  0.99999998245E-14  0.12500000000E+03  0.12500000000E+03 0.  0.
        -11    1    3    3    0    0  0.84895714734E+01 -0.56064084455E+02  0.50579093825E+01  0.56928348274E+02  0.51100000000E-03 0. -1.
         23    2    1    0    0    0 -0.14475880167E+02 -0.22686957294E+02  0.58877566671E+01  0.97451591399E+02  0.93476723572E+02 0.  0.
         11    1    3    3    0    0 -0.22965451641E+02  0.33377127161E+02  0.82984728466E+00  0.40523243125E+02  0.51100000000E-03 0.  1.
         22    1    1    0    0    0  0.14475880167E+02  0.22686957294E+02 -0.58877566671E+01  0.27548408601E+02  0.00000000000E+00 0.  1.
</event>
<event>
 5    1  0.1692171E-003  0.9118800E+02  0.7818608E-02  0.1130116E+00
         25   -1    0    0    0    0  0.00000000000E+00  0.00000000000E+00  0.99999998245E-14  0.12500000000E+03  0.12500000000E+03 0.  0.
        -11    1    3    3    0    0 -0.31228248567E+02 -0.24696616900E+02  0.77544369173E+01  0.40561776182E+02  0.51100000000E-03 0.  1.
         23    2    1    0    0    0  0.75790568474E+01  0.91674397498E+01  0.26961153093E+02  0.95531579100E+02  0.90872959537E+02 0.  0.
         11    1    3    3    0    0  0.38807305415E+02  0.33864056650E+02  0.19206716175E+02  0.54969802918E+02  0.51100000000E-03 0. -1.
         22    1    1    0    0    0 -0.75790568474E+01 -0.91674397498E+01 -0.26961153093E+02  0.29468420900E+02  0.00000000000E+00 0. -1.
</event>
<event>
 5    1  0.1692171E-003  0.9118800E+02  0.7818608E-02  0.1130116E+00
         25   -1    0    0    0    0  0.00000000000E+00  0.00000000000E+00  0.99999998245E-14  0.12500000000E+03  0.12500000000E+03 0.  0.
        -11    1    3    3    0    0 -0.29058840974E+02 -0.19947574795E+02 -0.11941084370E+02  0.37214398762E+02  0.51100000000E-03 0. -1.
         23    2    1    0    0    0  0.17462506873E+01  0.62248365264E+01  0.29319685695E+02  0.94975977110E+02  0.90105461974E+02 0.  0.
         11    1    3    3    0    0  0.30805091662E+02  0.26172411321E+02  0.41260770065E+02  0.57761578349E+02  0.51100000000E-03 0.  1.
         22    1    1    0    0    0 -0.17462506873E+01 -0.62248365264E+01 -0.29319685695E+02  0.30024022890E+02  0.00000000000E+00 0.  1.
</event>
<event>
 5    1  0.1692171E-003  0.9118800E+02  0.7818608E-02  0.1130116E+00
         25   -1    0    0    0    0  0.00000000000E+00  0.00000000000E+00  0.99999998245E-14  0.12500000000E+03  0.12500000000E+03 0.  0.
        -11    1    3    3    0    0 -0.14786951798E+02  0.25315492517E+01 -0.32045312213E+02  0.35383113489E+02  0.51100000000E-03 0. -1.
         23    2    1    0    0    0  0.87963091981E+00 -0.20623772456E+02  0.21130261843E+02  0.95460167461E+02  0.90774676343E+02 0.  0.
         11    1    3    3    0    0  0.15666582718E+02 -0.23155321707E+02  0.53175574056E+02  0.60077053972E+02  0.51100000000E-03 0.  1.
         22    1    1    0    0    0 -0.87963091981E+00  0.20623772456E+02 -0.21130261843E+02  0.29539832539E+02  0.00000000000E+00 0.  1.
</event>
<event>
 5    1  0.1692171E-003  0.9118800E+02  0.7818608E-02  0.1130116E+00
         25   -1    0    0    0    0  0.00000000000E+00  0.00000000000E+00  0.99999998245E-14  0.12500000000E+03  0.12500000000E+03 0.  0.
        -11    1    3    3    0    0  0.23687274092E+02 -0.25343952210E+02 -0.93060164147E+01  0.35916636943E+02  0.51100000000E-03 0.  1.
         23    2    1    0    0    0 -0.24614703682E+02  0.11084432724E+02 -0.93980482420E+01  0.96415535742E+02  0.92080855424E+02 0.  0.
         11    1    3    3    0    0 -0.48301977774E+02  0.36428384934E+02 -0.92031827321E-01  0.60498898799E+02  0.51100000000E-03 0. -1.
         22    1    1    0    0    0  0.24614703682E+02 -0.11084432724E+02  0.93980482420E+01  0.28584464258E+02  0.00000000000E+00 0. -1.
</event>
<event>
 5    1  0.1692171E-003  0.9118800E+02  0.7818608E-02  0.1130116E+00
         25   -1    0    0    0    0  0.00000000000E+00  0.00000000000E+00  0.99999998245E-14  0.12500000000E+03  0.12500000000E+03 0.  0.
        -11    1    3    3    0    0 -0.14722070459E+02 -0.24744652901E+02  0.28239306044E+02  0.40329835258E+02  0.51100000000E-03 0. -1.
         23    2    1    0    0    0  0.24669127179E+02  0.10454622349E+02  0.12375194662E+02  0.95487114557E+02  0.90811775884E+02 0.  0.
         11    1    3    3    0    0  0.39391197638E+02  0.35199275250E+02 -0.15864111382E+02  0.55157279299E+02  0.51100000000E-03 0.  1.
         22    1    1    0    0    0 -0.24669127179E+02 -0.10454622349E+02 -0.12375194662E+02  0.29512885443E+02  0.00000000000E+00 0.  1.
</event>
<event>
 5    1  0.1692171E-003  0.9118800E+02  0.7818608E-02  0.1130116E+00
         25   -1    0    0    0    0  0.00000000000E+00  0.00000000000E+00  0.99999998245E-14  0.12500000000E+03  0.12500000000E+03 0.  0.
        -11    1    3    3    0    0 -0.21562615408E+02  0.36796280655E+02  0.39919277884E+01  0.42835127419E+02  0.51100000000E-03 0. -1.
         23    2    1    0    0    0 -0.61696387369E+01 -0.76164594199E+01  0.27798055781E+02  0.95524471142E+02  0.90863181683E+02 0.  0.
         11    1    3    3    0    0  0.15392976671E+02 -0.44412740075E+02  0.23806127992E+02  0.52689343723E+02  0.51100000000E-03 0.  1.
         22    1    1    0    0    0  0.61696387369E+01  0.76164594199E+01 -0.27798055781E+02  0.29475528858E+02  0.00000000000E+00 0.  1.
</event>
<event>
 5    1  0.1692171E-003  0.9118800E+02  0.7818608E-02  0.1130116E+00
         25   -1    0    0    0    0  0.00000000000E+00  0.00000000000E+00  0.99999998245E-14  0.12500000000E+03  0.12500000000E+03 0.  0.
        -11    1    3    3    0    0 -0.94466551767E+01 -0.21261058889E+02  0.29926569032E+02  0.37906087287E+02  0.51100000000E-03 0. -1.
         23    2    1    0    0    0  0.17020372050E+02 -0.93183477792E+01 -0.20924238637E+02  0.96463209140E+02  0.92145549459E+02 0.  0.
         11    1    3    3    0    0  0.26467027226E+02  0.11942711110E+02 -0.50850807669E+02  0.58557121853E+02  0.51100000000E-03 0.  1.
         22    1    1    0    0    0 -0.17020372050E+02  0.93183477792E+01  0.20924238637E+02  0.28536790860E+02  0.00000000000E+00 0.  1.
</event>
<event>
 5    1  0.1692171E-003  0.9118800E+02  0.7818608E-02  0.1130116E+00
         25   -1    0    0    0    0  0.00000000000E+00  0.00000000000E+00  0.99999998245E-14  0.12500000000E+03  0.12500000000E+03 0.  0.
        -11    1    3    3    0    0 -0.45427040430E+02  0.23793799652E+02  0.27071543399E+02  0.57988182989E+02  0.51100000000E-03 0. -1.
         23    2    1    0    0    0 -0.24748969221E+02  0.15801450590E+02 -0.31494023699E+01  0.95468388910E+02  0.90785996870E+02 0.  0.
         11    1    3    3    0    0  0.20678071209E+02 -0.79923490620E+01 -0.30220945769E+02  0.37480205921E+02  0.51100000000E-03 0.  1.
         22    1    1    0    0    0  0.24748969221E+02 -0.15801450590E+02  0.31494023699E+01  0.29531611090E+02  0.00000000000E+00 0. -1.
</event>
<event>
 5    1  0.1692171E-003  0.9118800E+02  0.7818608E-02  0.1130116E+00
         25   -1    0    0    0    0  0.00000000000E+00  0.00000000000E+00  0.99999998245E-14  0.12500000000E+03  0.12500000000E+03 0.  0.
        -11    1    3    3    0    0  0.29399329512E+02  0.13859747685E+02 -0.38846115885E+02  0.50650112549E+02  0.51100000000E-03 0. -1.
         23    2    1    0    0    0  0.29286990550E+02  0.94581087859E+01  0.42155342528E+01  0.93936285374E+02  0.88651403506E+02 0.  0.
         11    1    3    3    0    0 -0.11233896124E+00 -0.44016388988E+01  0.43061650138E+02  0.43286172825E+02  0.51100000000E-03 0.  1.
         22    1    1    0    0    0 -0.29286990550E+02 -0.94581087859E+01 -0.42155342528E+01  0.31063714626E+02  0.00000000000E+00 0.  1.
</event>
<event>
 5    1  0.1692171E-003  0.9118800E+02  0.7818608E-02  0.1130116E+00
         25   -1    0    0    0    0  0.00000000000E+00  0.00000000000E+00  0.99999998245E-14  0.12500000000E+03  0.12500000000E+03 0.  0.
        -11    1    3    3    0    0 -0.27660402665E+02  0.47609954939E+01  0.22103465899E+02  0.35725735244E+02  0.51100000000E-03 0.  1.
         23    2    1    0    0    0  0.84504504307E+01  0.42838324425E+01 -0.26832077571E+02  0.96544390366E+02  0.92255610081E+02 0.  0.
         11    1    3    3    0    0  0.36110853096E+02 -0.47716305143E+00 -0.48935543470E+02  0.60818655122E+02  0.51100000000E-03 0. -1.
         22    1    1    0    0    0 -0.84504504307E+01 -0.42838324425E+01  0.26832077571E+02  0.28455609634E+02  0.00000000000E+00 0. -1.
</event>
<event>
 5    1  0.1692171E-003  0.9118800E+02  0.7818608E-02  0.1130116E+00
         25   -1    0    0    0    0  0.00000000000E+00  0.00000000000E+00  0.99999998245E-14  0.12500000000E+03  0.12500000000E+03 0.  0.
        -11    1    3    3    0    0 -0.57220307535E+01  0.11915235972E+02  0.33792341756E+01  0.13643082793E+02  0.51100000000E-03 0. -1.
         23    2    1    0    0    0  0.45535430890E+02 -0.10893020330E+02 -0.19564793728E+02  0.74256384521E+02  0.54213431272E+02 0.  0.
         11    1    3    3    0    0  0.51257461643E+02 -0.22808256303E+02 -0.22944027904E+02  0.60613301728E+02  0.51100000000E-03 0.  1.
         22    1    1    0    0    0 -0.45535430890E+02  0.10893020330E+02  0.19564793728E+02  0.50743615479E+02  0.00000000000E+00 0.  1.
</event>
<event>
 5    1  0.1692171E-003  0.9118800E+02  0.7818608E-02  0.1130116E+00
         25   -1    0    0    0    0  0.00000000000E+00  0.00000000000E+00  0.99999998245E-14  0.12500000000E+03  0.12500000000E+03 0.  0.
        -11    1    3    3    0    0  0.56817616694E+01 -0.44011849582E+02 -0.20736148284E+01  0.44425501663E+02  0.51100000000E-03 0. -1.
         23    2    1    0    0    0  0.28830826210E+02 -0.24786657560E+01  0.11480883058E+02  0.93868488638E+02  0.88555757349E+02 0.  0.
         11    1    3    3    0    0  0.23149064540E+02  0.41533183826E+02  0.13554497887E+02  0.49442986975E+02  0.51100000000E-03 0.  1.
         22    1    1    0    0    0 -0.28830826210E+02  0.24786657560E+01 -0.11480883058E+02  0.31131511362E+02  0.00000000000E+00 0.  1.
</event>
<event>
 5    1  0.1692171E-003  0.9118800E+02  0.7818608E-02  0.1130116E+00
         25   -1    0    0    0    0  0.00000000000E+00  0.00000000000E+00  0.99999998245E-14  0.12500000000E+03  0.12500000000E+03 0.  0.
        -11    1    3    3    0    0  0.19799806216E+02  0.46295931459E+02  0.24225273354E+02  0.55876734561E+02  0.51100000000E-03 0. -1.
         23    2    1    0    0    0  0.22925938217E+02  0.71530496283E+01  0.16406178660E+02  0.95915167865E+02  0.91399080773E+02 0.  0.
         11    1    3    3    0    0  0.31261320009E+01 -0.39142881831E+02 -0.78190946942E+01  0.40038433304E+02  0.51100000000E-03 0.  1.
         22    1    1    0    0    0 -0.22925938217E+02 -0.71530496283E+01 -0.16406178660E+02  0.29084832135E+02  0.00000000000E+00 0.  1.
</event>
<event>
 5    1  0.1692171E-003  0.9118800E+02  0.7818608E-02  0.1130116E+00
         25   -1    0    0    0    0  0.00000000000E+00  0.00000000000E+00  0.99999998245E-14  0.12500000000E+03  0.12500000000E+03 0.  0.
        -11    1    3    3    0    0  0.22104612332E+02  0.28105014440E+02 -0.47525910942E+02  0.59474514998E+02  0.51100000000E-03 0.  1.
         23    2    1    0    0    0  0.36097176097E+01  0.49483107745E+01 -0.30987651090E+02  0.93412813345E+02  0.87910200410E+02 0.  0.
         11    1    3    3    0    0 -0.18494894723E+02 -0.23156703666E+02  0.16538259853E+02  0.33938298347E+02  0.51100000000E-03 0. -1.
         22    1    1    0    0    0 -0.36097176097E+01 -0.49483107745E+01  0.30987651090E+02  0.31587186655E+02  0.00000000000E+00 0.  1.
</event>
<event>
 5    1  0.1692171E-003  0.9118800E+02  0.7818608E-02  0.1130116E+00
         25   -1    0    0    0    0  0.00000000000E+00  0.00000000000E+00  0.99999998245E-14  0.12500000000E+03  0.12500000000E+03 0.  0.
        -11    1    3    3    0    0  0.30556871783E+02  0.15796591732E+02  0.46829909712E+01  0.34715776359E+02  0.51100000000E-03 0.  1.
         23    2    1    0    0    0 -0.26023871030E+02 -0.26280556001E+01 -0.11567820407E+02  0.96399947402E+02  0.92059691779E+02 0.  0.
         11    1    3    3    0    0 -0.56580742813E+02 -0.18424647332E+02 -0.16250811379E+02  0.61684171043E+02  0.51100000000E-03 0. -1.
         22    1    1    0    0    0  0.26023871030E+02  0.26280556001E+01  0.11567820407E+02  0.28600052598E+02  0.00000000000E+00 0. -1.
</event>
<event>
 5    1  0.1692171E-003  0.9118800E+02  0.7818608E-02  0.1130116E+00
         25   -1    0    0    0    0  0.00000000000E+00  0.00000000000E+00  0.99999998245E-14  0.12500000000E+03  0.12500000000E+03 0.  0.
        -11    1    3    3    0    0 -0.30221529621E+02  0.27532704625E+02 -0.22214266225E+02  0.46528102270E+02  0.51100000000E-03 0. -1.
         23    2    1    0    0    0 -0.45983378324E+01 -0.15785460057E+02 -0.22835923865E+02  0.96860972319E+02  0.92683564238E+02 0.  0.
         11    1    3    3    0    0  0.25623191789E+02 -0.43318164683E+02 -0.62165763983E+00  0.50332870049E+02  0.51100000000E-03 0.  1.
         22    1    1    0    0    0  0.45983378324E+01  0.15785460057E+02  0.22835923865E+02  0.28139027681E+02  0.00000000000E+00 0. -1.
</event>
<event>
 5    1  0.1692171E-003  0.9118800E+02  0.7818608E-02  0.1130116E+00
         25   -1    0    0    0    0  0.00000000000E+00  0.00000000000E+00  0.99999998245E-14  0.12500000000E+03  0.12500000000E+03 0.  0.
        -11    1    3    3    0    0  0.51289742007E+02  0.26177712841E+02  0.59001014267E+01  0.57885416832E+02  0.51100000000E-03 0. -1.
         23    2    1    0    0    0  0.29044635649E+02  0.69219650527E+00 -0.86155654122E+01  0.94696568455E+02  0.89717011285E+02 0.  0.
         11    1    3    3    0    0 -0.22245106358E+02 -0.25485516336E+02 -0.14515666839E+02  0.36811151623E+02  0.51100000000E-03 0.  1.
         22    1    1    0    0    0 -0.29044635649E+02 -0.69219650527E+00  0.86155654122E+01  0.30303431545E+02  0.00000000000E+00 0. -1.
</event>
<event>
 5    1  0.1692171E-003  0.9118800E+02  0.7818608E-02  0.1130116E+00
         25   -1    0    0    0    0  0.00000000000E+00  0.00000000000E+00  0.99999998245E-14  0.12500000000E+03  0.12500000000E+03 0.  0.
        -11    1    3    3    0    0 -0.11924731650E+02 -0.21719408640E+02 -0.21821557848E+02  0.33016849089E+02  0.51100000000E-03 0.  1.
         23    2    1    0    0    0  0.13449454384E+02  0.62199877675E+01  0.26684907634E+02  0.94476887994E+02  0.89410413256E+02 0.  0.
         11    1    3    3    0    0  0.25374186034E+02  0.27939396407E+02  0.48506465482E+02  0.61460038906E+02  0.51100000000E-03 0. -1.
         22    1    1    0    0    0 -0.13449454384E+02 -0.62199877675E+01 -0.26684907634E+02  0.30523112006E+02  0.00000000000E+00 0. -1.
</event>
<event>
 5    1  0.1692171E-003  0.9118800E+02  0.7818608E-02  0.1130116E+00
         25   -1    0    0    0    0  0.00000000000E+00  0.00000000000E+00  0.99999998245E-14  0.12500000000E+03  0.12500000000E+03 0.  0.
        -11    1    3    3    0    0  0.39977590831E+02  0.10255410039E+02 -0.32160802704E+02  0.52323020121E+02  0.51100000000E-03 0. -1.
         23    2    1    0    0    0  0.16656889554E+01 -0.10271022218E+02 -0.26965482658E+02  0.96096614869E+02  0.91646896931E+02 0.  0.
         11    1    3    3    0    0 -0.38311901876E+02 -0.20526432256E+02  0.51953200466E+01  0.43773594748E+02  0.51100000000E-03 0.  1.
         22    1    1    0    0    0 -0.16656889554E+01  0.10271022218E+02  0.26965482658E+02  0.28903385131E+02  0.00000000000E+00 0. -1.
</event>
<event>
 5    1  0.1692171E-003  0.9118800E+02  0.7818608E-02  0.1130116E+00
         25   -1    0    0    0    0  0.00000000000E+00  0.00000000000E+00  0.99999998245E-14  0.12500000000E+03  0.12500000000E+03 0.  0.
        -11    1    3    3    0    0 -0.16913791903E+01  0.42753465283E+02  0.39437277550E+02  0.58189504363E+02  0.51100000000E-03 0. -1.
         23    2    1    0    0    0  0.15103898451E+02  0.15832366878E+02  0.19695601313E+02  0.95560090005E+02  0.90912169160E+02 0.  0.
         11    1    3    3    0    0  0.16795277642E+02 -0.26921098404E+02 -0.19741676237E+02  0.37370585642E+02  0.51100000000E-03 0.  1.
         22    1    1    0    0    0 -0.15103898451E+02 -0.15832366878E+02 -0.19695601313E+02  0.29439909995E+02  0.00000000000E+00 0. -1.
</event>
<event>
 5    1  0.1692171E-003  0.9118800E+02  0.7818608E-02  0.1130116E+00
         25   -1    0    0    0    0  0.00000000000E+00  0.00000000000E+00  0.99999998245E-14  0.12500000000E+03  0.12500000000E+03 0.  0.
        -11    1    3    3    0    0  0.26924040780E+02  0.43349961079E+01  0.47373062149E+02  0.54661715861E+02  0.51100000000E-03 0. -1.
         23    2    1    0    0    0  0.45275544694E+00  0.20638489669E+02  0.22395297224E+02  0.94541806011E+02  0.89501125707E+02 0.  0.
         11    1    3    3    0    0 -0.26471285333E+02  0.16303493561E+02 -0.24977764925E+02  0.39880090150E+02  0.51100000000E-03 0.  1.
         22    1    1    0    0    0 -0.45275544694E+00 -0.20638489669E+02 -0.22395297224E+02  0.30458193989E+02  0.00000000000E+00 0. -1.
</event>
<event>
 5    1  0.1692171E-003  0.9118800E+02  0.7818608E-02  0.1130116E+00
         25   -1    0    0    0    0  0.00000000000E+00  0.00000000000E+00  0.99999998245E-14  0.12500000000E+03  0.12500000000E+03 0.  0.
        -11    1    3    3    0    0  0.23388253823E+02 -0.19748529562E+02  0.38114536379E+02  0.48884892558E+02  0.51100000000E-03 0. -1.
         23    2    1    0    0    0  0.27928752522E+02  0.30344651517E+01 -0.36451152195E+01  0.96671391471E+02  0.92427527652E+02 0.  0.
         11    1    3    3    0    0  0.45404986993E+01  0.22782994713E+02 -0.41759651598E+02  0.47786498914E+02  0.51100000000E-03 0.  1.
         22    1    1    0    0    0 -0.27928752522E+02 -0.30344651517E+01  0.36451152195E+01  0.28328608529E+02  0.00000000000E+00 0.  1.
</event>
<event>
 5    1  0.1692171E-003  0.9118800E+02  0.7818608E-02  0.1130116E+00
         25   -1    0    0    0    0  0.00000000000E+00  0.00000000000E+00  0.99999998245E-14  0.12500000000E+03  0.12500000000E+03 0.  0.
        -11    1    3    3    0    0  0.76198366035E+01 -0.33118525606E+02 -0.25241979963E+02  0.42332684782E+02  0.51100000000E-03 0.  1.
         23    2    1    0    0    0  0.16105108027E+01 -0.15125741620E+02  0.24831967153E+02  0.95879416262E+02  0.91350172772E+02 0.  0.
         11    1    3    3    0    0 -0.60093258008E+01  0.17992783986E+02  0.50073947115E+02  0.53546731479E+02  0.51100000000E-03 0. -1.
         22    1    1    0    0    0 -0.16105108027E+01  0.15125741620E+02 -0.24831967153E+02  0.29120583738E+02  0.00000000000E+00 0. -1.
</event>
<event>
 5    1  0.1692171E-003  0.9118800E+02  0.7818608E-02  0.1130116E+00
         25   -1    0    0    0    0  0.00000000000E+00  0.00000000000E+00  0.99999998245E-14  0.12500000000E+03  0.12500000000E+03 0.  0.
        -11    1    3    3    0    0 -0.15524943883E+02  0.58832295686E+02  0.12692987837E+02  0.62156052310E+02  0.51100000000E-03 0. -1.
         23    2    1    0    0    0 -0.62224950063E+01  0.33978616558E+02  0.33329545719E+01  0.90295902065E+02  0.83360515331E+02 0.  0.
         11    1    3    3    0    0  0.93024488766E+01 -0.24853679128E+02 -0.93600332647E+01  0.28139849756E+02  0.51100000000E-03 0.  1.
         22    1    1    0    0    0  0.62224950063E+01 -0.33978616558E+02 -0.33329545719E+01  0.34704097935E+02  0.00000000000E+00 0. -1.
</event>
<event>
 5    1  0.1692171E-003  0.9118800E+02  0.7818608E-02  0.1130116E+00
         25   -1    0    0    0    0  0.00000000000E+00  0.00000000000E+00  0.99999998245E-14  0.12500000000E+03  0.12500000000E+03 0.  0.
        -11    1    3    3    0    0 -0.30478579335E+02  0.43234855027E+00  0.25973775476E+02  0.40047069010E+02  0.51100000000E-03 0.  1.
         23    2    1    0    0    0  0.18833287374E+02  0.20312495681E+02  0.97117693089E+01  0.95646828839E+02  0.91031352895E+02 0.  0.
         11    1    3    3    0    0  0.49311866709E+02  0.19880147130E+02 -0.16262006167E+02  0.55599759829E+02  0.51100000000E-03 0. -1.
         22    1    1    0    0    0 -0.18833287374E+02 -0.20312495681E+02 -0.97117693089E+01  0.29353171161E+02  0.00000000000E+00 0. -1.
</event>
<event>
 5    1  0.1692171E-003  0.9118800E+02  0.7818608E-02  0.1130116E+00
         25   -1    0    0    0    0  0.00000000000E+00  0.00000000000E+00  0.99999998245E-14  0.12500000000E+03  0.12500000000E+03 0.  0.
        -11    1    3    3    0    0 -0.47838353051E+02 -0.81417627974E+01 -0.21885014418E+01  0.48575568580E+02  0.51100000000E-03 0.  1.
         23    2    1    0    0    0 -0.10257625930E+02 -0.57968556691E+01  0.26556352016E+02  0.95947250426E+02  0.91442947277E+02 0.  0.
         11    1    3    3    0    0  0.37580727121E+02  0.23449071283E+01  0.28744853458E+02  0.47371681847E+02  0.51100000000E-03 0. -1.
         22    1    1    0    0    0  0.10257625930E+02  0.57968556691E+01 -0.26556352016E+02  0.29052749574E+02  0.00000000000E+00 0.  1.
</event>
<event>
 5    1  0.1692171E-003  0.9118800E+02  0.7818608E-02  0.1130116E+00
         25   -1    0    0    0    0  0.00000000000E+00  0.00000000000E+00  0.99999998245E-14  0.12500000000E+03  0.12500000000E+03 0.  0.
        -11    1    3    3    0    0  0.67843345401E+01  0.33360532906E+02  0.85159686491E+01  0.35092364885E+02  0.51100000000E-03 0.  1.
         23    2    1    0    0    0  0.18761532650E+02 -0.22532765901E+02 -0.80268088095E+01  0.94600159438E+02  0.89582586809E+02 0.  0.
         11    1    3    3    0    0  0.11977198110E+02 -0.55893298808E+02 -0.16542777459E+02  0.59507794552E+02  0.51100000000E-03 0. -1.
         22    1    1    0    0    0 -0.18761532650E+02  0.22532765901E+02  0.80268088095E+01  0.30399840562E+02  0.00000000000E+00 0.  1.
</event>
<event>
 5    1  0.1692171E-003  0.9118800E+02  0.7818608E-02  0.1130116E+00
         25   -1    0    0    0    0  0.00000000000E+00  0.00000000000E+00  0.99999998245E-14  0.12500000000E+03  0.12500000000E+03 0.  0.
        -11    1    3    3    0    0 -0.35577803931E+02 -0.73942470060E+01  0.13981103795E+02  0.38934898034E+02  0.51100000000E-03 0.  1.
         23    2    1    0    0    0  0.47706829891E+01  0.17137933564E+02 -0.20835135319E+02  0.97603448268E+02  0.93679571236E+02 0.  0.
         11    1    3    3    0    0  0.40348486920E+02  0.24532180570E+02 -0.34816239114E+02  0.58668550234E+02  0.51100000000E-03 0. -1.
         22    1    1    0    0    0 -0.47706829891E+01 -0.17137933564E+02  0.20835135319E+02  0.27396551732E+02  0.00000000000E+00 0. -1.
</event>
<event>
 5    1  0.1692171E-003  0.9118800E+02  0.7818608E-02  0.1130116E+00
         25   -1    0    0    0    0  0.00000000000E+00  0.00000000000E+00  0.99999998245E-14  0.12500000000E+03  0.12500000000E+03 0.  0.
        -11    1    3    3    0    0 -0.53374117016E+02  0.10351988788E+02  0.27283035891E+02  0.60830289222E+02  0.51100000000E-03 0.  1.
         23    2    1    0    0    0 -0.28244650600E+02  0.66282072417E+01  0.32401415589E+01  0.95807673336E+02  0.91251949755E+02 0.  0.
         11    1    3    3    0    0  0.25129466416E+02 -0.37237815462E+01 -0.24042894332E+02  0.34977384115E+02  0.51100000000E-03 0. -1.
         22    1    1    0    0    0  0.28244650600E+02 -0.66282072417E+01 -0.32401415589E+01  0.29192326664E+02  0.00000000000E+00 0.  1.
</event>
<event>
 5    1  0.1692171E-003  0.9118800E+02  0.7818608E-02  0.1130116E+00
         25   -1    0    0    0    0  0.00000000000E+00  0.00000000000E+00  0.99999998245E-14  0.12500000000E+03  0.12500000000E+03 0.  0.
        -11    1    3    3    0    0  0.65737424248E+01 -0.70511611219E+01  0.38475107308E+02  0.39664427959E+02  0.51100000000E-03 0.  1.
         23    2    1    0    0    0  0.41800516098E+01  0.34168179356E+02  0.12860870522E+02  0.88253036825E+02  0.80238763739E+02 0.  0.
         11    1    3    3    0    0 -0.23936908149E+01  0.41219340478E+02 -0.25614236786E+02  0.48588608867E+02  0.51100000000E-03 0. -1.
         22    1    1    0    0    0 -0.41800516098E+01 -0.34168179356E+02 -0.12860870522E+02  0.36746963175E+02  0.00000000000E+00 0. -1.
</event>
<event>
 5    1  0.1692171E-003  0.9118800E+02  0.7818608E-02  0.1130116E+00
         25   -1    0    0    0    0  0.00000000000E+00  0.00000000000E+00  0.99999998245E-14  0.12500000000E+03  0.12500000000E+03 0.  0.
        -11    1    3    3    0    0  0.42596789704E+02  0.30021087482E+01  0.36122738620E+02  0.55931667200E+02  0.51100000000E-03 0. -1.
         23    2    1    0    0    0  0.36681116161E+02 -0.87618998852E+01  0.87821810630E+01  0.86277889047E+02  0.77100403771E+02 0.  0.
         11    1    3    3    0    0 -0.59156735430E+01 -0.11764008633E+02 -0.27340557557E+02  0.30346221847E+02  0.51100000000E-03 0.  1.
         22    1    1    0    0    0 -0.36681116161E+02  0.87618998852E+01 -0.87821810630E+01  0.38722110953E+02  0.00000000000E+00 0. -1.
</event>
<event>
 5    1  0.1692171E-003  0.9118800E+02  0.7818608E-02  0.1130116E+00
         25   -1    0    0    0    0  0.00000000000E+00  0.00000000000E+00  0.99999998245E-14  0.12500000000E+03  0.12500000000E+03 0.  0.
        -11    1    3    3    0    0 -0.24810895858E+02 -0.18562503365E+02  0.49759456860E+02  0.58618688417E+02  0.51100000000E-03 0. -1.
         23    2    1    0    0    0  0.31253719238E+01 -0.14688015587E+02  0.23229408225E+02  0.97339357237E+02  0.93326519861E+02 0.  0.
         11    1    3    3    0    0  0.27936267781E+02  0.38744877777E+01 -0.26530048635E+02  0.38720668821E+02  0.51100000000E-03 0.  1.
         22    1    1    0    0    0 -0.31253719238E+01  0.14688015587E+02 -0.23229408225E+02  0.27660642763E+02  0.00000000000E+00 0. -1.
</event>
<event>
 5    1  0.1692171E-003  0.9118800E+02  0.7818608E-02  0.1130116E+00
         25   -1    0    0    0    0  0.00000000000E+00  0.00000000000E+00  0.99999998245E-14  0.12500000000E+03  0.12500000000E+03 0.  0.
        -11    1    3    3    0    0 -0.14765102502E+02  0.39879807838E+02  0.20420015714E+02  0.47173979767E+02  0.51100000000E-03 0.  1.
         23    2    1    0    0    0 -0.58635719097E+01  0.10299959929E+02 -0.22213710922E+02  0.99822239913E+02  0.96594823765E+02 0.  0.
         11    1    3    3    0    0  0.89015305919E+01 -0.29579847909E+02 -0.42633726636E+02  0.52648260145E+02  0.51100000000E-03 0. -1.
         22    1    1    0    0    0  0.58635719097E+01 -0.10299959929E+02  0.22213710922E+02  0.25177760087E+02  0.00000000000E+00 0. -1.
</event>
<event>
 5    1  0.1692171E-003  0.9118800E+02  0.7818608E-02  0.1130116E+00
         25   -1    0    0    0    0  0.00000000000E+00  0.00000000000E+00  0.99999998245E-14  0.12500000000E+03  0.12500000000E+03 0.  0.
        -11    1    3    3    0    0  0.73259222247E+00 -0.24023523646E+02  0.35278619120E+02  0.42687789203E+02  0.51100000000E-03 0.  1.
         23    2    1    0    0    0 -0.94660782887E+01  0.23710759261E+02  0.13166114812E+02  0.96274517895E+02  0.91889223926E+02 0.  0.
         11    1    3    3    0    0 -0.10198670511E+02  0.47734282908E+02 -0.22112504307E+02  0.53586728692E+02  0.51100000000E-03 0. -1.
         22    1    1    0    0    0  0.94660782887E+01 -0.23710759261E+02 -0.13166114812E+02  0.28725482105E+02  0.00000000000E+00 0. -1.
</event>
<event>
 5    1  0.1692171E-003  0.9118800E+02  0.7818608E-02  0.1130116E+00
         25   -1    0    0    0    0  0.00000000000E+00  0.00000000000E+00  0.99999998245E-14  0.12500000000E+03  0.12500000000E+03 0.  0.
        -11    1    3    3    0    0  0.66262197860E+01 -0.35503860172E+02  0.33999352900E+02  0.49602286980E+02  0.51100000000E-03 0. -1.
         23    2    1    0    0    0  0.10614655135E+02  0.95152974296E+01  0.25783046936E+02  0.95538545553E+02  0.90882541714E+02 0.  0.
         11    1    3    3    0    0  0.39884353493E+01  0.45019157602E+02 -0.82163059644E+01  0.45936258573E+02  0.51100000000E-03 0.  1.
         22    1    1    0    0    0 -0.10614655135E+02 -0.95152974296E+01 -0.25783046936E+02  0.29461454447E+02  0.00000000000E+00 0.  1.
</event>
<event>
 5    1  0.1692171E-003  0.9118800E+02  0.7818608E-02  0.1130116E+00
         25   -1    0    0    0    0  0.00000000000E+00  0.00000000000E+00  0.99999998245E-14  0.12500000000E+03  0.12500000000E+03 0.  0.
        -11    1    3    3    0    0  0.31620324935E+02  0.24332455391E+02 -0.45424059739E+02  0.60458734173E+02  0.51100000000E-03 0. -1.
         23    2    1    0    0    0  0.22355548715E+02  0.10603425322E+02 -0.12579496322E+02  0.97243074474E+02  0.93197471096E+02 0.  0.
         11    1    3    3    0    0 -0.92647762199E+01 -0.13729030070E+02  0.32844563417E+02  0.36784340301E+02  0.51100000000E-03 0.  1.
         22    1    1    0    0    0 -0.22355548715E+02 -0.10603425322E+02  0.12579496322E+02  0.27756925526E+02  0.00000000000E+00 0. -1.
</event>
<event>
 5    1  0.1692171E-003  0.9118800E+02  0.7818608E-02  0.1130116E+00
         25   -1    0    0    0    0  0.00000000000E+00  0.00000000000E+00  0.99999998245E-14  0.12500000000E+03  0.12500000000E+03 0.  0.
        -11    1    3    3    0    0 -0.16618342058E+02 -0.45493597384E+02 -0.16524946725E+02  0.51175292479E+02  0.51100000000E-03 0. -1.
         23    2    1    0    0    0  0.17220458667E+02 -0.24112043410E+02  0.20420307871E+01  0.95299752125E+02  0.90553509216E+02 0.  0.
         11    1    3    3    0    0  0.33838800725E+02  0.21381553974E+02  0.18566977512E+02  0.44124459646E+02  0.51100000000E-03 0.  1.
         22    1    1    0    0    0 -0.17220458667E+02  0.24112043410E+02 -0.20420307871E+01  0.29700247875E+02  0.00000000000E+00 0. -1.
</event>
<event>
 5    1  0.1692171E-003  0.9118800E+02  0.7818608E-02  0.1130116E+00
         25   -1    0    0    0    0  0.00000000000E+00  0.00000000000E+00  0.99999998245E-14  0.12500000000E+03  0.12500000000E+03 0.  0.
        -11    1    3    3    0    0  0.24734707664E+02 -0.33110706645E+02 -0.37927401223E+02  0.56094673736E+02  0.51100000000E-03 0. -1.
         23    2    1    0    0    0  0.10202749829E+02 -0.28701902498E+02 -0.27442818752E+01  0.94415258803E+02  0.89324211168E+02 0.  0.
         11    1    3    3    0    0 -0.14531957836E+02  0.44088041463E+01  0.35183119348E+02  0.38320585067E+02  0.51100000000E-03 0.  1.
         22    1    1    0    0    0 -0.10202749829E+02  0.28701902498E+02  0.27442818752E+01  0.30584741197E+02  0.00000000000E+00 0. -1.
</event>
<event>
 5    1  0.1692171E-003  0.9118800E+02  0.7818608E-02  0.1130116E+00
         25   -1    0    0    0    0  0.00000000000E+00  0.00000000000E+00  0.99999998245E-14  0.12500000000E+03  0.12500000000E+03 0.  0.
        -11    1    3    3    0    0 -0.37935632176E+02 -0.23397437678E+02 -0.35210150127E+02  0.56800589352E+02  0.51100000000E-03 0.  1.
         23    2    1    0    0    0 -0.22295228358E+02  0.74832724654E+01 -0.17514874882E+02  0.95676845046E+02  0.91072560420E+02 0.  0.
         11    1    3    3    0    0  0.15640403819E+02  0.30880710143E+02  0.17695275245E+02  0.38876255694E+02  0.51100000000E-03 0. -1.
         22    1    1    0    0    0  0.22295228358E+02 -0.74832724654E+01  0.17514874882E+02  0.29323154954E+02  0.00000000000E+00 0.  1.
</event>
<event>
 5    1  0.1692171E-003  0.9118800E+02  0.7818608E-02  0.1130116E+00
         25   -1    0    0    0    0  0.00000000000E+00  0.00000000000E+00  0.99999998245E-14  0.12500000000E+03  0.12500000000E+03 0.  0.
        -11    1    3    3    0    0  0.53881970824E+01 -0.36471040566E+02  0.17218177550E+02  0.40689496263E+02  0.51100000000E-03 0. -1.
         23    2    1    0    0    0 -0.18416508120E+02 -0.32435878018E+01 -0.21162581540E+02  0.96759187501E+02  0.92546187794E+02 0.  0.
         11    1    3    3    0    0 -0.23804705203E+02  0.33227452764E+02 -0.38380759090E+02  0.56069691238E+02  0.51100000000E-03 0.  1.
         22    1    1    0    0    0  0.18416508120E+02  0.32435878018E+01  0.21162581540E+02  0.28240812499E+02  0.00000000000E+00 0. -1.
</event>
<event>
 5    1  0.1692171E-003  0.9118800E+02  0.7818608E-02  0.1130116E+00
         25   -1    0    0    0    0  0.00000000000E+00  0.00000000000E+00  0.99999998245E-14  0.12500000000E+03  0.12500000000E+03 0.  0.
        -11    1    3    3    0    0  0.31852575143E+02 -0.28398044286E+02 -0.30172538152E-01  0.42673602767E+02  0.51100000000E-03 0. -1.
         23    2    1    0    0    0 -0.53024224690E-01  0.11179932416E+02 -0.23733627271E+02  0.98764932555E+02  0.95216769210E+02 0.  0.
         11    1    3    3    0    0 -0.31905599368E+02  0.39577976702E+02 -0.23703454733E+02  0.56091329788E+02  0.51100000000E-03 0.  1.
         22    1    1    0    0    0  0.53024224690E-01 -0.11179932416E+02  0.23733627271E+02  0.26235067445E+02  0.00000000000E+00 0.  1.
</event>
<event>
 5    1  0.1692171E-003  0.9118800E+02  0.7818608E-02  0.1130116E+00
         25   -1    0    0    0    0  0.00000000000E+00  0.00000000000E+00  0.99999998245E-14  0.12500000000E+03  0.12500000000E+03 0.  0.
        -11    1    3    3    0    0 -0.42592757051E+02 -0.21329563318E+02  0.10039571288E+02  0.48681477139E+02  0.51100000000E-03 0. -1.
         23    2    1    0    0    0 -0.16694480069E+02 -0.25203796783E+01 -0.24161501178E+02  0.95523973849E+02  0.90862497556E+02 0.  0.
         11    1    3    3    0    0  0.25898276982E+02  0.18809183640E+02 -0.34201072466E+02  0.46842496709E+02  0.51100000000E-03 0.  1.
         22    1    1    0    0    0  0.16694480069E+02  0.25203796783E+01  0.24161501178E+02  0.29476026151E+02  0.00000000000E+00 0. -1.
</event>
<event>
 5    1  0.1692171E-003  0.9118800E+02  0.7818608E-02  0.1130116E+00
         25   -1    0    0    0    0  0.00000000000E+00  0.00000000000E+00  0.99999998245E-14  0.12500000000E+03  0.12500000000E+03 0.  0.
        -11    1    3    3    0    0 -0.27948581453E+02 -0.11734731795E+02  0.46535791924E+01  0.30667294225E+02  0.51100000000E-03 0.  1.
         23    2    1    0    0    0  0.23899018956E+02  0.86522227094E+01  0.24391917862E+02  0.89772315973E+02  0.82571659747E+02 0.  0.
         11    1    3    3    0    0  0.51847600409E+02  0.20386954504E+02  0.19738338670E+02  0.59105021748E+02  0.51100000000E-03 0. -1.
         22    1    1    0    0    0 -0.23899018956E+02 -0.86522227094E+01 -0.24391917862E+02  0.35227684027E+02  0.00000000000E+00 0. -1.
</event>
<event>
 5    1  0.1692171E-003  0.9118800E+02  0.7818608E-02  0.1130116E+00
         25   -1    0    0    0    0  0.00000000000E+00  0.00000000000E+00  0.99999998245E-14  0.12500000000E+03  0.12500000000E+03 0.  0.
        -11    1    3    3    0    0 -0.27201632153E+02 -0.17784621139E+02  0.26678570400E+02  0.42047207514E+02  0.51100000000E-03 0.  1.
         23    2    1    0    0    0  0.23497238587E+02 -0.61736257870E+01  0.17967370110E+02  0.94783112912E+02  0.89837510140E+02 0.  0.
         11    1    3    3    0    0  0.50698870741E+02  0.11610995352E+02 -0.87112002899E+01  0.52735905399E+02  0.51100000000E-03 0. -1.
         22    1    1    0    0    0 -0.23497238587E+02  0.61736257870E+01 -0.17967370110E+02  0.30216887088E+02  0.00000000000E+00 0. -1.
</event>
<event>
 5    1  0.1692171E-003  0.9118800E+02  0.7818608E-02  0.1130116E+00
         25   -1    0    0    0    0  0.00000000000E+00  0.00000000000E+00  0.99999998245E-14  0.12500000000E+03  0.12500000000E+03 0.  0.
        -11    1    3    3    0    0 -0.32380392766E+02 -0.15767784952E+02  0.25561529219E+02  0.44164518046E+02  0.51100000000E-03 0.  1.
         23    2    1    0    0    0 -0.15659372323E+02  0.25271730194E+02  0.10744728315E+00  0.95269748850E+02  0.90512083240E+02 0.  0.
         11    1    3    3    0    0  0.16721020443E+02  0.41039515146E+02 -0.25454081936E+02  0.51105230804E+02  0.51100000000E-03 0. -1.
         22    1    1    0    0    0  0.15659372323E+02 -0.25271730194E+02 -0.10744728315E+00  0.29730251150E+02  0.00000000000E+00 0. -1.
</event>
<event>
 5    1  0.1692171E-003  0.9118800E+02  0.7818608E-02  0.1130116E+00
         25   -1    0    0    0    0  0.00000000000E+00  0.00000000000E+00  0.99999998245E-14  0.12500000000E+03  0.12500000000E+03 0.  0.
        -11    1    3    3    0    0  0.26461569272E+02 -0.38041279868E+02  0.13491289667E+02  0.48263531982E+02  0.51100000000E-03 0. -1.
         23    2    1    0    0    0 -0.38478055014E+01 -0.22412588912E+02 -0.19000914582E+02  0.95366159482E+02  0.90645131532E+02 0.  0.
         11    1    3    3    0    0 -0.30309374773E+02  0.15628690956E+02 -0.32492204249E+02  0.47102627499E+02  0.51100000000E-03 0.  1.
         22    1    1    0    0    0  0.38478055014E+01  0.22412588912E+02  0.19000914582E+02  0.29633840518E+02  0.00000000000E+00 0.  1.
</event>
<event>
 5    1  0.1692171E-003  0.9118800E+02  0.7818608E-02  0.1130116E+00
         25   -1    0    0    0    0  0.00000000000E+00  0.00000000000E+00  0.99999998245E-14  0.12500000000E+03  0.12500000000E+03 0.  0.
        -11    1    3    3    0    0 -0.65343294305E+01  0.13478293164E+02  0.35555992476E+02  0.38582255622E+02  0.51100000000E-03 0. -1.
         23    2    1    0    0    0 -0.19604385090E+02  0.94497695143E+01 -0.19784752679E+02  0.95587987196E+02  0.90950518410E+02 0.  0.
         11    1    3    3    0    0 -0.13070055660E+02 -0.40285236502E+01 -0.55340745154E+02  0.57005731573E+02  0.51100000000E-03 0.  1.
         22    1    1    0    0    0  0.19604385090E+02 -0.94497695143E+01  0.19784752679E+02  0.29412012804E+02  0.00000000000E+00 0.  1.
</event>
<event>
 5    1  0.1692171E-003  0.9118800E+02  0.7818608E-02  0.1130116E+00
         25   -1    0    0    0    0  0.00000000000E+00  0.00000000000E+00  0.99999998245E-14  0.12500000000E+03  0.12500000000E+03 0.  0.
        -11    1    3    3    0    0 -0.17451551789E+02  0.49638344024E+02  0.27322085257E+02  0.59287588923E+02  0.51100000000E-03 0.  1.
         23    2    1    0    0    0 -0.68009237524E+01  0.13424735228E+02  0.23318993364E+02  0.97246594239E+02  0.93202191818E+02 0.  0.
         11    1    3    3    0    0  0.10650628036E+02 -0.36213608796E+02 -0.40030918931E+01  0.37959005315E+02  0.51100000000E-03 0. -1.
         22    1    1    0    0    0  0.68009237524E+01 -0.13424735228E+02 -0.23318993364E+02  0.27753405761E+02  0.00000000000E+00 0.  1.
</event>
<event>
 5    1  0.1692171E-003  0.9118800E+02  0.7818608E-02  0.1130116E+00
         25   -1    0    0    0    0  0.00000000000E+00  0.00000000000E+00  0.99999998245E-14  0.12500000000E+03  0.12500000000E+03 0.  0.
        -11    1    3    3    0    0  0.64272553505E+01  0.25942450400E+01 -0.42029252468E+02  0.42596922212E+02  0.51100000000E-03 0.  1.
         23    2    1    0    0    0  0.26002553366E+02 -0.13018294494E+02  0.46341894166E+01  0.95553701682E+02  0.90903385088E+02 0.  0.
         11    1    3    3    0    0  0.19575298015E+02 -0.15612539534E+02  0.46663441884E+02  0.52956779470E+02  0.51100000000E-03 0. -1.
         22    1    1    0    0    0 -0.26002553366E+02  0.13018294494E+02 -0.46341894166E+01  0.29446298318E+02  0.00000000000E+00 0. -1.
</event>
<event>
 5    1  0.1692171E-003  0.9118800E+02  0.7818608E-02  0.1130116E+00
         25   -1    0    0    0    0  0.00000000000E+00  0.00000000000E+00  0.99999998245E-14  0.12500000000E+03  0.12500000000E+03 0.  0.
        -11    1    3    3    0    0  0.18224044814E+02 -0.51914556635E+01  0.31131546446E+02  0.36445029917E+02  0.51100000000E-03 0.  1.
         23    2    1    0    0    0 -0.31894687739E+02 -0.36381968752E+01  0.17639727900E+02  0.88371219201E+02  0.80422663473E+02 0.  0.
         11    1    3    3    0    0 -0.50118732552E+02  0.15532587883E+01 -0.13491818546E+02  0.51926189283E+02  0.51100000000E-03 0. -1.
         22    1    1    0    0    0  0.31894687739E+02  0.36381968752E+01 -0.17639727900E+02  0.36628780799E+02  0.00000000000E+00 0.  1.
</event>
<event>
 5    1  0.1692171E-003  0.9118800E+02  0.7818608E-02  0.1130116E+00
         25   -1    0    0    0    0  0.00000000000E+00  0.00000000000E+00  0.99999998245E-14  0.12500000000E+03  0.12500000000E+03 0.  0.
        -11    1    3    3    0    0 -0.16192243997E+02 -0.43913435667E+02 -0.10658174763E+02  0.48001825874E+02  0.51100000000E-03 0.  1.
         23    2    1    0    0    0  0.18684452141E+02 -0.31841555466E+02 -0.14974002025E+02  0.85160143789E+02  0.75266433070E+02 0.  0.
         11    1    3    3    0    0  0.34876696137E+02  0.12071880200E+02 -0.43158272618E+01  0.37158317914E+02  0.51100000000E-03 0. -1.
         22    1    1    0    0    0 -0.18684452141E+02  0.31841555466E+02  0.14974002025E+02  0.39839856211E+02  0.00000000000E+00 0.  1.
</event>
<event>
 5    1  0.1692171E-003  0.9118800E+02  0.7818608E-02  0.1130116E+00
         25   -1    0    0    0    0  0.00000000000E+00  0.00000000000E+00  0.99999998245E-14  0.12500000000E+03  0.12500000000E+03 0.  0.
        -11    1    3    3    0    0 -0.25921578817E+01 -0.99137937564E+01  0.38277320911E+02  0.39625192561E+02  0.51100000000E-03 0.  1.
         23    2    1    0    0    0  0.32509446555E+02  0.63605994208E+01  0.34272119349E+01  0.91697340618E+02  0.85436146650E+02 0.  0.
         11    1    3    3    0    0  0.35101604436E+02  0.16274393177E+02 -0.34850108976E+02  0.52072148056E+02  0.51100000000E-03 0. -1.
         22    1    1    0    0    0 -0.32509446555E+02 -0.63605994208E+01 -0.34272119349E+01  0.33302659382E+02  0.00000000000E+00 0. -1.
</event>
<event>
 5    1  0.1692171E-003  0.9118800E+02  0.7818608E-02  0.1130116E+00
         25   -1    0    0    0    0  0.00000000000E+00  0.00000000000E+00  0.99999998245E-14  0.12500000000E+03  0.12500000000E+03 0.  0.
        -11    1    3    3    0    0  0.50988124147E+02 -0.31357394265E+02  0.31557431768E+01  0.59941919342E+02  0.51100000000E-03 0. -1.
         23    2    1    0    0    0  0.25481478033E+02 -0.10512836544E+02 -0.10366790672E+02  0.95550113688E+02  0.90898451153E+02 0.  0.
         11    1    3    3    0    0 -0.25506646114E+02  0.20844557722E+02 -0.13522533849E+02  0.35608194345E+02  0.51100000000E-03 0.  1.
         22    1    1    0    0    0 -0.25481478033E+02  0.10512836544E+02  0.10366790672E+02  0.29449886312E+02  0.00000000000E+00 0. -1.
</event>
<event>
 5    1  0.1692171E-003  0.9118800E+02  0.7818608E-02  0.1130116E+00
         25   -1    0    0    0    0  0.00000000000E+00  0.00000000000E+00  0.99999998245E-14  0.12500000000E+03  0.12500000000E+03 0.  0.
        -11    1    3    3    0    0  0.23176929557E+02 -0.10475930850E+02  0.41551860254E+02  0.48718295143E+02  0.51100000000E-03 0. -1.
         23    2    1    0    0    0 -0.69078974738E+01  0.65693879963E+01  0.40585657595E+02  0.83309815201E+02  0.72128037546E+02 0.  0.
         11    1    3    3    0    0 -0.30084827031E+02  0.17045318846E+02 -0.96620265822E+00  0.34591520058E+02  0.51100000000E-03 0.  1.
         22    1    1    0    0    0  0.69078974738E+01 -0.65693879963E+01 -0.40585657595E+02  0.41690184799E+02  0.00000000000E+00 0. -1.
</event>
<event>
 5    1  0.1692171E-003  0.9118800E+02  0.7818608E-02  0.1130116E+00
         25   -1    0    0    0    0  0.00000000000E+00  0.00000000000E+00  0.99999998245E-14  0.12500000000E+03  0.12500000000E+03 0.  0.
        -11    1    3    3    0    0  0.12857000751E+01 -0.48902376049E+02  0.38282415974E+02  0.62117942505E+02  0.51100000000E-03 0. -1.
         23    2    1    0    0    0  0.42274613904E+01 -0.22457070110E+02  0.21800660806E+02  0.93417406071E+02  0.87916730590E+02 0.  0.
         11    1    3    3    0    0  0.29417613153E+01  0.26445305939E+02 -0.16481755168E+02  0.31299463566E+02  0.51100000000E-03 0.  1.
         22    1    1    0    0    0 -0.42274613904E+01  0.22457070110E+02 -0.21800660806E+02  0.31582593929E+02  0.00000000000E+00 0. -1.
</event>
<event>
 5    1  0.1692171E-003  0.9118800E+02  0.7818608E-02  0.1130116E+00
         25   -1    0    0    0    0  0.00000000000E+00  0.00000000000E+00  0.99999998245E-14  0.12500000000E+03  0.12500000000E+03 0.  0.
        -11    1    3    3    0    0  0.16717724719E+02  0.36379964010E+02  0.17885025574E+01  0.40077211016E+02  0.51100000000E-03 0.  1.
         23    2    1    0    0    0 -0.22563926205E+02 -0.32921132002E-01 -0.16902567308E+02  0.96807294717E+02  0.92611142306E+02 0.  0.
         11    1    3    3    0    0 -0.39281650924E+02 -0.36412885142E+02 -0.18691069865E+02  0.56730083701E+02  0.51100000000E-03 0. -1.
         22    1    1    0    0    0  0.22563926205E+02  0.32921132002E-01  0.16902567308E+02  0.28192705283E+02  0.00000000000E+00 0. -1.
</event>
<event>
 5    1  0.1692171E-003  0.9118800E+02  0.7818608E-02  0.1130116E+00
         25   -1    0    0    0    0  0.00000000000E+00  0.00000000000E+00  0.99999998245E-14  0.12500000000E+03  0.12500000000E+03 0.  0.
        -11    1    3    3    0    0  0.24343726658E+02  0.55458120609E+01  0.23560425630E+02  0.34328802996E+02  0.51100000000E-03 0.  1.
         23    2    1    0    0    0 -0.69061486099E+01 -0.14417315223E+01 -0.28604698898E+02  0.95538121624E+02  0.90881958639E+02 0.  0.
         11    1    3    3    0    0 -0.31249875268E+02 -0.69875435832E+01 -0.52165124528E+02  0.61209318628E+02  0.51100000000E-03 0. -1.
         22    1    1    0    0    0  0.69061486099E+01  0.14417315223E+01  0.28604698898E+02  0.29461878376E+02  0.00000000000E+00 0. -1.
</event>
<event>
 5    1  0.1692171E-003  0.9118800E+02  0.7818608E-02  0.1130116E+00
         25   -1    0    0    0    0  0.00000000000E+00  0.00000000000E+00  0.99999998245E-14  0.12500000000E+03  0.12500000000E+03 0.  0.
        -11    1    3    3    0    0 -0.45840826108E+02  0.19018932005E+02  0.26479154298E+02  0.56251637536E+02  0.51100000000E-03 0.  1.
         23    2    1    0    0    0 -0.26373758460E+02 -0.91529373400E+01  0.50998186276E+01  0.96621142601E+02  0.92359545528E+02 0.  0.
         11    1    3    3    0    0  0.19467067648E+02 -0.28171869345E+02 -0.21379335670E+02  0.40369505065E+02  0.51100000000E-03 0. -1.
         22    1    1    0    0    0  0.26373758460E+02  0.91529373400E+01 -0.50998186276E+01  0.28378857399E+02  0.00000000000E+00 0.  1.
</event>
<event>
 5    1  0.1692171E-003  0.9118800E+02  0.7818608E-02  0.1130116E+00
         25   -1    0    0    0    0  0.00000000000E+00  0.00000000000E+00  0.99999998245E-14  0.12500000000E+03  0.12500000000E+03 0.  0.
        -11    1    3    3    0    0  0.67861601657E+01 -0.30049610341E+02  0.27686979512E+02  0.41419800654E+02  0.51100000000E-03 0.  1.
         23    2    1    0    0    0  0.27367540085E+02  0.71666721506E+01 -0.64849824836E+01  0.95975899018E+02  0.91482100733E+02 0.  0.
         11    1    3    3    0    0  0.20581379919E+02  0.37216282492E+02 -0.34171961995E+02  0.54556098364E+02  0.51100000000E-03 0. -1.
         22    1    1    0    0    0 -0.27367540085E+02 -0.71666721506E+01  0.64849824836E+01  0.29024100982E+02  0.00000000000E+00 0. -1.
</event>
<event>
 5    1  0.1692171E-003  0.9118800E+02  0.7818608E-02  0.1130116E+00
         25   -1    0    0    0    0  0.00000000000E+00  0.00000000000E+00  0.99999998245E-14  0.12500000000E+03  0.12500000000E+03 0.  0.
        -11    1    3    3    0    0 -0.96084793494E+01  0.39380270021E+02 -0.37611855694E+01  0.40709643323E+02  0.51100000000E-03 0.  1.
         23    2    1    0    0    0 -0.61016577205E+01 -0.38070557410E+01  0.29057921054E+02  0.95065293115E+02  0.90229281714E+02 0.  0.
         11    1    3    3    0    0  0.35068216289E+01 -0.43187325762E+02  0.32819106623E+02  0.54355649791E+02  0.51100000000E-03 0. -1.
         22    1    1    0    0    0  0.61016577205E+01  0.38070557410E+01 -0.29057921054E+02  0.29934706885E+02  0.00000000000E+00 0. -1.
</event>
<event>
 5    1  0.1692171E-003  0.9118800E+02  0.7818608E-02  0.1130116E+00
         25   -1    0    0    0    0  0.00000000000E+00  0.00000000000E+00  0.99999998245E-14  0.12500000000E+03  0.12500000000E+03 0.  0.
        -11    1    3    3    0    0 -0.61034203568E+01 -0.33019095241E+02  0.20165630003E+02  0.39168418710E+02  0.51100000000E-03 0.  1.
         23    2    1    0    0    0 -0.95454117534E+01 -0.42355952440E+01 -0.27850156431E+02  0.95256322254E+02  0.90493538795E+02 0.  0.
         11    1    3    3    0    0 -0.34419913966E+01  0.28783499997E+02 -0.48015786434E+02  0.56087903544E+02  0.51100000000E-03 0. -1.
         22    1    1    0    0    0  0.95454117534E+01  0.42355952440E+01  0.27850156431E+02  0.29743677746E+02  0.00000000000E+00 0. -1.
</event>
<event>
 5    1  0.1692171E-003  0.9118800E+02  0.7818608E-02  0.1130116E+00
         25   -1    0    0    0    0  0.00000000000E+00  0.00000000000E+00  0.99999998245E-14  0.12500000000E+03  0.12500000000E+03 0.  0.
        -11    1    3    3    0    0 -0.26163863281E+02 -0.46791802889E+02  0.24190541235E+02  0.58814988267E+02  0.51100000000E-03 0. -1.
         23    2    1    0    0    0 -0.28561995286E+01 -0.35577384128E+02  0.15321844719E+02  0.86158436402E+02  0.76906495828E+02 0.  0.
         11    1    3    3    0    0  0.23307663753E+02  0.11214418761E+02 -0.88686965157E+01  0.27343448135E+02  0.51100000000E-03 0.  1.
         22    1    1    0    0    0  0.28561995286E+01  0.35577384128E+02 -0.15321844719E+02  0.38841563598E+02  0.00000000000E+00 0. -1.
</event>
<event>
 5    1  0.1692171E-003  0.9118800E+02  0.7818608E-02  0.1130116E+00
         25   -1    0    0    0    0  0.00000000000E+00  0.00000000000E+00  0.99999998245E-14  0.12500000000E+03  0.12500000000E+03 0.  0.
        -11    1    3    3    0    0  0.22996516899E+02  0.14497578996E+02 -0.10443758603E+02  0.29122013671E+02  0.51100000000E-03 0.  1.
         23    2    1    0    0    0 -0.25266050553E+02 -0.19093078830E+02  0.10643694506E+02  0.91590312745E+02  0.85279412441E+02 0.  0.
         11    1    3    3    0    0 -0.48262567452E+02 -0.33590657827E+02  0.21087453108E+02  0.62468299074E+02  0.51100000000E-03 0. -1.
         22    1    1    0    0    0  0.25266050553E+02  0.19093078830E+02 -0.10643694506E+02  0.33409687255E+02  0.00000000000E+00 0. -1.
</event>
<event>
 5    1  0.1692171E-003  0.9118800E+02  0.7818608E-02  0.1130116E+00
         25   -1    0    0    0    0  0.00000000000E+00  0.00000000000E+00  0.99999998245E-14  0.12500000000E+03  0.12500000000E+03 0.  0.
        -11    1    3    3    0    0  0.16043186002E+02 -0.98632651286E+01 -0.33284772262E+02  0.38243220064E+02  0.51100000000E-03 0.  1.
         23    2    1    0    0    0 -0.33807499774E+01  0.29070021160E+02  0.38968494987E+01  0.95475755104E+02  0.90796138553E+02 0.  0.
         11    1    3    3    0    0 -0.19423935979E+02  0.38933286288E+02  0.37181621761E+02  0.57232535040E+02  0.51100000000E-03 0. -1.
         22    1    1    0    0    0  0.33807499774E+01 -0.29070021160E+02 -0.38968494987E+01  0.29524244896E+02  0.00000000000E+00 0. -1.
</event>
<event>
 5    1  0.1692171E-003  0.9118800E+02  0.7818608E-02  0.1130116E+00
         25   -1    0    0    0    0  0.00000000000E+00  0.00000000000E+00  0.99999998245E-14  0.12500000000E+03  0.12500000000E+03 0.  0.
        -11    1    3    3    0    0  0.42253122115E+02 -0.12620953129E+02 -0.17182472345E+02  0.47327076209E+02  0.51100000000E-03 0.  1.
         23    2    1    0    0    0  0.18473173411E+02 -0.46308286643E+01  0.23272086193E+02  0.94928540012E+02  0.90039630181E+02 0.  0.
         11    1    3    3    0    0 -0.23779948704E+02  0.79901244651E+01  0.40454558539E+02  0.47601463803E+02  0.51100000000E-03 0. -1.
         22    1    1    0    0    0 -0.18473173411E+02  0.46308286643E+01 -0.23272086193E+02  0.30071459988E+02  0.00000000000E+00 0. -1.
</event>
<event>
 5    1  0.1692171E-003  0.9118800E+02  0.7818608E-02  0.1130116E+00
         25   -1    0    0    0    0  0.00000000000E+00  0.00000000000E+00  0.99999998245E-14  0.12500000000E+03  0.12500000000E+03 0.  0.
        -11    1    3    3    0    0 -0.30223412366E+02  0.12036436821E+02 -0.21733776201E+02  0.39124001515E+02  0.51100000000E-03 0.  1.
         23    2    1    0    0    0  0.22361404614E+02 -0.70519107560E+01 -0.18453387840E+02  0.95162282521E+02  0.90363547021E+02 0.  0.
         11    1    3    3    0    0  0.52584816980E+02 -0.19088347577E+02  0.32803883610E+01  0.56038281005E+02  0.51100000000E-03 0. -1.
         22    1    1    0    0    0 -0.22361404614E+02  0.70519107560E+01  0.18453387840E+02  0.29837717479E+02  0.00000000000E+00 0. -1.
</event>
<event>
 5    1  0.1692171E-003  0.9118800E+02  0.7818608E-02  0.1130116E+00
         25   -1    0    0    0    0  0.00000000000E+00  0.00000000000E+00  0.99999998245E-14  0.12500000000E+03  0.12500000000E+03 0.  0.
        -11    1    3    3    0    0  0.21633957319E+02 -0.23453410016E+02  0.14046330822E+02  0.34862443409E+02  0.51100000000E-03 0.  1.
         23    2    1    0    0    0 -0.76315113332E+00  0.25783205897E+02 -0.13848700557E+02  0.95723001979E+02  0.91135890268E+02 0.  0.
         11    1    3    3    0    0 -0.22397108452E+02  0.49236615913E+02 -0.27895031379E+02  0.60860558570E+02  0.51100000000E-03 0. -1.
         22    1    1    0    0    0  0.76315113332E+00 -0.25783205897E+02  0.13848700557E+02  0.29276998021E+02  0.00000000000E+00 0. -1.
</event>
<event>
 5    1  0.1692171E-003  0.9118800E+02  0.7818608E-02  0.1130116E+00
         25   -1    0    0    0    0  0.00000000000E+00  0.00000000000E+00  0.99999998245E-14  0.12500000000E+03  0.12500000000E+03 0.  0.
        -11    1    3    3    0    0 -0.49485171870E+02  0.31443168574E+01 -0.34126951046E+02  0.60194000959E+02  0.51100000000E-03 0.  1.
         23    2    1    0    0    0 -0.42828686315E+02 -0.20858969242E+00 -0.16912835879E+02  0.78952373583E+02  0.64133403120E+02 0.  0.
         11    1    3    3    0    0  0.66564855545E+01 -0.33529065498E+01  0.17214115167E+02  0.18758372624E+02  0.51100000000E-03 0. -1.
         22    1    1    0    0    0  0.42828686315E+02  0.20858969242E+00  0.16912835879E+02  0.46047626417E+02  0.00000000000E+00 0.  1.
</event>
<event>
 5    1  0.1692171E-003  0.9118800E+02  0.7818608E-02  0.1130116E+00
         25   -1    0    0    0    0  0.00000000000E+00  0.00000000000E+00  0.99999998245E-14  0.12500000000E+03  0.12500000000E+03 0.  0.
        -11    1    3    3    0    0 -0.32759433697E+02  0.36598204446E+02  0.21798612565E+02  0.53738148227E+02  0.51100000000E-03 0.  1.
         23    2    1    0    0    0 -0.10078341146E+02  0.11694760139E+01  0.27029450721E+02  0.96129048497E+02  0.91691123476E+02 0.  0.
         11    1    3    3    0    0  0.22681092551E+02 -0.35428728432E+02  0.52308381560E+01  0.42390900270E+02  0.51100000000E-03 0. -1.
         22    1    1    0    0    0  0.10078341146E+02 -0.11694760139E+01 -0.27029450721E+02  0.28870951503E+02  0.00000000000E+00 0.  1.
</event>
<event>
 5    1  0.1692171E-003  0.9118800E+02  0.7818608E-02  0.1130116E+00
         25   -1    0    0    0    0  0.00000000000E+00  0.00000000000E+00  0.99999998245E-14  0.12500000000E+03  0.12500000000E+03 0.  0.
        -11    1    3    3    0    0 -0.21015973720E+02  0.24871420028E+02  0.75164338398E+01  0.33417891369E+02  0.51100000000E-03 0.  1.
         23    2    1    0    0    0  0.11153692329E+02 -0.24254425062E+02 -0.12586842353E+02  0.95485417366E+02  0.90809439716E+02 0.  0.
         11    1    3    3    0    0  0.32169666049E+02 -0.49125845089E+02 -0.20103276193E+02  0.62067525997E+02  0.51100000000E-03 0. -1.
         22    1    1    0    0    0 -0.11153692329E+02  0.24254425062E+02  0.12586842353E+02  0.29514582634E+02  0.00000000000E+00 0. -1.
</event>
<event>
 5    1  0.1692171E-003  0.9118800E+02  0.7818608E-02  0.1130116E+00
         25   -1    0    0    0    0  0.00000000000E+00  0.00000000000E+00  0.99999998245E-14  0.12500000000E+03  0.12500000000E+03 0.  0.
        -11    1    3    3    0    0 -0.29781218501E+02  0.91724431560E+01 -0.43088080679E+02  0.53175533713E+02  0.51100000000E-03 0.  1.
         23    2    1    0    0    0  0.91683756893E+01  0.12597743657E+02 -0.23228516044E+02  0.97029904976E+02  0.92911120131E+02 0.  0.
         11    1    3    3    0    0  0.38949594190E+02  0.34253005008E+01  0.19859564635E+02  0.43854371263E+02  0.51100000000E-03 0. -1.
         22    1    1    0    0    0 -0.91683756893E+01 -0.12597743657E+02  0.23228516044E+02  0.27970095024E+02  0.00000000000E+00 0.  1.
</event>
<event>
 5    1  0.1692171E-003  0.9118800E+02  0.7818608E-02  0.1130116E+00
         25   -1    0    0    0    0  0.00000000000E+00  0.00000000000E+00  0.99999998245E-14  0.12500000000E+03  0.12500000000E+03 0.  0.
        -11    1    3    3    0    0 -0.34941691344E+02 -0.21749011850E+02 -0.73654288238E+01  0.41811372286E+02  0.51100000000E-03 0.  1.
         23    2    1    0    0    0  0.15702805368E+02 -0.10581024826E+02 -0.22266614280E+02  0.95770934085E+02  0.91201609203E+02 0.  0.
         11    1    3    3    0    0  0.50644496711E+02  0.11167987023E+02 -0.14901185456E+02  0.53959561799E+02  0.51100000000E-03 0. -1.
         22    1    1    0    0    0 -0.15702805368E+02  0.10581024826E+02  0.22266614280E+02  0.29229065915E+02  0.00000000000E+00 0. -1.
</event>
<event>
 5    1  0.1692171E-003  0.9118800E+02  0.7818608E-02  0.1130116E+00
         25   -1    0    0    0    0  0.00000000000E+00  0.00000000000E+00  0.99999998245E-14  0.12500000000E+03  0.12500000000E+03 0.  0.
        -11    1    3    3    0    0  0.32508127091E+02 -0.13660394439E+02 -0.41576985355E+01  0.35505931343E+02  0.51100000000E-03 0.  1.
         23    2    1    0    0    0 -0.26358052020E+02 -0.15183957611E+02 -0.33499055201E+01  0.94397363807E+02  0.89299165459E+02 0.  0.
         11    1    3    3    0    0 -0.58866179110E+02 -0.15235631714E+01  0.80779301539E+00  0.58891432463E+02  0.51100000000E-03 0. -1.
         22    1    1    0    0    0  0.26358052020E+02  0.15183957611E+02  0.33499055201E+01  0.30602636193E+02  0.00000000000E+00 0. -1.
</event>
<event>
 5    1  0.1692171E-003  0.9118800E+02  0.7818608E-02  0.1130116E+00
         25   -1    0    0    0    0  0.00000000000E+00  0.00000000000E+00  0.99999998245E-14  0.12500000000E+03  0.12500000000E+03 0.  0.
        -11    1    3    3    0    0  0.10094390702E+02  0.20137219622E+02 -0.47240928787E+02  0.52336504379E+02  0.51100000000E-03 0.  1.
         23    2    1    0    0    0 -0.42791848380E+01  0.29733928754E+02 -0.10090452256E+02  0.93310330252E+02  0.87764358159E+02 0.  0.
         11    1    3    3    0    0 -0.14373575540E+02  0.95967091312E+01  0.37150476531E+02  0.40973825873E+02  0.51100000000E-03 0. -1.
         22    1    1    0    0    0  0.42791848380E+01 -0.29733928754E+02  0.10090452256E+02  0.31689669748E+02  0.00000000000E+00 0.  1.
</event>
<event>
 5    1  0.1692171E-003  0.9118800E+02  0.7818608E-02  0.1130116E+00
         25   -1    0    0    0    0  0.00000000000E+00  0.00000000000E+00  0.99999998245E-14  0.12500000000E+03  0.12500000000E+03 0.  0.
        -11    1    3    3    0    0  0.19163984705E+00  0.17543142433E+00 -0.37071094673E+02  0.37072005105E+02  0.51100000000E-03 0. -1.
         23    2    1    0    0    0  0.18839095478E+02 -0.29060806010E+01  0.20107370156E+02  0.97293265125E+02  0.93264764414E+02 0.  0.
         11    1    3    3    0    0  0.18647455631E+02 -0.30815120253E+01  0.57178464829E+02  0.60221260019E+02  0.51100000000E-03 0.  1.
         22    1    1    0    0    0 -0.18839095478E+02  0.29060806010E+01 -0.20107370156E+02  0.27706734875E+02  0.00000000000E+00 0.  1.
</event>
<event>
 5    1  0.1692171E-003  0.9118800E+02  0.7818608E-02  0.1130116E+00
         25   -1    0    0    0    0  0.00000000000E+00  0.00000000000E+00  0.99999998245E-14  0.12500000000E+03  0.12500000000E+03 0.  0.
        -11    1    3    3    0    0 -0.24282748152E+02 -0.34842713352E+02 -0.32039051025E+02  0.53199316936E+02  0.51100000000E-03 0. -1.
         23    2    1    0    0    0 -0.29195274336E+02 -0.12912448603E+02  0.88745678921E+00  0.93064393665E+02  0.87413376643E+02 0.  0.
         11    1    3    3    0    0 -0.49125261839E+01  0.21930264749E+02  0.32926507815E+02  0.39865076729E+02  0.51100000000E-03 0.  1.
         22    1    1    0    0    0  0.29195274336E+02  0.12912448603E+02 -0.88745678921E+00  0.31935606335E+02  0.00000000000E+00 0. -1.
</event>
<event>
 5    1  0.1692171E-003  0.9118800E+02  0.7818608E-02  0.1130116E+00
         25   -1    0    0    0    0  0.00000000000E+00  0.00000000000E+00  0.99999998245E-14  0.12500000000E+03  0.12500000000E+03 0.  0.
        -11    1    3    3    0    0  0.34992320432E+02 -0.38786770057E+02  0.21421551110E+02  0.56460241523E+02  0.51100000000E-03 0.  1.
         23    2    1    0    0    0  0.17586215506E+02 -0.20655683435E+02 -0.94534375231E+01  0.96271969872E+02  0.91885757700E+02 0.  0.
         11    1    3    3    0    0 -0.17406104925E+02  0.18131086622E+02 -0.30874988633E+02  0.39811728349E+02  0.51100000000E-03 0. -1.
         22    1    1    0    0    0 -0.17586215506E+02  0.20655683435E+02  0.94534375231E+01  0.28728030128E+02  0.00000000000E+00 0.  1.
</event>
<event>
 5    1  0.1692171E-003  0.9118800E+02  0.7818608E-02  0.1130116E+00
         25   -1    0    0    0    0  0.00000000000E+00  0.00000000000E+00  0.99999998245E-14  0.12500000000E+03  0.12500000000E+03 0.  0.
        -11    1    3    3    0    0  0.64422039274E+01  0.41804342250E+02 -0.19892065428E+02  0.46741836610E+02  0.51100000000E-03 0. -1.
         23    2    1    0    0    0  0.25017105455E+02  0.12458324101E+02  0.12638019969E+02  0.94327782058E+02  0.89201712509E+02 0.  0.
         11    1    3    3    0    0  0.18574901527E+02 -0.29346018150E+02  0.32530085397E+02  0.47585945448E+02  0.51100000000E-03 0.  1.
         22    1    1    0    0    0 -0.25017105455E+02 -0.12458324101E+02 -0.12638019969E+02  0.30672217942E+02  0.00000000000E+00 0.  1.
</event>
<event>
 5    1  0.1692171E-003  0.9118800E+02  0.7818608E-02  0.1130116E+00
         25   -1    0    0    0    0  0.00000000000E+00  0.00000000000E+00  0.99999998245E-14  0.12500000000E+03  0.12500000000E+03 0.  0.
        -11    1    3    3    0    0 -0.52837647907E+02 -0.25387511341E+02  0.12842782162E+02  0.60010664239E+02  0.51100000000E-03 0. -1.
         23    2    1    0    0    0 -0.18487439548E+02 -0.17970184837E+02  0.14916758670E+02  0.95213717027E+02  0.90434668445E+02 0.  0.
         11    1    3    3    0    0  0.34350208359E+02  0.74173265044E+01  0.20739765088E+01  0.35203052788E+02  0.51100000000E-03 0.  1.
         22    1    1    0    0    0  0.18487439548E+02  0.17970184837E+02 -0.14916758670E+02  0.29786282973E+02  0.00000000000E+00 0. -1.
</event>
<event>
 5    1  0.1692171E-003  0.9118800E+02  0.7818608E-02  0.1130116E+00
         25   -1    0    0    0    0  0.00000000000E+00  0.00000000000E+00  0.99999998245E-14  0.12500000000E+03  0.12500000000E+03 0.  0.
        -11    1    3    3    0    0 -0.20914286409E+02 -0.22433238655E+02 -0.23736165555E+02  0.38782252746E+02  0.51100000000E-03 0. -1.
         23    2    1    0    0    0  0.28041864363E+02  0.20088932105E+01 -0.95309163902E+01  0.95314647112E+02  0.90574067911E+02 0.  0.
         11    1    3    3    0    0  0.48956150772E+02  0.24442131866E+02  0.14205249165E+02  0.56532394365E+02  0.51100000000E-03 0.  1.
         22    1    1    0    0    0 -0.28041864363E+02 -0.20088932105E+01  0.95309163902E+01  0.29685352888E+02  0.00000000000E+00 0.  1.
</event>
<event>
 5    1  0.1692171E-003  0.9118800E+02  0.7818608E-02  0.1130116E+00
         25   -1    0    0    0    0  0.00000000000E+00  0.00000000000E+00  0.99999998245E-14  0.12500000000E+03  0.12500000000E+03 0.  0.
        -11    1    3    3    0    0  0.17873876993E+01  0.41210855119E+02  0.31992263581E+02  0.52201860730E+02  0.51100000000E-03 0. -1.
         23    2    1    0    0    0 -0.97959340630E+01  0.26544738559E+02 -0.73577844488E+01  0.95764397367E+02  0.91192649603E+02 0.  0.
         11    1    3    3    0    0 -0.11583321762E+02 -0.14666116560E+02 -0.39350048030E+02  0.43562536636E+02  0.51100000000E-03 0.  1.
         22    1    1    0    0    0  0.97959340630E+01 -0.26544738559E+02  0.73577844488E+01  0.29235602633E+02  0.00000000000E+00 0. -1.
</event>
<event>
 5    1  0.1692171E-003  0.9118800E+02  0.7818608E-02  0.1130116E+00
         25   -1    0    0    0    0  0.00000000000E+00  0.00000000000E+00  0.99999998245E-14  0.12500000000E+03  0.12500000000E+03 0.  0.
        -11    1    3    3    0    0 -0.20044173180E+02 -0.46255118869E+01  0.97646078507E+01  0.22770854297E+02  0.51100000000E-03 0. -1.
         23    2    1    0    0    0  0.24442707256E+02  0.11783640576E+02 -0.29923699781E+02  0.84605347732E+02  0.74339336377E+02 0.  0.
         11    1    3    3    0    0  0.44486880436E+02  0.16409152463E+02 -0.39688307632E+02  0.61834493435E+02  0.51100000000E-03 0.  1.
         22    1    1    0    0    0 -0.24442707256E+02 -0.11783640576E+02  0.29923699781E+02  0.40394652268E+02  0.00000000000E+00 0.  1.
</event>
<event>
 5    1  0.1692171E-003  0.9118800E+02  0.7818608E-02  0.1130116E+00
         25   -1    0    0    0    0  0.00000000000E+00  0.00000000000E+00  0.99999998245E-14  0.12500000000E+03  0.12500000000E+03 0.  0.
        -11    1    3    3    0    0  0.26960009410E+02  0.75402153053E+01 -0.38535292335E+02  0.47630512383E+02  0.51100000000E-03 0.  1.
         23    2    1    0    0    0  0.14278317325E+02 -0.24734406853E+02 -0.47437812261E+01  0.96048925956E+02  0.91581829469E+02 0.  0.
         11    1    3    3    0    0 -0.12681692085E+02 -0.32274622158E+02  0.33791511109E+02  0.48418413573E+02  0.51100000000E-03 0. -1.
         22    1    1    0    0    0 -0.14278317325E+02  0.24734406853E+02  0.47437812261E+01  0.28951074044E+02  0.00000000000E+00 0.  1.
</event>
<event>
 5    1  0.1692171E-003  0.9118800E+02  0.7818608E-02  0.1130116E+00
         25   -1    0    0    0    0  0.00000000000E+00  0.00000000000E+00  0.99999998245E-14  0.12500000000E+03  0.12500000000E+03 0.  0.
        -11    1    3    3    0    0  0.25102368122E+02  0.30177283126E+02 -0.39128817900E+02  0.55424378145E+02  0.51100000000E-03 0.  1.
         23    2    1    0    0    0  0.28065612431E+02  0.37073877490E+01 -0.98010811532E+01  0.95041954055E+02  0.90196942930E+02 0.  0.
         11    1    3    3    0    0  0.29632443085E+01 -0.26469895377E+02  0.29327736747E+02  0.39617575911E+02  0.51100000000E-03 0. -1.
         22    1    1    0    0    0 -0.28065612431E+02 -0.37073877490E+01  0.98010811532E+01  0.29958045945E+02  0.00000000000E+00 0.  1.
</event>
<event>
 5    1  0.1692171E-003  0.9118800E+02  0.7818608E-02  0.1130116E+00
         25   -1    0    0    0    0  0.00000000000E+00  0.00000000000E+00  0.99999998245E-14  0.12500000000E+03  0.12500000000E+03 0.  0.
        -11    1    3    3    0    0 -0.27096644808E+02  0.52296722510E+02 -0.48297533369E+01  0.59097393028E+02  0.51100000000E-03 0.  1.
         23    2    1    0    0    0 -0.18491189629E+02  0.18281555042E+02 -0.14143986044E+02  0.95399464703E+02  0.90691047936E+02 0.  0.
         11    1    3    3    0    0  0.86054551784E+01 -0.34015167468E+02 -0.93142327072E+01  0.36302071675E+02  0.51100000000E-03 0. -1.
         22    1    1    0    0    0  0.18491189629E+02 -0.18281555042E+02  0.14143986044E+02  0.29600535297E+02  0.00000000000E+00 0.  1.
</event>
<event>
 5    1  0.1692171E-003  0.9118800E+02  0.7818608E-02  0.1130116E+00
         25   -1    0    0    0    0  0.00000000000E+00  0.00000000000E+00  0.99999998245E-14  0.12500000000E+03  0.12500000000E+03 0.  0.
        -11    1    3    3    0    0 -0.51021448771E+02 -0.29913218291E+02  0.12312149634E+02  0.60411736377E+02  0.51100000000E-03 0.  1.
         23    2    1    0    0    0 -0.30790429354E+02 -0.64143922041E+01  0.11751890824E+02  0.91424683098E+02  0.85036290926E+02 0.  0.
         11    1    3    3    0    0  0.20231019417E+02  0.23498826087E+02 -0.56025881013E+00  0.31012946721E+02  0.51100000000E-03 0. -1.
         22    1    1    0    0    0  0.30790429354E+02  0.64143922041E+01 -0.11751890824E+02  0.33575316902E+02  0.00000000000E+00 0.  1.
</event>
<event>
 5    1  0.1692171E-003  0.9118800E+02  0.7818608E-02  0.1130116E+00
         25   -1    0    0    0    0  0.00000000000E+00  0.00000000000E+00  0.99999998245E-14  0.12500000000E+03  0.12500000000E+03 0.  0.
        -11    1    3    3    0    0 -0.31248565480E+02 -0.18564169181E+02 -0.46281873360E+01  0.36640433134E+02  0.51100000000E-03 0.  1.
         23    2    1    0    0    0  0.91889974679E+01  0.25127341655E+02  0.71038164798E+01  0.97318143457E+02  0.93298102147E+02 0.  0.
         11    1    3    3    0    0  0.40437562948E+02  0.43691510836E+02  0.11732003816E+02  0.60677710323E+02  0.51100000000E-03 0. -1.
         22    1    1    0    0    0 -0.91889974679E+01 -0.25127341655E+02 -0.71038164798E+01  0.27681856543E+02  0.00000000000E+00 0. -1.
</event>
<event>
 5    1  0.1692171E-003  0.9118800E+02  0.7818608E-02  0.1130116E+00
         25   -1    0    0    0    0  0.00000000000E+00  0.00000000000E+00  0.99999998245E-14  0.12500000000E+03  0.12500000000E+03 0.  0.
        -11    1    3    3    0    0 -0.38388976434E+02  0.34271679883E+02 -0.67452932021E+01  0.51901450214E+02  0.51100000000E-03 0.  1.
         23    2    1    0    0    0 -0.24660429925E+02 -0.65516251544E+01  0.92697276203E+01  0.97852468871E+02  0.94011261121E+02 0.  0.
         11    1    3    3    0    0  0.13728546509E+02 -0.40823305037E+02  0.16015020822E+02  0.45951018657E+02  0.51100000000E-03 0. -1.
         22    1    1    0    0    0  0.24660429925E+02  0.65516251544E+01 -0.92697276203E+01  0.27147531129E+02  0.00000000000E+00 0. -1.
</event>
<event>
 5    1  0.1692171E-003  0.9118800E+02  0.7818608E-02  0.1130116E+00
         25   -1    0    0    0    0  0.00000000000E+00  0.00000000000E+00  0.99999998245E-14  0.12500000000E+03  0.12500000000E+03 0.  0.
        -11    1    3    3    0    0  0.37884621404E+02  0.67915958647E+01 -0.28524504446E+02  0.47906342665E+02  0.51100000000E-03 0. -1.
         23    2    1    0    0    0  0.15136193381E+02 -0.26845900493E+02 -0.15141708536E+02  0.90662293892E+02  0.83908125191E+02 0.  0.
         11    1    3    3    0    0 -0.22748428023E+02 -0.33637496358E+02  0.13382795910E+02  0.42755951228E+02  0.51100000000E-03 0.  1.
         22    1    1    0    0    0 -0.15136193381E+02  0.26845900493E+02  0.15141708536E+02  0.34337706108E+02  0.00000000000E+00 0.  1.
</event>
<event>
 5    1  0.1692171E-003  0.9118800E+02  0.7818608E-02  0.1130116E+00
         25   -1    0    0    0    0  0.00000000000E+00  0.00000000000E+00  0.99999998245E-14  0.12500000000E+03  0.12500000000E+03 0.  0.
        -11    1    3    3    0    0  0.22520676444E+02 -0.54502919812E+02  0.16923126868E+01  0.58996720739E+02  0.51100000000E-03 0. -1.
         23    2    1    0    0    0  0.23802229333E+02 -0.19037363858E+02  0.14576231986E+01  0.94486199691E+02  0.89423430502E+02 0.  0.
         11    1    3    3    0    0  0.12815528893E+01  0.35465555953E+02 -0.23468948811E+00  0.35489478952E+02  0.51100000000E-03 0.  1.
         22    1    1    0    0    0 -0.23802229333E+02  0.19037363858E+02 -0.14576231986E+01  0.30513800309E+02  0.00000000000E+00 0. -1.
</event>
<event>
 5    1  0.1692171E-003  0.9118800E+02  0.7818608E-02  0.1130116E+00
         25   -1    0    0    0    0  0.00000000000E+00  0.00000000000E+00  0.99999998245E-14  0.12500000000E+03  0.12500000000E+03 0.  0.
        -11    1    3    3    0    0 -0.44248967708E+01  0.45808545812E+01 -0.41496328294E+02  0.41982248657E+02  0.51100000000E-03 0.  1.
         23    2    1    0    0    0 -0.28402076465E+02  0.93255450465E+01  0.51702721648E+01  0.94662309709E+02  0.89669266904E+02 0.  0.
         11    1    3    3    0    0 -0.23977179695E+02  0.47446904652E+01  0.46666600459E+02  0.52680061052E+02  0.51100000000E-03 0. -1.
         22    1    1    0    0    0  0.28402076465E+02 -0.93255450465E+01 -0.51702721648E+01  0.30337690291E+02  0.00000000000E+00 0. -1.
</event>
<event>
 5    1  0.1692171E-003  0.9118800E+02  0.7818608E-02  0.1130116E+00
         25   -1    0    0    0    0  0.00000000000E+00  0.00000000000E+00  0.99999998245E-14  0.12500000000E+03  0.12500000000E+03 0.  0.
        -11    1    3    3    0    0  0.37530258011E+02  0.17074947136E+02  0.31987894574E+01  0.41355850134E+02  0.51100000000E-03 0. -1.
         23    2    1    0    0    0 -0.16276542722E+02  0.20888477289E+02  0.11852420388E+02  0.95987344218E+02  0.91497737975E+02 0.  0.
         11    1    3    3    0    0 -0.53806800733E+02  0.38135301532E+01  0.86536309303E+01  0.54631494084E+02  0.51100000000E-03 0.  1.
         22    1    1    0    0    0  0.16276542722E+02 -0.20888477289E+02 -0.11852420388E+02  0.29012655782E+02  0.00000000000E+00 0.  1.
</event>
<event>
 5    1  0.1692171E-003  0.9118800E+02  0.7818608E-02  0.1130116E+00
         25   -1    0    0    0    0  0.00000000000E+00  0.00000000000E+00  0.99999998245E-14  0.12500000000E+03  0.12500000000E+03 0.  0.
        -11    1    3    3    0    0 -0.52998883205E+02  0.16823363221E+02 -0.10054318277E+02  0.56506605696E+02  0.51100000000E-03 0.  1.
         23    2    1    0    0    0 -0.26901129376E+02 -0.10914279845E+02  0.27604888072E+00  0.95967802887E+02  0.91471037612E+02 0.  0.
         11    1    3    3    0    0  0.26097753829E+02 -0.27737643067E+02  0.10330367158E+02  0.39461197191E+02  0.51100000000E-03 0. -1.
         22    1    1    0    0    0  0.26901129376E+02  0.10914279845E+02 -0.27604888072E+00  0.29032197113E+02  0.00000000000E+00 0. -1.
</event>
<event>
 5    1  0.1692171E-003  0.9118800E+02  0.7818608E-02  0.1130116E+00
         25   -1    0    0    0    0  0.00000000000E+00  0.00000000000E+00  0.99999998245E-14  0.12500000000E+03  0.12500000000E+03 0.  0.
        -11    1    3    3    0    0 -0.34587022677E+02 -0.54406474924E+01  0.58189186744E+01  0.35492571020E+02  0.51100000000E-03 0. -1.
         23    2    1    0    0    0  0.24871694364E+02  0.48566257704E+01  0.13439035058E+02  0.96315585108E+02  0.91945072065E+02 0.  0.
         11    1    3    3    0    0  0.59458717041E+02  0.10297273263E+02  0.76201163832E+01  0.60823014088E+02  0.51100000000E-03 0.  1.
         22    1    1    0    0    0 -0.24871694364E+02 -0.48566257704E+01 -0.13439035058E+02  0.28684414892E+02  0.00000000000E+00 0.  1.
</event>
<event>
 5    1  0.1692171E-003  0.9118800E+02  0.7818608E-02  0.1130116E+00
         25   -1    0    0    0    0  0.00000000000E+00  0.00000000000E+00  0.99999998245E-14  0.12500000000E+03  0.12500000000E+03 0.  0.
        -11    1    3    3    0    0  0.16391105292E+02  0.40897002047E+02  0.52548131031E+01  0.44371682075E+02  0.51100000000E-03 0. -1.
         23    2    1    0    0    0 -0.20556852908E+02  0.32150991351E+01  0.16637707801E+02  0.98359159458E+02  0.94682574239E+02 0.  0.
         11    1    3    3    0    0 -0.36947958200E+02 -0.37681902912E+02  0.11382894698E+02  0.53987477383E+02  0.51100000000E-03 0.  1.
         22    1    1    0    0    0  0.20556852908E+02 -0.32150991351E+01 -0.16637707801E+02  0.26640840542E+02  0.00000000000E+00 0.  1.
</event>
<event>
 5    1  0.1692171E-003  0.9118800E+02  0.7818608E-02  0.1130116E+00
         25   -1    0    0    0    0  0.00000000000E+00  0.00000000000E+00  0.99999998245E-14  0.12500000000E+03  0.12500000000E+03 0.  0.
        -11    1    3    3    0    0 -0.33470982428E+02 -0.51351840802E+01 -0.35804833976E+02  0.49281466258E+02  0.51100000000E-03 0. -1.
         23    2    1    0    0    0  0.12893410035E+02 -0.39064917561E+01 -0.24531588587E+02  0.97012511031E+02  0.92887715861E+02 0.  0.
         11    1    3    3    0    0  0.46364392463E+02  0.12286923241E+01  0.11273245389E+02  0.47731044773E+02  0.51100000000E-03 0.  1.
         22    1    1    0    0    0 -0.12893410035E+02  0.39064917561E+01  0.24531588587E+02  0.27987488969E+02  0.00000000000E+00 0. -1.
</event>
<event>
 5    1  0.1692171E-003  0.9118800E+02  0.7818608E-02  0.1130116E+00
         25   -1    0    0    0    0  0.00000000000E+00  0.00000000000E+00  0.99999998245E-14  0.12500000000E+03  0.12500000000E+03 0.  0.
        -11    1    3    3    0    0 -0.23859214258E+01 -0.29328925570E+02 -0.17941128934E+02  0.34463931927E+02  0.51100000000E-03 0. -1.
         23    2    1    0    0    0 -0.72458222329E+01  0.27299802075E+02  0.59788288852E+01  0.96129123186E+02  0.91691225297E+02 0.  0.
         11    1    3    3    0    0 -0.48599008071E+01  0.56628727646E+02  0.23919957820E+02  0.61665191259E+02  0.51100000000E-03 0.  1.
         22    1    1    0    0    0  0.72458222329E+01 -0.27299802075E+02 -0.59788288852E+01  0.28870876814E+02  0.00000000000E+00 0.  1.
</event>
<event>
 5    1  0.1692171E-003  0.9118800E+02  0.7818608E-02  0.1130116E+00
         25   -1    0    0    0    0  0.00000000000E+00  0.00000000000E+00  0.99999998245E-14  0.12500000000E+03  0.12500000000E+03 0.  0.
        -11    1    3    3    0    0 -0.29878623668E+01 -0.37649641909E+02 -0.36247062212E+02  0.52347610993E+02  0.51100000000E-03 0. -1.
         23    2    1    0    0    0  0.18065813841E+02 -0.35168178162E+02 -0.14052283752E+02  0.83040006392E+02  0.71658925459E+02 0.  0.
         11    1    3    3    0    0  0.21053676207E+02  0.24814637470E+01  0.22194778460E+02  0.30692395399E+02  0.51100000000E-03 0.  1.
         22    1    1    0    0    0 -0.18065813841E+02  0.35168178162E+02  0.14052283752E+02  0.41959993608E+02  0.00000000000E+00 0. -1.
</event>
<event>
 5    1  0.1692171E-003  0.9118800E+02  0.7818608E-02  0.1130116E+00
         25   -1    0    0    0    0  0.00000000000E+00  0.00000000000E+00  0.99999998245E-14  0.12500000000E+03  0.12500000000E+03 0.  0.
        -11    1    3    3    0    0 -0.48233433024E+02  0.23343036898E+02  0.11394996503E+02  0.54783276449E+02  0.51100000000E-03 0.  1.
         23    2    1    0    0    0 -0.10944376081E+02  0.29104066815E+02  0.91784572757E+01  0.92579787926E+02  0.86717627859E+02 0.  0.
         11    1    3    3    0    0  0.37289056943E+02  0.57610299166E+01 -0.22165392268E+01  0.37796511477E+02  0.51100000000E-03 0. -1.
         22    1    1    0    0    0  0.10944376081E+02 -0.29104066815E+02 -0.91784572757E+01  0.32420212074E+02  0.00000000000E+00 0.  1.
</event>
<event>
 5    1  0.1692171E-003  0.9118800E+02  0.7818608E-02  0.1130116E+00
         25   -1    0    0    0    0  0.00000000000E+00  0.00000000000E+00  0.99999998245E-14  0.12500000000E+03  0.12500000000E+03 0.  0.
        -11    1    3    3    0    0  0.18559696126E+02  0.14077304972E+02  0.32755143448E+02  0.40193684306E+02  0.51100000000E-03 0. -1.
         23    2    1    0    0    0  0.20308941167E+02 -0.18787256882E+02 -0.11241102294E+02  0.95137372968E+02  0.90329083035E+02 0.  0.
         11    1    3    3    0    0  0.17492450411E+01 -0.32864561854E+02 -0.43996245742E+02  0.54943688662E+02  0.51100000000E-03 0.  1.
         22    1    1    0    0    0 -0.20308941167E+02  0.18787256882E+02  0.11241102294E+02  0.29862627032E+02  0.00000000000E+00 0.  1.
</event>
<event>
 5    1  0.1692171E-003  0.9118800E+02  0.7818608E-02  0.1130116E+00
         25   -1    0    0    0    0  0.00000000000E+00  0.00000000000E+00  0.99999998245E-14  0.12500000000E+03  0.12500000000E+03 0.  0.
        -11    1    3    3    0    0  0.17431379989E+02 -0.87600481950E+01 -0.27537215320E+02  0.33747439615E+02  0.51100000000E-03 0.  1.
         23    2    1    0    0    0 -0.25877346908E+02  0.89951335116E+01  0.12069632759E+02  0.95062973681E+02  0.90226068408E+02 0.  0.
         11    1    3    3    0    0 -0.43308726897E+02  0.17755181707E+02  0.39606848079E+02  0.61315534066E+02  0.51100000000E-03 0. -1.
         22    1    1    0    0    0  0.25877346908E+02 -0.89951335116E+01 -0.12069632759E+02  0.29937026319E+02  0.00000000000E+00 0. -1.
</event>
<event>
 5    1  0.1692171E-003  0.9118800E+02  0.7818608E-02  0.1130116E+00
         25   -1    0    0    0    0  0.00000000000E+00  0.00000000000E+00  0.99999998245E-14  0.12500000000E+03  0.12500000000E+03 0.  0.
        -11    1    3    3    0    0 -0.15899010060E+01  0.52981884220E+02 -0.39822901146E+01  0.53155117115E+02  0.51100000000E-03 0. -1.
         23    2    1    0    0    0 -0.54242636788E+01  0.20061734660E+02  0.21602309220E+02  0.95024083039E+02  0.90172172868E+02 0.  0.
         11    1    3    3    0    0 -0.38343626728E+01 -0.32920149560E+02  0.25584599334E+02  0.41868965924E+02  0.51100000000E-03 0.  1.
         22    1    1    0    0    0  0.54242636788E+01 -0.20061734660E+02 -0.21602309220E+02  0.29975916961E+02  0.00000000000E+00 0. -1.
</event>
<event>
 5    1  0.1692171E-003  0.9118800E+02  0.7818608E-02  0.1130116E+00
         25   -1    0    0    0    0  0.00000000000E+00  0.00000000000E+00  0.99999998245E-14  0.12500000000E+03  0.12500000000E+03 0.  0.
        -11    1    3    3    0    0  0.17225129688E+02 -0.12540333654E+02  0.37236664367E+02  0.42901447928E+02  0.51100000000E-03 0.  1.
         23    2    1    0    0    0 -0.97499750922E+01 -0.26219668348E+02 -0.66934420042E+01  0.96236565079E+02  0.91837580923E+02 0.  0.
         11    1    3    3    0    0 -0.26975104780E+02 -0.13679334694E+02 -0.43930106371E+02  0.53335117151E+02  0.51100000000E-03 0. -1.
         22    1    1    0    0    0  0.97499750922E+01  0.26219668348E+02  0.66934420042E+01  0.28763434921E+02  0.00000000000E+00 0.  1.
</event>
<event>
 5    1  0.1692171E-003  0.9118800E+02  0.7818608E-02  0.1130116E+00
         25   -1    0    0    0    0  0.00000000000E+00  0.00000000000E+00  0.99999998245E-14  0.12500000000E+03  0.12500000000E+03 0.  0.
        -11    1    3    3    0    0 -0.26470600038E+02  0.60960266494E+01  0.11258726259E+02  0.29404304524E+02  0.51100000000E-03 0. -1.
         23    2    1    0    0    0  0.29794616968E+02  0.17076685357E+01  0.23333234675E+02  0.87117613954E+02  0.78450006301E+02 0.  0.
         11    1    3    3    0    0  0.56265217006E+02 -0.43883581137E+01  0.12074508416E+02  0.57713309431E+02  0.51100000000E-03 0.  1.
         22    1    1    0    0    0 -0.29794616968E+02 -0.17076685357E+01 -0.23333234675E+02  0.37882386046E+02  0.00000000000E+00 0.  1.
</event>
<event>
 5    1  0.1692171E-003  0.9118800E+02  0.7818608E-02  0.1130116E+00
         25   -1    0    0    0    0  0.00000000000E+00  0.00000000000E+00  0.99999998245E-14  0.12500000000E+03  0.12500000000E+03 0.  0.
        -11    1    3    3    0    0 -0.28923777399E+02 -0.94833204423E+01 -0.11535607966E+02  0.32551321279E+02  0.51100000000E-03 0. -1.
         23    2    1    0    0    0  0.21375033224E+02  0.17800259918E+02  0.12358782698E+02  0.94561852746E+02  0.89529119210E+02 0.  0.
         11    1    3    3    0    0  0.50298810623E+02  0.27283580360E+02  0.23894390664E+02  0.62010531467E+02  0.51100000000E-03 0.  1.
         22    1    1    0    0    0 -0.21375033224E+02 -0.17800259918E+02 -0.12358782698E+02  0.30438147254E+02  0.00000000000E+00 0.  1.
</event>
<event>
 5    1  0.1692171E-003  0.9118800E+02  0.7818608E-02  0.1130116E+00
         25   -1    0    0    0    0  0.00000000000E+00  0.00000000000E+00  0.99999998245E-14  0.12500000000E+03  0.12500000000E+03 0.  0.
        -11    1    3    3    0    0 -0.24270184120E+02 -0.44943302933E+02 -0.12465775933E+02  0.52576971058E+02  0.51100000000E-03 0.  1.
         23    2    1    0    0    0 -0.10666435294E+02 -0.18749202019E+02  0.19383105668E+02  0.95999824077E+02  0.91514785796E+02 0.  0.
         11    1    3    3    0    0  0.13603748826E+02  0.26194100914E+02  0.31848881602E+02  0.43422853020E+02  0.51100000000E-03 0. -1.
         22    1    1    0    0    0  0.10666435294E+02  0.18749202019E+02 -0.19383105668E+02  0.29000175923E+02  0.00000000000E+00 0.  1.
</event>
<event>
 5    1  0.1692171E-003  0.9118800E+02  0.7818608E-02  0.1130116E+00
         25   -1    0    0    0    0  0.00000000000E+00  0.00000000000E+00  0.99999998245E-14  0.12500000000E+03  0.12500000000E+03 0.  0.
        -11    1    3    3    0    0 -0.69310697194E+01  0.29732086462E+02  0.44478461101E+02  0.53947846992E+02  0.51100000000E-03 0. -1.
         23    2    1    0    0    0  0.33990374800E+01  0.29424843041E+02  0.47468573258E+01  0.95001541736E+02  0.90140919864E+02 0.  0.
         11    1    3    3    0    0  0.10330107199E+02 -0.30724342187E+00 -0.39731603776E+02  0.41053694744E+02  0.51100000000E-03 0.  1.
         22    1    1    0    0    0 -0.33990374800E+01 -0.29424843041E+02 -0.47468573258E+01  0.29998458264E+02  0.00000000000E+00 0. -1.
</event>
<event>
 5    1  0.1692171E-003  0.9118800E+02  0.7818608E-02  0.1130116E+00
         25   -1    0    0    0    0  0.00000000000E+00  0.00000000000E+00  0.99999998245E-14  0.12500000000E+03  0.12500000000E+03 0.  0.
        -11    1    3    3    0    0  0.22388437711E+02  0.55502206338E+02 -0.31305931276E+01  0.59929439052E+02  0.51100000000E-03 0.  1.
         23    2    1    0    0    0 -0.49843924791E+01  0.16498707160E+02 -0.25046069849E+01  0.10758378450E+03  0.10616471223E+03 0.  0.
         11    1    3    3    0    0 -0.27372830190E+02 -0.39003499178E+02  0.62598614271E+00  0.47654345443E+02  0.51100000000E-03 0. -1.
         22    1    1    0    0    0  0.49843924791E+01 -0.16498707160E+02  0.25046069849E+01  0.17416215504E+02  0.00000000000E+00 0.  1.
</event>
<event>
 5    1  0.1692171E-003  0.9118800E+02  0.7818608E-02  0.1130116E+00
         25   -1    0    0    0    0  0.00000000000E+00  0.00000000000E+00  0.99999998245E-14  0.12500000000E+03  0.12500000000E+03 0.  0.
        -11    1    3    3    0    0 -0.41916819942E+02 -0.14270043280E+02  0.11959597220E+02  0.45865955732E+02  0.51100000000E-03 0.  1.
         23    2    1    0    0    0 -0.14639108777E+02  0.21744077167E+02 -0.11034556896E+02  0.96559362815E+02  0.92275894489E+02 0.  0.
         11    1    3    3    0    0  0.27277711165E+02  0.36014120447E+02 -0.22994154115E+02  0.50693407083E+02  0.51100000000E-03 0. -1.
         22    1    1    0    0    0  0.14639108777E+02 -0.21744077167E+02  0.11034556896E+02  0.28440637185E+02  0.00000000000E+00 0.  1.
</event>
<event>
 5    1  0.1692171E-003  0.9118800E+02  0.7818608E-02  0.1130116E+00
         25   -1    0    0    0    0  0.00000000000E+00  0.00000000000E+00  0.99999998245E-14  0.12500000000E+03  0.12500000000E+03 0.  0.
        -11    1    3    3    0    0 -0.18773325093E+02 -0.49370424845E+02  0.20600138281E+02  0.56694287912E+02  0.51100000000E-03 0. -1.
         23    2    1    0    0    0  0.10145756397E+02 -0.24450463480E+02  0.12528238303E+02  0.95713172036E+02  0.91122406734E+02 0.  0.
         11    1    3    3    0    0  0.28919081490E+02  0.24919961365E+02 -0.80718999789E+01  0.39018884123E+02  0.51100000000E-03 0.  1.
         22    1    1    0    0    0 -0.10145756397E+02  0.24450463480E+02 -0.12528238303E+02  0.29286827964E+02  0.00000000000E+00 0. -1.
</event>
<event>
 5    1  0.1692171E-003  0.9118800E+02  0.7818608E-02  0.1130116E+00
         25   -1    0    0    0    0  0.00000000000E+00  0.00000000000E+00  0.99999998245E-14  0.12500000000E+03  0.12500000000E+03 0.  0.
        -11    1    3    3    0    0 -0.19703012932E+02  0.92618999731E+01  0.25565220717E+02  0.33579339187E+02  0.51100000000E-03 0.  1.
         23    2    1    0    0    0  0.28858373976E+02  0.39583345868E+01 -0.10215806238E+02  0.94131944371E+02  0.88926858106E+02 0.  0.
         11    1    3    3    0    0  0.48561386908E+02 -0.53035653863E+01 -0.35781026955E+02  0.60552605183E+02  0.51100000000E-03 0. -1.
         22    1    1    0    0    0 -0.28858373976E+02 -0.39583345868E+01  0.10215806238E+02  0.30868055629E+02  0.00000000000E+00 0. -1.
</event>
<event>
 5    1  0.1692171E-003  0.9118800E+02  0.7818608E-02  0.1130116E+00
         25   -1    0    0    0    0  0.00000000000E+00  0.00000000000E+00  0.99999998245E-14  0.12500000000E+03  0.12500000000E+03 0.  0.
        -11    1    3    3    0    0 -0.52310207693E+01  0.23943022922E+02  0.43222928033E+02  0.49687558130E+02  0.51100000000E-03 0.  1.
         23    2    1    0    0    0 -0.12983091678E+02 -0.15685417685E+02  0.20876224260E+02  0.95838214443E+02  0.91293776408E+02 0.  0.
         11    1    3    3    0    0 -0.77520709086E+01 -0.39628440607E+02 -0.22346703773E+02  0.46150656313E+02  0.51100000000E-03 0. -1.
         22    1    1    0    0    0  0.12983091678E+02  0.15685417685E+02 -0.20876224260E+02  0.29161785557E+02  0.00000000000E+00 0.  1.
</event>
<event>
 5    1  0.1692171E-003  0.9118800E+02  0.7818608E-02  0.1130116E+00
         25   -1    0    0    0    0  0.00000000000E+00  0.00000000000E+00  0.99999998245E-14  0.12500000000E+03  0.12500000000E+03 0.  0.
        -11    1    3    3    0    0 -0.33968710697E+02  0.30723528418E+00 -0.29176244937E+01  0.34095164362E+02  0.51100000000E-03 0.  1.
         23    2    1    0    0    0  0.20198804769E+02  0.12730112525E+02 -0.21679157768E+02  0.92750451778E+02  0.86963285037E+02 0.  0.
         11    1    3    3    0    0  0.54167515466E+02  0.12422877240E+02 -0.18761533274E+02  0.58655287416E+02  0.51100000000E-03 0. -1.
         22    1    1    0    0    0 -0.20198804769E+02 -0.12730112525E+02  0.21679157768E+02  0.32249548222E+02  0.00000000000E+00 0. -1.
</event>
<event>
 5    1  0.1692171E-003  0.9118800E+02  0.7818608E-02  0.1130116E+00
         25   -1    0    0    0    0  0.00000000000E+00  0.00000000000E+00  0.99999998245E-14  0.12500000000E+03  0.12500000000E+03 0.  0.
        -11    1    3    3    0    0  0.29089301607E+02 -0.50371079594E+01  0.85470565879E+01  0.30734542475E+02  0.51100000000E-03 0.  1.
         23    2    1    0    0    0  0.49253006842E+01  0.23831918923E+02 -0.31167530248E+02  0.85457189173E+02  0.75758150011E+02 0.  0.
         11    1    3    3    0    0 -0.24164000923E+02  0.28869026882E+02 -0.39714586836E+02  0.54722646697E+02  0.51100000000E-03 0. -1.
         22    1    1    0    0    0 -0.49253006842E+01 -0.23831918923E+02  0.31167530248E+02  0.39542810827E+02  0.00000000000E+00 0. -1.
</event>
<event>
 5    1  0.1692171E-003  0.9118800E+02  0.7818608E-02  0.1130116E+00
         25   -1    0    0    0    0  0.00000000000E+00  0.00000000000E+00  0.99999998245E-14  0.12500000000E+03  0.12500000000E+03 0.  0.
        -11    1    3    3    0    0 -0.53117764280E+01  0.30904290737E+02 -0.53711577806E+02  0.62195045988E+02  0.51100000000E-03 0. -1.
         23    2    1    0    0    0  0.17879956007E+01  0.14271228750E+02 -0.26030950685E+02  0.95259870682E+02  0.90498440155E+02 0.  0.
         11    1    3    3    0    0  0.70997720288E+01 -0.16633061987E+02  0.27680627121E+02  0.33064824694E+02  0.51100000000E-03 0.  1.
         22    1    1    0    0    0 -0.17879956007E+01 -0.14271228750E+02  0.26030950685E+02  0.29740129318E+02  0.00000000000E+00 0. -1.
</event>
<event>
 5    1  0.1692171E-003  0.9118800E+02  0.7818608E-02  0.1130116E+00
         25   -1    0    0    0    0  0.00000000000E+00  0.00000000000E+00  0.99999998245E-14  0.12500000000E+03  0.12500000000E+03 0.  0.
        -11    1    3    3    0    0 -0.24436104919E+02  0.24145562216E+01  0.55530028631E+02  0.60716862447E+02  0.51100000000E-03 0.  1.
         23    2    1    0    0    0 -0.19912674115E+02 -0.24597713031E+01  0.20715295687E+02  0.96160989257E+02  0.91734657105E+02 0.  0.
         11    1    3    3    0    0  0.45234308045E+01 -0.48743275247E+01 -0.34814732944E+02  0.35444126810E+02  0.51100000000E-03 0. -1.
         22    1    1    0    0    0  0.19912674115E+02  0.24597713031E+01 -0.20715295687E+02  0.28839010743E+02  0.00000000000E+00 0.  1.
</event>
<event>
 5    1  0.1692171E-003  0.9118800E+02  0.7818608E-02  0.1130116E+00
         25   -1    0    0    0    0  0.00000000000E+00  0.00000000000E+00  0.99999998245E-14  0.12500000000E+03  0.12500000000E+03 0.  0.
        -11    1    3    3    0    0 -0.78828520558E+01  0.98408974677E+01  0.60174632984E+02  0.61481453094E+02  0.51100000000E-03 0. -1.
         23    2    1    0    0    0 -0.56485842806E+01 -0.35613634097E+01  0.17375823523E+02  0.10638524626E+03  0.10474402878E+03 0.  0.
         11    1    3    3    0    0  0.22342677752E+01 -0.13402260877E+02 -0.42798809461E+02  0.44903793166E+02  0.51100000000E-03 0.  1.
         22    1    1    0    0    0  0.56485842806E+01  0.35613634097E+01 -0.17375823523E+02  0.18614753740E+02  0.00000000000E+00 0. -1.
</event>
<event>
 5    1  0.1692171E-003  0.9118800E+02  0.7818608E-02  0.1130116E+00
         25   -1    0    0    0    0  0.00000000000E+00  0.00000000000E+00  0.99999998245E-14  0.12500000000E+03  0.12500000000E+03 0.  0.
        -11    1    3    3    0    0  0.31489876342E+02 -0.17087752484E+01 -0.19608860814E+02  0.37135423083E+02  0.51100000000E-03 0.  1.
         23    2    1    0    0    0 -0.18410237321E+02 -0.96240399181E+01  0.15857842044E+02  0.98865154739E+02  0.95348249510E+02 0.  0.
         11    1    3    3    0    0 -0.49900113663E+02 -0.79152646697E+01  0.35466702858E+02  0.61729731655E+02  0.51100000000E-03 0. -1.
         22    1    1    0    0    0  0.18410237321E+02  0.96240399181E+01 -0.15857842044E+02  0.26134845261E+02  0.00000000000E+00 0. -1.
</event>
<event>
 5    1  0.1692171E-003  0.9118800E+02  0.7818608E-02  0.1130116E+00
         25   -1    0    0    0    0  0.00000000000E+00  0.00000000000E+00  0.99999998245E-14  0.12500000000E+03  0.12500000000E+03 0.  0.
        -11    1    3    3    0    0 -0.34075791690E+02 -0.66027151330E+01 -0.24113748609E+02  0.42263794182E+02  0.51100000000E-03 0. -1.
         23    2    1    0    0    0 -0.10350814652E+02 -0.99676962239E+01  0.24576309598E+02  0.96530905785E+02  0.92237337592E+02 0.  0.
         11    1    3    3    0    0  0.23724977038E+02 -0.33649810909E+01  0.48690058207E+02  0.54267111602E+02  0.51100000000E-03 0.  1.
         22    1    1    0    0    0  0.10350814652E+02  0.99676962239E+01 -0.24576309598E+02  0.28469094215E+02  0.00000000000E+00 0.  1.
</event>
<event>
 5    1  0.1692171E-003  0.9118800E+02  0.7818608E-02  0.1130116E+00
         25   -1    0    0    0    0  0.00000000000E+00  0.00000000000E+00  0.99999998245E-14  0.12500000000E+03  0.12500000000E+03 0.  0.
        -11    1    3    3    0    0 -0.30726781638E+02 -0.30340506877E+02  0.12245669129E+02  0.44884717667E+02  0.51100000000E-03 0.  1.
         23    2    1    0    0    0 -0.60143691423E+01  0.11707534243E+02  0.26256162508E+02  0.95629520537E+02  0.91007582840E+02 0.  0.
         11    1    3    3    0    0  0.24712412496E+02  0.42048041119E+02  0.14010493380E+02  0.50744802870E+02  0.51100000000E-03 0. -1.
         22    1    1    0    0    0  0.60143691423E+01 -0.11707534243E+02 -0.26256162508E+02  0.29370479463E+02  0.00000000000E+00 0.  1.
</event>
<event>
 5    1  0.1692171E-003  0.9118800E+02  0.7818608E-02  0.1130116E+00
         25   -1    0    0    0    0  0.00000000000E+00  0.00000000000E+00  0.99999998245E-14  0.12500000000E+03  0.12500000000E+03 0.  0.
        -11    1    3    3    0    0  0.39875227652E+01  0.40776753203E+02  0.47156623352E+02  0.62469120898E+02  0.51100000000E-03 0. -1.
         23    2    1    0    0    0  0.17431344217E+01  0.18473806615E+02  0.23471093077E+02  0.95079902095E+02  0.90249518135E+02 0.  0.
         11    1    3    3    0    0 -0.22443883434E+01 -0.22302946588E+02 -0.23685530276E+02  0.32610781196E+02  0.51100000000E-03 0.  1.
         22    1    1    0    0    0 -0.17431344217E+01 -0.18473806615E+02 -0.23471093077E+02  0.29920097905E+02  0.00000000000E+00 0. -1.
</event>
<event>
 5    1  0.1692171E-003  0.9118800E+02  0.7818608E-02  0.1130116E+00
         25   -1    0    0    0    0  0.00000000000E+00  0.00000000000E+00  0.99999998245E-14  0.12500000000E+03  0.12500000000E+03 0.  0.
        -11    1    3    3    0    0  0.10840008888E+02 -0.14566731703E+02 -0.29344074889E+02  0.34507538257E+02  0.51100000000E-03 0. -1.
         23    2    1    0    0    0 -0.41970655557E+01  0.27784541884E+02  0.10925095872E+02  0.94851138549E+02  0.89932111269E+02 0.  0.
         11    1    3    3    0    0 -0.15037074443E+02  0.42351273586E+02  0.40269170761E+02  0.60343600292E+02  0.51100000000E-03 0.  1.
         22    1    1    0    0    0  0.41970655557E+01 -0.27784541884E+02 -0.10925095872E+02  0.30148861451E+02  0.00000000000E+00 0.  1.
</event>
<event>
 5    1  0.1692171E-003  0.9118800E+02  0.7818608E-02  0.1130116E+00
         25   -1    0    0    0    0  0.00000000000E+00  0.00000000000E+00  0.99999998245E-14  0.12500000000E+03  0.12500000000E+03 0.  0.
        -11    1    3    3    0    0  0.13280523485E+02 -0.37413432533E+02  0.12947356728E+00  0.39700806058E+02  0.51100000000E-03 0.  1.
         23    2    1    0    0    0  0.15871451550E+02  0.18392136758E+02 -0.13503386813E+02  0.97205843703E+02  0.93147522382E+02 0.  0.
         11    1    3    3    0    0  0.25909280645E+01  0.55805569292E+02 -0.13632860380E+02  0.57505037645E+02  0.51100000000E-03 0. -1.
         22    1    1    0    0    0 -0.15871451550E+02 -0.18392136758E+02  0.13503386813E+02  0.27794156297E+02  0.00000000000E+00 0. -1.
</event>
<event>
 5    1  0.1692171E-003  0.9118800E+02  0.7818608E-02  0.1130116E+00
         25   -1    0    0    0    0  0.00000000000E+00  0.00000000000E+00  0.99999998245E-14  0.12500000000E+03  0.12500000000E+03 0.  0.
        -11    1    3    3    0    0  0.36658810235E+02 -0.38472036302E+01 -0.47421030019E+02  0.60061830075E+02  0.51100000000E-03 0.  1.
         23    2    1    0    0    0  0.16713744100E+02  0.10497436762E+02 -0.22808510043E+02  0.94837547335E+02  0.89913218348E+02 0.  0.
         11    1    3    3    0    0 -0.19945066135E+02  0.14344640392E+02  0.24612519976E+02  0.34775717260E+02  0.51100000000E-03 0. -1.
         22    1    1    0    0    0 -0.16713744100E+02 -0.10497436762E+02  0.22808510043E+02  0.30162452665E+02  0.00000000000E+00 0.  1.
</event>
<event>
 5    1  0.1692171E-003  0.9118800E+02  0.7818608E-02  0.1130116E+00
         25   -1    0    0    0    0  0.00000000000E+00  0.00000000000E+00  0.99999998245E-14  0.12500000000E+03  0.12500000000E+03 0.  0.
        -11    1    3    3    0    0  0.27725968714E+02 -0.22207704982E+02 -0.42363416178E+02  0.55286259886E+02  0.51100000000E-03 0.  1.
         23    2    1    0    0    0  0.27197901044E+02 -0.99277538340E+01 -0.37545576952E+01  0.95804404084E+02  0.91247471313E+02 0.  0.
         11    1    3    3    0    0 -0.52806766990E+00  0.12279951148E+02  0.38608858482E+02  0.40518144198E+02  0.51100000000E-03 0. -1.
         22    1    1    0    0    0 -0.27197901044E+02  0.99277538340E+01  0.37545576952E+01  0.29195595916E+02  0.00000000000E+00 0.  1.
</event>
<event>
 5    1  0.1692171E-003  0.9118800E+02  0.7818608E-02  0.1130116E+00
         25   -1    0    0    0    0  0.00000000000E+00  0.00000000000E+00  0.99999998245E-14  0.12500000000E+03  0.12500000000E+03 0.  0.
        -11    1    3    3    0    0 -0.40201131847E+02  0.12881679615E+02 -0.32461219240E+02  0.53252224613E+02  0.51100000000E-03 0.  1.
         23    2    1    0    0    0 -0.23979826127E+02  0.18795036616E+02  0.46464700040E+01  0.94179955451E+02  0.88994319273E+02 0.  0.
         11    1    3    3    0    0  0.16221305720E+02  0.59133570012E+01  0.37107689244E+02  0.40927730838E+02  0.51100000000E-03 0. -1.
         22    1    1    0    0    0  0.23979826127E+02 -0.18795036616E+02 -0.46464700040E+01  0.30820044549E+02  0.00000000000E+00 0.  1.
</event>
<event>
 5    1  0.1692171E-003  0.9118800E+02  0.7818608E-02  0.1130116E+00
         25   -1    0    0    0    0  0.00000000000E+00  0.00000000000E+00  0.99999998245E-14  0.12500000000E+03  0.12500000000E+03 0.  0.
        -11    1    3    3    0    0 -0.26453268787E+02 -0.15165973878E+02  0.43666054102E+02  0.53258862871E+02  0.51100000000E-03 0.  1.
         23    2    1    0    0    0 -0.18582255436E+02 -0.21899469979E+02  0.19817448957E+01  0.96210864631E+02  0.91802593415E+02 0.  0.
         11    1    3    3    0    0  0.78710133506E+01 -0.67334961009E+01 -0.41684309207E+02  0.42952001760E+02  0.51100000000E-03 0. -1.
         22    1    1    0    0    0  0.18582255436E+02  0.21899469979E+02 -0.19817448957E+01  0.28789135369E+02  0.00000000000E+00 0.  1.
</event>
<event>
 5    1  0.1692171E-003  0.9118800E+02  0.7818608E-02  0.1130116E+00
         25   -1    0    0    0    0  0.00000000000E+00  0.00000000000E+00  0.99999998245E-14  0.12500000000E+03  0.12500000000E+03 0.  0.
        -11    1    3    3    0    0  0.21389596157E+02  0.10315520225E+02 -0.33971915987E+02  0.41448954840E+02  0.51100000000E-03 0.  1.
         23    2    1    0    0    0 -0.24205333934E+02 -0.10271843903E+02 -0.11040433500E+02  0.96481582444E+02  0.92170470385E+02 0.  0.
         11    1    3    3    0    0 -0.45594930090E+02 -0.20587364128E+02  0.22931482486E+02  0.55032627604E+02  0.51100000000E-03 0. -1.
         22    1    1    0    0    0  0.24205333934E+02  0.10271843903E+02  0.11040433500E+02  0.28518417556E+02  0.00000000000E+00 0. -1.
</event>
<event>
 5    1  0.1692171E-003  0.9118800E+02  0.7818608E-02  0.1130116E+00
         25   -1    0    0    0    0  0.00000000000E+00  0.00000000000E+00  0.99999998245E-14  0.12500000000E+03  0.12500000000E+03 0.  0.
        -11    1    3    3    0    0  0.22360476581E+02  0.33088761535E+02 -0.99863704304E+01  0.41165333079E+02  0.51100000000E-03 0.  1.
         23    2    1    0    0    0  0.75267066246E+01 -0.12134770450E+01  0.28907327021E+02  0.95104224468E+02  0.90283199529E+02 0.  0.
         11    1    3    3    0    0 -0.14833769956E+02 -0.34302238580E+02  0.38893697451E+02  0.53938891390E+02  0.51100000000E-03 0. -1.
         22    1    1    0    0    0 -0.75267066246E+01  0.12134770450E+01 -0.28907327021E+02  0.29895775532E+02  0.00000000000E+00 0. -1.
</event>
<event>
 5    1  0.1692171E-003  0.9118800E+02  0.7818608E-02  0.1130116E+00
         25   -1    0    0    0    0  0.00000000000E+00  0.00000000000E+00  0.99999998245E-14  0.12500000000E+03  0.12500000000E+03 0.  0.
        -11    1    3    3    0    0 -0.27645928559E+01  0.19399965095E+02  0.23680863542E+02  0.30737353785E+02  0.51100000000E-03 0. -1.
         23    2    1    0    0    0 -0.91288864627E+01 -0.18444592683E+02 -0.24931427530E+02  0.92671751579E+02  0.86850088628E+02 0.  0.
         11    1    3    3    0    0 -0.63642936069E+01 -0.37844557779E+02 -0.48612291072E+02  0.61934397794E+02  0.51100000000E-03 0.  1.
         22    1    1    0    0    0  0.91288864627E+01  0.18444592683E+02  0.24931427530E+02  0.32328248421E+02  0.00000000000E+00 0.  1.
</event>
<event>
 5    1  0.1692171E-003  0.9118800E+02  0.7818608E-02  0.1130116E+00
         25   -1    0    0    0    0  0.00000000000E+00  0.00000000000E+00  0.99999998245E-14  0.12500000000E+03  0.12500000000E+03 0.  0.
        -11    1    3    3    0    0 -0.21005372154E+02 -0.50271189695E+02 -0.26372840732E+02  0.60530528672E+02  0.51100000000E-03 0.  1.
         23    2    1    0    0    0 -0.15625888157E+02 -0.16317005852E+02 -0.18503478032E+02  0.95797401486E+02  0.91237877943E+02 0.  0.
         11    1    3    3    0    0  0.53794839970E+01  0.33954183843E+02  0.78693626997E+01  0.35266872814E+02  0.51100000000E-03 0. -1.
         22    1    1    0    0    0  0.15625888157E+02  0.16317005852E+02  0.18503478032E+02  0.29202598514E+02  0.00000000000E+00 0.  1.
</event>
<event>
 5    1  0.1692171E-003  0.9118800E+02  0.7818608E-02  0.1130116E+00
         25   -1    0    0    0    0  0.00000000000E+00  0.00000000000E+00  0.99999998245E-14  0.12500000000E+03  0.12500000000E+03 0.  0.
        -11    1    3    3    0    0  0.50622117069E+00  0.21003888465E+02  0.55643725798E+02  0.59478095224E+02  0.51100000000E-03 0.  1.
         23    2    1    0    0    0  0.12746637803E+02  0.42931301495E+01  0.27098057573E+02  0.94747521325E+02  0.89787974313E+02 0.  0.
         11    1    3    3    0    0  0.12240416632E+02 -0.16710758315E+02 -0.28545668225E+02  0.35269426101E+02  0.51100000000E-03 0. -1.
         22    1    1    0    0    0 -0.12746637803E+02 -0.42931301495E+01 -0.27098057573E+02  0.30252478675E+02  0.00000000000E+00 0.  1.
</event>
<event>
 5    1  0.1692171E-003  0.9118800E+02  0.7818608E-02  0.1130116E+00
         25   -1    0    0    0    0  0.00000000000E+00  0.00000000000E+00  0.99999998245E-14  0.12500000000E+03  0.12500000000E+03 0.  0.
        -11    1    3    3    0    0  0.17062860955E+02  0.56374082570E+02  0.18703655509E+02  0.61798099803E+02  0.51100000000E-03 0.  1.
         23    2    1    0    0    0  0.99855102802E+01  0.33027717640E+02  0.40435333769E+01  0.90259667384E+02  0.83306163314E+02 0.  0.
         11    1    3    3    0    0 -0.70773506752E+01 -0.23346364930E+02 -0.14660122132E+02  0.28461567582E+02  0.51100000000E-03 0. -1.
         22    1    1    0    0    0 -0.99855102802E+01 -0.33027717640E+02 -0.40435333769E+01  0.34740332616E+02  0.00000000000E+00 0.  1.
</event>
<event>
 5    1  0.1692171E-003  0.9118800E+02  0.7818608E-02  0.1130116E+00
         25   -1    0    0    0    0  0.00000000000E+00  0.00000000000E+00  0.99999998245E-14  0.12500000000E+03  0.12500000000E+03 0.  0.
        -11    1    3    3    0    0 -0.10087149386E+02  0.13344909579E+02  0.39180261045E+02  0.42601995848E+02  0.51100000000E-03 0. -1.
         23    2    1    0    0    0 -0.16891892783E+02  0.17605741299E+02 -0.14325372550E+02  0.96706635634E+02  0.92475179959E+02 0.  0.
         11    1    3    3    0    0 -0.68047433968E+01  0.42608317202E+01 -0.53505633595E+02  0.54104639785E+02  0.51100000000E-03 0.  1.
         22    1    1    0    0    0  0.16891892783E+02 -0.17605741299E+02  0.14325372550E+02  0.28293364366E+02  0.00000000000E+00 0.  1.
</event>
<event>
 5    1  0.1692171E-003  0.9118800E+02  0.7818608E-02  0.1130116E+00
         25   -1    0    0    0    0  0.00000000000E+00  0.00000000000E+00  0.99999998245E-14  0.12500000000E+03  0.12500000000E+03 0.  0.
        -11    1    3    3    0    0 -0.37517531301E+02  0.21931648454E+02 -0.14551167051E+02  0.45829017245E+02  0.51100000000E-03 0.  1.
         23    2    1    0    0    0 -0.87532971620E+01 -0.22922777553E+02 -0.45818466279E+01  0.10003868472E+03  0.96874512542E+02 0.  0.
         11    1    3    3    0    0  0.28764234139E+02 -0.44854426006E+02  0.99693204234E+01  0.54209667476E+02  0.51100000000E-03 0. -1.
         22    1    1    0    0    0  0.87532971620E+01  0.22922777553E+02  0.45818466279E+01  0.24961315279E+02  0.00000000000E+00 0. -1.
</event>
<event>
 5    1  0.1692171E-003  0.9118800E+02  0.7818608E-02  0.1130116E+00
         25   -1    0    0    0    0  0.00000000000E+00  0.00000000000E+00  0.99999998245E-14  0.12500000000E+03  0.12500000000E+03 0.  0.
        -11    1    3    3    0    0  0.12311836855E+02  0.15654373716E+02  0.28348190973E+02  0.34644778465E+02  0.51100000000E-03 0.  1.
         23    2    1    0    0    0  0.10133568624E+02 -0.14832541172E+02 -0.23855141903E+02  0.95137627592E+02  0.90329435390E+02 0.  0.
         11    1    3    3    0    0 -0.21782682316E+01 -0.30486914888E+02 -0.52203332876E+02  0.60492849127E+02  0.51100000000E-03 0. -1.
         22    1    1    0    0    0 -0.10133568624E+02  0.14832541172E+02  0.23855141903E+02  0.29862372408E+02  0.00000000000E+00 0. -1.
</event>
<event>
 5    1  0.1692171E-003  0.9118800E+02  0.7818608E-02  0.1130116E+00
         25   -1    0    0    0    0  0.00000000000E+00  0.00000000000E+00  0.99999998245E-14  0.12500000000E+03  0.12500000000E+03 0.  0.
        -11    1    3    3    0    0  0.17675354669E+01  0.42828131325E+02  0.24632688172E+02  0.49438267984E+02  0.51100000000E-03 0. -1.
         23    2    1    0    0    0 -0.22913176498E+02  0.43058720458E+01  0.17737562932E+02  0.95705370286E+02  0.91111703812E+02 0.  0.
         11    1    3    3    0    0 -0.24680711965E+02 -0.38522259279E+02 -0.68951252398E+01  0.46267102302E+02  0.51100000000E-03 0.  1.
         22    1    1    0    0    0  0.22913176498E+02 -0.43058720458E+01 -0.17737562932E+02  0.29294629714E+02  0.00000000000E+00 0. -1.
</event>
<event>
 5    1  0.1692171E-003  0.9118800E+02  0.7818608E-02  0.1130116E+00
         25   -1    0    0    0    0  0.00000000000E+00  0.00000000000E+00  0.99999998245E-14  0.12500000000E+03  0.12500000000E+03 0.  0.
        -11    1    3    3    0    0 -0.21889609032E+02 -0.39742426566E+02  0.70310943852E+01  0.45913524602E+02  0.51100000000E-03 0.  1.
         23    2    1    0    0    0  0.21611466163E+02 -0.20139501900E+02 -0.47986450035E+01  0.95072053189E+02  0.90238646362E+02 0.  0.
         11    1    3    3    0    0  0.43501075194E+02  0.19602924666E+02 -0.11829739389E+02  0.49158528586E+02  0.51100000000E-03 0. -1.
         22    1    1    0    0    0 -0.21611466163E+02  0.20139501900E+02  0.47986450035E+01  0.29927946811E+02  0.00000000000E+00 0. -1.
</event>
<event>
 5    1  0.1692171E-003  0.9118800E+02  0.7818608E-02  0.1130116E+00
         25   -1    0    0    0    0  0.00000000000E+00  0.00000000000E+00  0.99999998245E-14  0.12500000000E+03  0.12500000000E+03 0.  0.
        -11    1    3    3    0    0  0.21042999293E+02 -0.20056753310E+02  0.22955517836E+02  0.37041017426E+02  0.51100000000E-03 0. -1.
         23    2    1    0    0    0 -0.25473764078E+02 -0.15513197347E+02 -0.92178684156E+01  0.93782360013E+02  0.88434099776E+02 0.  0.
         11    1    3    3    0    0 -0.46516763372E+02  0.45435559634E+01 -0.32173386251E+02  0.56741342586E+02  0.51100000000E-03 0.  1.
         22    1    1    0    0    0  0.25473764078E+02  0.15513197347E+02  0.92178684156E+01  0.31217639987E+02  0.00000000000E+00 0.  1.
</event>
<event>
 5    1  0.1692171E-003  0.9118800E+02  0.7818608E-02  0.1130116E+00
         25   -1    0    0    0    0  0.00000000000E+00  0.00000000000E+00  0.99999998245E-14  0.12500000000E+03  0.12500000000E+03 0.  0.
        -11    1    3    3    0    0 -0.57683708664E+01 -0.21294251289E+02 -0.23603099513E+02  0.32308289142E+02  0.51100000000E-03 0. -1.
         23    2    1    0    0    0 -0.41429049434E+01  0.77757301342E+01  0.30230959163E+02  0.93511326919E+02  0.88050165984E+02 0.  0.
         11    1    3    3    0    0  0.16254659230E+01  0.29069981423E+02  0.53834058676E+02  0.61203037777E+02  0.51100000000E-03 0.  1.
         22    1    1    0    0    0  0.41429049434E+01 -0.77757301342E+01 -0.30230959163E+02  0.31488673081E+02  0.00000000000E+00 0.  1.
</event>
<event>
 5    1  0.1692171E-003  0.9118800E+02  0.7818608E-02  0.1130116E+00
         25   -1    0    0    0    0  0.00000000000E+00  0.00000000000E+00  0.99999998245E-14  0.12500000000E+03  0.12500000000E+03 0.  0.
        -11    1    3    3    0    0  0.44315177878E+01 -0.16656703639E+02 -0.50144823293E+02  0.53024404092E+02  0.51100000000E-03 0.  1.
         23    2    1    0    0    0  0.23431550438E+02  0.26185372226E+01 -0.16412541543E+02  0.96272559929E+02  0.91886560401E+02 0.  0.
         11    1    3    3    0    0  0.19000032650E+02  0.19275240862E+02  0.33732281750E+02  0.43248155837E+02  0.51100000000E-03 0. -1.
         22    1    1    0    0    0 -0.23431550438E+02 -0.26185372226E+01  0.16412541543E+02  0.28727440071E+02  0.00000000000E+00 0.  1.
</event>
<event>
 5    1  0.1692171E-003  0.9118800E+02  0.7818608E-02  0.1130116E+00
         25   -1    0    0    0    0  0.00000000000E+00  0.00000000000E+00  0.99999998245E-14  0.12500000000E+03  0.12500000000E+03 0.  0.
        -11    1    3    3    0    0 -0.21296870839E+02 -0.24941625530E+02 -0.21849348299E+02  0.39408570299E+02  0.51100000000E-03 0. -1.
         23    2    1    0    0    0 -0.11241240037E+01 -0.76549487562E+01  0.28030118521E+02  0.95921667181E+02  0.91407968992E+02 0.  0.
         11    1    3    3    0    0  0.20172746835E+02  0.17286676774E+02  0.49879466820E+02  0.56513096883E+02  0.51100000000E-03 0.  1.
         22    1    1    0    0    0  0.11241240037E+01  0.76549487562E+01 -0.28030118521E+02  0.29078332819E+02  0.00000000000E+00 0.  1.
</event>
<event>
 5    1  0.1692171E-003  0.9118800E+02  0.7818608E-02  0.1130116E+00
         25   -1    0    0    0    0  0.00000000000E+00  0.00000000000E+00  0.99999998245E-14  0.12500000000E+03  0.12500000000E+03 0.  0.
        -11    1    3    3    0    0  0.21653434032E+02 -0.36581773663E+02  0.41430058360E+02  0.59359473597E+02  0.51100000000E-03 0. -1.
         23    2    1    0    0    0  0.23397331644E+01 -0.27305224088E+02  0.13821615945E+02  0.94306569415E+02  0.89171981887E+02 0.  0.
         11    1    3    3    0    0 -0.19313700868E+02  0.92765495752E+01 -0.27608442415E+02  0.34947095818E+02  0.51100000000E-03 0.  1.
         22    1    1    0    0    0 -0.23397331644E+01  0.27305224088E+02 -0.13821615945E+02  0.30693430585E+02  0.00000000000E+00 0. -1.
</event>
<event>
 5    1  0.1692171E-003  0.9118800E+02  0.7818608E-02  0.1130116E+00
         25   -1    0    0    0    0  0.00000000000E+00  0.00000000000E+00  0.99999998245E-14  0.12500000000E+03  0.12500000000E+03 0.  0.
        -11    1    3    3    0    0  0.22689206166E+01 -0.21714404904E+02 -0.35299163338E+02  0.41505352833E+02  0.51100000000E-03 0. -1.
         23    2    1    0    0    0  0.21323447824E+02  0.18777498994E+02 -0.35690724807E+01  0.96363970702E+02  0.92010829121E+02 0.  0.
         11    1    3    3    0    0  0.19054527207E+02  0.40491903899E+02  0.31730090858E+02  0.54858617869E+02  0.51100000000E-03 0.  1.
         22    1    1    0    0    0 -0.21323447824E+02 -0.18777498994E+02  0.35690724807E+01  0.28636029298E+02  0.00000000000E+00 0.  1.
</event>
<event>
 5    1  0.1692171E-003  0.9118800E+02  0.7818608E-02  0.1130116E+00
         25   -1    0    0    0    0  0.00000000000E+00  0.00000000000E+00  0.99999998245E-14  0.12500000000E+03  0.12500000000E+03 0.  0.
        -11    1    3    3    0    0  0.50617156182E+02 -0.29743655143E+02  0.84606718696E+01  0.59315803037E+02  0.51100000000E-03 0.  1.
         23    2    1    0    0    0  0.27561352788E+02 -0.10335217537E+02 -0.90923935952E+01  0.94192265414E+02  0.89011607970E+02 0.  0.
         11    1    3    3    0    0 -0.23055803394E+02  0.19408437605E+02 -0.17553065465E+02  0.34876462377E+02  0.51100000000E-03 0. -1.
         22    1    1    0    0    0 -0.27561352788E+02  0.10335217537E+02  0.90923935952E+01  0.30807734586E+02  0.00000000000E+00 0.  1.
</event>
<event>
 5    1  0.1692171E-003  0.9118800E+02  0.7818608E-02  0.1130116E+00
         25   -1    0    0    0    0  0.00000000000E+00  0.00000000000E+00  0.99999998245E-14  0.12500000000E+03  0.12500000000E+03 0.  0.
        -11    1    3    3    0    0 -0.41490157869E+02  0.19112542504E+01 -0.26729971037E+02  0.49392078765E+02  0.51100000000E-03 0.  1.
         23    2    1    0    0    0 -0.23165455635E+02 -0.14434760226E+02  0.11946518178E+02  0.95205370717E+02  0.90423131328E+02 0.  0.
         11    1    3    3    0    0  0.18324702234E+02 -0.16346014476E+02  0.38676489215E+02  0.45813291952E+02  0.51100000000E-03 0. -1.
         22    1    1    0    0    0  0.23165455635E+02  0.14434760226E+02 -0.11946518178E+02  0.29794629283E+02  0.00000000000E+00 0.  1.
</event>
<event>
 5    1  0.1692171E-003  0.9118800E+02  0.7818608E-02  0.1130116E+00
         25   -1    0    0    0    0  0.00000000000E+00  0.00000000000E+00  0.99999998245E-14  0.12500000000E+03  0.12500000000E+03 0.  0.
        -11    1    3    3    0    0  0.64351597508E+01  0.19616518330E+02 -0.55131482769E+01  0.21368525372E+02  0.51100000000E-03 0.  1.
         23    2    1    0    0    0 -0.36454469531E+02 -0.19510567344E+02 -0.16549450654E+02  0.80463779866E+02  0.67014513104E+02 0.  0.
         11    1    3    3    0    0 -0.42889629282E+02 -0.39127085674E+02 -0.11036302377E+02  0.59095254494E+02  0.51100000000E-03 0. -1.
         22    1    1    0    0    0  0.36454469531E+02  0.19510567344E+02  0.16549450654E+02  0.44536220134E+02  0.00000000000E+00 0. -1.
</event>
<event>
 5    1  0.1692171E-003  0.9118800E+02  0.7818608E-02  0.1130116E+00
         25   -1    0    0    0    0  0.00000000000E+00  0.00000000000E+00  0.99999998245E-14  0.12500000000E+03  0.12500000000E+03 0.  0.
        -11    1    3    3    0    0  0.18556407432E+02  0.15594136413E+02  0.25557960897E+02  0.35223950840E+02  0.51100000000E-03 0. -1.
         23    2    1    0    0    0 -0.27898108750E+02 -0.37809265818E+01 -0.80170097253E+01  0.95727618434E+02  0.91142221876E+02 0.  0.
         11    1    3    3    0    0 -0.46454516182E+02 -0.19375062995E+02 -0.33574970623E+02  0.60503667594E+02  0.51100000000E-03 0.  1.
         22    1    1    0    0    0  0.27898108750E+02  0.37809265818E+01  0.80170097253E+01  0.29272381566E+02  0.00000000000E+00 0.  1.
</event>
<event>
 5    1  0.1692171E-003  0.9118800E+02  0.7818608E-02  0.1130116E+00
         25   -1    0    0    0    0  0.00000000000E+00  0.00000000000E+00  0.99999998245E-14  0.12500000000E+03  0.12500000000E+03 0.  0.
        -11    1    3    3    0    0  0.23614077324E+02 -0.57781719781E+02 -0.20850864237E+01  0.62455579209E+02  0.51100000000E-03 0. -1.
         23    2    1    0    0    0  0.11055171921E+02 -0.27364593138E+02 -0.26464644336E+01  0.95368233974E+02  0.90647992220E+02 0.  0.
         11    1    3    3    0    0 -0.12558905403E+02  0.30417126643E+02 -0.56137800990E+00  0.32912654765E+02  0.51100000000E-03 0.  1.
         22    1    1    0    0    0 -0.11055171921E+02  0.27364593138E+02  0.26464644336E+01  0.29631766026E+02  0.00000000000E+00 0. -1.
</event>
<event>
 5    1  0.1692171E-003  0.9118800E+02  0.7818608E-02  0.1130116E+00
         25   -1    0    0    0    0  0.00000000000E+00  0.00000000000E+00  0.99999998245E-14  0.12500000000E+03  0.12500000000E+03 0.  0.
        -11    1    3    3    0    0  0.27959414855E+02 -0.21933435271E+02 -0.44576587824E+02  0.57007689342E+02  0.51100000000E-03 0. -1.
         23    2    1    0    0    0  0.12240986593E+02  0.75519206363E+01 -0.26125290632E+02  0.95177121724E+02  0.90384071778E+02 0.  0.
         11    1    3    3    0    0 -0.15718428263E+02  0.29485355907E+02  0.18451297193E+02  0.38169432382E+02  0.51100000000E-03 0.  1.
         22    1    1    0    0    0 -0.12240986593E+02 -0.75519206363E+01  0.26125290632E+02  0.29822878276E+02  0.00000000000E+00 0. -1.
</event>
<event>
 5    1  0.1692171E-003  0.9118800E+02  0.7818608E-02  0.1130116E+00
         25   -1    0    0    0    0  0.00000000000E+00  0.00000000000E+00  0.99999998245E-14  0.12500000000E+03  0.12500000000E+03 0.  0.
        -11    1    3    3    0    0  0.46090919328E+02  0.25439207824E+02 -0.31658810992E+02  0.61431314920E+02  0.51100000000E-03 0.  1.
         23    2    1    0    0    0  0.25931209452E+02  0.50819644135E+01 -0.13842140585E+02  0.95169498128E+02  0.90373527828E+02 0.  0.
         11    1    3    3    0    0 -0.20159709875E+02 -0.20357243410E+02  0.17816670407E+02  0.33738183208E+02  0.51100000000E-03 0. -1.
         22    1    1    0    0    0 -0.25931209452E+02 -0.50819644135E+01  0.13842140585E+02  0.29830501872E+02  0.00000000000E+00 0.  1.
</event>
<event>
 5    1  0.1692171E-003  0.9118800E+02  0.7818608E-02  0.1130116E+00
         25   -1    0    0    0    0  0.00000000000E+00  0.00000000000E+00  0.99999998245E-14  0.12500000000E+03  0.12500000000E+03 0.  0.
        -11    1    3    3    0    0 -0.47021246521E+02 -0.27136249049E+02  0.14204198204E+02  0.56117135384E+02  0.51100000000E-03 0.  1.
         23    2    1    0    0    0 -0.13295250374E+02 -0.88667249947E+01  0.24424618163E+02  0.95811912241E+02  0.91257756164E+02 0.  0.
         11    1    3    3    0    0  0.33725996147E+02  0.18269524054E+02  0.10220419959E+02  0.39694776857E+02  0.51100000000E-03 0. -1.
         22    1    1    0    0    0  0.13295250374E+02  0.88667249947E+01 -0.24424618163E+02  0.29188087759E+02  0.00000000000E+00 0.  1.
</event>
<event>
 5    1  0.1692171E-003  0.9118800E+02  0.7818608E-02  0.1130116E+00
         25   -1    0    0    0    0  0.00000000000E+00  0.00000000000E+00  0.99999998245E-14  0.12500000000E+03  0.12500000000E+03 0.  0.
        -11    1    3    3    0    0 -0.32422110849E+02  0.99826396868E+01 -0.15678159437E+02  0.37371794854E+02  0.51100000000E-03 0. -1.
         23    2    1    0    0    0  0.25827462995E+02  0.81974970863E+01 -0.10720475565E+02  0.95859214157E+02  0.91322524818E+02 0.  0.
         11    1    3    3    0    0  0.58249573843E+02 -0.17851426005E+01  0.49576838718E+01  0.58487419303E+02  0.51100000000E-03 0.  1.
         22    1    1    0    0    0 -0.25827462995E+02 -0.81974970863E+01  0.10720475565E+02  0.29140785843E+02  0.00000000000E+00 0.  1.
</event>
<event>
 4    1  0.1692171E-003  0.9118800E+02  0.7818608E-02  0.1130116E+00
         25   -1    0    0    0    0  0.00000000000E+00  0.00000000000E+00  0.99999998245E-14  0.12500000000E+03  0.12500000000E+03 0.  0.
        -11    1    1    0    0    0 -0.44687360756E+02 -0.20049222755E+02 -0.26570162443E+02  0.55721675109E+02  0.51100000000E-03 0.  1.
         11    1    1    0    0    0  0.53774635680E+01 -0.14077506881E+01 -0.10012036676E+02  0.11451626744E+02  0.51100000000E-03 0. -1.
         22    1    1    0    0    0  0.39309897188E+02  0.21456973444E+02  0.36582199119E+02  0.57826698147E+02  0.00000000000E+00 0.  1.
</event>
<event>
 5    1  0.1692171E-003  0.9118800E+02  0.7818608E-02  0.1130116E+00
         25   -1    0    0    0    0  0.00000000000E+00  0.00000000000E+00  0.99999998245E-14  0.12500000000E+03  0.12500000000E+03 0.  0.
        -11    1    3    3    0    0  0.52102656239E+01  0.19467573173E+02  0.31340726082E+02  0.37260896187E+02  0.51100000000E-03 0. -1.
         23    2    1    0    0    0 -0.16544130244E+02 -0.24755846271E+02  0.85409746209E+00  0.95212592381E+02  0.90433113932E+02 0.  0.
         11    1    3    3    0    0 -0.21754395868E+02 -0.44223419444E+02 -0.30486628620E+02  0.57951696194E+02  0.51100000000E-03 0.  1.
         22    1    1    0    0    0  0.16544130244E+02  0.24755846271E+02 -0.85409746209E+00  0.29787407619E+02  0.00000000000E+00 0.  1.
</event>
<event>
 5    1  0.1692171E-003  0.9118800E+02  0.7818608E-02  0.1130116E+00
         25   -1    0    0    0    0  0.00000000000E+00  0.00000000000E+00  0.99999998245E-14  0.12500000000E+03  0.12500000000E+03 0.  0.
        -11    1    3    3    0    0 -0.38875653584E+02  0.17481749684E+01  0.29603027625E+01  0.39027374368E+02  0.51100000000E-03 0.  1.
         23    2    1    0    0    0  0.86671977529E+01  0.11498175703E+02  0.27908054027E+02  0.93596372169E+02  0.88170817407E+02 0.  0.
         11    1    3    3    0    0  0.47542851337E+02  0.97500007347E+01  0.24947751264E+02  0.54568997801E+02  0.51100000000E-03 0. -1.
         22    1    1    0    0    0 -0.86671977529E+01 -0.11498175703E+02 -0.27908054027E+02  0.31403627831E+02  0.00000000000E+00 0. -1.
</event>
<event>
 5    1  0.1692171E-003  0.9118800E+02  0.7818608E-02  0.1130116E+00
         25   -1    0    0    0    0  0.00000000000E+00  0.00000000000E+00  0.99999998245E-14  0.12500000000E+03  0.12500000000E+03 0.  0.
        -11    1    3    3    0    0 -0.40331875988E+02 -0.24896028983E+02 -0.36413622044E+02  0.59769761171E+02  0.51100000000E-03 0.  1.
         23    2    1    0    0    0 -0.23814694587E+02 -0.16639143130E+02 -0.60233211725E+01  0.95330467474E+02  0.90595898740E+02 0.  0.
         11    1    3    3    0    0  0.16517181401E+02  0.82568858534E+01  0.30390300872E+02  0.35560706303E+02  0.51100000000E-03 0. -1.
         22    1    1    0    0    0  0.23814694587E+02  0.16639143130E+02  0.60233211725E+01  0.29669532526E+02  0.00000000000E+00 0.  1.
</event>
<event>
 5    1  0.1692171E-003  0.9118800E+02  0.7818608E-02  0.1130116E+00
         25   -1    0    0    0    0  0.00000000000E+00  0.00000000000E+00  0.99999998245E-14  0.12500000000E+03  0.12500000000E+03 0.  0.
        -11    1    3    3    0    0  0.14159009963E+00 -0.37362517187E+02  0.68701547127E+01  0.37989166408E+02  0.51100000000E-03 0. -1.
         23    2    1    0    0    0  0.15686068938E+02  0.16283037432E+02 -0.14886922702E+02  0.97929526523E+02  0.94113663358E+02 0.  0.
         11    1    3    3    0    0  0.15544478838E+02  0.53645554620E+02 -0.21757077415E+02  0.59940360115E+02  0.51100000000E-03 0.  1.
         22    1    1    0    0    0 -0.15686068938E+02 -0.16283037432E+02  0.14886922702E+02  0.27070473477E+02  0.00000000000E+00 0.  1.
</event>
<event>
 5    1  0.1692171E-003  0.9118800E+02  0.7818608E-02  0.1130116E+00
         25   -1    0    0    0    0  0.00000000000E+00  0.00000000000E+00  0.99999998245E-14  0.12500000000E+03  0.12500000000E+03 0.  0.
        -11    1    3    3    0    0 -0.28969578867E+02 -0.80463824797E+01 -0.53975777367E+02  0.61784830771E+02  0.51100000000E-03 0.  1.
         23    2    1    0    0    0 -0.92087614901E+01  0.80168422178E+00 -0.27509616109E+02  0.95978922070E+02  0.91486231300E+02 0.  0.
         11    1    3    3    0    0  0.19760817377E+02  0.88480667014E+01  0.26466161258E+02  0.34194091299E+02  0.51100000000E-03 0. -1.
         22    1    1    0    0    0  0.92087614901E+01 -0.80168422178E+00  0.27509616109E+02  0.29021077930E+02  0.00000000000E+00 0.  1.
</event>
<event>
 5    1  0.1692171E-003  0.9118800E+02  0.7818608E-02  0.1130116E+00
         25   -1    0    0    0    0  0.00000000000E+00  0.00000000000E+00  0.99999998245E-14  0.12500000000E+03  0.12500000000E+03 0.  0.
        -11    1    3    3    0    0 -0.19397096707E+02 -0.17431394679E+02  0.22132455192E+02  0.34204480031E+02  0.51100000000E-03 0.  1.
         23    2    1    0    0    0  0.22029596011E+02  0.15743870284E+02 -0.98704246031E+01  0.96179905729E+02  0.91760429556E+02 0.  0.
         11    1    3    3    0    0  0.41426692718E+02  0.33175264963E+02 -0.32002879796E+02  0.61975425698E+02  0.51100000000E-03 0. -1.
         22    1    1    0    0    0 -0.22029596011E+02 -0.15743870284E+02  0.98704246031E+01  0.28820094271E+02  0.00000000000E+00 0. -1.
</event>
<event>
 5    1  0.1692171E-003  0.9118800E+02  0.7818608E-02  0.1130116E+00
         25   -1    0    0    0    0  0.00000000000E+00  0.00000000000E+00  0.99999998245E-14  0.12500000000E+03  0.12500000000E+03 0.  0.
        -11    1    3    3    0    0  0.35984560199E+02 -0.35645128582E+02 -0.23971079798E+02  0.56036384888E+02  0.51100000000E-03 0.  1.
         23    2    1    0    0    0  0.75337020383E+01 -0.86041100612E+01 -0.27272930493E+02  0.95426361164E+02  0.90728111911E+02 0.  0.
         11    1    3    3    0    0 -0.28450858161E+02  0.27041018520E+02 -0.33018506945E+01  0.39389976276E+02  0.51100000000E-03 0. -1.
         22    1    1    0    0    0 -0.75337020383E+01  0.86041100612E+01  0.27272930493E+02  0.29573638836E+02  0.00000000000E+00 0.  1.
</event>
<event>
 5    1  0.1692171E-003  0.9118800E+02  0.7818608E-02  0.1130116E+00
         25   -1    0    0    0    0  0.00000000000E+00  0.00000000000E+00  0.99999998245E-14  0.12500000000E+03  0.12500000000E+03 0.  0.
        -11    1    3    3    0    0 -0.12532491448E+02  0.50103951734E+02  0.15838466480E+02  0.54021535909E+02  0.51100000000E-03 0.  1.
         23    2    1    0    0    0 -0.44337695087E+01  0.10678339119E+02  0.26864237005E+02  0.95753248586E+02  0.91177366415E+02 0.  0.
         11    1    3    3    0    0  0.80987219392E+01 -0.39425612614E+02  0.11025770525E+02  0.41731712677E+02  0.51100000000E-03 0. -1.
         22    1    1    0    0    0  0.44337695087E+01 -0.10678339119E+02 -0.26864237005E+02  0.29246751414E+02  0.00000000000E+00 0.  1.
</event>
<event>
 5    1  0.1692171E-003  0.9118800E+02  0.7818608E-02  0.1130116E+00
         25   -1    0    0    0    0  0.00000000000E+00  0.00000000000E+00  0.99999998245E-14  0.12500000000E+03  0.12500000000E+03 0.  0.
        -11    1    3    3    0    0  0.17734576950E+02 -0.26608455712E+02  0.18534078106E+02  0.36959940293E+02  0.51100000000E-03 0. -1.
         23    2    1    0    0    0  0.57655789947E+01  0.12228173730E+02 -0.25039796802E+02  0.96543690370E+02  0.92254661630E+02 0.  0.
         11    1    3    3    0    0 -0.11968997955E+02  0.38836629442E+02 -0.43573874907E+02  0.59583750076E+02  0.51100000000E-03 0.  1.
         22    1    1    0    0    0 -0.57655789947E+01 -0.12228173730E+02  0.25039796802E+02  0.28456309630E+02  0.00000000000E+00 0.  1.
</event>
<event>
 5    1  0.1692171E-003  0.9118800E+02  0.7818608E-02  0.1130116E+00
         25   -1    0    0    0    0  0.00000000000E+00  0.00000000000E+00  0.99999998245E-14  0.12500000000E+03  0.12500000000E+03 0.  0.
        -11    1    3    3    0    0 -0.34278714349E+02 -0.30584935681E+02  0.33892717853E+02  0.57089271074E+02  0.51100000000E-03 0.  1.
         23    2    1    0    0    0 -0.27638189225E+02 -0.78192611443E+01  0.28753884611E+01  0.96133441368E+02  0.91697111961E+02 0.  0.
         11    1    3    3    0    0  0.66405251244E+01  0.22765674537E+02 -0.31017329392E+02  0.39044170294E+02  0.51100000000E-03 0. -1.
         22    1    1    0    0    0  0.27638189225E+02  0.78192611443E+01 -0.28753884611E+01  0.28866558632E+02  0.00000000000E+00 0.  1.
</event>
<event>
 5    1  0.1692171E-003  0.9118800E+02  0.7818608E-02  0.1130116E+00
         25   -1    0    0    0    0  0.00000000000E+00  0.00000000000E+00  0.99999998245E-14  0.12500000000E+03  0.12500000000E+03 0.  0.
        -11    1    3    3    0    0  0.25174865719E+02 -0.21740089702E+02 -0.81242435994E+01  0.34240454123E+02  0.51100000000E-03 0. -1.
         23    2    1    0    0    0 -0.11076915330E+02  0.26996349626E+02 -0.70004590319E+01  0.94991544974E+02  0.90127056113E+02 0.  0.
         11    1    3    3    0    0 -0.36251781049E+02  0.48736439328E+02  0.11237845675E+01  0.60751090851E+02  0.51100000000E-03 0.  1.
         22    1    1    0    0    0  0.11076915330E+02 -0.26996349626E+02  0.70004590319E+01  0.30008455026E+02  0.00000000000E+00 0.  1.
</event>
<event>
 5    1  0.1692171E-003  0.9118800E+02  0.7818608E-02  0.1130116E+00
         25   -1    0    0    0    0  0.00000000000E+00  0.00000000000E+00  0.99999998245E-14  0.12500000000E+03  0.12500000000E+03 0.  0.
        -11    1    3    3    0    0  0.22040826564E+02 -0.50713970764E+02  0.24618604700E+02  0.60529171181E+02  0.51100000000E-03 0.  1.
         23    2    1    0    0    0  0.11729746916E+02 -0.17595527330E+02  0.20651981050E+02  0.95441687023E+02  0.90749224547E+02 0.  0.
         11    1    3    3    0    0 -0.10311079648E+02  0.33118443434E+02 -0.39666236495E+01  0.34912515842E+02  0.51100000000E-03 0. -1.
         22    1    1    0    0    0 -0.11729746916E+02  0.17595527330E+02 -0.20651981050E+02  0.29558312977E+02  0.00000000000E+00 0.  1.
</event>
<event>
 5    1  0.1692171E-003  0.9118800E+02  0.7818608E-02  0.1130116E+00
         25   -1    0    0    0    0  0.00000000000E+00  0.00000000000E+00  0.99999998245E-14  0.12500000000E+03  0.12500000000E+03 0.  0.
        -11    1    3    3    0    0  0.58673635161E+01 -0.33065559321E+02 -0.22929342534E+02  0.40663397757E+02  0.51100000000E-03 0.  1.
         23    2    1    0    0    0  0.13289810216E+02  0.21833002814E+02 -0.10025178978E+02  0.97544521840E+02  0.93600910572E+02 0.  0.
         11    1    3    3    0    0  0.74224466997E+01  0.54898562136E+02  0.12904163556E+02  0.56881124083E+02  0.51100000000E-03 0. -1.
         22    1    1    0    0    0 -0.13289810216E+02 -0.21833002814E+02  0.10025178978E+02  0.27455478160E+02  0.00000000000E+00 0. -1.
</event>
<event>
 4    1  0.1692171E-003  0.9118800E+02  0.7818608E-02  0.1130116E+00
         25   -1    0    0    0    0  0.00000000000E+00  0.00000000000E+00  0.99999998245E-14  0.12500000000E+03  0.12500000000E+03 0.  0.
        -11    1    1    0    0    0  0.35023946981E+00 -0.77442364957E+01  0.20901894349E+02  0.22293161602E+02  0.51100000000E-03 0. -1.
         11    1    1    0    0    0 -0.57942214504E+01 -0.46059831380E+02 -0.11361908248E+02  0.47793033261E+02  0.51100000000E-03 0.  1.
         22    1    1    0    0    0  0.54439819805E+01  0.53804067876E+02 -0.95399861015E+01  0.54913805137E+02  0.00000000000E+00 0.  1.
</event>
<event>
 5    1  0.1692171E-003  0.9118800E+02  0.7818608E-02  0.1130116E+00
         25   -1    0    0    0    0  0.00000000000E+00  0.00000000000E+00  0.99999998245E-14  0.12500000000E+03  0.12500000000E+03 0.  0.
        -11    1    3    3    0    0 -0.43672213401E+01 -0.53623724733E+02  0.20241188159E+02  0.57482885930E+02  0.51100000000E-03 0. -1.
         23    2    1    0    0    0  0.58926318986E+01 -0.21203511853E+02  0.24858373584E+02  0.91799837909E+02  0.85585977107E+02 0.  0.
         11    1    3    3    0    0  0.10259853239E+02  0.32420212880E+02  0.46171854254E+01  0.34316951980E+02  0.51100000000E-03 0.  1.
         22    1    1    0    0    0 -0.58926318986E+01  0.21203511853E+02 -0.24858373584E+02  0.33200162091E+02  0.00000000000E+00 0. -1.
</event>
<event>
 5    1  0.1692171E-003  0.9118800E+02  0.7818608E-02  0.1130116E+00
         25   -1    0    0    0    0  0.00000000000E+00  0.00000000000E+00  0.99999998245E-14  0.12500000000E+03  0.12500000000E+03 0.  0.
        -11    1    3    3    0    0 -0.58529131294E+02 -0.21812470100E+01 -0.25072905961E+01  0.58623404498E+02  0.51100000000E-03 0. -1.
         23    2    1    0    0    0 -0.23335745768E+02 -0.16035375553E+02 -0.35781951547E+01  0.96460662582E+02  0.92142094861E+02 0.  0.
         11    1    3    3    0    0  0.35193385526E+02 -0.13854128543E+02 -0.10709045586E+01  0.37837258084E+02  0.51100000000E-03 0.  1.
         22    1    1    0    0    0  0.23335745768E+02  0.16035375553E+02  0.35781951547E+01  0.28539337418E+02  0.00000000000E+00 0. -1.
</event>
<event>
 5    1  0.1692171E-003  0.9118800E+02  0.7818608E-02  0.1130116E+00
         25   -1    0    0    0    0  0.00000000000E+00  0.00000000000E+00  0.99999998245E-14  0.12500000000E+03  0.12500000000E+03 0.  0.
        -11    1    3    3    0    0 -0.25177023952E+02  0.39245031916E+02 -0.46165280573E+01  0.46854747857E+02  0.51100000000E-03 0.  1.
         23    2    1    0    0    0 -0.20173062231E+02 -0.85066387435E+01  0.14723141943E+02  0.98616553463E+02  0.95021778377E+02 0.  0.
         11    1    3    3    0    0  0.50039617213E+01 -0.47751670660E+02  0.19339670000E+02  0.51761805607E+02  0.51100000000E-03 0. -1.
         22    1    1    0    0    0  0.20173062231E+02  0.85066387435E+01 -0.14723141943E+02  0.26383446537E+02  0.00000000000E+00 0. -1.
</event>
<event>
 5    1  0.1692171E-003  0.9118800E+02  0.7818608E-02  0.1130116E+00
         25   -1    0    0    0    0  0.00000000000E+00  0.00000000000E+00  0.99999998245E-14  0.12500000000E+03  0.12500000000E+03 0.  0.
        -11    1    3    3    0    0 -0.69147980912E+01  0.64308139810E+01  0.53558166039E+02  0.54384252783E+02  0.51100000000E-03 0.  1.
         23    2    1    0    0    0  0.15032113613E+02  0.16886600811E+01  0.31756621884E+01  0.10954358247E+03  0.10844766303E+03 0.  0.
         11    1    3    3    0    0  0.21946911704E+02 -0.47421539000E+01 -0.50382503850E+02  0.55159329686E+02  0.51100000000E-03 0. -1.
         22    1    1    0    0    0 -0.15032113613E+02 -0.16886600811E+01 -0.31756621884E+01  0.15456417530E+02  0.00000000000E+00 0. -1.
</event>
<event>
 5    1  0.1692171E-003  0.9118800E+02  0.7818608E-02  0.1130116E+00
         25   -1    0    0    0    0  0.00000000000E+00  0.00000000000E+00  0.99999998245E-14  0.12500000000E+03  0.12500000000E+03 0.  0.
        -11    1    3    3    0    0  0.40173354243E+01  0.18433456179E+02 -0.38992590570E+02  0.43316895206E+02  0.51100000000E-03 0. -1.
         23    2    1    0    0    0  0.84060833376E+01 -0.25649191969E+02 -0.10234481234E+02  0.96133273620E+02  0.91696883290E+02 0.  0.
         11    1    3    3    0    0  0.43887479132E+01 -0.44082648148E+02  0.28758109336E+02  0.52816378415E+02  0.51100000000E-03 0.  1.
         22    1    1    0    0    0 -0.84060833376E+01  0.25649191969E+02  0.10234481234E+02  0.28866726380E+02  0.00000000000E+00 0.  1.
</event>
<event>
 5    1  0.1692171E-003  0.9118800E+02  0.7818608E-02  0.1130116E+00
         25   -1    0    0    0    0  0.00000000000E+00  0.00000000000E+00  0.99999998245E-14  0.12500000000E+03  0.12500000000E+03 0.  0.
        -11    1    3    3    0    0  0.34256383851E+02 -0.27928528409E+02  0.20546872431E+02  0.48740911979E+02  0.51100000000E-03 0.  1.
         23    2    1    0    0    0  0.22818474835E+02 -0.44417804945E+01 -0.18203093445E+02  0.95474336269E+02  0.90794185207E+02 0.  0.
         11    1    3    3    0    0 -0.11437909016E+02  0.23486747915E+02 -0.38749965876E+02  0.46733424290E+02  0.51100000000E-03 0. -1.
         22    1    1    0    0    0 -0.22818474835E+02  0.44417804945E+01  0.18203093445E+02  0.29525663731E+02  0.00000000000E+00 0. -1.
</event>
<event>
 5    1  0.1692171E-003  0.9118800E+02  0.7818608E-02  0.1130116E+00
         25   -1    0    0    0    0  0.00000000000E+00  0.00000000000E+00  0.99999998245E-14  0.12500000000E+03  0.12500000000E+03 0.  0.
        -11    1    3    3    0    0 -0.54172670858E+02 -0.25506185008E+01 -0.23482483263E+02  0.59098315907E+02  0.51100000000E-03 0.  1.
         23    2    1    0    0    0 -0.27723758918E+02  0.13178301947E+02 -0.97844909096E+01  0.92781826353E+02  0.87008370795E+02 0.  0.
         11    1    3    3    0    0  0.26448911939E+02  0.15728920448E+02  0.13697992353E+02  0.33683510446E+02  0.51100000000E-03 0. -1.
         22    1    1    0    0    0  0.27723758918E+02 -0.13178301947E+02  0.97844909096E+01  0.32218173647E+02  0.00000000000E+00 0.  1.
</event>
<event>
 5    1  0.1692171E-003  0.9118800E+02  0.7818608E-02  0.1130116E+00
         25   -1    0    0    0    0  0.00000000000E+00  0.00000000000E+00  0.99999998245E-14  0.12500000000E+03  0.12500000000E+03 0.  0.
        -11    1    3    3    0    0 -0.40596380154E+02  0.33580488588E+02  0.24825561928E+02  0.58241083616E+02  0.51100000000E-03 0.  1.
         23    2    1    0    0    0 -0.48940172028E+01  0.19764501241E+02  0.19345660394E+02  0.96913677888E+02  0.92754619680E+02 0.  0.
         11    1    3    3    0    0  0.35702362951E+02 -0.13815987347E+02 -0.54799015332E+01  0.38672594272E+02  0.51100000000E-03 0. -1.
         22    1    1    0    0    0  0.48940172028E+01 -0.19764501241E+02 -0.19345660394E+02  0.28086322112E+02  0.00000000000E+00 0.  1.
</event>
<event>
 5    1  0.1692171E-003  0.9118800E+02  0.7818608E-02  0.1130116E+00
         25   -1    0    0    0    0  0.00000000000E+00  0.00000000000E+00  0.99999998245E-14  0.12500000000E+03  0.12500000000E+03 0.  0.
        -11    1    3    3    0    0  0.42128689941E+02  0.60770876692E+01  0.32092927947E+02  0.53307724911E+02  0.51100000000E-03 0.  1.
         23    2    1    0    0    0  0.39780951586E+00  0.58650084069E+01  0.29282062895E+02  0.95133701544E+02  0.90324002270E+02 0.  0.
         11    1    3    3    0    0 -0.41730880426E+02 -0.21207926233E+00 -0.28108650520E+01  0.41825976633E+02  0.51100000000E-03 0. -1.
         22    1    1    0    0    0 -0.39780951586E+00 -0.58650084069E+01 -0.29282062895E+02  0.29866298456E+02  0.00000000000E+00 0.  1.
</event>
<event>
 5    1  0.1692171E-003  0.9118800E+02  0.7818608E-02  0.1130116E+00
         25   -1    0    0    0    0  0.00000000000E+00  0.00000000000E+00  0.99999998245E-14  0.12500000000E+03  0.12500000000E+03 0.  0.
        -11    1    3    3    0    0  0.20634680950E+02  0.12127113092E+02  0.50649239581E+02  0.56019660837E+02  0.51100000000E-03 0.  1.
         23    2    1    0    0    0  0.24050873686E+02  0.17237097248E+02  0.15704573341E+02  0.91500810899E+02  0.85148122262E+02 0.  0.
         11    1    3    3    0    0  0.34161927358E+01  0.51099841556E+01 -0.34944666240E+02  0.35481150062E+02  0.51100000000E-03 0. -1.
         22    1    1    0    0    0 -0.24050873686E+02 -0.17237097248E+02 -0.15704573341E+02  0.33499189101E+02  0.00000000000E+00 0.  1.
</event>
<event>
 5    1  0.1692171E-003  0.9118800E+02  0.7818608E-02  0.1130116E+00
         25   -1    0    0    0    0  0.00000000000E+00  0.00000000000E+00  0.99999998245E-14  0.12500000000E+03  0.12500000000E+03 0.  0.
        -11    1    3    3    0    0 -0.20302803375E+01 -0.20901098703E+02 -0.21506381341E+02  0.30058316718E+02  0.51100000000E-03 0.  1.
         23    2    1    0    0    0  0.68172819450E+01  0.25130491193E+02  0.19604322284E+02  0.92406344591E+02  0.86467254771E+02 0.  0.
         11    1    3    3    0    0  0.88475622825E+01  0.46031589896E+02  0.41110703626E+02  0.62348027873E+02  0.51100000000E-03 0. -1.
         22    1    1    0    0    0 -0.68172819450E+01 -0.25130491193E+02 -0.19604322284E+02  0.32593655409E+02  0.00000000000E+00 0. -1.
</event>
<event>
 5    1  0.1692171E-003  0.9118800E+02  0.7818608E-02  0.1130116E+00
         25   -1    0    0    0    0  0.00000000000E+00  0.00000000000E+00  0.99999998245E-14  0.12500000000E+03  0.12500000000E+03 0.  0.
        -11    1    3    3    0    0 -0.47281109285E+02 -0.24961730740E+02  0.16253817798E+01  0.53490496006E+02  0.51100000000E-03 0.  1.
         23    2    1    0    0    0 -0.10269077918E+02 -0.20453502201E+02  0.19586249158E+02  0.94876572744E+02  0.89967456260E+02 0.  0.
         11    1    3    3    0    0  0.37012031367E+02  0.45082285390E+01  0.17960867378E+02  0.41386076738E+02  0.51100000000E-03 0. -1.
         22    1    1    0    0    0  0.10269077918E+02  0.20453502201E+02 -0.19586249158E+02  0.30123427256E+02  0.00000000000E+00 0.  1.
</event>
<event>
 5    1  0.1692171E-003  0.9118800E+02  0.7818608E-02  0.1130116E+00
         25   -1    0    0    0    0  0.00000000000E+00  0.00000000000E+00  0.99999998245E-14  0.12500000000E+03  0.12500000000E+03 0.  0.
        -11    1    3    3    0    0 -0.73101801893E+01  0.14911859943E+01  0.35195233762E+02  0.35977310209E+02  0.51100000000E-03 0.  1.
         23    2    1    0    0    0  0.24279798677E+02 -0.21110714466E+01 -0.15715722411E+02  0.96000876266E+02  0.91516222969E+02 0.  0.
         11    1    3    3    0    0  0.31589978867E+02 -0.36022574409E+01 -0.50910956173E+02  0.60023566057E+02  0.51100000000E-03 0. -1.
         22    1    1    0    0    0 -0.24279798677E+02  0.21110714466E+01  0.15715722411E+02  0.28999123734E+02  0.00000000000E+00 0. -1.
</event>
<event>
 5    1  0.1692171E-003  0.9118800E+02  0.7818608E-02  0.1130116E+00
         25   -1    0    0    0    0  0.00000000000E+00  0.00000000000E+00  0.99999998245E-14  0.12500000000E+03  0.12500000000E+03 0.  0.
        -11    1    3    3    0    0 -0.53622603108E+02 -0.55230852626E+01  0.22268068582E+02  0.58324565266E+02  0.51100000000E-03 0.  1.
         23    2    1    0    0    0 -0.28576596695E+02 -0.78483871408E+01 -0.44646643850E+01  0.95030811031E+02  0.90181498977E+02 0.  0.
         11    1    3    3    0    0  0.25046006412E+02 -0.23253018782E+01 -0.26732732967E+02  0.36706245765E+02  0.51100000000E-03 0. -1.
         22    1    1    0    0    0  0.28576596695E+02  0.78483871408E+01  0.44646643850E+01  0.29969188969E+02  0.00000000000E+00 0.  1.
</event>
<event>
 5    1  0.1692171E-003  0.9118800E+02  0.7818608E-02  0.1130116E+00
         25   -1    0    0    0    0  0.00000000000E+00  0.00000000000E+00  0.99999998245E-14  0.12500000000E+03  0.12500000000E+03 0.  0.
        -11    1    3    3    0    0 -0.72292021966E+01 -0.11923185670E+01 -0.37474615471E+02  0.38184156307E+02  0.51100000000E-03 0.  1.
         23    2    1    0    0    0  0.24927886001E+02 -0.28496678218E+01  0.11979065691E+02  0.97196796552E+02  0.93135380699E+02 0.  0.
         11    1    3    3    0    0  0.32157088197E+02 -0.16573492548E+01  0.49453681162E+02  0.59012640244E+02  0.51100000000E-03 0. -1.
         22    1    1    0    0    0 -0.24927886001E+02  0.28496678218E+01 -0.11979065691E+02  0.27803203448E+02  0.00000000000E+00 0. -1.
</event>
<event>
 5    1  0.1692171E-003  0.9118800E+02  0.7818608E-02  0.1130116E+00
         25   -1    0    0    0    0  0.00000000000E+00  0.00000000000E+00  0.99999998245E-14  0.12500000000E+03  0.12500000000E+03 0.  0.
        -11    1    3    3    0    0 -0.46206596981E+02  0.24483404087E+01 -0.12483969245E+02  0.47925916409E+02  0.51100000000E-03 0.  1.
         23    2    1    0    0    0 -0.10289225607E+02  0.28262058779E+02  0.29647167628E+01  0.94777464112E+02  0.89829650049E+02 0.  0.
         11    1    3    3    0    0  0.35917371374E+02  0.25813718370E+02  0.15448686008E+02  0.46851547703E+02  0.51100000000E-03 0. -1.
         22    1    1    0    0    0  0.10289225607E+02 -0.28262058779E+02 -0.29647167628E+01  0.30222535888E+02  0.00000000000E+00 0.  1.
</event>
<event>
 5    1  0.1692171E-003  0.9118800E+02  0.7818608E-02  0.1130116E+00
         25   -1    0    0    0    0  0.00000000000E+00  0.00000000000E+00  0.99999998245E-14  0.12500000000E+03  0.12500000000E+03 0.  0.
        -11    1    3    3    0    0  0.24762452661E+02  0.21090972432E+02 -0.33332447388E+02  0.46573170699E+02  0.51100000000E-03 0.  1.
         23    2    1    0    0    0 -0.17310768928E+02  0.22495451178E+02 -0.88698592508E+01  0.95261431647E+02  0.90500596195E+02 0.  0.
         11    1    3    3    0    0 -0.42073221589E+02  0.14044787462E+01  0.24462588137E+02  0.48688260947E+02  0.51100000000E-03 0. -1.
         22    1    1    0    0    0  0.17310768928E+02 -0.22495451178E+02  0.88698592508E+01  0.29738568353E+02  0.00000000000E+00 0.  1.
</event>
<event>
 5    1  0.1692171E-003  0.9118800E+02  0.7818608E-02  0.1130116E+00
         25   -1    0    0    0    0  0.00000000000E+00  0.00000000000E+00  0.99999998245E-14  0.12500000000E+03  0.12500000000E+03 0.  0.
        -11    1    3    3    0    0  0.62298430926E+01  0.12549889817E+02 -0.38904577951E+02  0.41350657373E+02  0.51100000000E-03 0.  1.
         23    2    1    0    0    0 -0.12533911450E+02  0.25028415717E+02  0.10063201479E+02  0.95254604499E+02  0.90491166003E+02 0.  0.
         11    1    3    3    0    0 -0.18763754542E+02  0.12478525900E+02  0.48967779430E+02  0.53903947126E+02  0.51100000000E-03 0. -1.
         22    1    1    0    0    0  0.12533911450E+02 -0.25028415717E+02 -0.10063201479E+02  0.29745395501E+02  0.00000000000E+00 0. -1.
</event>
<event>
 5    1  0.1692171E-003  0.9118800E+02  0.7818608E-02  0.1130116E+00
         25   -1    0    0    0    0  0.00000000000E+00  0.00000000000E+00  0.99999998245E-14  0.12500000000E+03  0.12500000000E+03 0.  0.
        -11    1    3    3    0    0  0.32581645235E+02  0.13303643130E+02 -0.16371353290E+02  0.38814581481E+02  0.51100000000E-03 0.  1.
         23    2    1    0    0    0  0.64146987009E+01 -0.96396723383E+01  0.27704503011E+02  0.94973159851E+02  0.90101553609E+02 0.  0.
         11    1    3    3    0    0 -0.26166946534E+02 -0.22943315468E+02  0.44075856302E+02  0.56158578370E+02  0.51100000000E-03 0. -1.
         22    1    1    0    0    0 -0.64146987009E+01  0.96396723383E+01 -0.27704503011E+02  0.30026840149E+02  0.00000000000E+00 0. -1.
</event>
<event>
 5    1  0.1692171E-003  0.9118800E+02  0.7818608E-02  0.1130116E+00
         25   -1    0    0    0    0  0.00000000000E+00  0.00000000000E+00  0.99999998245E-14  0.12500000000E+03  0.12500000000E+03 0.  0.
        -11    1    3    3    0    0  0.32170611557E+02  0.28467340775E+02 -0.29573889086E+02  0.52153165337E+02  0.51100000000E-03 0. -1.
         23    2    1    0    0    0  0.28114909013E+02  0.24231800646E+01 -0.35975432232E+02  0.79277449385E+02  0.64763896936E+02 0.  0.
         11    1    3    3    0    0 -0.40557025440E+01 -0.26044160710E+02 -0.64015431463E+01  0.27124284048E+02  0.51100000000E-03 0.  1.
         22    1    1    0    0    0 -0.28114909013E+02 -0.24231800646E+01  0.35975432232E+02  0.45722550615E+02  0.00000000000E+00 0. -1.
</event>
<event>
 5    1  0.1692171E-003  0.9118800E+02  0.7818608E-02  0.1130116E+00
         25   -1    0    0    0    0  0.00000000000E+00  0.00000000000E+00  0.99999998245E-14  0.12500000000E+03  0.12500000000E+03 0.  0.
        -11    1    3    3    0    0  0.14704977644E+02 -0.15386663223E+02  0.26662299465E+02  0.34115450834E+02  0.51100000000E-03 0.  1.
         23    2    1    0    0    0 -0.27969724404E+02  0.58874424634E+01 -0.10478876379E+02  0.94557031811E+02  0.89522387997E+02 0.  0.
         11    1    3    3    0    0 -0.42674702048E+02  0.21274105686E+02 -0.37141175844E+02  0.60441580976E+02  0.51100000000E-03 0. -1.
         22    1    1    0    0    0  0.27969724404E+02 -0.58874424634E+01  0.10478876379E+02  0.30442968189E+02  0.00000000000E+00 0. -1.
</event>
<event>
 5    1  0.1692171E-003  0.9118800E+02  0.7818608E-02  0.1130116E+00
         25   -1    0    0    0    0  0.00000000000E+00  0.00000000000E+00  0.99999998245E-14  0.12500000000E+03  0.12500000000E+03 0.  0.
        -11    1    3    3    0    0  0.16538915254E+02 -0.55665764066E+02 -0.17335151164E+02  0.60602974127E+02  0.51100000000E-03 0. -1.
         23    2    1    0    0    0  0.55156926549E+01 -0.21744640197E+02 -0.17940229239E+02  0.96275375234E+02  0.91890390186E+02 0.  0.
         11    1    3    3    0    0 -0.11023222599E+02  0.33921123869E+02 -0.60507807521E+00  0.35672401107E+02  0.51100000000E-03 0.  1.
         22    1    1    0    0    0 -0.55156926549E+01  0.21744640197E+02  0.17940229239E+02  0.28724624766E+02  0.00000000000E+00 0. -1.
</event>
<event>
 5    1  0.1692171E-003  0.9118800E+02  0.7818608E-02  0.1130116E+00
         25   -1    0    0    0    0  0.00000000000E+00  0.00000000000E+00  0.99999998245E-14  0.12500000000E+03  0.12500000000E+03 0.  0.
        -11    1    3    3    0    0 -0.58466405917E+01  0.31578713390E+02  0.45033649389E+02  0.55312095631E+02  0.51100000000E-03 0. -1.
         23    2    1    0    0    0  0.17671591438E+02  0.18692537949E+02  0.16663442971E+02  0.94350914360E+02  0.89234122341E+02 0.  0.
         11    1    3    3    0    0  0.23518232029E+02 -0.12886175441E+02 -0.28370206418E+02  0.39038818729E+02  0.51100000000E-03 0.  1.
         22    1    1    0    0    0 -0.17671591438E+02 -0.18692537949E+02 -0.16663442971E+02  0.30649085640E+02  0.00000000000E+00 0. -1.
</event>
<event>
 5    1  0.1692171E-003  0.9118800E+02  0.7818608E-02  0.1130116E+00
         25   -1    0    0    0    0  0.00000000000E+00  0.00000000000E+00  0.99999998245E-14  0.12500000000E+03  0.12500000000E+03 0.  0.
        -11    1    3    3    0    0 -0.27461772330E+02 -0.14666939948E+02  0.97760174347E+01  0.32631864551E+02  0.51100000000E-03 0. -1.
         23    2    1    0    0    0  0.23585083278E+02  0.13946191678E+02 -0.12021656621E+02  0.95078893011E+02  0.90248120494E+02 0.  0.
         11    1    3    3    0    0  0.51046855608E+02  0.28613131627E+02 -0.21797674055E+02  0.62447028459E+02  0.51100000000E-03 0.  1.
         22    1    1    0    0    0 -0.23585083278E+02 -0.13946191678E+02  0.12021656621E+02  0.29921106989E+02  0.00000000000E+00 0.  1.
</event>
<event>
 5    1  0.1692171E-003  0.9118800E+02  0.7818608E-02  0.1130116E+00
         25   -1    0    0    0    0  0.00000000000E+00  0.00000000000E+00  0.99999998245E-14  0.12500000000E+03  0.12500000000E+03 0.  0.
        -11    1    3    3    0    0  0.83912033806E+01  0.26973925668E+01  0.57751636351E+02  0.58420370782E+02  0.51100000000E-03 0. -1.
         23    2    1    0    0    0 -0.96314675488E+01 -0.74271918999E+01  0.25813535704E+02  0.96464636463E+02  0.92147485672E+02 0.  0.
         11    1    3    3    0    0 -0.18022670929E+02 -0.10124584467E+02 -0.31938100646E+02  0.38044265681E+02  0.51100000000E-03 0.  1.
         22    1    1    0    0    0  0.96314675488E+01  0.74271918999E+01 -0.25813535704E+02  0.28535363537E+02  0.00000000000E+00 0. -1.
</event>
<event>
 5    1  0.1692171E-003  0.9118800E+02  0.7818608E-02  0.1130116E+00
         25   -1    0    0    0    0  0.00000000000E+00  0.00000000000E+00  0.99999998245E-14  0.12500000000E+03  0.12500000000E+03 0.  0.
        -11    1    3    3    0    0 -0.29073189347E+02  0.29929189079E+01  0.55011156575E+02  0.62293139674E+02  0.51100000000E-03 0.  1.
         23    2    1    0    0    0 -0.13961927796E+02 -0.15191430286E+01  0.21655247554E+02  0.99189285753E+02  0.95772237304E+02 0.  0.
         11    1    3    3    0    0  0.15111261552E+02 -0.45120619365E+01 -0.33355909021E+02  0.36896146079E+02  0.51100000000E-03 0. -1.
         22    1    1    0    0    0  0.13961927796E+02  0.15191430286E+01 -0.21655247554E+02  0.25810714247E+02  0.00000000000E+00 0.  1.
</event>
<event>
 5    1  0.1692171E-003  0.9118800E+02  0.7818608E-02  0.1130116E+00
         25   -1    0    0    0    0  0.00000000000E+00  0.00000000000E+00  0.99999998245E-14  0.12500000000E+03  0.12500000000E+03 0.  0.
        -11    1    3    3    0    0  0.27103664486E+02 -0.14373809524E+02  0.12128770958E+02  0.32989727401E+02  0.51100000000E-03 0.  1.
         23    2    1    0    0    0 -0.33901033478E+01  0.33910772653E+02  0.54662185107E+01  0.90484599851E+02  0.83642991116E+02 0.  0.
         11    1    3    3    0    0 -0.30493767834E+02  0.48284582177E+02 -0.66625524470E+01  0.57494872450E+02  0.51100000000E-03 0. -1.
         22    1    1    0    0    0  0.33901033478E+01 -0.33910772653E+02 -0.54662185107E+01  0.34515400149E+02  0.00000000000E+00 0. -1.
</event>
<event>
 5    1  0.1692171E-003  0.9118800E+02  0.7818608E-02  0.1130116E+00
         25   -1    0    0    0    0  0.00000000000E+00  0.00000000000E+00  0.99999998245E-14  0.12500000000E+03  0.12500000000E+03 0.  0.
        -11    1    3    3    0    0  0.20878979088E+02 -0.23241547961E+01 -0.37065642587E+02  0.42605109129E+02  0.51100000000E-03 0. -1.
         23    2    1    0    0    0  0.87714039966E+01 -0.26291267806E+02  0.89437203083E+01  0.95876840421E+02  0.91346648024E+02 0.  0.
         11    1    3    3    0    0 -0.12107575091E+02 -0.23967113010E+02  0.46009362895E+02  0.53271731292E+02  0.51100000000E-03 0.  1.
         22    1    1    0    0    0 -0.87714039966E+01  0.26291267806E+02 -0.89437203083E+01  0.29123159579E+02  0.00000000000E+00 0.  1.
</event>
<event>
 5    1  0.1692171E-003  0.9118800E+02  0.7818608E-02  0.1130116E+00
         25   -1    0    0    0    0  0.00000000000E+00  0.00000000000E+00  0.99999998245E-14  0.12500000000E+03  0.12500000000E+03 0.  0.
        -11    1    3    3    0    0  0.17359428232E+02  0.23049948513E+02 -0.22711909654E+02  0.36721665477E+02  0.51100000000E-03 0. -1.
         23    2    1    0    0    0 -0.31841276921E+02  0.49793767165E+01 -0.33486530724E+01  0.92598231748E+02  0.86744209818E+02 0.  0.
         11    1    3    3    0    0 -0.49200705153E+02 -0.18070571796E+02  0.19363256582E+02  0.55876566271E+02  0.51100000000E-03 0.  1.
         22    1    1    0    0    0  0.31841276921E+02 -0.49793767165E+01  0.33486530724E+01  0.32401768252E+02  0.00000000000E+00 0.  1.
</event>
<event>
 5    1  0.1692171E-003  0.9118800E+02  0.7818608E-02  0.1130116E+00
         25   -1    0    0    0    0  0.00000000000E+00  0.00000000000E+00  0.99999998245E-14  0.12500000000E+03  0.12500000000E+03 0.  0.
        -11    1    3    3    0    0  0.21551127367E+02 -0.23333612430E+02  0.41325984993E+02  0.52122409726E+02  0.51100000000E-03 0. -1.
         23    2    1    0    0    0  0.26123115569E+02 -0.12082851004E+02 -0.10444564847E+01  0.96198900286E+02  0.91786301110E+02 0.  0.
         11    1    3    3    0    0  0.45719882019E+01  0.11250761426E+02 -0.42370441477E+02  0.44076490559E+02  0.51100000000E-03 0.  1.
         22    1    1    0    0    0 -0.26123115569E+02  0.12082851004E+02  0.10444564847E+01  0.28801099714E+02  0.00000000000E+00 0. -1.
</event>
<event>
 5    1  0.1692171E-003  0.9118800E+02  0.7818608E-02  0.1130116E+00
         25   -1    0    0    0    0  0.00000000000E+00  0.00000000000E+00  0.99999998245E-14  0.12500000000E+03  0.12500000000E+03 0.  0.
        -11    1    3    3    0    0 -0.25858071166E+02  0.14739946799E+01  0.21015372439E+02  0.33353536300E+02  0.51100000000E-03 0. -1.
         23    2    1    0    0    0  0.75373564873E+00 -0.33783679409E+02 -0.12675712434E+02  0.88908743475E+02  0.81253836025E+02 0.  0.
         11    1    3    3    0    0  0.26611806814E+02 -0.35257674089E+02 -0.33691084872E+02  0.55555207175E+02  0.51100000000E-03 0.  1.
         22    1    1    0    0    0 -0.75373564873E+00  0.33783679409E+02  0.12675712434E+02  0.36091256525E+02  0.00000000000E+00 0.  1.
</event>
<event>
 5    1  0.1692171E-003  0.9118800E+02  0.7818608E-02  0.1130116E+00
         25   -1    0    0    0    0  0.00000000000E+00  0.00000000000E+00  0.99999998245E-14  0.12500000000E+03  0.12500000000E+03 0.  0.
        -11    1    3    3    0    0 -0.14848234408E+02  0.30709500376E+01 -0.31951721714E+02  0.35366839270E+02  0.51100000000E-03 0. -1.
         23    2    1    0    0    0  0.11286636315E+02 -0.13061330721E+02  0.21750830922E+02  0.97231579712E+02  0.93182052607E+02 0.  0.
         11    1    3    3    0    0  0.26134870723E+02 -0.16132280759E+02  0.53702552636E+02  0.61864740442E+02  0.51100000000E-03 0.  1.
         22    1    1    0    0    0 -0.11286636315E+02  0.13061330721E+02 -0.21750830922E+02  0.27768420288E+02  0.00000000000E+00 0.  1.
</event>
<event>
 5    1  0.1692171E-003  0.9118800E+02  0.7818608E-02  0.1130116E+00
         25   -1    0    0    0    0  0.00000000000E+00  0.00000000000E+00  0.99999998245E-14  0.12500000000E+03  0.12500000000E+03 0.  0.
        -11    1    3    3    0    0 -0.38669307414E+02  0.34628573577E+02  0.49153426141E+01  0.52140330237E+02  0.51100000000E-03 0.  1.
         23    2    1    0    0    0 -0.37995782976E+01  0.22484334411E+02 -0.18304951465E+02  0.95758704931E+02  0.91184846509E+02 0.  0.
         11    1    3    3    0    0  0.34869729117E+02 -0.12144239166E+02 -0.23220294080E+02  0.43618374695E+02  0.51100000000E-03 0. -1.
         22    1    1    0    0    0  0.37995782976E+01 -0.22484334411E+02  0.18304951465E+02  0.29241295069E+02  0.00000000000E+00 0.  1.
</event>
<event>
 5    1  0.1692171E-003  0.9118800E+02  0.7818608E-02  0.1130116E+00
         25   -1    0    0    0    0  0.00000000000E+00  0.00000000000E+00  0.99999998245E-14  0.12500000000E+03  0.12500000000E+03 0.  0.
        -11    1    3    3    0    0  0.12931696520E+02 -0.52024680454E+02 -0.63615217448E+01  0.53983933817E+02  0.51100000000E-03 0.  1.
         23    2    1    0    0    0 -0.95603100007E+01 -0.18586715409E+02  0.14692748603E+02  0.99451176572E+02  0.96113444133E+02 0.  0.
         11    1    3    3    0    0 -0.22492006520E+02  0.33437965044E+02  0.21054270348E+02  0.45467242755E+02  0.51100000000E-03 0. -1.
         22    1    1    0    0    0  0.95603100007E+01  0.18586715409E+02 -0.14692748603E+02  0.25548823428E+02  0.00000000000E+00 0.  1.
</event>
<event>
 5    1  0.1692171E-003  0.9118800E+02  0.7818608E-02  0.1130116E+00
         25   -1    0    0    0    0  0.00000000000E+00  0.00000000000E+00  0.99999998245E-14  0.12500000000E+03  0.12500000000E+03 0.  0.
        -11    1    3    3    0    0  0.35324779416E+02  0.49449055252E+02  0.14360095290E+02  0.62444066517E+02  0.51100000000E-03 0. -1.
         23    2    1    0    0    0  0.14952141235E+02  0.22512931972E+02  0.47266548258E+01  0.97563894239E+02  0.93626778005E+02 0.  0.
         11    1    3    3    0    0 -0.20372638181E+02 -0.26936123280E+02 -0.96334404643E+01  0.35119827722E+02  0.51100000000E-03 0.  1.
         22    1    1    0    0    0 -0.14952141235E+02 -0.22512931972E+02 -0.47266548258E+01  0.27436105761E+02  0.00000000000E+00 0. -1.
</event>
<event>
 5    1  0.1692171E-003  0.9118800E+02  0.7818608E-02  0.1130116E+00
         25   -1    0    0    0    0  0.00000000000E+00  0.00000000000E+00  0.99999998245E-14  0.12500000000E+03  0.12500000000E+03 0.  0.
        -11    1    3    3    0    0 -0.17458326392E+02 -0.11284842447E+02  0.29220084549E+02  0.35860203161E+02  0.51100000000E-03 0.  1.
         23    2    1    0    0    0  0.26821337814E+02  0.41271354724E+01 -0.90629544679E+01  0.96389607604E+02  0.92045651179E+02 0.  0.
         11    1    3    3    0    0  0.44279664206E+02  0.15411977920E+02 -0.38283039016E+02  0.60529404443E+02  0.51100000000E-03 0. -1.
         22    1    1    0    0    0 -0.26821337814E+02 -0.41271354724E+01  0.90629544679E+01  0.28610392396E+02  0.00000000000E+00 0. -1.
</event>
<event>
 5    1  0.1692171E-003  0.9118800E+02  0.7818608E-02  0.1130116E+00
         25   -1    0    0    0    0  0.00000000000E+00  0.00000000000E+00  0.99999998245E-14  0.12500000000E+03  0.12500000000E+03 0.  0.
        -11    1    3    3    0    0 -0.45200612016E+02 -0.18864357598E+02 -0.29698125562E+02  0.57279472557E+02  0.51100000000E-03 0. -1.
         23    2    1    0    0    0 -0.20768569013E+02 -0.18678424520E+02  0.16434880629E+01  0.97019327127E+02  0.92896887902E+02 0.  0.
         11    1    3    3    0    0  0.24432043002E+02  0.18593307867E+00  0.31341613625E+02  0.39739854571E+02  0.51100000000E-03 0.  1.
         22    1    1    0    0    0  0.20768569013E+02  0.18678424520E+02 -0.16434880629E+01  0.27980672873E+02  0.00000000000E+00 0. -1.
</event>
<event>
 5    1  0.1692171E-003  0.9118800E+02  0.7818608E-02  0.1130116E+00
         25   -1    0    0    0    0  0.00000000000E+00  0.00000000000E+00  0.99999998245E-14  0.12500000000E+03  0.12500000000E+03 0.  0.
        -11    1    3    3    0    0 -0.41220394550E+02 -0.39230964917E+01  0.90414870438E+01  0.42382308823E+02  0.51100000000E-03 0.  1.
         23    2    1    0    0    0  0.29299197715E+01  0.23165086784E+02  0.18715102272E+02  0.95075750158E+02  0.90243767316E+02 0.  0.
         11    1    3    3    0    0  0.44150314321E+02  0.27088183276E+02  0.96736152282E+01  0.52693441335E+02  0.51100000000E-03 0. -1.
         22    1    1    0    0    0 -0.29299197715E+01 -0.23165086784E+02 -0.18715102272E+02  0.29924249842E+02  0.00000000000E+00 0. -1.
</event>
<event>
 5    1  0.1692171E-003  0.9118800E+02  0.7818608E-02  0.1130116E+00
         25   -1    0    0    0    0  0.00000000000E+00  0.00000000000E+00  0.99999998245E-14  0.12500000000E+03  0.12500000000E+03 0.  0.
        -11    1    3    3    0    0 -0.25289526721E+02 -0.29109285992E+02 -0.10936285495E+01  0.38575986266E+02  0.51100000000E-03 0. -1.
         23    2    1    0    0    0 -0.87463243213E+00  0.23474788835E+02 -0.13559106040E+02  0.97876577477E+02  0.94043311135E+02 0.  0.
         11    1    3    3    0    0  0.24414894289E+02  0.52584074828E+02 -0.12465477490E+02  0.59300591211E+02  0.51100000000E-03 0.  1.
         22    1    1    0    0    0  0.87463243213E+00 -0.23474788835E+02  0.13559106040E+02  0.27123422523E+02  0.00000000000E+00 0.  1.
</event>
<event>
 5    1  0.1692171E-003  0.9118800E+02  0.7818608E-02  0.1130116E+00
         25   -1    0    0    0    0  0.00000000000E+00  0.00000000000E+00  0.99999998245E-14  0.12500000000E+03  0.12500000000E+03 0.  0.
        -11    1    3    3    0    0 -0.12364614380E+02 -0.13253543172E+02 -0.30639047198E+02  0.35599035223E+02  0.51100000000E-03 0.  1.
         23    2    1    0    0    0  0.15450702646E+02  0.26452470766E+02  0.24088290134E+01  0.94271188128E+02  0.89122371108E+02 0.  0.
         11    1    3    3    0    0  0.27815317026E+02  0.39706013938E+02  0.33047876211E+02  0.58672152904E+02  0.51100000000E-03 0. -1.
         22    1    1    0    0    0 -0.15450702646E+02 -0.26452470766E+02 -0.24088290134E+01  0.30728811872E+02  0.00000000000E+00 0. -1.
</event>
<event>
 5    1  0.1692171E-003  0.9118800E+02  0.7818608E-02  0.1130116E+00
         25   -1    0    0    0    0  0.00000000000E+00  0.00000000000E+00  0.99999998245E-14  0.12500000000E+03  0.12500000000E+03 0.  0.
        -11    1    3    3    0    0  0.48952166215E+02 -0.16668642688E+02  0.24264163770E+01  0.51769158028E+02  0.51100000000E-03 0.  1.
         23    2    1    0    0    0  0.16151782315E+02  0.15518235460E+02  0.13242226667E+02  0.98979771891E+02  0.95498392515E+02 0.  0.
         11    1    3    3    0    0 -0.32800383900E+02  0.32186878148E+02  0.10815810290E+02  0.47210613864E+02  0.51100000000E-03 0. -1.
         22    1    1    0    0    0 -0.16151782315E+02 -0.15518235460E+02 -0.13242226667E+02  0.26020228109E+02  0.00000000000E+00 0.  1.
</event>
<event>
 5    1  0.1692171E-003  0.9118800E+02  0.7818608E-02  0.1130116E+00
         25   -1    0    0    0    0  0.00000000000E+00  0.00000000000E+00  0.99999998245E-14  0.12500000000E+03  0.12500000000E+03 0.  0.
        -11    1    3    3    0    0  0.51812268096E+02  0.32072524211E+02 -0.40561436013E+00  0.60937036831E+02  0.51100000000E-03 0.  1.
         23    2    1    0    0    0  0.24331601883E+02  0.11555232007E+02  0.91735213445E+01  0.96544706454E+02  0.92256038358E+02 0.  0.
         11    1    3    3    0    0 -0.27480666213E+02 -0.20517292204E+02  0.95791357047E+01  0.35607669623E+02  0.51100000000E-03 0. -1.
         22    1    1    0    0    0 -0.24331601883E+02 -0.11555232007E+02 -0.91735213445E+01  0.28455293546E+02  0.00000000000E+00 0.  1.
</event>
<event>
 5    1  0.1692171E-003  0.9118800E+02  0.7818608E-02  0.1130116E+00
         25   -1    0    0    0    0  0.00000000000E+00  0.00000000000E+00  0.99999998245E-14  0.12500000000E+03  0.12500000000E+03 0.  0.
        -11    1    3    3    0    0 -0.29005340255E+02  0.19811711872E+02 -0.14653829898E+02  0.38059800598E+02  0.51100000000E-03 0. -1.
         23    2    1    0    0    0  0.20539891682E+02  0.17825895456E+02  0.13023203263E+02  0.94846169027E+02  0.89925203680E+02 0.  0.
         11    1    3    3    0    0  0.49545231937E+02 -0.19858164161E+01  0.27677033161E+02  0.56786368429E+02  0.51100000000E-03 0.  1.
         22    1    1    0    0    0 -0.20539891682E+02 -0.17825895456E+02 -0.13023203263E+02  0.30153830973E+02  0.00000000000E+00 0.  1.
</event>
<event>
 5    1  0.1692171E-003  0.9118800E+02  0.7818608E-02  0.1130116E+00
         25   -1    0    0    0    0  0.00000000000E+00  0.00000000000E+00  0.99999998245E-14  0.12500000000E+03  0.12500000000E+03 0.  0.
        -11    1    3    3    0    0  0.16860114248E+02  0.11212629620E+02  0.45161625513E+02  0.49493019050E+02  0.51100000000E-03 0.  1.
         23    2    1    0    0    0 -0.92860415881E+01 -0.18385903943E+02  0.19804407765E+02  0.96425770368E+02  0.92094747906E+02 0.  0.
         11    1    3    3    0    0 -0.26146155836E+02 -0.29598533563E+02 -0.25357217748E+02  0.46932751318E+02  0.51100000000E-03 0. -1.
         22    1    1    0    0    0  0.92860415881E+01  0.18385903943E+02 -0.19804407765E+02  0.28574229632E+02  0.00000000000E+00 0.  1.
</event>
<event>
 5    1  0.1692171E-003  0.9118800E+02  0.7818608E-02  0.1130116E+00
         25   -1    0    0    0    0  0.00000000000E+00  0.00000000000E+00  0.99999998245E-14  0.12500000000E+03  0.12500000000E+03 0.  0.
        -11    1    3    3    0    0  0.29229286276E+02 -0.24234665193E+02 -0.26131997691E+01  0.38059151154E+02  0.51100000000E-03 0. -1.
         23    2    1    0    0    0 -0.97201472699E+01  0.13565814246E+02 -0.23467012316E+02  0.96203936968E+02  0.91793160105E+02 0.  0.
         11    1    3    3    0    0 -0.38949433546E+02  0.37800479439E+02 -0.20853812547E+02  0.58144785814E+02  0.51100000000E-03 0.  1.
         22    1    1    0    0    0  0.97201472699E+01 -0.13565814246E+02  0.23467012316E+02  0.28796063032E+02  0.00000000000E+00 0.  1.
</event>
<event>
 5    1  0.1692171E-003  0.9118800E+02  0.7818608E-02  0.1130116E+00
         25   -1    0    0    0    0  0.00000000000E+00  0.00000000000E+00  0.99999998245E-14  0.12500000000E+03  0.12500000000E+03 0.  0.
        -11    1    3    3    0    0 -0.14051547389E+00  0.85670417933E+01  0.44388583259E+02  0.45207966927E+02  0.51100000000E-03 0.  1.
         23    2    1    0    0    0 -0.22537815093E+02  0.18011911932E+02 -0.37625765874E+00  0.96146514068E+02  0.91714930720E+02 0.  0.
         11    1    3    3    0    0 -0.22397299619E+02  0.94448701383E+01 -0.44764840918E+02  0.50938547141E+02  0.51100000000E-03 0. -1.
         22    1    1    0    0    0  0.22537815093E+02 -0.18011911932E+02  0.37625765874E+00  0.28853485932E+02  0.00000000000E+00 0. -1.
</event>
<event>
 5    1  0.1692171E-003  0.9118800E+02  0.7818608E-02  0.1130116E+00
         25   -1    0    0    0    0  0.00000000000E+00  0.00000000000E+00  0.99999998245E-14  0.12500000000E+03  0.12500000000E+03 0.  0.
        -11    1    3    3    0    0 -0.26702070309E+02 -0.31754319373E+02  0.44752948783E+01  0.41729673161E+02  0.51100000000E-03 0. -1.
         23    2    1    0    0    0 -0.28375370059E+02 -0.10358707382E+02 -0.30056586148E+02  0.82387058123E+02  0.70510740534E+02 0.  0.
         11    1    3    3    0    0 -0.16732997495E+01  0.21395611991E+02 -0.34531881026E+02  0.40657384962E+02  0.51100000000E-03 0.  1.
         22    1    1    0    0    0  0.28375370059E+02  0.10358707382E+02  0.30056586148E+02  0.42612941877E+02  0.00000000000E+00 0. -1.
</event>
<event>
 5    1  0.1692171E-003  0.9118800E+02  0.7818608E-02  0.1130116E+00
         25   -1    0    0    0    0  0.00000000000E+00  0.00000000000E+00  0.99999998245E-14  0.12500000000E+03  0.12500000000E+03 0.  0.
        -11    1    3    3    0    0 -0.33889048150E+02  0.35403304227E+02  0.34251368885E+02  0.59791452612E+02  0.51100000000E-03 0.  1.
         23    2    1    0    0    0 -0.76694613621E+01  0.11159090373E+02  0.24820318699E+02  0.96726440694E+02  0.92501946863E+02 0.  0.
         11    1    3    3    0    0  0.26219586788E+02 -0.24244213854E+02 -0.94310501859E+01  0.36934988082E+02  0.51100000000E-03 0. -1.
         22    1    1    0    0    0  0.76694613621E+01 -0.11159090373E+02 -0.24820318699E+02  0.28273559306E+02  0.00000000000E+00 0.  1.
</event>
<event>
 5    1  0.1692171E-003  0.9118800E+02  0.7818608E-02  0.1130116E+00
         25   -1    0    0    0    0  0.00000000000E+00  0.00000000000E+00  0.99999998245E-14  0.12500000000E+03  0.12500000000E+03 0.  0.
        -11    1    3    3    0    0  0.17415593996E+01  0.21533881320E+02 -0.46450340438E+02  0.51228656052E+02  0.51100000000E-03 0. -1.
         23    2    1    0    0    0  0.20287051370E+02  0.19863494443E+02 -0.56867402013E+01  0.96043793776E+02  0.91574824291E+02 0.  0.
         11    1    3    3    0    0  0.18545491970E+02 -0.16703868775E+01  0.40763600236E+02  0.44815137724E+02  0.51100000000E-03 0.  1.
         22    1    1    0    0    0 -0.20287051370E+02 -0.19863494443E+02  0.56867402013E+01  0.28956206224E+02  0.00000000000E+00 0. -1.
</event>
<event>
 5    1  0.1692171E-003  0.9118800E+02  0.7818608E-02  0.1130116E+00
         25   -1    0    0    0    0  0.00000000000E+00  0.00000000000E+00  0.99999998245E-14  0.12500000000E+03  0.12500000000E+03 0.  0.
        -11    1    3    3    0    0 -0.25417007172E+02 -0.49252317011E+02 -0.25902590707E+01  0.55484452118E+02  0.51100000000E-03 0.  1.
         23    2    1    0    0    0 -0.15775993616E+02 -0.13241183791E+02 -0.19696785904E+02  0.96501328142E+02  0.92197245271E+02 0.  0.
         11    1    3    3    0    0  0.96410135559E+01  0.36011133221E+02 -0.17106526833E+02  0.41016876024E+02  0.51100000000E-03 0. -1.
         22    1    1    0    0    0  0.15775993616E+02  0.13241183791E+02  0.19696785904E+02  0.28498671858E+02  0.00000000000E+00 0.  1.
</event>
<event>
 5    1  0.1692171E-003  0.9118800E+02  0.7818608E-02  0.1130116E+00
         25   -1    0    0    0    0  0.00000000000E+00  0.00000000000E+00  0.99999998245E-14  0.12500000000E+03  0.12500000000E+03 0.  0.
        -11    1    3    3    0    0 -0.47544006841E+02 -0.27122185003E+02  0.55015316383E+01  0.55011929219E+02  0.51100000000E-03 0. -1.
         23    2    1    0    0    0 -0.17466633046E+02 -0.14215381683E+02 -0.18708461000E+02  0.95722587899E+02  0.91135322322E+02 0.  0.
         11    1    3    3    0    0  0.30077373794E+02  0.12906803320E+02 -0.24209992638E+02  0.40710658679E+02  0.51100000000E-03 0.  1.
         22    1    1    0    0    0  0.17466633046E+02  0.14215381683E+02  0.18708461000E+02  0.29277412101E+02  0.00000000000E+00 0. -1.
</event>
<event>
 5    1  0.1692171E-003  0.9118800E+02  0.7818608E-02  0.1130116E+00
         25   -1    0    0    0    0  0.00000000000E+00  0.00000000000E+00  0.99999998245E-14  0.12500000000E+03  0.12500000000E+03 0.  0.
        -11    1    3    3    0    0  0.67502608886E+01 -0.22873857016E+01 -0.40516378903E+02  0.41138487029E+02  0.51100000000E-03 0. -1.
         23    2    1    0    0    0 -0.29016607302E+02  0.43014928041E+01  0.11091029000E+00  0.95666083781E+02  0.91057789042E+02 0.  0.
         11    1    3    3    0    0 -0.35766868190E+02  0.65888785057E+01  0.40627289193E+02  0.54527596752E+02  0.51100000000E-03 0.  1.
         22    1    1    0    0    0  0.29016607302E+02 -0.43014928041E+01 -0.11091029000E+00  0.29333916219E+02  0.00000000000E+00 0.  1.
</event>
<event>
 5    1  0.1692171E-003  0.9118800E+02  0.7818608E-02  0.1130116E+00
         25   -1    0    0    0    0  0.00000000000E+00  0.00000000000E+00  0.99999998245E-14  0.12500000000E+03  0.12500000000E+03 0.  0.
        -11    1    3    3    0    0  0.10956346613E+00 -0.49622142151E+02  0.22610640203E+02  0.54530817401E+02  0.51100000000E-03 0.  1.
         23    2    1    0    0    0 -0.17559828441E+02 -0.20362312277E+02 -0.39564679821E+01  0.97822344195E+02  0.93971197975E+02 0.  0.
         11    1    3    3    0    0 -0.17669391907E+02  0.29259829873E+02 -0.26567108185E+02  0.43291526794E+02  0.51100000000E-03 0. -1.
         22    1    1    0    0    0  0.17559828441E+02  0.20362312277E+02  0.39564679821E+01  0.27177655805E+02  0.00000000000E+00 0.  1.
</event>
<event>
 5    1  0.1692171E-003  0.9118800E+02  0.7818608E-02  0.1130116E+00
         25   -1    0    0    0    0  0.00000000000E+00  0.00000000000E+00  0.99999998245E-14  0.12500000000E+03  0.12500000000E+03 0.  0.
        -11    1    3    3    0    0  0.33373852111E+01 -0.49555631099E+02 -0.75773600131E+01  0.50242562621E+02  0.51100000000E-03 0. -1.
         23    2    1    0    0    0  0.22713422488E+02 -0.12339827497E+02  0.11950759779E+02  0.96522086399E+02  0.92225384790E+02 0.  0.
         11    1    3    3    0    0  0.19376037277E+02  0.37215803602E+02  0.19528119792E+02  0.46279523778E+02  0.51100000000E-03 0.  1.
         22    1    1    0    0    0 -0.22713422488E+02  0.12339827497E+02 -0.11950759779E+02  0.28477913601E+02  0.00000000000E+00 0. -1.
</event>
<event>
 5    1  0.1692171E-003  0.9118800E+02  0.7818608E-02  0.1130116E+00
         25   -1    0    0    0    0  0.00000000000E+00  0.00000000000E+00  0.99999998245E-14  0.12500000000E+03  0.12500000000E+03 0.  0.
        -11    1    3    3    0    0  0.38820524917E+02  0.95420245970E+01  0.38022315079E+02  0.55170461593E+02  0.51100000000E-03 0.  1.
         23    2    1    0    0    0  0.17579172811E+02 -0.16705976358E+02  0.11229213453E+02  0.98275251216E+02  0.94571733641E+02 0.  0.
         11    1    3    3    0    0 -0.21241352105E+02 -0.26248000955E+02 -0.26793101626E+02  0.43104789622E+02  0.51100000000E-03 0. -1.
         22    1    1    0    0    0 -0.17579172811E+02  0.16705976358E+02 -0.11229213453E+02  0.26724748784E+02  0.00000000000E+00 0. -1.
</event>
<event>
 5    1  0.1692171E-003  0.9118800E+02  0.7818608E-02  0.1130116E+00
         25   -1    0    0    0    0  0.00000000000E+00  0.00000000000E+00  0.99999998245E-14  0.12500000000E+03  0.12500000000E+03 0.  0.
        -11    1    3    3    0    0  0.16836843479E+02  0.32445188454E+01 -0.43716479431E+02  0.46958883877E+02  0.51100000000E-03 0. -1.
         23    2    1    0    0    0 -0.18862410355E+02  0.17796925253E+02 -0.14886646482E+02  0.95097937925E+02  0.90274495186E+02 0.  0.
         11    1    3    3    0    0 -0.35699253834E+02  0.14552406408E+02  0.28829832948E+02  0.48139054048E+02  0.51100000000E-03 0.  1.
         22    1    1    0    0    0  0.18862410355E+02 -0.17796925253E+02  0.14886646482E+02  0.29902062075E+02  0.00000000000E+00 0.  1.
</event>
<event>
 5    1  0.1692171E-003  0.9118800E+02  0.7818608E-02  0.1130116E+00
         25   -1    0    0    0    0  0.00000000000E+00  0.00000000000E+00  0.99999998245E-14  0.12500000000E+03  0.12500000000E+03 0.  0.
        -11    1    3    3    0    0  0.14870976063E+02 -0.57998174788E+02 -0.11102536478E+01  0.59884612975E+02  0.51100000000E-03 0. -1.
         23    2    1    0    0    0  0.13257117051E+01 -0.26106462860E+02  0.11070454135E+02  0.96612328921E+02  0.92347616267E+02 0.  0.
         11    1    3    3    0    0 -0.13545264358E+02  0.31891711928E+02  0.12180707783E+02  0.36727715945E+02  0.51100000000E-03 0.  1.
         22    1    1    0    0    0 -0.13257117051E+01  0.26106462860E+02 -0.11070454135E+02  0.28387671079E+02  0.00000000000E+00 0. -1.
</event>
<event>
 5    1  0.1692171E-003  0.9118800E+02  0.7818608E-02  0.1130116E+00
         25   -1    0    0    0    0  0.00000000000E+00  0.00000000000E+00  0.99999998245E-14  0.12500000000E+03  0.12500000000E+03 0.  0.
        -11    1    3    3    0    0 -0.35486786536E+02 -0.18954799828E+02  0.39569615576E+02  0.56430053449E+02  0.51100000000E-03 0. -1.
         23    2    1    0    0    0 -0.73186910962E+01  0.15127953688E+01 -0.71230209798E+01  0.11467579460E+03  0.11421010748E+03 0.  0.
         11    1    3    3    0    0  0.28168095439E+02  0.20467595197E+02 -0.46692636556E+02  0.58245741155E+02  0.51100000000E-03 0.  1.
         22    1    1    0    0    0  0.73186910962E+01 -0.15127953688E+01  0.71230209798E+01  0.10324205396E+02  0.00000000000E+00 0.  1.
</event>
<event>
 5    1  0.1692171E-003  0.9118800E+02  0.7818608E-02  0.1130116E+00
         25   -1    0    0    0    0  0.00000000000E+00  0.00000000000E+00  0.99999998245E-14  0.12500000000E+03  0.12500000000E+03 0.  0.
        -11    1    3    3    0    0 -0.19588390736E+02 -0.19200694554E+02  0.53064175241E+02  0.59734231536E+02  0.51100000000E-03 0.  1.
         23    2    1    0    0    0  0.14640983108E-01 -0.18216887514E+02  0.22627896141E+02  0.95950440815E+02  0.91447308346E+02 0.  0.
         11    1    3    3    0    0  0.19603031719E+02  0.98380704022E+00 -0.30436279100E+02  0.36216209279E+02  0.51100000000E-03 0. -1.
         22    1    1    0    0    0 -0.14640983108E-01  0.18216887514E+02 -0.22627896141E+02  0.29049559185E+02  0.00000000000E+00 0.  1.
</event>
<event>
 5    1  0.1692171E-003  0.9118800E+02  0.7818608E-02  0.1130116E+00
         25   -1    0    0    0    0  0.00000000000E+00  0.00000000000E+00  0.99999998245E-14  0.12500000000E+03  0.12500000000E+03 0.  0.
        -11    1    3    3    0    0  0.15919734964E+02  0.45284139568E+02  0.12132064682E+02  0.49510385288E+02  0.51100000000E-03 0. -1.
         23    2    1    0    0    0  0.17492948701E+02  0.69112633768E+01 -0.18486667721E+02  0.98627178779E+02  0.95035754823E+02 0.  0.
         11    1    3    3    0    0  0.15732137373E+01 -0.38372876191E+02 -0.30618732403E+02  0.49116793491E+02  0.51100000000E-03 0.  1.
         22    1    1    0    0    0 -0.17492948701E+02 -0.69112633768E+01  0.18486667721E+02  0.26372821221E+02  0.00000000000E+00 0. -1.
</event>
<event>
 5    1  0.1692171E-003  0.9118800E+02  0.7818608E-02  0.1130116E+00
         25   -1    0    0    0    0  0.00000000000E+00  0.00000000000E+00  0.99999998245E-14  0.12500000000E+03  0.12500000000E+03 0.  0.
        -11    1    3    3    0    0  0.18495573657E+02  0.62417206242E+00 -0.56045981583E+02  0.59022266032E+02  0.51100000000E-03 0.  1.
         23    2    1    0    0    0 -0.25214367057E+00 -0.53661597229E+01 -0.40613596454E+02  0.84032653692E+02  0.73370044453E+02 0.  0.
         11    1    3    3    0    0 -0.18747717327E+02 -0.59903317854E+01  0.15432385129E+02  0.25010387660E+02  0.51100000000E-03 0. -1.
         22    1    1    0    0    0  0.25214367057E+00  0.53661597229E+01  0.40613596454E+02  0.40967346308E+02  0.00000000000E+00 0.  1.
</event>
<event>
 5    1  0.1692171E-003  0.9118800E+02  0.7818608E-02  0.1130116E+00
         25   -1    0    0    0    0  0.00000000000E+00  0.00000000000E+00  0.99999998245E-14  0.12500000000E+03  0.12500000000E+03 0.  0.
        -11    1    3    3    0    0  0.14730563333E+02  0.42333213363E+02 -0.32187983030E+02  0.55182938501E+02  0.51100000000E-03 0. -1.
         23    2    1    0    0    0  0.16531255678E+02  0.24872825536E+02  0.34765312416E+01  0.94932972645E+02  0.90045783696E+02 0.  0.
         11    1    3    3    0    0  0.18006923458E+01 -0.17460387827E+02  0.35664514272E+02  0.39750034145E+02  0.51100000000E-03 0.  1.
         22    1    1    0    0    0 -0.16531255678E+02 -0.24872825536E+02 -0.34765312416E+01  0.30067027355E+02  0.00000000000E+00 0. -1.
</event>
<event>
 5    1  0.1692171E-003  0.9118800E+02  0.7818608E-02  0.1130116E+00
         25   -1    0    0    0    0  0.00000000000E+00  0.00000000000E+00  0.99999998245E-14  0.12500000000E+03  0.12500000000E+03 0.  0.
        -11    1    3    3    0    0 -0.13246039519E+02  0.31001232298E+02  0.18936046650E+02  0.38666624237E+02  0.51100000000E-03 0. -1.
         23    2    1    0    0    0  0.24787009313E+02 -0.10975070497E+02  0.10472948789E+02  0.95939190317E+02  0.91431928664E+02 0.  0.
         11    1    3    3    0    0  0.38033048832E+02 -0.41976302794E+02 -0.84630978606E+01  0.57272566080E+02  0.51100000000E-03 0.  1.
         22    1    1    0    0    0 -0.24787009313E+02  0.10975070497E+02 -0.10472948789E+02  0.29060809683E+02  0.00000000000E+00 0.  1.
</event>
<event>
 5    1  0.1692171E-003  0.9118800E+02  0.7818608E-02  0.1130116E+00
         25   -1    0    0    0    0  0.00000000000E+00  0.00000000000E+00  0.99999998245E-14  0.12500000000E+03  0.12500000000E+03 0.  0.
        -11    1    3    3    0    0 -0.97755635077E+01  0.27983566281E+02  0.24250320434E+02  0.38297776243E+02  0.51100000000E-03 0.  1.
         23    2    1    0    0    0 -0.22549569280E+02 -0.22087709003E+02  0.89217310915E+01  0.92198365141E+02  0.86166068062E+02 0.  0.
         11    1    3    3    0    0 -0.12774005773E+02 -0.50071275284E+02 -0.15328589343E+02  0.53900588898E+02  0.51100000000E-03 0. -1.
         22    1    1    0    0    0  0.22549569280E+02  0.22087709003E+02 -0.89217310915E+01  0.32801634859E+02  0.00000000000E+00 0. -1.
</event>
<event>
 5    1  0.1692171E-003  0.9118800E+02  0.7818608E-02  0.1130116E+00
         25   -1    0    0    0    0  0.00000000000E+00  0.00000000000E+00  0.99999998245E-14  0.12500000000E+03  0.12500000000E+03 0.  0.
        -11    1    3    3    0    0 -0.55577432349E+01  0.57805853584E+01  0.45779830523E+02  0.46476838962E+02  0.51100000000E-03 0.  1.
         23    2    1    0    0    0 -0.21070830689E+01  0.16576241584E+02 -0.11401891936E+02  0.10477094357E+03  0.10279949365E+03 0.  0.
         11    1    3    3    0    0  0.34506601660E+01  0.10795656226E+02 -0.57181722459E+02  0.58294104613E+02  0.51100000000E-03 0. -1.
         22    1    1    0    0    0  0.21070830689E+01 -0.16576241584E+02  0.11401891936E+02  0.20229056425E+02  0.00000000000E+00 0. -1.
</event>
<event>
 5    1  0.1692171E-003  0.9118800E+02  0.7818608E-02  0.1130116E+00
         25   -1    0    0    0    0  0.00000000000E+00  0.00000000000E+00  0.99999998245E-14  0.12500000000E+03  0.12500000000E+03 0.  0.
        -11    1    3    3    0    0  0.29987229711E+02  0.13969269931E+02  0.51839167517E+02  0.61495314758E+02  0.51100000000E-03 0.  1.
         23    2    1    0    0    0  0.17355662131E+02  0.12376593967E+02  0.20064602759E+02  0.95725653379E+02  0.91139526796E+02 0.  0.
         11    1    3    3    0    0 -0.12631567580E+02 -0.15926759634E+01 -0.31774564758E+02  0.34230338620E+02  0.51100000000E-03 0. -1.
         22    1    1    0    0    0 -0.17355662131E+02 -0.12376593967E+02 -0.20064602759E+02  0.29274346621E+02  0.00000000000E+00 0.  1.
</event>
<event>
 5    1  0.1692171E-003  0.9118800E+02  0.7818608E-02  0.1130116E+00
         25   -1    0    0    0    0  0.00000000000E+00  0.00000000000E+00  0.99999998245E-14  0.12500000000E+03  0.12500000000E+03 0.  0.
        -11    1    3    3    0    0 -0.25570605267E+02  0.25448795287E+02  0.15997898586E+02  0.39464285053E+02  0.51100000000E-03 0.  1.
         23    2    1    0    0    0  0.64598310648E+01  0.15241009137E+02 -0.26563407888E+02  0.93700919893E+02  0.88318910621E+02 0.  0.
         11    1    3    3    0    0  0.32030436332E+02 -0.10207786150E+02 -0.42561306474E+02  0.54236634840E+02  0.51100000000E-03 0. -1.
         22    1    1    0    0    0 -0.64598310648E+01 -0.15241009137E+02  0.26563407888E+02  0.31299080107E+02  0.00000000000E+00 0. -1.
</event>
<event>
 5    1  0.1692171E-003  0.9118800E+02  0.7818608E-02  0.1130116E+00
         25   -1    0    0    0    0  0.00000000000E+00  0.00000000000E+00  0.99999998245E-14  0.12500000000E+03  0.12500000000E+03 0.  0.
        -11    1    3    3    0    0 -0.73841995516E+01  0.44177225586E+02 -0.38199603765E+02  0.58867337221E+02  0.51100000000E-03 0. -1.
         23    2    1    0    0    0  0.10940846445E+02  0.18223491187E+02 -0.93630877604E+01  0.10177361060E+03  0.99087853196E+02 0.  0.
         11    1    3    3    0    0  0.18325045997E+02 -0.25953734399E+02  0.28836516004E+02  0.42906273383E+02  0.51100000000E-03 0.  1.
         22    1    1    0    0    0 -0.10940846445E+02 -0.18223491187E+02  0.93630877604E+01  0.23226389396E+02  0.00000000000E+00 0. -1.
</event>
<event>
 5    1  0.1692171E-003  0.9118800E+02  0.7818608E-02  0.1130116E+00
         25   -1    0    0    0    0  0.00000000000E+00  0.00000000000E+00  0.99999998245E-14  0.12500000000E+03  0.12500000000E+03 0.  0.
        -11    1    3    3    0    0  0.20345532950E+02 -0.10438743672E+02 -0.25233875160E+02  0.34053730139E+02  0.51100000000E-03 0.  1.
         23    2    1    0    0    0 -0.18273391248E+02  0.17657014358E+02  0.14113947111E+02  0.95933000038E+02  0.91423465311E+02 0.  0.
         11    1    3    3    0    0 -0.38618924199E+02  0.28095758030E+02  0.39347822271E+02  0.61879269899E+02  0.51100000000E-03 0. -1.
         22    1    1    0    0    0  0.18273391248E+02 -0.17657014358E+02 -0.14113947111E+02  0.29066999962E+02  0.00000000000E+00 0. -1.
</event>
<event>
 5    1  0.1692171E-003  0.9118800E+02  0.7818608E-02  0.1130116E+00
         25   -1    0    0    0    0  0.00000000000E+00  0.00000000000E+00  0.99999998245E-14  0.12500000000E+03  0.12500000000E+03 0.  0.
        -11    1    3    3    0    0  0.29790425733E+02 -0.46074114275E+02  0.21633896330E+02  0.58977274795E+02  0.51100000000E-03 0. -1.
         23    2    1    0    0    0  0.88653048658E+01 -0.16101199385E+02  0.23000557376E+02  0.95557379675E+02  0.90908442505E+02 0.  0.
         11    1    3    3    0    0 -0.20925120868E+02  0.29972914890E+02  0.13666610457E+01  0.36580104880E+02  0.51100000000E-03 0.  1.
         22    1    1    0    0    0 -0.88653048658E+01  0.16101199385E+02 -0.23000557376E+02  0.29442620325E+02  0.00000000000E+00 0. -1.
</event>
<event>
 5    1  0.1692171E-003  0.9118800E+02  0.7818608E-02  0.1130116E+00
         25   -1    0    0    0    0  0.00000000000E+00  0.00000000000E+00  0.99999998245E-14  0.12500000000E+03  0.12500000000E+03 0.  0.
        -11    1    3    3    0    0  0.38605437496E+02  0.10221247631E+01 -0.37494252441E+01  0.38800550682E+02  0.51100000000E-03 0.  1.
         23    2    1    0    0    0 -0.19893701763E+02 -0.15576698784E+02 -0.23411801048E+01  0.99625326817E+02  0.96339668384E+02 0.  0.
         11    1    3    3    0    0 -0.58499139260E+02 -0.16598823547E+02  0.14082451393E+01  0.60824776135E+02  0.51100000000E-03 0. -1.
         22    1    1    0    0    0  0.19893701763E+02  0.15576698784E+02  0.23411801048E+01  0.25374673183E+02  0.00000000000E+00 0. -1.
</event>
<event>
 5    1  0.1692171E-003  0.9118800E+02  0.7818608E-02  0.1130116E+00
         25   -1    0    0    0    0  0.00000000000E+00  0.00000000000E+00  0.99999998245E-14  0.12500000000E+03  0.12500000000E+03 0.  0.
        -11    1    3    3    0    0 -0.11927648148E+02  0.46937147482E+02 -0.55245104807E+01  0.48743048945E+02  0.51100000000E-03 0. -1.
         23    2    1    0    0    0  0.23784988122E+02  0.15958138672E+02  0.13435890516E+00  0.96357271392E+02  0.92001727418E+02 0.  0.
         11    1    3    3    0    0  0.35712636270E+02 -0.30979008811E+02  0.56588693859E+01  0.47614222447E+02  0.51100000000E-03 0.  1.
         22    1    1    0    0    0 -0.23784988122E+02 -0.15958138672E+02 -0.13435890516E+00  0.28642728608E+02  0.00000000000E+00 0.  1.
</event>
<event>
 5    1  0.1692171E-003  0.9118800E+02  0.7818608E-02  0.1130116E+00
         25   -1    0    0    0    0  0.00000000000E+00  0.00000000000E+00  0.99999998245E-14  0.12500000000E+03  0.12500000000E+03 0.  0.
        -11    1    3    3    0    0 -0.24937147689E+02 -0.35010063459E+02  0.37582898015E+02  0.57096760869E+02  0.51100000000E-03 0.  1.
         23    2    1    0    0    0 -0.15974508808E+02 -0.25359519521E+02  0.20885741228E+01  0.94955827455E+02  0.90077504760E+02 0.  0.
         11    1    3    3    0    0  0.89626388805E+01  0.96505439380E+01 -0.35494323892E+02  0.37859066587E+02  0.51100000000E-03 0. -1.
         22    1    1    0    0    0  0.15974508808E+02  0.25359519521E+02 -0.20885741228E+01  0.30044172545E+02  0.00000000000E+00 0.  1.
</event>
<event>
 5    1  0.1692171E-003  0.9118800E+02  0.7818608E-02  0.1130116E+00
         25   -1    0    0    0    0  0.00000000000E+00  0.00000000000E+00  0.99999998245E-14  0.12500000000E+03  0.12500000000E+03 0.  0.
        -11    1    3    3    0    0 -0.15698700664E+02  0.28114347689E+02 -0.49050682324E+02  0.58675677970E+02  0.51100000000E-03 0. -1.
         23    2    1    0    0    0  0.50683206820E+01  0.38880441187E+01 -0.26479927476E+02  0.97760482370E+02  0.93888873635E+02 0.  0.
         11    1    3    3    0    0  0.20767021346E+02 -0.24226303571E+02  0.22570754849E+02  0.39084804400E+02  0.51100000000E-03 0.  1.
         22    1    1    0    0    0 -0.50683206820E+01 -0.38880441187E+01  0.26479927476E+02  0.27239517630E+02  0.00000000000E+00 0. -1.
</event>
<event>
 5    1  0.1692171E-003  0.9118800E+02  0.7818608E-02  0.1130116E+00
         25   -1    0    0    0    0  0.00000000000E+00  0.00000000000E+00  0.99999998245E-14  0.12500000000E+03  0.12500000000E+03 0.  0.
        -11    1    3    3    0    0 -0.32026599841E+02  0.35430005831E+02 -0.28177469452E+02  0.55452305593E+02  0.51100000000E-03 0. -1.
         23    2    1    0    0    0 -0.12556800102E+02  0.18000823204E+02 -0.36094316503E+02  0.82756627163E+02  0.71162889140E+02 0.  0.
         11    1    3    3    0    0  0.19469799739E+02 -0.17429182627E+02 -0.79168470509E+01  0.27304321570E+02  0.51100000000E-03 0.  1.
         22    1    1    0    0    0  0.12556800102E+02 -0.18000823204E+02  0.36094316503E+02  0.42243372837E+02  0.00000000000E+00 0. -1.
</event>
<event>
 5    1  0.1692171E-003  0.9118800E+02  0.7818608E-02  0.1130116E+00
         25   -1    0    0    0    0  0.00000000000E+00  0.00000000000E+00  0.99999998245E-14  0.12500000000E+03  0.12500000000E+03 0.  0.
        -11    1    3    3    0    0 -0.12259701089E+02 -0.49328943178E+02  0.15597549890E+02  0.53168867476E+02  0.51100000000E-03 0. -1.
         23    2    1    0    0    0 -0.25337555405E+02 -0.16747334707E+02  0.20121360736E+02  0.88567403448E+02  0.80727014449E+02 0.  0.
         11    1    3    3    0    0 -0.13077854316E+02  0.32581608471E+02  0.45238108454E+01  0.35398535971E+02  0.51100000000E-03 0.  1.
         22    1    1    0    0    0  0.25337555405E+02  0.16747334707E+02 -0.20121360736E+02  0.36432596552E+02  0.00000000000E+00 0. -1.
</event>
<event>
 5    1  0.1692171E-003  0.9118800E+02  0.7818608E-02  0.1130116E+00
         25   -1    0    0    0    0  0.00000000000E+00  0.00000000000E+00  0.99999998245E-14  0.12500000000E+03  0.12500000000E+03 0.  0.
        -11    1    3    3    0    0 -0.71762845957E+01  0.24363562372E+02 -0.35673808232E+02  0.43791583964E+02  0.51100000000E-03 0.  1.
         23    2    1    0    0    0 -0.10858278024E+02  0.22484553386E+02  0.15813494402E+02  0.95444561451E+02  0.90753183761E+02 0.  0.
         11    1    3    3    0    0 -0.36819934281E+01 -0.18790089858E+01  0.51487302635E+02  0.51652977487E+02  0.51100000000E-03 0. -1.
         22    1    1    0    0    0  0.10858278024E+02 -0.22484553386E+02 -0.15813494402E+02  0.29555438549E+02  0.00000000000E+00 0. -1.
</event>
<event>
 5    1  0.1692171E-003  0.9118800E+02  0.7818608E-02  0.1130116E+00
         25   -1    0    0    0    0  0.00000000000E+00  0.00000000000E+00  0.99999998245E-14  0.12500000000E+03  0.12500000000E+03 0.  0.
        -11    1    3    3    0    0  0.29435744547E+02 -0.42070883808E+02 -0.29814180723E+02  0.59374301628E+02  0.51100000000E-03 0.  1.
         23    2    1    0    0    0 -0.28865879440E+00 -0.10651237991E+02 -0.17784239814E+02  0.10426810717E+03  0.10218623582E+03 0.  0.
         11    1    3    3    0    0 -0.29724403342E+02  0.31419645817E+02  0.12029940909E+02  0.44893805540E+02  0.51100000000E-03 0. -1.
         22    1    1    0    0    0  0.28865879440E+00  0.10651237991E+02  0.17784239814E+02  0.20731892832E+02  0.00000000000E+00 0.  1.
</event>
<event>
 5    1  0.1692171E-003  0.9118800E+02  0.7818608E-02  0.1130116E+00
         25   -1    0    0    0    0  0.00000000000E+00  0.00000000000E+00  0.99999998245E-14  0.12500000000E+03  0.12500000000E+03 0.  0.
        -11    1    3    3    0    0  0.18487062998E+01  0.14852614964E+02  0.51296510482E+02  0.53435473930E+02  0.51100000000E-03 0. -1.
         23    2    1    0    0    0 -0.15555761517E+02 -0.10085982176E+02  0.26414278161E+02  0.92728916293E+02  0.86932324675E+02 0.  0.
         11    1    3    3    0    0 -0.17404467817E+02 -0.24938597140E+02 -0.24882232320E+02  0.39293442363E+02  0.51100000000E-03 0.  1.
         22    1    1    0    0    0  0.15555761517E+02  0.10085982176E+02 -0.26414278161E+02  0.32271083707E+02  0.00000000000E+00 0. -1.
</event>
<event>
 5    1  0.1692171E-003  0.9118800E+02  0.7818608E-02  0.1130116E+00
         25   -1    0    0    0    0  0.00000000000E+00  0.00000000000E+00  0.99999998245E-14  0.12500000000E+03  0.12500000000E+03 0.  0.
        -11    1    3    3    0    0 -0.19694511765E+02 -0.53385539822E+02  0.33121349877E+01  0.56998770988E+02  0.51100000000E-03 0.  1.
         23    2    1    0    0    0  0.25107149534E+01 -0.17359773659E+02  0.16082216287E+02  0.10120287598E+03  0.98365232650E+02 0.  0.
         11    1    3    3    0    0  0.22205226718E+02  0.36025766163E+02  0.12770081299E+02  0.44204104989E+02  0.51100000000E-03 0. -1.
         22    1    1    0    0    0 -0.25107149534E+01  0.17359773659E+02 -0.16082216287E+02  0.23797124023E+02  0.00000000000E+00 0.  1.
</event>
<event>
 5    1  0.1692171E-003  0.9118800E+02  0.7818608E-02  0.1130116E+00
         25   -1    0    0    0    0  0.00000000000E+00  0.00000000000E+00  0.99999998245E-14  0.12500000000E+03  0.12500000000E+03 0.  0.
        -11    1    3    3    0    0 -0.19081858449E+02  0.13138144867E+02  0.33056668583E+02  0.40366712901E+02  0.51100000000E-03 0. -1.
         23    2    1    0    0    0  0.15825185867E+02 -0.17436491726E+00 -0.16308331760E+02  0.10227493464E+03  0.99718271444E+02 0.  0.
         11    1    3    3    0    0  0.34907044315E+02 -0.13312509785E+02 -0.49365000343E+02  0.61908221738E+02  0.51100000000E-03 0.  1.
         22    1    1    0    0    0 -0.15825185867E+02  0.17436491726E+00  0.16308331760E+02  0.22725065361E+02  0.00000000000E+00 0.  1.
</event>
<event>
 5    1  0.1692171E-003  0.9118800E+02  0.7818608E-02  0.1130116E+00
         25   -1    0    0    0    0  0.00000000000E+00  0.00000000000E+00  0.99999998245E-14  0.12500000000E+03  0.12500000000E+03 0.  0.
        -11    1    3    3    0    0  0.10392697530E+02  0.21787515987E+01 -0.33470705484E+02  0.35114715524E+02  0.51100000000E-03 0. -1.
         23    2    1    0    0    0  0.75412971605E+00  0.48049039772E+01  0.27588653037E+02  0.96985903722E+02  0.92851903215E+02 0.  0.
         11    1    3    3    0    0 -0.96385678144E+01  0.26261523785E+01  0.61059358521E+02  0.61871188198E+02  0.51100000000E-03 0.  1.
         22    1    1    0    0    0 -0.75412971605E+00 -0.48049039772E+01 -0.27588653037E+02  0.28014096278E+02  0.00000000000E+00 0.  1.
</event>
<event>
 5    1  0.1692171E-003  0.9118800E+02  0.7818608E-02  0.1130116E+00
         25   -1    0    0    0    0  0.00000000000E+00  0.00000000000E+00  0.99999998245E-14  0.12500000000E+03  0.12500000000E+03 0.  0.
        -11    1    3    3    0    0 -0.19125918605E+02  0.50990747408E+02 -0.74074683551E+01  0.54961146926E+02  0.51100000000E-03 0.  1.
         23    2    1    0    0    0  0.10550097241E+02  0.25278114979E+02  0.69008786701E+01  0.96752703224E+02  0.92537429217E+02 0.  0.
         11    1    3    3    0    0  0.29676015847E+02 -0.25712632429E+02  0.14308347025E+02  0.41791556298E+02  0.51100000000E-03 0. -1.
         22    1    1    0    0    0 -0.10550097241E+02 -0.25278114979E+02 -0.69008786701E+01  0.28247296776E+02  0.00000000000E+00 0. -1.
</event>
<event>
 5    1  0.1692171E-003  0.9118800E+02  0.7818608E-02  0.1130116E+00
         25   -1    0    0    0    0  0.00000000000E+00  0.00000000000E+00  0.99999998245E-14  0.12500000000E+03  0.12500000000E+03 0.  0.
        -11    1    3    3    0    0 -0.26459024030E+02  0.45232154505E+01 -0.21121916905E+02  0.34156621681E+02  0.51100000000E-03 0. -1.
         23    2    1    0    0    0  0.28488769776E+02 -0.27817525435E+01  0.58224387494E+01  0.95789574746E+02  0.91227154326E+02 0.  0.
         11    1    3    3    0    0  0.54947793806E+02 -0.73049679940E+01  0.26944355655E+02  0.61632953065E+02  0.51100000000E-03 0.  1.
         22    1    1    0    0    0 -0.28488769776E+02  0.27817525435E+01 -0.58224387494E+01  0.29210425254E+02  0.00000000000E+00 0.  1.
</event>
<event>
 5    1  0.1692171E-003  0.9118800E+02  0.7818608E-02  0.1130116E+00
         25   -1    0    0    0    0  0.00000000000E+00  0.00000000000E+00  0.99999998245E-14  0.12500000000E+03  0.12500000000E+03 0.  0.
        -11    1    3    3    0    0 -0.18148725354E+02  0.22025659701E+02  0.43918219784E+02  0.52376673687E+02  0.51100000000E-03 0.  1.
         23    2    1    0    0    0 -0.15012312967E+02  0.28403134146E+02  0.43472668830E+01  0.92580772691E+02  0.86719047348E+02 0.  0.
         11    1    3    3    0    0  0.31364123871E+01  0.63774744448E+01 -0.39570952901E+02  0.40204099004E+02  0.51100000000E-03 0. -1.
         22    1    1    0    0    0  0.15012312967E+02 -0.28403134146E+02 -0.43472668830E+01  0.32419227309E+02  0.00000000000E+00 0.  1.
</event>
<event>
 5    1  0.1692171E-003  0.9118800E+02  0.7818608E-02  0.1130116E+00
         25   -1    0    0    0    0  0.00000000000E+00  0.00000000000E+00  0.99999998245E-14  0.12500000000E+03  0.12500000000E+03 0.  0.
        -11    1    3    3    0    0 -0.46882721473E+02 -0.30088916070E+02  0.25491450628E+02  0.61262929234E+02  0.51100000000E-03 0. -1.
         23    2    1    0    0    0 -0.26707275429E+02 -0.10120400271E+02  0.56772910635E+01  0.95880716075E+02  0.91351951368E+02 0.  0.
         11    1    3    3    0    0  0.20175446044E+02  0.19968515798E+02 -0.19814159565E+02  0.34617786841E+02  0.51100000000E-03 0.  1.
         22    1    1    0    0    0  0.26707275429E+02  0.10120400271E+02 -0.56772910635E+01  0.29119283925E+02  0.00000000000E+00 0. -1.
</event>
<event>
 5    1  0.1692171E-003  0.9118800E+02  0.7818608E-02  0.1130116E+00
         25   -1    0    0    0    0  0.00000000000E+00  0.00000000000E+00  0.99999998245E-14  0.12500000000E+03  0.12500000000E+03 0.  0.
        -11    1    3    3    0    0  0.37610713065E+01  0.35738698570E+02  0.10937757810E+02  0.37563742878E+02  0.51100000000E-03 0.  1.
         23    2    1    0    0    0 -0.97831117085E+01 -0.21785692980E+02  0.14996511002E+02  0.96800336251E+02  0.92601749783E+02 0.  0.
         11    1    3    3    0    0 -0.13544183015E+02 -0.57524391550E+02  0.40587531920E+01  0.59236593373E+02  0.51100000000E-03 0. -1.
         22    1    1    0    0    0  0.97831117085E+01  0.21785692980E+02 -0.14996511002E+02  0.28199663749E+02  0.00000000000E+00 0. -1.
</event>
<event>
 5    1  0.1692171E-003  0.9118800E+02  0.7818608E-02  0.1130116E+00
         25   -1    0    0    0    0  0.00000000000E+00  0.00000000000E+00  0.99999998245E-14  0.12500000000E+03  0.12500000000E+03 0.  0.
        -11    1    3    3    0    0  0.42766715563E+01 -0.35831282329E+02 -0.21197145496E+02  0.41850802745E+02  0.51100000000E-03 0. -1.
         23    2    1    0    0    0 -0.28127314215E+02 -0.43710041541E+01  0.77548247404E+01  0.95497647737E+02  0.90826273370E+02 0.  0.
         11    1    3    3    0    0 -0.32403985772E+02  0.31460278175E+02  0.28951970236E+02  0.53646844992E+02  0.51100000000E-03 0.  1.
         22    1    1    0    0    0  0.28127314215E+02  0.43710041541E+01 -0.77548247404E+01  0.29502352263E+02  0.00000000000E+00 0.  1.
</event>
<event>
 5    1  0.1692171E-003  0.9118800E+02  0.7818608E-02  0.1130116E+00
         25   -1    0    0    0    0  0.00000000000E+00  0.00000000000E+00  0.99999998245E-14  0.12500000000E+03  0.12500000000E+03 0.  0.
        -11    1    3    3    0    0 -0.23474294899E+02  0.26982795658E+02  0.65203413365E+01  0.36354210677E+02  0.51100000000E-03 0.  1.
         23    2    1    0    0    0 -0.62892571915E+01 -0.27742539038E+02 -0.78562419350E+01  0.95488582453E+02  0.90813796382E+02 0.  0.
         11    1    3    3    0    0  0.17185037707E+02 -0.54725334696E+02 -0.14376583271E+02  0.59134371776E+02  0.51100000000E-03 0. -1.
         22    1    1    0    0    0  0.62892571915E+01  0.27742539038E+02  0.78562419350E+01  0.29511417547E+02  0.00000000000E+00 0. -1.
</event>
<event>
 5    1  0.1692171E-003  0.9118800E+02  0.7818608E-02  0.1130116E+00
         25   -1    0    0    0    0  0.00000000000E+00  0.00000000000E+00  0.99999998245E-14  0.12500000000E+03  0.12500000000E+03 0.  0.
        -11    1    3    3    0    0  0.11327010524E+02  0.27776103669E+02 -0.37906493759E+01  0.30235444852E+02  0.51100000000E-03 0.  1.
         23    2    1    0    0    0 -0.13222669180E+02 -0.29245404972E+02  0.33660014543E+01  0.92728299425E+02  0.86931437675E+02 0.  0.
         11    1    3    3    0    0 -0.24549679704E+02 -0.57021508641E+02  0.71566508302E+01  0.62492854573E+02  0.51100000000E-03 0. -1.
         22    1    1    0    0    0  0.13222669180E+02  0.29245404972E+02 -0.33660014543E+01  0.32271700575E+02  0.00000000000E+00 0. -1.
</event>
<event>
 5    1  0.1692171E-003  0.9118800E+02  0.7818608E-02  0.1130116E+00
         25   -1    0    0    0    0  0.00000000000E+00  0.00000000000E+00  0.99999998245E-14  0.12500000000E+03  0.12500000000E+03 0.  0.
        -11    1    3    3    0    0 -0.22401828710E+02 -0.19709371956E+02  0.38213460039E+02  0.48482675265E+02  0.51100000000E-03 0.  1.
         23    2    1    0    0    0  0.36595695447E+01  0.17036247594E+02  0.23235597123E+02  0.95956598770E+02  0.91455725313E+02 0.  0.
         11    1    3    3    0    0  0.26061398255E+02  0.36745619550E+02 -0.14977862916E+02  0.47473923505E+02  0.51100000000E-03 0. -1.
         22    1    1    0    0    0 -0.36595695447E+01 -0.17036247594E+02 -0.23235597123E+02  0.29043401230E+02  0.00000000000E+00 0.  1.
</event>
<event>
 5    1  0.1692171E-003  0.9118800E+02  0.7818608E-02  0.1130116E+00
         25   -1    0    0    0    0  0.00000000000E+00  0.00000000000E+00  0.99999998245E-14  0.12500000000E+03  0.12500000000E+03 0.  0.
        -11    1    3    3    0    0 -0.50205738446E+01 -0.27010253983E+02 -0.18538306914E+02  0.33142552791E+02  0.51100000000E-03 0. -1.
         23    2    1    0    0    0 -0.14751543536E+02  0.24953022435E+02  0.11346391136E+02  0.93871203731E+02  0.88559589728E+02 0.  0.
         11    1    3    3    0    0 -0.97309696910E+01  0.51963276418E+02  0.29884698050E+02  0.60728650941E+02  0.51100000000E-03 0.  1.
         22    1    1    0    0    0  0.14751543536E+02 -0.24953022435E+02 -0.11346391136E+02  0.31128796269E+02  0.00000000000E+00 0.  1.
</event>
<event>
 5    1  0.1692171E-003  0.9118800E+02  0.7818608E-02  0.1130116E+00
         25   -1    0    0    0    0  0.00000000000E+00  0.00000000000E+00  0.99999998245E-14  0.12500000000E+03  0.12500000000E+03 0.  0.
        -11    1    3    3    0    0  0.48706932644E+02  0.26094691716E+02 -0.73879013949E+01  0.55748357022E+02  0.51100000000E-03 0. -1.
         23    2    1    0    0    0  0.26165597116E+02 -0.67350280620E+01 -0.11196492977E+02  0.95753452675E+02  0.91177646212E+02 0.  0.
         11    1    3    3    0    0 -0.22541335528E+02 -0.32829719778E+02 -0.38085915823E+01  0.40005095653E+02  0.51100000000E-03 0.  1.
         22    1    1    0    0    0 -0.26165597116E+02  0.67350280620E+01  0.11196492977E+02  0.29246547325E+02  0.00000000000E+00 0. -1.
</event>
<event>
 5    1  0.1692171E-003  0.9118800E+02  0.7818608E-02  0.1130116E+00
         25   -1    0    0    0    0  0.00000000000E+00  0.00000000000E+00  0.99999998245E-14  0.12500000000E+03  0.12500000000E+03 0.  0.
        -11    1    3    3    0    0  0.27566331406E+02 -0.17477604421E+02  0.12199887973E+02  0.34845466710E+02  0.51100000000E-03 0.  1.
         23    2    1    0    0    0 -0.22673274926E+02  0.79650118978E+01 -0.14248672368E+02  0.97061791850E+02  0.92954009932E+02 0.  0.
         11    1    3    3    0    0 -0.50239606331E+02  0.25442616319E+02 -0.26448560341E+02  0.62216325139E+02  0.51100000000E-03 0. -1.
         22    1    1    0    0    0  0.22673274926E+02 -0.79650118978E+01  0.14248672368E+02  0.27938208150E+02  0.00000000000E+00 0. -1.
</event>
<event>
 5    1  0.1692171E-003  0.9118800E+02  0.7818608E-02  0.1130116E+00
         25   -1    0    0    0    0  0.00000000000E+00  0.00000000000E+00  0.99999998245E-14  0.12500000000E+03  0.12500000000E+03 0.  0.
        -11    1    3    3    0    0 -0.29710222196E+02 -0.23203346506E+02 -0.24562041522E+02  0.44993182550E+02  0.51100000000E-03 0.  1.
         23    2    1    0    0    0 -0.70165496211E+00 -0.22036427472E+02  0.18016376846E+02  0.96527446724E+02  0.92232649756E+02 0.  0.
         11    1    3    3    0    0  0.29008567234E+02  0.11669190338E+01  0.42578418367E+02  0.51534264174E+02  0.51100000000E-03 0. -1.
         22    1    1    0    0    0  0.70165496211E+00  0.22036427472E+02 -0.18016376846E+02  0.28472553276E+02  0.00000000000E+00 0. -1.
</event>
<event>
 5    1  0.1692171E-003  0.9118800E+02  0.7818608E-02  0.1130116E+00
         25   -1    0    0    0    0  0.00000000000E+00  0.00000000000E+00  0.99999998245E-14  0.12500000000E+03  0.12500000000E+03 0.  0.
        -11    1    3    3    0    0  0.41871431584E+02  0.33947604655E+02 -0.23108644385E+02  0.58648666568E+02  0.51100000000E-03 0. -1.
         23    2    1    0    0    0  0.14265196560E+02  0.28218931764E+02 -0.30846054138E+01  0.93230222957E+02  0.87650189613E+02 0.  0.
         11    1    3    3    0    0 -0.27606235024E+02 -0.57286728906E+01  0.20024038971E+02  0.34581556389E+02  0.51100000000E-03 0.  1.
         22    1    1    0    0    0 -0.14265196560E+02 -0.28218931764E+02  0.30846054138E+01  0.31769777043E+02  0.00000000000E+00 0. -1.
</event>
<event>
 5    1  0.1692171E-003  0.9118800E+02  0.7818608E-02  0.1130116E+00
         25   -1    0    0    0    0  0.00000000000E+00  0.00000000000E+00  0.99999998245E-14  0.12500000000E+03  0.12500000000E+03 0.  0.
        -11    1    3    3    0    0  0.50889598759E+01 -0.32846907447E+02  0.31785739620E+02  0.45990760865E+02  0.51100000000E-03 0.  1.
         23    2    1    0    0    0 -0.27148256320E+02 -0.75572258758E+01  0.24607130190E+02  0.87588098948E+02  0.79196115668E+02 0.  0.
         11    1    3    3    0    0 -0.32237216195E+02  0.25289681571E+02 -0.71786094296E+01  0.41597338083E+02  0.51100000000E-03 0. -1.
         22    1    1    0    0    0  0.27148256320E+02  0.75572258758E+01 -0.24607130190E+02  0.37411901052E+02  0.00000000000E+00 0. -1.
</event>
<event>
 5    1  0.1692171E-003  0.9118800E+02  0.7818608E-02  0.1130116E+00
         25   -1    0    0    0    0  0.00000000000E+00  0.00000000000E+00  0.99999998245E-14  0.12500000000E+03  0.12500000000E+03 0.  0.
        -11    1    3    3    0    0  0.10697332454E+02  0.52470985491E+02 -0.26397418582E+02  0.59703106687E+02  0.51100000000E-03 0. -1.
         23    2    1    0    0    0  0.13397464863E+02  0.16561342409E+02 -0.18977922806E+02  0.96470512076E+02  0.92155455721E+02 0.  0.
         11    1    3    3    0    0  0.27001324091E+01 -0.35909643081E+02  0.74194957761E+01  0.36767405390E+02  0.51100000000E-03 0.  1.
         22    1    1    0    0    0 -0.13397464863E+02 -0.16561342409E+02  0.18977922806E+02  0.28529487924E+02  0.00000000000E+00 0. -1.
</event>
<event>
 5    1  0.1692171E-003  0.9118800E+02  0.7818608E-02  0.1130116E+00
         25   -1    0    0    0    0  0.00000000000E+00  0.00000000000E+00  0.99999998245E-14  0.12500000000E+03  0.12500000000E+03 0.  0.
        -11    1    3    3    0    0  0.77923390178E+01  0.49833320995E+02  0.22453471306E+02  0.55210857652E+02  0.51100000000E-03 0.  1.
         23    2    1    0    0    0  0.81228147629E+01  0.84425715884E+01  0.25725829803E+02  0.96732077300E+02  0.92509563425E+02 0.  0.
         11    1    3    3    0    0  0.33047574506E+00 -0.41390749407E+02  0.32723584969E+01  0.41521219648E+02  0.51100000000E-03 0. -1.
         22    1    1    0    0    0 -0.81228147629E+01 -0.84425715884E+01 -0.25725829803E+02  0.28267922700E+02  0.00000000000E+00 0.  1.
</event>
<event>
 5    1  0.1692171E-003  0.9118800E+02  0.7818608E-02  0.1130116E+00
         25   -1    0    0    0    0  0.00000000000E+00  0.00000000000E+00  0.99999998245E-14  0.12500000000E+03  0.12500000000E+03 0.  0.
        -11    1    3    3    0    0  0.22906269153E+02  0.14584288569E+02 -0.50453174125E+02  0.57296783672E+02  0.51100000000E-03 0. -1.
         23    2    1    0    0    0  0.89558335026E+01 -0.11592887511E+02 -0.23103508100E+02  0.97643573313E+02  0.93733096226E+02 0.  0.
         11    1    3    3    0    0 -0.13950435650E+02 -0.26177176080E+02  0.27349666025E+02  0.40346789641E+02  0.51100000000E-03 0.  1.
         22    1    1    0    0    0 -0.89558335026E+01  0.11592887511E+02  0.23103508100E+02  0.27356426687E+02  0.00000000000E+00 0. -1.
</event>
<event>
 5    1  0.1692171E-003  0.9118800E+02  0.7818608E-02  0.1130116E+00
         25   -1    0    0    0    0  0.00000000000E+00  0.00000000000E+00  0.99999998245E-14  0.12500000000E+03  0.12500000000E+03 0.  0.
        -11    1    3    3    0    0  0.29916614722E+02 -0.61303142621E+01  0.33009223101E+01  0.30716130579E+02  0.51100000000E-03 0. -1.
         23    2    1    0    0    0 -0.30034008652E+02 -0.80200590962E+01  0.12683030209E+02  0.91425868903E+02  0.85038033995E+02 0.  0.
         11    1    3    3    0    0 -0.59950623374E+02 -0.18897448341E+01  0.93821078986E+01  0.60709738324E+02  0.51100000000E-03 0.  1.
         22    1    1    0    0    0  0.30034008652E+02  0.80200590962E+01 -0.12683030209E+02  0.33574131097E+02  0.00000000000E+00 0.  1.
</event>
<event>
 5    1  0.1692171E-003  0.9118800E+02  0.7818608E-02  0.1130116E+00
         25   -1    0    0    0    0  0.00000000000E+00  0.00000000000E+00  0.99999998245E-14  0.12500000000E+03  0.12500000000E+03 0.  0.
        -11    1    3    3    0    0 -0.18193223701E+02 -0.23011743702E+02  0.25692161042E+02  0.38995139135E+02  0.51100000000E-03 0. -1.
         23    2    1    0    0    0  0.40958141357E+01 -0.18217451921E+02 -0.24542866501E+02  0.94161654649E+02  0.88968610544E+02 0.  0.
         11    1    3    3    0    0  0.22289037837E+02  0.47942917814E+01 -0.50235027544E+02  0.55166515514E+02  0.51100000000E-03 0.  1.
         22    1    1    0    0    0 -0.40958141357E+01  0.18217451921E+02  0.24542866501E+02  0.30838345351E+02  0.00000000000E+00 0.  1.
</event>
<event>
 5    1  0.1692171E-003  0.9118800E+02  0.7818608E-02  0.1130116E+00
         25   -1    0    0    0    0  0.00000000000E+00  0.00000000000E+00  0.99999998245E-14  0.12500000000E+03  0.12500000000E+03 0.  0.
        -11    1    3    3    0    0  0.30315334584E+02 -0.80179805642E+01  0.15962744968E+02  0.35186883216E+02  0.51100000000E-03 0.  1.
         23    2    1    0    0    0 -0.26779859071E+02  0.91339006738E+01  0.83103476242E+00  0.96693117230E+02  0.92456905137E+02 0.  0.
         11    1    3    3    0    0 -0.57095193655E+02  0.17151881238E+02 -0.15131710206E+02  0.61506234014E+02  0.51100000000E-03 0. -1.
         22    1    1    0    0    0  0.26779859071E+02 -0.91339006738E+01 -0.83103476242E+00  0.28306882770E+02  0.00000000000E+00 0. -1.
</event>
<event>
 5    1  0.1692171E-003  0.9118800E+02  0.7818608E-02  0.1130116E+00
         25   -1    0    0    0    0  0.00000000000E+00  0.00000000000E+00  0.99999998245E-14  0.12500000000E+03  0.12500000000E+03 0.  0.
        -11    1    3    3    0    0 -0.34786987303E+02 -0.99945603657E+01 -0.12530647970E+01  0.36215961870E+02  0.51100000000E-03 0.  1.
         23    2    1    0    0    0  0.24026089021E+02 -0.10971449545E+02 -0.11963484828E+02  0.96004299836E+02  0.91520899029E+02 0.  0.
         11    1    3    3    0    0  0.58813076324E+02 -0.97688917878E+00 -0.10710420031E+02  0.59788337966E+02  0.51100000000E-03 0. -1.
         22    1    1    0    0    0 -0.24026089021E+02  0.10971449545E+02  0.11963484828E+02  0.28995700164E+02  0.00000000000E+00 0. -1.
</event>
<event>
 5    1  0.1692171E-003  0.9118800E+02  0.7818608E-02  0.1130116E+00
         25   -1    0    0    0    0  0.00000000000E+00  0.00000000000E+00  0.99999998245E-14  0.12500000000E+03  0.12500000000E+03 0.  0.
        -11    1    3    3    0    0  0.21732831038E+02 -0.22660210745E+02  0.10956016416E+02  0.33254103385E+02  0.51100000000E-03 0.  1.
         23    2    1    0    0    0 -0.11275753615E+02  0.24328881801E+02 -0.12662437158E+02  0.95345752007E+02  0.90616985172E+02 0.  0.
         11    1    3    3    0    0 -0.33008584653E+02  0.46989092546E+02 -0.23618453574E+02  0.62091648622E+02  0.51100000000E-03 0. -1.
         22    1    1    0    0    0  0.11275753615E+02 -0.24328881801E+02  0.12662437158E+02  0.29654247993E+02  0.00000000000E+00 0. -1.
</event>
<event>
 5    1  0.1692171E-003  0.9118800E+02  0.7818608E-02  0.1130116E+00
         25   -1    0    0    0    0  0.00000000000E+00  0.00000000000E+00  0.99999998245E-14  0.12500000000E+03  0.12500000000E+03 0.  0.
        -11    1    3    3    0    0  0.16414194436E-01  0.53045152081E+02 -0.35411755354E+01  0.53163223690E+02  0.51100000000E-03 0.  1.
         23    2    1    0    0    0  0.24186772840E+01  0.13381577031E+02  0.21083976002E+02  0.99911144951E+02  0.96709804248E+02 0.  0.
         11    1    3    3    0    0  0.24022630896E+01 -0.39663575050E+02  0.24625151537E+02  0.46747921260E+02  0.51100000000E-03 0. -1.
         22    1    1    0    0    0 -0.24186772840E+01 -0.13381577031E+02 -0.21083976002E+02  0.25088855049E+02  0.00000000000E+00 0.  1.
</event>
<event>
 5    1  0.1692171E-003  0.9118800E+02  0.7818608E-02  0.1130116E+00
         25   -1    0    0    0    0  0.00000000000E+00  0.00000000000E+00  0.99999998245E-14  0.12500000000E+03  0.12500000000E+03 0.  0.
        -11    1    3    3    0    0  0.89054538454E+01  0.38280142378E+02 -0.83745564186E+00  0.39311292791E+02  0.51100000000E-03 0.  1.
         23    2    1    0    0    0  0.23516495474E+02 -0.14919505275E+02  0.97598282395E+01  0.95489468926E+02  0.90815016552E+02 0.  0.
         11    1    3    3    0    0  0.14611041628E+02 -0.53199647653E+02  0.10597283881E+02  0.56178176135E+02  0.51100000000E-03 0. -1.
         22    1    1    0    0    0 -0.23516495474E+02  0.14919505275E+02 -0.97598282395E+01  0.29510531074E+02  0.00000000000E+00 0. -1.
</event>
<event>
 5    1  0.1692171E-003  0.9118800E+02  0.7818608E-02  0.1130116E+00
         25   -1    0    0    0    0  0.00000000000E+00  0.00000000000E+00  0.99999998245E-14  0.12500000000E+03  0.12500000000E+03 0.  0.
        -11    1    3    3    0    0 -0.33144671045E+02 -0.60858683948E+01  0.24737044912E+02  0.41803449667E+02  0.51100000000E-03 0. -1.
         23    2    1    0    0    0  0.20719000389E+02  0.50014782993E+01  0.17797160486E+02  0.97232560729E+02  0.93183368593E+02 0.  0.
         11    1    3    3    0    0  0.53863671434E+02  0.11087346694E+02 -0.69398844255E+01  0.55429111063E+02  0.51100000000E-03 0.  1.
         22    1    1    0    0    0 -0.20719000389E+02 -0.50014782993E+01 -0.17797160486E+02  0.27767439271E+02  0.00000000000E+00 0.  1.
</event>
<event>
 5    1  0.1692171E-003  0.9118800E+02  0.7818608E-02  0.1130116E+00
         25   -1    0    0    0    0  0.00000000000E+00  0.00000000000E+00  0.99999998245E-14  0.12500000000E+03  0.12500000000E+03 0.  0.
        -11    1    3    3    0    0  0.11582621548E+02 -0.48336037181E+02 -0.35891916943E+02  0.61308721357E+02  0.51100000000E-03 0. -1.
         23    2    1    0    0    0  0.52368790282E+01 -0.16802183525E+02 -0.23180852669E+02  0.95895185903E+02  0.91371748783E+02 0.  0.
         11    1    3    3    0    0 -0.63457425199E+01  0.31533853656E+02  0.12711064274E+02  0.34586464546E+02  0.51100000000E-03 0.  1.
         22    1    1    0    0    0 -0.52368790282E+01  0.16802183525E+02  0.23180852669E+02  0.29104814097E+02  0.00000000000E+00 0. -1.
</event>
<event>
 5    1  0.1692171E-003  0.9118800E+02  0.7818608E-02  0.1130116E+00
         25   -1    0    0    0    0  0.00000000000E+00  0.00000000000E+00  0.99999998245E-14  0.12500000000E+03  0.12500000000E+03 0.  0.
        -11    1    3    3    0    0  0.13702114371E+02 -0.37166143497E+02 -0.19748771343E+02  0.44261542342E+02  0.51100000000E-03 0.  1.
         23    2    1    0    0    0 -0.13877445486E+02 -0.19969138310E+02  0.18493115158E+02  0.94449299741E+02  0.89371835246E+02 0.  0.
         11    1    3    3    0    0 -0.27579559858E+02  0.17197005187E+02  0.38241886500E+02  0.50187757399E+02  0.51100000000E-03 0. -1.
         22    1    1    0    0    0  0.13877445486E+02  0.19969138310E+02 -0.18493115158E+02  0.30550700259E+02  0.00000000000E+00 0. -1.
</event>
<event>
 5    1  0.1692171E-003  0.9118800E+02  0.7818608E-02  0.1130116E+00
         25   -1    0    0    0    0  0.00000000000E+00  0.00000000000E+00  0.99999998245E-14  0.12500000000E+03  0.12500000000E+03 0.  0.
        -11    1    3    3    0    0  0.18883080761E+02  0.26775769367E+02 -0.36367539340E+01  0.32965717703E+02  0.51100000000E-03 0. -1.
         23    2    1    0    0    0 -0.22303955956E+02  0.12442400286E+02 -0.31294603088E+02  0.84606535694E+02  0.74341333884E+02 0.  0.
         11    1    3    3    0    0 -0.41187036717E+02 -0.14333369081E+02 -0.27657849154E+02  0.51640817992E+02  0.51100000000E-03 0.  1.
         22    1    1    0    0    0  0.22303955956E+02 -0.12442400286E+02  0.31294603088E+02  0.40393464306E+02  0.00000000000E+00 0. -1.
</event>
<event>
 5    1  0.1692171E-003  0.9118800E+02  0.7818608E-02  0.1130116E+00
         25   -1    0    0    0    0  0.00000000000E+00  0.00000000000E+00  0.99999998245E-14  0.12500000000E+03  0.12500000000E+03 0.  0.
        -11    1    3    3    0    0 -0.32105440866E+02  0.15741733331E+02 -0.17839601853E+00  0.35757423381E+02  0.51100000000E-03 0.  1.
         23    2    1    0    0    0  0.22331782603E+02  0.63157824040E+01  0.19787499752E+02  0.94501757952E+02  0.89445175878E+02 0.  0.
         11    1    3    3    0    0  0.54437223469E+02 -0.94259509266E+01  0.19965895771E+02  0.58744334570E+02  0.51100000000E-03 0. -1.
         22    1    1    0    0    0 -0.22331782603E+02 -0.63157824040E+01 -0.19787499752E+02  0.30498242048E+02  0.00000000000E+00 0. -1.
</event>
<event>
 5    1  0.1692171E-003  0.9118800E+02  0.7818608E-02  0.1130116E+00
         25   -1    0    0    0    0  0.00000000000E+00  0.00000000000E+00  0.99999998245E-14  0.12500000000E+03  0.12500000000E+03 0.  0.
        -11    1    3    3    0    0 -0.33976443618E+02  0.27809871890E+02 -0.56915541366E+01  0.44273936851E+02  0.51100000000E-03 0. -1.
         23    2    1    0    0    0 -0.98943770469E+01 -0.94393852095E+01  0.23808283987E+02  0.97543942805E+02  0.93600137293E+02 0.  0.
         11    1    3    3    0    0  0.24082066571E+02 -0.37249257100E+02  0.29499838124E+02  0.53270005955E+02  0.51100000000E-03 0.  1.
         22    1    1    0    0    0  0.98943770469E+01  0.94393852095E+01 -0.23808283987E+02  0.27456057195E+02  0.00000000000E+00 0. -1.
</event>
<event>
 5    1  0.1692171E-003  0.9118800E+02  0.7818608E-02  0.1130116E+00
         25   -1    0    0    0    0  0.00000000000E+00  0.00000000000E+00  0.99999998245E-14  0.12500000000E+03  0.12500000000E+03 0.  0.
        -11    1    3    3    0    0  0.32376282222E+00  0.19425937558E+02 -0.28690459990E+02  0.34649882642E+02  0.51100000000E-03 0. -1.
         23    2    1    0    0    0 -0.23810419235E+01 -0.27018272883E+01  0.28625713672E+02  0.96148644494E+02  0.91717834271E+02 0.  0.
         11    1    3    3    0    0 -0.27048047458E+01 -0.22127764847E+02  0.57316173662E+02  0.61498761852E+02  0.51100000000E-03 0.  1.
         22    1    1    0    0    0  0.23810419235E+01  0.27018272883E+01 -0.28625713672E+02  0.28851355506E+02  0.00000000000E+00 0.  1.
</event>
<event>
 5    1  0.1692171E-003  0.9118800E+02  0.7818608E-02  0.1130116E+00
         25   -1    0    0    0    0  0.00000000000E+00  0.00000000000E+00  0.99999998245E-14  0.12500000000E+03  0.12500000000E+03 0.  0.
        -11    1    3    3    0    0  0.37667834892E+02 -0.34740260540E+02 -0.34578218662E+02  0.61817511224E+02  0.51100000000E-03 0.  1.
         23    2    1    0    0    0  0.23701549555E+02 -0.12977935288E+02 -0.17781931156E+02  0.92652089229E+02  0.86821784750E+02 0.  0.
         11    1    3    3    0    0 -0.13966285337E+02  0.21762325252E+02  0.16796287505E+02  0.30834578005E+02  0.51100000000E-03 0. -1.
         22    1    1    0    0    0 -0.23701549555E+02  0.12977935288E+02  0.17781931156E+02  0.32347910771E+02  0.00000000000E+00 0.  1.
</event>
<event>
 5    1  0.1692171E-003  0.9118800E+02  0.7818608E-02  0.1130116E+00
         25   -1    0    0    0    0  0.00000000000E+00  0.00000000000E+00  0.99999998245E-14  0.12500000000E+03  0.12500000000E+03 0.  0.
        -11    1    3    3    0    0 -0.23513782311E+02 -0.15650574252E+02  0.21175550963E+02  0.35302158459E+02  0.51100000000E-03 0.  1.
         23    2    1    0    0    0 -0.17463939521E+01  0.28280291584E+02 -0.11713914886E+02  0.94339918691E+02  0.89218718174E+02 0.  0.
         11    1    3    3    0    0  0.21767388359E+02  0.43930865836E+02 -0.32889465849E+02  0.59037760232E+02  0.51100000000E-03 0. -1.
         22    1    1    0    0    0  0.17463939521E+01 -0.28280291584E+02  0.11713914886E+02  0.30660081309E+02  0.00000000000E+00 0. -1.
</event>
<event>
 5    1  0.1692171E-003  0.9118800E+02  0.7818608E-02  0.1130116E+00
         25   -1    0    0    0    0  0.00000000000E+00  0.00000000000E+00  0.99999998245E-14  0.12500000000E+03  0.12500000000E+03 0.  0.
        -11    1    3    3    0    0  0.20570131009E+02 -0.59856989976E+01  0.36501937339E+02  0.42324346563E+02  0.51100000000E-03 0. -1.
         23    2    1    0    0    0  0.13642201696E+02 -0.21442179234E+02 -0.14274532749E+02  0.95851432237E+02  0.91311872499E+02 0.  0.
         11    1    3    3    0    0 -0.69279293132E+01 -0.15456480236E+02 -0.50776470088E+02  0.53527085674E+02  0.51100000000E-03 0.  1.
         22    1    1    0    0    0 -0.13642201696E+02  0.21442179234E+02  0.14274532749E+02  0.29148567763E+02  0.00000000000E+00 0.  1.
</event>
<event>
 5    1  0.1692171E-003  0.9118800E+02  0.7818608E-02  0.1130116E+00
         25   -1    0    0    0    0  0.00000000000E+00  0.00000000000E+00  0.99999998245E-14  0.12500000000E+03  0.12500000000E+03 0.  0.
        -11    1    3    3    0    0 -0.16789991398E+02 -0.34092443106E+02 -0.15233622434E+02  0.40942175575E+02  0.51100000000E-03 0.  1.
         23    2    1    0    0    0  0.15158386828E+02  0.10752690693E+02 -0.21753634101E+02  0.96388505021E+02  0.92044153835E+02 0.  0.
         11    1    3    3    0    0  0.31948378225E+02  0.44845133799E+02 -0.65200116662E+01  0.55446329446E+02  0.51100000000E-03 0. -1.
         22    1    1    0    0    0 -0.15158386828E+02 -0.10752690693E+02  0.21753634101E+02  0.28611494979E+02  0.00000000000E+00 0. -1.
</event>
<event>
 5    1  0.1692171E-003  0.9118800E+02  0.7818608E-02  0.1130116E+00
         25   -1    0    0    0    0  0.00000000000E+00  0.00000000000E+00  0.99999998245E-14  0.12500000000E+03  0.12500000000E+03 0.  0.
        -11    1    3    3    0    0 -0.17572708693E+02 -0.51263756572E+02  0.29790346702E+02  0.61840420321E+02  0.51100000000E-03 0.  1.
         23    2    1    0    0    0 -0.12468607289E+02 -0.25525638741E+02  0.93797802623E+01  0.95083371202E+02  0.90254322890E+02 0.  0.
         11    1    3    3    0    0  0.51041014038E+01  0.25738117830E+02 -0.20410566440E+02  0.33242950880E+02  0.51100000000E-03 0. -1.
         22    1    1    0    0    0  0.12468607289E+02  0.25525638741E+02 -0.93797802623E+01  0.29916628798E+02  0.00000000000E+00 0.  1.
</event>
<event>
 5    1  0.1692171E-003  0.9118800E+02  0.7818608E-02  0.1130116E+00
         25   -1    0    0    0    0  0.00000000000E+00  0.00000000000E+00  0.99999998245E-14  0.12500000000E+03  0.12500000000E+03 0.  0.
        -11    1    3    3    0    0  0.46155920443E+02 -0.13977682657E+02  0.83100713575E+01  0.48936713116E+02  0.51100000000E-03 0. -1.
         23    2    1    0    0    0  0.30740262929E+01 -0.28059614237E+02 -0.53386494588E+01  0.96272090803E+02  0.91885922212E+02 0.  0.
         11    1    3    3    0    0 -0.43081894150E+02 -0.14081931580E+02 -0.13648720816E+02  0.47335377687E+02  0.51100000000E-03 0.  1.
         22    1    1    0    0    0 -0.30740262929E+01  0.28059614237E+02  0.53386494588E+01  0.28727909197E+02  0.00000000000E+00 0.  1.
</event>
<event>
 5    1  0.1692171E-003  0.9118800E+02  0.7818608E-02  0.1130116E+00
         25   -1    0    0    0    0  0.00000000000E+00  0.00000000000E+00  0.99999998245E-14  0.12500000000E+03  0.12500000000E+03 0.  0.
        -11    1    3    3    0    0 -0.32328450326E+02  0.12854400117E+02 -0.39811148153E+02  0.52870519388E+02  0.51100000000E-03 0.  1.
         23    2    1    0    0    0  0.25360423372E+01  0.23521211716E+02 -0.16789560617E+02  0.95990204119E+02  0.91501644957E+02 0.  0.
         11    1    3    3    0    0  0.34864492663E+02  0.10666811599E+02  0.23021587536E+02  0.43119684731E+02  0.51100000000E-03 0. -1.
         22    1    1    0    0    0 -0.25360423372E+01 -0.23521211716E+02  0.16789560617E+02  0.29009795881E+02  0.00000000000E+00 0.  1.
</event>
<event>
 5    1  0.1692171E-003  0.9118800E+02  0.7818608E-02  0.1130116E+00
         25   -1    0    0    0    0  0.00000000000E+00  0.00000000000E+00  0.99999998245E-14  0.12500000000E+03  0.12500000000E+03 0.  0.
        -11    1    3    3    0    0  0.67162147137E+01  0.15336312306E+01  0.35837999554E+02  0.36494133461E+02  0.51100000000E-03 0. -1.
         23    2    1    0    0    0 -0.32156319858E+02  0.73326494386E+01 -0.31671155525E+01  0.91866523340E+02  0.85683317134E+02 0.  0.
         11    1    3    3    0    0 -0.38872534572E+02  0.57990182080E+01 -0.39005115106E+02  0.55372389879E+02  0.51100000000E-03 0.  1.
         22    1    1    0    0    0  0.32156319858E+02 -0.73326494386E+01  0.31671155525E+01  0.33133476660E+02  0.00000000000E+00 0.  1.
</event>
<event>
 5    1  0.1692171E-003  0.9118800E+02  0.7818608E-02  0.1130116E+00
         25   -1    0    0    0    0  0.00000000000E+00  0.00000000000E+00  0.99999998245E-14  0.12500000000E+03  0.12500000000E+03 0.  0.
        -11    1    3    3    0    0 -0.84395245141E+01  0.36557230970E+02  0.67281329853E+01  0.38117246543E+02  0.51100000000E-03 0. -1.
         23    2    1    0    0    0  0.12256716975E+02 -0.20090112110E+02  0.11863337859E+02  0.98645142749E+02  0.95059379796E+02 0.  0.
         11    1    3    3    0    0  0.20696241489E+02 -0.56647343080E+02  0.51352048733E+01  0.60527896206E+02  0.51100000000E-03 0.  1.
         22    1    1    0    0    0 -0.12256716975E+02  0.20090112110E+02 -0.11863337859E+02  0.26354857251E+02  0.00000000000E+00 0.  1.
</event>
<event>
 5    1  0.1692171E-003  0.9118800E+02  0.7818608E-02  0.1130116E+00
         25   -1    0    0    0    0  0.00000000000E+00  0.00000000000E+00  0.99999998245E-14  0.12500000000E+03  0.12500000000E+03 0.  0.
        -11    1    3    3    0    0 -0.26548377006E+02  0.22811852433E+02  0.24064983988E+02  0.42477292613E+02  0.51100000000E-03 0.  1.
         23    2    1    0    0    0  0.71971515749E+01 -0.18321865742E+02  0.21653009763E+02  0.95736668220E+02  0.91154632658E+02 0.  0.
         11    1    3    3    0    0  0.33745528581E+02 -0.41133718175E+02 -0.24119742251E+01  0.53259375607E+02  0.51100000000E-03 0. -1.
         22    1    1    0    0    0 -0.71971515749E+01  0.18321865742E+02 -0.21653009763E+02  0.29263331780E+02  0.00000000000E+00 0.  1.
</event>
<event>
 5    1  0.1692171E-003  0.9118800E+02  0.7818608E-02  0.1130116E+00
         25   -1    0    0    0    0  0.00000000000E+00  0.00000000000E+00  0.99999998245E-14  0.12500000000E+03  0.12500000000E+03 0.  0.
        -11    1    3    3    0    0  0.25308919067E+02 -0.22064230038E+02  0.21492965152E+01  0.33645075528E+02  0.51100000000E-03 0. -1.
         23    2    1    0    0    0 -0.78769705091E+01  0.27621289361E+02  0.11384293198E+02  0.94103650345E+02  0.88887077724E+02 0.  0.
         11    1    3    3    0    0 -0.33185889576E+02  0.49685519399E+02  0.92349966830E+01  0.60458574817E+02  0.51100000000E-03 0.  1.
         22    1    1    0    0    0  0.78769705091E+01 -0.27621289361E+02 -0.11384293198E+02  0.30896349655E+02  0.00000000000E+00 0.  1.
</event>
<event>
 5    1  0.1692171E-003  0.9118800E+02  0.7818608E-02  0.1130116E+00
         25   -1    0    0    0    0  0.00000000000E+00  0.00000000000E+00  0.99999998245E-14  0.12500000000E+03  0.12500000000E+03 0.  0.
        -11    1    3    3    0    0  0.34016056800E+01  0.41257007119E+02 -0.33183174272E+02  0.53055014963E+02  0.51100000000E-03 0. -1.
         23    2    1    0    0    0  0.23056836971E+02  0.70258977727E+01 -0.15755776947E+02  0.96203724584E+02  0.91792870889E+02 0.  0.
         11    1    3    3    0    0  0.19655231291E+02 -0.34231109346E+02  0.17427397325E+02  0.43148709621E+02  0.51100000000E-03 0.  1.
         22    1    1    0    0    0 -0.23056836971E+02 -0.70258977727E+01  0.15755776947E+02  0.28796275416E+02  0.00000000000E+00 0. -1.
</event>
<event>
 5    1  0.1692171E-003  0.9118800E+02  0.7818608E-02  0.1130116E+00
         25   -1    0    0    0    0  0.00000000000E+00  0.00000000000E+00  0.99999998245E-14  0.12500000000E+03  0.12500000000E+03 0.  0.
        -11    1    3    3    0    0  0.80768181275E+01  0.30301310630E+02  0.20621011193E+02  0.37531726843E+02  0.51100000000E-03 0.  1.
         23    2    1    0    0    0  0.32879350590E+02 -0.11145155025E+02 -0.57396742265E+00  0.90278312046E+02  0.83334134732E+02 0.  0.
         11    1    3    3    0    0  0.24802532462E+02 -0.41446465655E+02 -0.21194978615E+02  0.52746585203E+02  0.51100000000E-03 0. -1.
         22    1    1    0    0    0 -0.32879350590E+02  0.11145155025E+02  0.57396742265E+00  0.34721687954E+02  0.00000000000E+00 0. -1.
</event>
<event>
 5    1  0.1692171E-003  0.9118800E+02  0.7818608E-02  0.1130116E+00
         25   -1    0    0    0    0  0.00000000000E+00  0.00000000000E+00  0.99999998245E-14  0.12500000000E+03  0.12500000000E+03 0.  0.
        -11    1    3    3    0    0  0.18023064809E+02  0.39992264314E+02  0.39592995525E+01  0.44044161058E+02  0.51100000000E-03 0.  1.
         23    2    1    0    0    0 -0.78933596264E+00  0.10023061131E+02  0.33428059973E+02  0.90092694185E+02  0.83055243942E+02 0.  0.
         11    1    3    3    0    0 -0.18812400772E+02 -0.29969203183E+02  0.29468760420E+02  0.46048533128E+02  0.51100000000E-03 0. -1.
         22    1    1    0    0    0  0.78933596264E+00 -0.10023061131E+02 -0.33428059973E+02  0.34907305815E+02  0.00000000000E+00 0.  1.
</event>
<event>
 5    1  0.1692171E-003  0.9118800E+02  0.7818608E-02  0.1130116E+00
         25   -1    0    0    0    0  0.00000000000E+00  0.00000000000E+00  0.99999998245E-14  0.12500000000E+03  0.12500000000E+03 0.  0.
        -11    1    3    3    0    0 -0.34245592757E+02  0.35992463153E+02 -0.16867835305E+02  0.52466578841E+02  0.51100000000E-03 0.  1.
         23    2    1    0    0    0 -0.10581348418E+02  0.64772455631E+01 -0.30019435830E+02  0.92517909982E+02  0.86628387353E+02 0.  0.
         11    1    3    3    0    0  0.23664244340E+02 -0.29515217590E+02 -0.13151600524E+02  0.40051331141E+02  0.51100000000E-03 0. -1.
         22    1    1    0    0    0  0.10581348418E+02 -0.64772455631E+01  0.30019435830E+02  0.32482090018E+02  0.00000000000E+00 0.  1.
</event>
<event>
 5    1  0.1692171E-003  0.9118800E+02  0.7818608E-02  0.1130116E+00
         25   -1    0    0    0    0  0.00000000000E+00  0.00000000000E+00  0.99999998245E-14  0.12500000000E+03  0.12500000000E+03 0.  0.
        -11    1    3    3    0    0  0.35397103243E+02  0.25972269804E+02  0.75799356420E+01  0.44552992507E+02  0.51100000000E-03 0. -1.
         23    2    1    0    0    0  0.16689150037E+02 -0.11017177229E+02 -0.21843158189E+02  0.95385316434E+02  0.90671545197E+02 0.  0.
         11    1    3    3    0    0 -0.18707953206E+02 -0.36989447032E+02 -0.29423093831E+02  0.50832323927E+02  0.51100000000E-03 0.  1.
         22    1    1    0    0    0 -0.16689150037E+02  0.11017177229E+02  0.21843158189E+02  0.29614683566E+02  0.00000000000E+00 0.  1.
</event>
<event>
 5    1  0.1692171E-003  0.9118800E+02  0.7818608E-02  0.1130116E+00
         25   -1    0    0    0    0  0.00000000000E+00  0.00000000000E+00  0.99999998245E-14  0.12500000000E+03  0.12500000000E+03 0.  0.
        -11    1    3    3    0    0 -0.69347097348E+01  0.15088288459E+02  0.30937351288E+02  0.35112196638E+02  0.51100000000E-03 0.  1.
         23    2    1    0    0    0 -0.32047977703E+02  0.89669371916E+01 -0.15522871829E+02  0.88278910865E+02  0.80279061506E+02 0.  0.
         11    1    3    3    0    0 -0.25113267968E+02 -0.61213512671E+01 -0.46460223117E+02  0.53166714227E+02  0.51100000000E-03 0. -1.
         22    1    1    0    0    0  0.32047977703E+02 -0.89669371916E+01  0.15522871829E+02  0.36721089135E+02  0.00000000000E+00 0. -1.
</event>
<event>
 5    1  0.1692171E-003  0.9118800E+02  0.7818608E-02  0.1130116E+00
         25   -1    0    0    0    0  0.00000000000E+00  0.00000000000E+00  0.99999998245E-14  0.12500000000E+03  0.12500000000E+03 0.  0.
        -11    1    3    3    0    0 -0.47574345556E+02 -0.33793252403E+02  0.95211793796E+01  0.59126602474E+02  0.51100000000E-03 0.  1.
         23    2    1    0    0    0 -0.29516499669E+02 -0.34589061684E+01  0.66575305858E+01  0.94544942980E+02  0.89505506787E+02 0.  0.
         11    1    3    3    0    0  0.18057845887E+02  0.30334346235E+02 -0.28636487938E+01  0.35418340507E+02  0.51100000000E-03 0. -1.
         22    1    1    0    0    0  0.29516499669E+02  0.34589061684E+01 -0.66575305858E+01  0.30455057020E+02  0.00000000000E+00 0.  1.
</event>
<event>
 5    1  0.1692171E-003  0.9118800E+02  0.7818608E-02  0.1130116E+00
         25   -1    0    0    0    0  0.00000000000E+00  0.00000000000E+00  0.99999998245E-14  0.12500000000E+03  0.12500000000E+03 0.  0.
        -11    1    3    3    0    0 -0.67259914494E+01  0.26471113057E+02 -0.27128148787E+02  0.38495392508E+02  0.51100000000E-03 0.  1.
         23    2    1    0    0    0 -0.25286548296E+02  0.21055146377E+01  0.18603475888E+02  0.93536814660E+02  0.88086342102E+02 0.  0.
         11    1    3    3    0    0 -0.18560556847E+02 -0.24365598419E+02  0.45731624675E+02  0.55041422152E+02  0.51100000000E-03 0. -1.
         22    1    1    0    0    0  0.25286548296E+02 -0.21055146377E+01 -0.18603475888E+02  0.31463185340E+02  0.00000000000E+00 0. -1.
</event>
<event>
 5    1  0.1692171E-003  0.9118800E+02  0.7818608E-02  0.1130116E+00
         25   -1    0    0    0    0  0.00000000000E+00  0.00000000000E+00  0.99999998245E-14  0.12500000000E+03  0.12500000000E+03 0.  0.
        -11    1    3    3    0    0  0.21639793775E+02  0.58169038763E+01 -0.29480879937E+02  0.37030248817E+02  0.51100000000E-03 0.  1.
         23    2    1    0    0    0 -0.25387678984E+02  0.13065560841E+02  0.52874373202E+01  0.95962091713E+02  0.91463232657E+02 0.  0.
         11    1    3    3    0    0 -0.47027472759E+02  0.72486569648E+01  0.34768317257E+02  0.58931842895E+02  0.51100000000E-03 0. -1.
         22    1    1    0    0    0  0.25387678984E+02 -0.13065560841E+02 -0.52874373202E+01  0.29037908287E+02  0.00000000000E+00 0. -1.
</event>
<event>
 5    1  0.1692171E-003  0.9118800E+02  0.7818608E-02  0.1130116E+00
         25   -1    0    0    0    0  0.00000000000E+00  0.00000000000E+00  0.99999998245E-14  0.12500000000E+03  0.12500000000E+03 0.  0.
        -11    1    3    3    0    0 -0.36042370491E+02  0.35748931310E+01 -0.24289299075E+02  0.43609659267E+02  0.51100000000E-03 0. -1.
         23    2    1    0    0    0 -0.18857029049E+02 -0.31449858854E+02 -0.26216620239E+01  0.88236508895E+02  0.80213011561E+02 0.  0.
         11    1    3    3    0    0  0.17185341442E+02 -0.35024751985E+02  0.21667637052E+02  0.44626849628E+02  0.51100000000E-03 0.  1.
         22    1    1    0    0    0  0.18857029049E+02  0.31449858854E+02  0.26216620239E+01  0.36763491105E+02  0.00000000000E+00 0. -1.
</event>
<event>
 5    1  0.1692171E-003  0.9118800E+02  0.7818608E-02  0.1130116E+00
         25   -1    0    0    0    0  0.00000000000E+00  0.00000000000E+00  0.99999998245E-14  0.12500000000E+03  0.12500000000E+03 0.  0.
        -11    1    3    3    0    0  0.96581935310E+01 -0.24139012550E+02 -0.32273571608E+02  0.41443407845E+02  0.51100000000E-03 0.  1.
         23    2    1    0    0    0 -0.11779441752E+02 -0.19584993816E+02  0.17753326906E+02  0.96060272168E+02  0.91597314600E+02 0.  0.
         11    1    3    3    0    0 -0.21437635283E+02  0.45540187341E+01  0.50026898515E+02  0.54616864323E+02  0.51100000000E-03 0. -1.
         22    1    1    0    0    0  0.11779441752E+02  0.19584993816E+02 -0.17753326906E+02  0.28939727832E+02  0.00000000000E+00 0. -1.
</event>
<event>
 5    1  0.1692171E-003  0.9118800E+02  0.7818608E-02  0.1130116E+00
         25   -1    0    0    0    0  0.00000000000E+00  0.00000000000E+00  0.99999998245E-14  0.12500000000E+03  0.12500000000E+03 0.  0.
        -11    1    3    3    0    0  0.16770523770E+02 -0.24491684662E+02  0.15180308954E+02  0.33339689041E+02  0.51100000000E-03 0.  1.
         23    2    1    0    0    0 -0.26009028276E+02  0.16774936935E+02  0.47038057323E+01  0.93695146552E+02  0.88310739086E+02 0.  0.
         11    1    3    3    0    0 -0.42779552046E+02  0.41266621597E+02 -0.10476503222E+02  0.60355457511E+02  0.51100000000E-03 0. -1.
         22    1    1    0    0    0  0.26009028276E+02 -0.16774936935E+02 -0.47038057323E+01  0.31304853448E+02  0.00000000000E+00 0. -1.
</event>
<event>
 5    1  0.1692171E-003  0.9118800E+02  0.7818608E-02  0.1130116E+00
         25   -1    0    0    0    0  0.00000000000E+00  0.00000000000E+00  0.99999998245E-14  0.12500000000E+03  0.12500000000E+03 0.  0.
        -11    1    3    3    0    0  0.11542295662E+02  0.14587906427E+02 -0.29834053332E+02  0.35158247134E+02  0.51100000000E-03 0.  1.
         23    2    1    0    0    0 -0.26244535729E+02  0.13775714575E+01  0.14577249010E+02  0.94947220637E+02  0.90065560339E+02 0.  0.
         11    1    3    3    0    0 -0.37786831391E+02 -0.13210334969E+02  0.44411302342E+02  0.59788973503E+02  0.51100000000E-03 0. -1.
         22    1    1    0    0    0  0.26244535729E+02 -0.13775714575E+01 -0.14577249010E+02  0.30052779363E+02  0.00000000000E+00 0. -1.
</event>
<event>
 5    1  0.1692171E-003  0.9118800E+02  0.7818608E-02  0.1130116E+00
         25   -1    0    0    0    0  0.00000000000E+00  0.00000000000E+00  0.99999998245E-14  0.12500000000E+03  0.12500000000E+03 0.  0.
        -11    1    3    3    0    0 -0.41691248920E+02  0.39474677617E+02  0.19379637584E+02  0.60596870898E+02  0.51100000000E-03 0.  1.
         23    2    1    0    0    0 -0.10817888843E+02  0.23781794113E+02  0.13020556758E+02  0.95808642571E+02  0.91253277436E+02 0.  0.
         11    1    3    3    0    0  0.30873360077E+02 -0.15692883504E+02 -0.63590808267E+01  0.35211771673E+02  0.51100000000E-03 0. -1.
         22    1    1    0    0    0  0.10817888843E+02 -0.23781794113E+02 -0.13020556758E+02  0.29191357429E+02  0.00000000000E+00 0.  1.
</event>
<event>
 5    1  0.1692171E-003  0.9118800E+02  0.7818608E-02  0.1130116E+00
         25   -1    0    0    0    0  0.00000000000E+00  0.00000000000E+00  0.99999998245E-14  0.12500000000E+03  0.12500000000E+03 0.  0.
        -11    1    3    3    0    0  0.45314596744E+02 -0.96402554268E+01 -0.21333445976E+02  0.51004540192E+02  0.51100000000E-03 0.  1.
         23    2    1    0    0    0  0.45844314243E+01 -0.26166361302E+02 -0.11535954949E+02  0.96038409369E+02  0.91567474259E+02 0.  0.
         11    1    3    3    0    0 -0.40730165319E+02 -0.16526105876E+02  0.97974910265E+01  0.45033869177E+02  0.51100000000E-03 0. -1.
         22    1    1    0    0    0 -0.45844314243E+01  0.26166361302E+02  0.11535954949E+02  0.28961590631E+02  0.00000000000E+00 0.  1.
</event>
<event>
 5    1  0.1692171E-003  0.9118800E+02  0.7818608E-02  0.1130116E+00
         25   -1    0    0    0    0  0.00000000000E+00  0.00000000000E+00  0.99999998245E-14  0.12500000000E+03  0.12500000000E+03 0.  0.
        -11    1    3    3    0    0 -0.23575484733E+02  0.18222049343E+02  0.14267908430E+02  0.33036642897E+02  0.51100000000E-03 0.  1.
         23    2    1    0    0    0  0.20139879853E+02 -0.20698682630E+02 -0.69516599036E+01  0.95295188967E+02  0.90547210016E+02 0.  0.
         11    1    3    3    0    0  0.43715364586E+02 -0.38920731973E+02 -0.21219568334E+02  0.62258546070E+02  0.51100000000E-03 0. -1.
         22    1    1    0    0    0 -0.20139879853E+02  0.20698682630E+02  0.69516599036E+01  0.29704811033E+02  0.00000000000E+00 0. -1.
</event>
<event>
 5    1  0.1692171E-003  0.9118800E+02  0.7818608E-02  0.1130116E+00
         25   -1    0    0    0    0  0.00000000000E+00  0.00000000000E+00  0.99999998245E-14  0.12500000000E+03  0.12500000000E+03 0.  0.
        -11    1    3    3    0    0 -0.19658155384E+02 -0.26049045368E+02  0.50836861002E+02  0.60410117319E+02  0.51100000000E-03 0.  1.
         23    2    1    0    0    0 -0.61524255094E+01 -0.25473734436E+01  0.29078759234E+02  0.95168545297E+02  0.90372209912E+02 0.  0.
         11    1    3    3    0    0  0.13505729875E+02  0.23501671924E+02 -0.21758101768E+02  0.34758427978E+02  0.51100000000E-03 0. -1.
         22    1    1    0    0    0  0.61524255094E+01  0.25473734436E+01 -0.29078759234E+02  0.29831454703E+02  0.00000000000E+00 0.  1.
</event>
<event>
 5    1  0.1692171E-003  0.9118800E+02  0.7818608E-02  0.1130116E+00
         25   -1    0    0    0    0  0.00000000000E+00  0.00000000000E+00  0.99999998245E-14  0.12500000000E+03  0.12500000000E+03 0.  0.
        -11    1    3    3    0    0  0.20249562379E+02 -0.37516666920E+02  0.16977603810E+02  0.45888823309E+02  0.51100000000E-03 0.  1.
         23    2    1    0    0    0 -0.23888119760E+00 -0.14972450717E+02 -0.23855880537E+02  0.96833807838E+02  0.92646920939E+02 0.  0.
         11    1    3    3    0    0 -0.20488443577E+02  0.22544216203E+02 -0.40833484347E+02  0.50944984528E+02  0.51100000000E-03 0. -1.
         22    1    1    0    0    0  0.23888119760E+00  0.14972450717E+02  0.23855880537E+02  0.28166192162E+02  0.00000000000E+00 0. -1.
</event>
<event>
 5    1  0.1692171E-003  0.9118800E+02  0.7818608E-02  0.1130116E+00
         25   -1    0    0    0    0  0.00000000000E+00  0.00000000000E+00  0.99999998245E-14  0.12500000000E+03  0.12500000000E+03 0.  0.
        -11    1    3    3    0    0  0.31072340234E+02  0.27397128041E+02  0.92618984441E+01  0.42448506635E+02  0.51100000000E-03 0. -1.
         23    2    1    0    0    0 -0.34980705262E+00  0.37915471848E+01 -0.28081213350E+02  0.96661814838E+02  0.92414575201E+02 0.  0.
         11    1    3    3    0    0 -0.31422147286E+02 -0.23605580856E+02 -0.37343111794E+02  0.54213308204E+02  0.51100000000E-03 0.  1.
         22    1    1    0    0    0  0.34980705262E+00 -0.37915471848E+01  0.28081213350E+02  0.28338185162E+02  0.00000000000E+00 0.  1.
</event>
<event>
 5    1  0.1692171E-003  0.9118800E+02  0.7818608E-02  0.1130116E+00
         25   -1    0    0    0    0  0.00000000000E+00  0.00000000000E+00  0.99999998245E-14  0.12500000000E+03  0.12500000000E+03 0.  0.
        -11    1    3    3    0    0 -0.14427598260E+02  0.86060228722E+01  0.44483886665E+02  0.47550345891E+02  0.51100000000E-03 0.  1.
         23    2    1    0    0    0  0.16599088100E+02 -0.16436414566E+02  0.19189746266E+02  0.94768694846E+02  0.89817446588E+02 0.  0.
         11    1    3    3    0    0  0.31026686360E+02 -0.25042437438E+02 -0.25294140399E+02  0.47218348956E+02  0.51100000000E-03 0. -1.
         22    1    1    0    0    0 -0.16599088100E+02  0.16436414566E+02 -0.19189746266E+02  0.30231305154E+02  0.00000000000E+00 0.  1.
</event>
<event>
 5    1  0.1692171E-003  0.9118800E+02  0.7818608E-02  0.1130116E+00
         25   -1    0    0    0    0  0.00000000000E+00  0.00000000000E+00  0.99999998245E-14  0.12500000000E+03  0.12500000000E+03 0.  0.
        -11    1    3    3    0    0 -0.21263493557E+02 -0.23003663983E+02 -0.14415248681E+02  0.34483388895E+02  0.51100000000E-03 0.  1.
         23    2    1    0    0    0  0.18624888298E+02  0.22260114684E+02 -0.42017343382E+01  0.95673327135E+02  0.91067731847E+02 0.  0.
         11    1    3    3    0    0  0.39888381855E+02  0.45263778668E+02  0.10213514343E+02  0.61189938240E+02  0.51100000000E-03 0. -1.
         22    1    1    0    0    0 -0.18624888298E+02 -0.22260114684E+02  0.42017343382E+01  0.29326672865E+02  0.00000000000E+00 0. -1.
</event>
<event>
 5    1  0.1692171E-003  0.9118800E+02  0.7818608E-02  0.1130116E+00
         25   -1    0    0    0    0  0.00000000000E+00  0.00000000000E+00  0.99999998245E-14  0.12500000000E+03  0.12500000000E+03 0.  0.
        -11    1    3    3    0    0  0.30765414838E+02  0.10750718095E+02 -0.10770020727E+02  0.34323199683E+02  0.51100000000E-03 0.  1.
         23    2    1    0    0    0 -0.24880350172E+02  0.97782134621E+01  0.13514815674E+02  0.95045108481E+02  0.90201314404E+02 0.  0.
         11    1    3    3    0    0 -0.55645765010E+02 -0.97250463311E+00  0.24284836401E+02  0.60721908799E+02  0.51100000000E-03 0. -1.
         22    1    1    0    0    0  0.24880350172E+02 -0.97782134621E+01 -0.13514815674E+02  0.29954891519E+02  0.00000000000E+00 0. -1.
</event>
<event>
 5    1  0.1692171E-003  0.9118800E+02  0.7818608E-02  0.1130116E+00
         25   -1    0    0    0    0  0.00000000000E+00  0.00000000000E+00  0.99999998245E-14  0.12500000000E+03  0.12500000000E+03 0.  0.
        -11    1    3    3    0    0  0.80568852986E+01 -0.40912185245E+02 -0.29228987386E+01  0.41800282769E+02  0.51100000000E-03 0. -1.
         23    2    1    0    0    0  0.26773823606E+02  0.10069218026E+02  0.19617936594E+01  0.96328142430E+02  0.91962142252E+02 0.  0.
         11    1    3    3    0    0  0.18716938307E+02  0.50981403272E+02  0.48846923980E+01  0.54527859661E+02  0.51100000000E-03 0.  1.
         22    1    1    0    0    0 -0.26773823606E+02 -0.10069218026E+02 -0.19617936594E+01  0.28671857570E+02  0.00000000000E+00 0.  1.
</event>
<event>
 5    1  0.1692171E-003  0.9118800E+02  0.7818608E-02  0.1130116E+00
         25   -1    0    0    0    0  0.00000000000E+00  0.00000000000E+00  0.99999998245E-14  0.12500000000E+03  0.12500000000E+03 0.  0.
        -11    1    3    3    0    0  0.28910749629E+02 -0.84751622722E+01 -0.15752599349E+02  0.33997120557E+02  0.51100000000E-03 0.  1.
         23    2    1    0    0    0 -0.12900773736E+02  0.15776126276E+02  0.21764139298E+02  0.95183999553E+02  0.90393583225E+02 0.  0.
         11    1    3    3    0    0 -0.41811523365E+02  0.24251288548E+02  0.37516738647E+02  0.61186878996E+02  0.51100000000E-03 0. -1.
         22    1    1    0    0    0  0.12900773736E+02 -0.15776126276E+02 -0.21764139298E+02  0.29816000447E+02  0.00000000000E+00 0. -1.
</event>
<event>
 5    1  0.1692171E-003  0.9118800E+02  0.7818608E-02  0.1130116E+00
         25   -1    0    0    0    0  0.00000000000E+00  0.00000000000E+00  0.99999998245E-14  0.12500000000E+03  0.12500000000E+03 0.  0.
        -11    1    3    3    0    0  0.14468811826E+02 -0.32392276143E+02 -0.13651591693E+02  0.38012787656E+02  0.51100000000E-03 0.  1.
         23    2    1    0    0    0  0.80150304376E+01  0.24931072001E+02 -0.13139938909E+02  0.95700562145E+02  0.91105107082E+02 0.  0.
         11    1    3    3    0    0 -0.64537813888E+01  0.57323348144E+02  0.51165278361E+00  0.57687774489E+02  0.51100000000E-03 0. -1.
         22    1    1    0    0    0 -0.80150304376E+01 -0.24931072001E+02  0.13139938909E+02  0.29299437855E+02  0.00000000000E+00 0. -1.
</event>
<event>
 5    1  0.1692171E-003  0.9118800E+02  0.7818608E-02  0.1130116E+00
         25   -1    0    0    0    0  0.00000000000E+00  0.00000000000E+00  0.99999998245E-14  0.12500000000E+03  0.12500000000E+03 0.  0.
        -11    1    3    3    0    0 -0.25199640445E+02  0.22566127821E+02 -0.26662450521E+02  0.43071316110E+02  0.51100000000E-03 0.  1.
         23    2    1    0    0    0  0.19593276050E+02  0.11629123211E+02 -0.27626222122E+02  0.89190209136E+02  0.81685692040E+02 0.  0.
         11    1    3    3    0    0  0.44792916495E+02 -0.10937004611E+02 -0.96377160060E+00  0.46118893026E+02  0.51100000000E-03 0. -1.
         22    1    1    0    0    0 -0.19593276050E+02 -0.11629123211E+02  0.27626222122E+02  0.35809790864E+02  0.00000000000E+00 0.  1.
</event>
<event>
 5    1  0.1692171E-003  0.9118800E+02  0.7818608E-02  0.1130116E+00
         25   -1    0    0    0    0  0.00000000000E+00  0.00000000000E+00  0.99999998245E-14  0.12500000000E+03  0.12500000000E+03 0.  0.
        -11    1    3    3    0    0 -0.19099392235E+02 -0.28267941058E+02 -0.51173816005E+01  0.34497113939E+02  0.51100000000E-03 0. -1.
         23    2    1    0    0    0 -0.29364189341E+01  0.18787462476E+02 -0.29498458710E+02  0.89903698646E+02  0.82770312683E+02 0.  0.
         11    1    3    3    0    0  0.16162973301E+02  0.47055403534E+02 -0.24381077109E+02  0.55406584708E+02  0.51100000000E-03 0.  1.
         22    1    1    0    0    0  0.29364189341E+01 -0.18787462476E+02  0.29498458710E+02  0.35096301354E+02  0.00000000000E+00 0.  1.
</event>
<event>
 5    1  0.1692171E-003  0.9118800E+02  0.7818608E-02  0.1130116E+00
         25   -1    0    0    0    0  0.00000000000E+00  0.00000000000E+00  0.99999998245E-14  0.12500000000E+03  0.12500000000E+03 0.  0.
        -11    1    3    3    0    0 -0.30073366414E+02  0.38712987366E+02  0.36406725701E+02  0.61061873824E+02  0.51100000000E-03 0.  1.
         23    2    1    0    0    0 -0.10315669339E+02  0.12205317426E+02  0.23560960771E+02  0.96530688806E+02  0.92237043543E+02 0.  0.
         11    1    3    3    0    0  0.19757697075E+02 -0.26507669940E+02 -0.12845764930E+02  0.35468814983E+02  0.51100000000E-03 0. -1.
         22    1    1    0    0    0  0.10315669339E+02 -0.12205317426E+02 -0.23560960771E+02  0.28469311194E+02  0.00000000000E+00 0. -1.
</event>
<event>
 5    1  0.1692171E-003  0.9118800E+02  0.7818608E-02  0.1130116E+00
         25   -1    0    0    0    0  0.00000000000E+00  0.00000000000E+00  0.99999998245E-14  0.12500000000E+03  0.12500000000E+03 0.  0.
        -11    1    3    3    0    0 -0.46705336998E+02  0.26115301210E+02 -0.26699858981E+02  0.59802006080E+02  0.51100000000E-03 0. -1.
         23    2    1    0    0    0 -0.15840066890E+02  0.88150624550E+01 -0.23487413614E+02  0.95330627856E+02  0.90596120027E+02 0.  0.
         11    1    3    3    0    0  0.30865270107E+02 -0.17300238755E+02  0.32124453676E+01  0.35528621776E+02  0.51100000000E-03 0.  1.
         22    1    1    0    0    0  0.15840066890E+02 -0.88150624550E+01  0.23487413614E+02  0.29669372144E+02  0.00000000000E+00 0. -1.
</event>
<event>
 5    1  0.1692171E-003  0.9118800E+02  0.7818608E-02  0.1130116E+00
         25   -1    0    0    0    0  0.00000000000E+00  0.00000000000E+00  0.99999998245E-14  0.12500000000E+03  0.12500000000E+03 0.  0.
        -11    1    3    3    0    0  0.26093766008E+02  0.44267852670E+02 -0.11065334157E+02  0.52563951761E+02  0.51100000000E-03 0.  1.
         23    2    1    0    0    0  0.10293743064E+02  0.18087247265E+02  0.19987224510E+02  0.96145211775E+02  0.91713155783E+02 0.  0.
         11    1    3    3    0    0 -0.15800022944E+02 -0.26180605404E+02  0.31052558667E+02  0.43581260014E+02  0.51100000000E-03 0. -1.
         22    1    1    0    0    0 -0.10293743064E+02 -0.18087247265E+02 -0.19987224510E+02  0.28854788225E+02  0.00000000000E+00 0.  1.
</event>
<event>
 5    1  0.1692171E-003  0.9118800E+02  0.7818608E-02  0.1130116E+00
         25   -1    0    0    0    0  0.00000000000E+00  0.00000000000E+00  0.99999998245E-14  0.12500000000E+03  0.12500000000E+03 0.  0.
        -11    1    3    3    0    0  0.22959684570E+01  0.10003024336E+02 -0.40458392679E+02  0.41739831162E+02  0.51100000000E-03 0. -1.
         23    2    1    0    0    0 -0.22066742742E+02  0.16398699574E+02  0.80113492049E+01  0.96363655976E+02  0.92010401553E+02 0.  0.
         11    1    3    3    0    0 -0.24362711199E+02  0.63956752378E+01  0.48469741884E+02  0.54623824814E+02  0.51100000000E-03 0.  1.
         22    1    1    0    0    0  0.22066742742E+02 -0.16398699574E+02 -0.80113492049E+01  0.28636344024E+02  0.00000000000E+00 0.  1.
</event>
<event>
 5    1  0.1692171E-003  0.9118800E+02  0.7818608E-02  0.1130116E+00
         25   -1    0    0    0    0  0.00000000000E+00  0.00000000000E+00  0.99999998245E-14  0.12500000000E+03  0.12500000000E+03 0.  0.
        -11    1    3    3    0    0 -0.21836401369E+02 -0.39829078016E+02  0.22231642474E+02  0.50571037242E+02  0.51100000000E-03 0. -1.
         23    2    1    0    0    0 -0.28554876870E+02  0.57851947808E+00  0.17056362778E+01  0.96388378708E+02  0.92043982296E+02 0.  0.
         11    1    3    3    0    0 -0.67184755008E+01  0.40407597494E+02 -0.20526006197E+02  0.45817341465E+02  0.51100000000E-03 0.  1.
         22    1    1    0    0    0  0.28554876870E+02 -0.57851947808E+00 -0.17056362778E+01  0.28611621292E+02  0.00000000000E+00 0. -1.
</event>
<event>
 5    1  0.1692171E-003  0.9118800E+02  0.7818608E-02  0.1130116E+00
         25   -1    0    0    0    0  0.00000000000E+00  0.00000000000E+00  0.99999998245E-14  0.12500000000E+03  0.12500000000E+03 0.  0.
        -11    1    3    3    0    0  0.42971708038E+02  0.20616371552E+02  0.20687229594E+01  0.47706205913E+02  0.51100000000E-03 0.  1.
         23    2    1    0    0    0  0.40092313667E+01  0.16295550417E+02 -0.24673590284E+02  0.95160345896E+02  0.90360868046E+02 0.  0.
         11    1    3    3    0    0 -0.38962476671E+02 -0.43208211352E+01 -0.26742313244E+02  0.47454139983E+02  0.51100000000E-03 0. -1.
         22    1    1    0    0    0 -0.40092313667E+01 -0.16295550417E+02  0.24673590284E+02  0.29839654104E+02  0.00000000000E+00 0. -1.
</event>
<event>
 5    1  0.1692171E-003  0.9118800E+02  0.7818608E-02  0.1130116E+00
         25   -1    0    0    0    0  0.00000000000E+00  0.00000000000E+00  0.99999998245E-14  0.12500000000E+03  0.12500000000E+03 0.  0.
        -11    1    3    3    0    0 -0.15772085041E+02 -0.12063085334E+01 -0.31748873646E+02  0.35471183020E+02  0.51100000000E-03 0.  1.
         23    2    1    0    0    0 -0.57963156819E+01 -0.22246378840E+02  0.21459448776E+02  0.93551524858E+02  0.88107214316E+02 0.  0.
         11    1    3    3    0    0  0.99757693591E+01 -0.21040070306E+02  0.53208322422E+02  0.58080341838E+02  0.51100000000E-03 0. -1.
         22    1    1    0    0    0  0.57963156819E+01  0.22246378840E+02 -0.21459448776E+02  0.31448475142E+02  0.00000000000E+00 0. -1.
</event>
<event>
 5    1  0.1692171E-003  0.9118800E+02  0.7818608E-02  0.1130116E+00
         25   -1    0    0    0    0  0.00000000000E+00  0.00000000000E+00  0.99999998245E-14  0.12500000000E+03  0.12500000000E+03 0.  0.
        -11    1    3    3    0    0 -0.29540814680E+02 -0.68986304108E+01 -0.16819498145E+02  0.34686400096E+02  0.51100000000E-03 0. -1.
         23    2    1    0    0    0  0.15435855391E+02  0.16722193747E+02  0.17753607752E+02  0.96136736436E+02  0.91701603633E+02 0.  0.
         11    1    3    3    0    0  0.44976670072E+02  0.23620824158E+02  0.34573105897E+02  0.61450336340E+02  0.51100000000E-03 0.  1.
         22    1    1    0    0    0 -0.15435855391E+02 -0.16722193747E+02 -0.17753607752E+02  0.28863263564E+02  0.00000000000E+00 0.  1.
</event>
<event>
 5    1  0.1692171E-003  0.9118800E+02  0.7818608E-02  0.1130116E+00
         25   -1    0    0    0    0  0.00000000000E+00  0.00000000000E+00  0.99999998245E-14  0.12500000000E+03  0.12500000000E+03 0.  0.
        -11    1    3    3    0    0 -0.21789526190E+02 -0.61434478212E+01  0.34726144261E+02  0.41453956363E+02  0.51100000000E-03 0. -1.
         23    2    1    0    0    0 -0.10537338766E+02  0.24121963196E+02 -0.10191344268E+02  0.96772918771E+02  0.92564732446E+02 0.  0.
         11    1    3    3    0    0  0.11252187424E+02  0.30265411018E+02 -0.44917488529E+02  0.55318962408E+02  0.51100000000E-03 0.  1.
         22    1    1    0    0    0  0.10537338766E+02 -0.24121963196E+02  0.10191344268E+02  0.28227081229E+02  0.00000000000E+00 0.  1.
</event>
<event>
 5    1  0.1692171E-003  0.9118800E+02  0.7818608E-02  0.1130116E+00
         25   -1    0    0    0    0  0.00000000000E+00  0.00000000000E+00  0.99999998245E-14  0.12500000000E+03  0.12500000000E+03 0.  0.
        -11    1    3    3    0    0  0.24857100685E+02  0.62271416501E+01  0.28544168745E+02  0.38359122999E+02  0.51100000000E-03 0.  1.
         23    2    1    0    0    0  0.10994207910E+02 -0.51552510026E+01 -0.26283912474E+02  0.96046705276E+02  0.91578798414E+02 0.  0.
         11    1    3    3    0    0 -0.13862892776E+02 -0.11382392653E+02 -0.54828081219E+02  0.57687582277E+02  0.51100000000E-03 0. -1.
         22    1    1    0    0    0 -0.10994207910E+02  0.51552510026E+01  0.26283912474E+02  0.28953294724E+02  0.00000000000E+00 0. -1.
</event>
<event>
 5    1  0.1692171E-003  0.9118800E+02  0.7818608E-02  0.1130116E+00
         25   -1    0    0    0    0  0.00000000000E+00  0.00000000000E+00  0.99999998245E-14  0.12500000000E+03  0.12500000000E+03 0.  0.
        -11    1    3    3    0    0 -0.34108048049E+02  0.15184090603E+02 -0.39295190795E+02  0.54203575242E+02  0.51100000000E-03 0.  1.
         23    2    1    0    0    0  0.46355360791E+01  0.16258284486E+02 -0.23485220850E+02  0.96062556997E+02  0.91600432582E+02 0.  0.
         11    1    3    3    0    0  0.38743584128E+02  0.10741938829E+01  0.15809969945E+02  0.41858981754E+02  0.51100000000E-03 0. -1.
         22    1    1    0    0    0 -0.46355360791E+01 -0.16258284486E+02  0.23485220850E+02  0.28937443003E+02  0.00000000000E+00 0.  1.
</event>
<event>
 5    1  0.1692171E-003  0.9118800E+02  0.7818608E-02  0.1130116E+00
         25   -1    0    0    0    0  0.00000000000E+00  0.00000000000E+00  0.99999998245E-14  0.12500000000E+03  0.12500000000E+03 0.  0.
        -11    1    3    3    0    0  0.29983469337E+02 -0.10859300305E+02 -0.17309404487E+02  0.36284270980E+02  0.51100000000E-03 0.  1.
         23    2    1    0    0    0 -0.75690230102E+01  0.12511171587E+01  0.27768377740E+02  0.96191351892E+02  0.91776020687E+02 0.  0.
         11    1    3    3    0    0 -0.37552492347E+02  0.12110417464E+02  0.45077782227E+02  0.59907080912E+02  0.51100000000E-03 0. -1.
         22    1    1    0    0    0  0.75690230102E+01 -0.12511171587E+01 -0.27768377740E+02  0.28808648108E+02  0.00000000000E+00 0. -1.
</event>
<event>
 5    1  0.1692171E-003  0.9118800E+02  0.7818608E-02  0.1130116E+00
         25   -1    0    0    0    0  0.00000000000E+00  0.00000000000E+00  0.99999998245E-14  0.12500000000E+03  0.12500000000E+03 0.  0.
        -11    1    3    3    0    0 -0.49263763189E+01 -0.13625741561E+02  0.33825198238E+02  0.36797745214E+02  0.51100000000E-03 0. -1.
         23    2    1    0    0    0 -0.96554308763E+01  0.24145012149E+02 -0.11991551238E+02  0.96364248601E+02  0.92011206655E+02 0.  0.
         11    1    3    3    0    0 -0.47290545574E+01  0.37770753711E+02 -0.45816749476E+02  0.59566503387E+02  0.51100000000E-03 0.  1.
         22    1    1    0    0    0  0.96554308763E+01 -0.24145012149E+02  0.11991551238E+02  0.28635751399E+02  0.00000000000E+00 0.  1.
</event>
<event>
 5    1  0.1692171E-003  0.9118800E+02  0.7818608E-02  0.1130116E+00
         25   -1    0    0    0    0  0.00000000000E+00  0.00000000000E+00  0.99999998245E-14  0.12500000000E+03  0.12500000000E+03 0.  0.
        -11    1    3    3    0    0  0.29663294710E+02 -0.46711107997E+02 -0.15584617838E+02  0.57486685213E+02  0.51100000000E-03 0.  1.
         23    2    1    0    0    0 -0.16841639605E-01 -0.21401320986E+02 -0.18649164630E+02  0.96613239618E+02  0.92348848961E+02 0.  0.
         11    1    3    3    0    0 -0.29680136350E+02  0.25309787011E+02 -0.30645467924E+01  0.39126554405E+02  0.51100000000E-03 0. -1.
         22    1    1    0    0    0  0.16841639605E-01  0.21401320986E+02  0.18649164630E+02  0.28386760382E+02  0.00000000000E+00 0.  1.
</event>
<event>
 5    1  0.1692171E-003  0.9118800E+02  0.7818608E-02  0.1130116E+00
         25   -1    0    0    0    0  0.00000000000E+00  0.00000000000E+00  0.99999998245E-14  0.12500000000E+03  0.12500000000E+03 0.  0.
        -11    1    3    3    0    0  0.32436888337E+02  0.44739376977E+02 -0.27858957219E+02  0.61886065273E+02  0.51100000000E-03 0.  1.
         23    2    1    0    0    0  0.17875948927E+02  0.23547779107E+02 -0.80052090087E+01  0.94371078664E+02  0.89262364219E+02 0.  0.
         11    1    3    3    0    0 -0.14560939410E+02 -0.21191597870E+02  0.19853748210E+02  0.32485013392E+02  0.51100000000E-03 0. -1.
         22    1    1    0    0    0 -0.17875948927E+02 -0.23547779107E+02  0.80052090087E+01  0.30628921336E+02  0.00000000000E+00 0.  1.
</event>
<event>
 5    1  0.1692171E-003  0.9118800E+02  0.7818608E-02  0.1130116E+00
         25   -1    0    0    0    0  0.00000000000E+00  0.00000000000E+00  0.99999998245E-14  0.12500000000E+03  0.12500000000E+03 0.  0.
        -11    1    3    3    0    0  0.16896546798E+02  0.10778135787E+02  0.24256874478E+02  0.31465178602E+02  0.51100000000E-03 0. -1.
         23    2    1    0    0    0 -0.13024560285E+02 -0.16661579762E+02 -0.22992504320E+02  0.93760559133E+02  0.88403279256E+02 0.  0.
         11    1    3    3    0    0 -0.29921107083E+02 -0.27439715549E+02 -0.47249378798E+02  0.62295380531E+02  0.51100000000E-03 0.  1.
         22    1    1    0    0    0  0.13024560285E+02  0.16661579762E+02  0.22992504320E+02  0.31239440867E+02  0.00000000000E+00 0.  1.
</event>
<event>
 5    1  0.1692171E-003  0.9118800E+02  0.7818608E-02  0.1130116E+00
         25   -1    0    0    0    0  0.00000000000E+00  0.00000000000E+00  0.99999998245E-14  0.12500000000E+03  0.12500000000E+03 0.  0.
        -11    1    3    3    0    0 -0.27974759460E+02 -0.43647727324E+02  0.23003933769E+02  0.56717653659E+02  0.51100000000E-03 0. -1.
         23    2    1    0    0    0 -0.26383700867E+02 -0.66015840319E+01  0.90463098894E+01  0.96337894255E+02  0.91975396513E+02 0.  0.
         11    1    3    3    0    0  0.15910585938E+01  0.37046143292E+02 -0.13957623880E+02  0.39620240596E+02  0.51100000000E-03 0.  1.
         22    1    1    0    0    0  0.26383700867E+02  0.66015840319E+01 -0.90463098894E+01  0.28662105745E+02  0.00000000000E+00 0. -1.
</event>
<event>
 5    1  0.1692171E-003  0.9118800E+02  0.7818608E-02  0.1130116E+00
         25   -1    0    0    0    0  0.00000000000E+00  0.00000000000E+00  0.99999998245E-14  0.12500000000E+03  0.12500000000E+03 0.  0.
        -11    1    3    3    0    0  0.25459911667E+02 -0.14786636639E+02  0.21085304932E+02  0.36213834504E+02  0.51100000000E-03 0.  1.
         23    2    1    0    0    0 -0.84709449601E+01 -0.77406171319E+01 -0.27102254440E+02  0.95568617806E+02  0.90923893733E+02 0.  0.
         11    1    3    3    0    0 -0.33930856627E+02  0.70460195071E+01 -0.48187559372E+02  0.59354783302E+02  0.51100000000E-03 0. -1.
         22    1    1    0    0    0  0.84709449601E+01  0.77406171319E+01  0.27102254440E+02  0.29431382194E+02  0.00000000000E+00 0. -1.
</event>
<event>
 5    1  0.1692171E-003  0.9118800E+02  0.7818608E-02  0.1130116E+00
         25   -1    0    0    0    0  0.00000000000E+00  0.00000000000E+00  0.99999998245E-14  0.12500000000E+03  0.12500000000E+03 0.  0.
        -11    1    3    3    0    0 -0.59598734686E+01  0.34672356608E+02  0.21558608305E+02  0.41260950023E+02  0.51100000000E-03 0. -1.
         23    2    1    0    0    0 -0.20090337298E+02 -0.17020860162E+02  0.13357316571E+02  0.95474600098E+02  0.90794548429E+02 0.  0.
         11    1    3    3    0    0 -0.14130463830E+02 -0.51693216770E+02 -0.82012917332E+01  0.54213650075E+02  0.51100000000E-03 0.  1.
         22    1    1    0    0    0  0.20090337298E+02  0.17020860162E+02 -0.13357316571E+02  0.29525399902E+02  0.00000000000E+00 0. -1.
</event>
<event>
 5    1  0.1692171E-003  0.9118800E+02  0.7818608E-02  0.1130116E+00
         25   -1    0    0    0    0  0.00000000000E+00  0.00000000000E+00  0.99999998245E-14  0.12500000000E+03  0.12500000000E+03 0.  0.
        -11    1    3    3    0    0 -0.15801829276E+02 -0.23181034517E+02  0.20179630986E+02  0.34558293892E+02  0.51100000000E-03 0. -1.
         23    2    1    0    0    0  0.14754515741E+02  0.20797651624E+02 -0.11767904210E+02  0.96915811970E+02  0.92757495614E+02 0.  0.
         11    1    3    3    0    0  0.30556345017E+02  0.43978686141E+02 -0.31947535196E+02  0.62357518078E+02  0.51100000000E-03 0.  1.
         22    1    1    0    0    0 -0.14754515741E+02 -0.20797651624E+02  0.11767904210E+02  0.28084188030E+02  0.00000000000E+00 0.  1.
</event>
<event>
 5    1  0.1692171E-003  0.9118800E+02  0.7818608E-02  0.1130116E+00
         25   -1    0    0    0    0  0.00000000000E+00  0.00000000000E+00  0.99999998245E-14  0.12500000000E+03  0.12500000000E+03 0.  0.
        -11    1    3    3    0    0  0.73890898409E+01  0.52677965719E+02  0.60061747667E+01  0.53531680869E+02  0.51100000000E-03 0. -1.
         23    2    1    0    0    0 -0.96896045571E+01  0.17524794584E+02  0.21541422390E+02  0.95588442064E+02  0.90951143566E+02 0.  0.
         11    1    3    3    0    0 -0.17078694398E+02 -0.35153171136E+02  0.15535247623E+02  0.42056761195E+02  0.51100000000E-03 0.  1.
         22    1    1    0    0    0  0.96896045571E+01 -0.17524794584E+02 -0.21541422390E+02  0.29411557936E+02  0.00000000000E+00 0. -1.
</event>
<event>
 5    1  0.1692171E-003  0.9118800E+02  0.7818608E-02  0.1130116E+00
         25   -1    0    0    0    0  0.00000000000E+00  0.00000000000E+00  0.99999998245E-14  0.12500000000E+03  0.12500000000E+03 0.  0.
        -11    1    3    3    0    0 -0.36214688229E+02  0.30378419878E+02  0.10198404162E+02  0.48356586785E+02  0.51100000000E-03 0.  1.
         23    2    1    0    0    0 -0.15722752431E+02  0.54908065453E+01 -0.24278873993E+02  0.95558233360E+02  0.90909616323E+02 0.  0.
         11    1    3    3    0    0  0.20491935798E+02 -0.24887613332E+02 -0.34477278155E+02  0.47201646575E+02  0.51100000000E-03 0. -1.
         22    1    1    0    0    0  0.15722752431E+02 -0.54908065453E+01  0.24278873993E+02  0.29441766640E+02  0.00000000000E+00 0.  1.
</event>
<event>
 5    1  0.1692171E-003  0.9118800E+02  0.7818608E-02  0.1130116E+00
         25   -1    0    0    0    0  0.00000000000E+00  0.00000000000E+00  0.99999998245E-14  0.12500000000E+03  0.12500000000E+03 0.  0.
        -11    1    3    3    0    0  0.20020504939E+02  0.22048066223E+02 -0.17183497514E+02  0.34383287063E+02  0.51100000000E-03 0.  1.
         23    2    1    0    0    0 -0.26695820954E+02 -0.53978927099E+01  0.11201639600E+02  0.95550367882E+02  0.90898800710E+02 0.  0.
         11    1    3    3    0    0 -0.46716325893E+02 -0.27445958933E+02  0.28385137114E+02  0.61167080819E+02  0.51100000000E-03 0. -1.
         22    1    1    0    0    0  0.26695820954E+02  0.53978927099E+01 -0.11201639600E+02  0.29449632118E+02  0.00000000000E+00 0. -1.
</event>
<event>
 5    1  0.1692171E-003  0.9118800E+02  0.7818608E-02  0.1130116E+00
         25   -1    0    0    0    0  0.00000000000E+00  0.00000000000E+00  0.99999998245E-14  0.12500000000E+03  0.12500000000E+03 0.  0.
        -11    1    3    3    0    0 -0.92733978195E+00  0.45338023020E+02  0.53814555195E+01  0.45665702165E+02  0.51100000000E-03 0. -1.
         23    2    1    0    0    0 -0.55054889646E+01  0.14277016139E+00  0.28036219956E+02  0.96427978344E+02  0.92097744739E+02 0.  0.
         11    1    3    3    0    0 -0.45781491826E+01 -0.45195252859E+02  0.22654764437E+02  0.50762276179E+02  0.51100000000E-03 0.  1.
         22    1    1    0    0    0  0.55054889646E+01 -0.14277016139E+00 -0.28036219956E+02  0.28572021656E+02  0.00000000000E+00 0. -1.
</event>
<event>
 5    1  0.1692171E-003  0.9118800E+02  0.7818608E-02  0.1130116E+00
         25   -1    0    0    0    0  0.00000000000E+00  0.00000000000E+00  0.99999998245E-14  0.12500000000E+03  0.12500000000E+03 0.  0.
        -11    1    3    3    0    0 -0.26227899331E+02 -0.24243563388E+02  0.23010046957E+02  0.42486648847E+02  0.51100000000E-03 0.  1.
         23    2    1    0    0    0  0.92845372321E+01  0.15565102352E+02  0.22851889567E+02  0.95833514103E+02  0.91287340446E+02 0.  0.
         11    1    3    3    0    0  0.35512436563E+02  0.39808665740E+02 -0.15815739014E+00  0.53346865256E+02  0.51100000000E-03 0. -1.
         22    1    1    0    0    0 -0.92845372321E+01 -0.15565102352E+02 -0.22851889567E+02  0.29166485897E+02  0.00000000000E+00 0. -1.
</event>
<event>
 5    1  0.1692171E-003  0.9118800E+02  0.7818608E-02  0.1130116E+00
         25   -1    0    0    0    0  0.00000000000E+00  0.00000000000E+00  0.99999998245E-14  0.12500000000E+03  0.12500000000E+03 0.  0.
        -11    1    3    3    0    0  0.26301124606E+02  0.20912945128E+02  0.64769021845E+01  0.34220617932E+02  0.51100000000E-03 0. -1.
         23    2    1    0    0    0 -0.14387741956E+02 -0.25189037994E+02  0.67162552557E+00  0.95983697091E+02  0.91492755302E+02 0.  0.
         11    1    3    3    0    0 -0.40688866563E+02 -0.46101983122E+02 -0.58052766589E+01  0.61763079159E+02  0.51100000000E-03 0.  1.
         22    1    1    0    0    0  0.14387741956E+02  0.25189037994E+02 -0.67162552557E+00  0.29016302909E+02  0.00000000000E+00 0.  1.
</event>
<event>
 5    1  0.1692171E-003  0.9118800E+02  0.7818608E-02  0.1130116E+00
         25   -1    0    0    0    0  0.00000000000E+00  0.00000000000E+00  0.99999998245E-14  0.12500000000E+03  0.12500000000E+03 0.  0.
        -11    1    3    3    0    0  0.24549694472E+02  0.17806812178E+02 -0.23419315170E+02  0.38317546658E+02  0.51100000000E-03 0. -1.
         23    2    1    0    0    0 -0.23728401066E+01 -0.27142621211E+02  0.40131813960E+01  0.97459885961E+02  0.93487814662E+02 0.  0.
         11    1    3    3    0    0 -0.26922534578E+02 -0.44949433389E+02  0.27432496566E+02  0.59142339303E+02  0.51100000000E-03 0.  1.
         22    1    1    0    0    0  0.23728401066E+01  0.27142621211E+02 -0.40131813960E+01  0.27540114039E+02  0.00000000000E+00 0.  1.
</event>
<event>
 5    1  0.1692171E-003  0.9118800E+02  0.7818608E-02  0.1130116E+00
         25   -1    0    0    0    0  0.00000000000E+00  0.00000000000E+00  0.99999998245E-14  0.12500000000E+03  0.12500000000E+03 0.  0.
        -11    1    3    3    0    0 -0.47791657965E+02 -0.46376585998E+01  0.14418823221E+02  0.50134348621E+02  0.51100000000E-03 0.  1.
         23    2    1    0    0    0 -0.12737311250E+02 -0.28028768651E+02  0.16488619366E+01  0.94168689362E+02  0.88978493696E+02 0.  0.
         11    1    3    3    0    0  0.35054346715E+02 -0.23391110051E+02 -0.12769961284E+02  0.44034340741E+02  0.51100000000E-03 0. -1.
         22    1    1    0    0    0  0.12737311250E+02  0.28028768651E+02 -0.16488619366E+01  0.30831310638E+02  0.00000000000E+00 0.  1.
</event>
<event>
 5    1  0.1692171E-003  0.9118800E+02  0.7818608E-02  0.1130116E+00
         25   -1    0    0    0    0  0.00000000000E+00  0.00000000000E+00  0.99999998245E-14  0.12500000000E+03  0.12500000000E+03 0.  0.
        -11    1    3    3    0    0  0.15677040549E+02  0.31787636121E+01  0.32852384637E+02  0.36539749794E+02  0.51100000000E-03 0.  1.
         23    2    1    0    0    0  0.10958314112E+02  0.98661474601E+01 -0.25543281199E+02  0.95506191696E+02  0.90838031265E+02 0.  0.
         11    1    3    3    0    0 -0.47187264371E+01  0.66873838480E+01 -0.58395665835E+02  0.58966441902E+02  0.51100000000E-03 0. -1.
         22    1    1    0    0    0 -0.10958314112E+02 -0.98661474601E+01  0.25543281199E+02  0.29493808304E+02  0.00000000000E+00 0. -1.
</event>
<event>
 5    1  0.1692171E-003  0.9118800E+02  0.7818608E-02  0.1130116E+00
         25   -1    0    0    0    0  0.00000000000E+00  0.00000000000E+00  0.99999998245E-14  0.12500000000E+03  0.12500000000E+03 0.  0.
        -11    1    3    3    0    0 -0.90025040088E+01 -0.97740658400E+01 -0.59308300276E+02  0.60778712749E+02  0.51100000000E-03 0. -1.
         23    2    1    0    0    0  0.93128460088E+00 -0.13505462521E+02 -0.26802964873E+02  0.94972283888E+02  0.90100338356E+02 0.  0.
         11    1    3    3    0    0  0.99337886097E+01 -0.37313966815E+01  0.32505335403E+02  0.34193571139E+02  0.51100000000E-03 0.  1.
         22    1    1    0    0    0 -0.93128460088E+00  0.13505462521E+02  0.26802964873E+02  0.30027716112E+02  0.00000000000E+00 0. -1.
</event>
<event>
 5    1  0.1692171E-003  0.9118800E+02  0.7818608E-02  0.1130116E+00
         25   -1    0    0    0    0  0.00000000000E+00  0.00000000000E+00  0.99999998245E-14  0.12500000000E+03  0.12500000000E+03 0.  0.
        -11    1    3    3    0    0  0.13048470037E+02  0.21673956652E+02  0.46564045502E+02  0.52992766497E+02  0.51100000000E-03 0.  1.
         23    2    1    0    0    0 -0.11996969170E+02 -0.50725183767E+01  0.28108460858E+02  0.94020276248E+02  0.88769753080E+02 0.  0.
         11    1    3    3    0    0 -0.25045439207E+02 -0.26746475028E+02 -0.18455584644E+02  0.41027509751E+02  0.51100000000E-03 0. -1.
         22    1    1    0    0    0  0.11996969170E+02  0.50725183767E+01 -0.28108460858E+02  0.30979723752E+02  0.00000000000E+00 0. -1.
</event>
<event>
 5    1  0.1692171E-003  0.9118800E+02  0.7818608E-02  0.1130116E+00
         25   -1    0    0    0    0  0.00000000000E+00  0.00000000000E+00  0.99999998245E-14  0.12500000000E+03  0.12500000000E+03 0.  0.
        -11    1    3    3    0    0  0.17796000497E+02  0.33545577630E+02 -0.11111318837E+02  0.39565955300E+02  0.51100000000E-03 0.  1.
         23    2    1    0    0    0 -0.26134262322E+02 -0.11540069550E+01  0.61095273355E+01  0.98136312178E+02  0.94387912597E+02 0.  0.
         11    1    3    3    0    0 -0.43930262818E+02 -0.34699584585E+02  0.17220846172E+02  0.58570356878E+02  0.51100000000E-03 0. -1.
         22    1    1    0    0    0  0.26134262322E+02  0.11540069550E+01 -0.61095273355E+01  0.26863687822E+02  0.00000000000E+00 0. -1.
</event>
<event>
 5    1  0.1692171E-003  0.9118800E+02  0.7818608E-02  0.1130116E+00
         25   -1    0    0    0    0  0.00000000000E+00  0.00000000000E+00  0.99999998245E-14  0.12500000000E+03  0.12500000000E+03 0.  0.
        -11    1    3    3    0    0  0.36151342991E+02 -0.12597864496E+02 -0.28313633575E+02  0.47616043897E+02  0.51100000000E-03 0. -1.
         23    2    1    0    0    0  0.52659405119E+01  0.23501685230E+02 -0.13548166001E+02  0.97366467108E+02  0.93362823313E+02 0.  0.
         11    1    3    3    0    0 -0.30885402479E+02  0.36099549726E+02  0.14765467574E+02  0.49750423211E+02  0.51100000000E-03 0.  1.
         22    1    1    0    0    0 -0.52659405119E+01 -0.23501685230E+02  0.13548166001E+02  0.27633532892E+02  0.00000000000E+00 0. -1.
</event>
<event>
 5    1  0.1692171E-003  0.9118800E+02  0.7818608E-02  0.1130116E+00
         25   -1    0    0    0    0  0.00000000000E+00  0.00000000000E+00  0.99999998245E-14  0.12500000000E+03  0.12500000000E+03 0.  0.
        -11    1    3    3    0    0  0.28417806973E+02  0.36729056837E+02  0.10209520948E+02  0.47548182800E+02  0.51100000000E-03 0.  1.
         23    2    1    0    0    0  0.12857082409E+02  0.51907748267E+01 -0.24429022632E+02  0.96910395907E+02  0.92750196639E+02 0.  0.
         11    1    3    3    0    0 -0.15560724564E+02 -0.31538282011E+02 -0.34638543581E+02  0.49362213107E+02  0.51100000000E-03 0. -1.
         22    1    1    0    0    0 -0.12857082409E+02 -0.51907748267E+01  0.24429022632E+02  0.28089604093E+02  0.00000000000E+00 0.  1.
</event>
<event>
 5    1  0.1692171E-003  0.9118800E+02  0.7818608E-02  0.1130116E+00
         25   -1    0    0    0    0  0.00000000000E+00  0.00000000000E+00  0.99999998245E-14  0.12500000000E+03  0.12500000000E+03 0.  0.
        -11    1    3    3    0    0 -0.13768083858E+02 -0.46006079718E+02  0.33244418851E+02  0.58406428492E+02  0.51100000000E-03 0.  1.
         23    2    1    0    0    0  0.33022041870E+01 -0.30570194106E+02  0.30680949033E+02  0.81563126796E+02  0.69034641297E+02 0.  0.
         11    1    3    3    0    0  0.17070288045E+02  0.15435885612E+02 -0.25634698184E+01  0.23156698304E+02  0.51100000000E-03 0. -1.
         22    1    1    0    0    0 -0.33022041870E+01  0.30570194106E+02 -0.30680949033E+02  0.43436873204E+02  0.00000000000E+00 0.  1.
</event>
<event>
 5    1  0.1692171E-003  0.9118800E+02  0.7818608E-02  0.1130116E+00
         25   -1    0    0    0    0  0.00000000000E+00  0.00000000000E+00  0.99999998245E-14  0.12500000000E+03  0.12500000000E+03 0.  0.
        -11    1    3    3    0    0 -0.45125397115E+02  0.13778377350E+02  0.40437309172E+02  0.62139529452E+02  0.51100000000E-03 0.  1.
         23    2    1    0    0    0 -0.18019327628E+02  0.53537374672E+01  0.22342499124E+02  0.95801610658E+02  0.91243644516E+02 0.  0.
         11    1    3    3    0    0  0.27106069487E+02 -0.84246398829E+01 -0.18094810047E+02  0.33662081206E+02  0.51100000000E-03 0. -1.
         22    1    1    0    0    0  0.18019327628E+02 -0.53537374672E+01 -0.22342499124E+02  0.29198389342E+02  0.00000000000E+00 0.  1.
</event>
<event>
 5    1  0.1692171E-003  0.9118800E+02  0.7818608E-02  0.1130116E+00
         25   -1    0    0    0    0  0.00000000000E+00  0.00000000000E+00  0.99999998245E-14  0.12500000000E+03  0.12500000000E+03 0.  0.
        -11    1    3    3    0    0  0.24914752116E+02  0.23583999268E+01 -0.48883602962E+02  0.54917333894E+02  0.51100000000E-03 0. -1.
         23    2    1    0    0    0  0.22203417126E+02  0.16147625950E+02 -0.10823219559E+02  0.95489330107E+02  0.90814825479E+02 0.  0.
         11    1    3    3    0    0 -0.27113349900E+01  0.13789226023E+02  0.38060383403E+02  0.40571996214E+02  0.51100000000E-03 0.  1.
         22    1    1    0    0    0 -0.22203417126E+02 -0.16147625950E+02  0.10823219559E+02  0.29510669893E+02  0.00000000000E+00 0.  1.
</event>
<event>
 5    1  0.1692171E-003  0.9118800E+02  0.7818608E-02  0.1130116E+00
         25   -1    0    0    0    0  0.00000000000E+00  0.00000000000E+00  0.99999998245E-14  0.12500000000E+03  0.12500000000E+03 0.  0.
        -11    1    3    3    0    0 -0.10970938405E+02 -0.51707478569E+02 -0.13035500998E+02  0.54442163035E+02  0.51100000000E-03 0.  1.
         23    2    1    0    0    0 -0.73784781578E+01 -0.24786842382E+02  0.16308251736E+02  0.94425687745E+02  0.89338804201E+02 0.  0.
         11    1    3    3    0    0  0.35924602476E+01  0.26920636187E+02  0.29343752735E+02  0.39983524709E+02  0.51100000000E-03 0. -1.
         22    1    1    0    0    0  0.73784781578E+01  0.24786842382E+02 -0.16308251736E+02  0.30574312255E+02  0.00000000000E+00 0. -1.
</event>
<event>
 5    1  0.1692171E-003  0.9118800E+02  0.7818608E-02  0.1130116E+00
         25   -1    0    0    0    0  0.00000000000E+00  0.00000000000E+00  0.99999998245E-14  0.12500000000E+03  0.12500000000E+03 0.  0.
        -11    1    3    3    0    0  0.20932969524E+02  0.94088073519E+01  0.41762140978E+02  0.47652820359E+02  0.51100000000E-03 0.  1.
         23    2    1    0    0    0 -0.21148487874E+02  0.79304225948E+01  0.18793092215E+02  0.95617514454E+02  0.90991090846E+02 0.  0.
         11    1    3    3    0    0 -0.42081457398E+02 -0.14783847571E+01 -0.22969048763E+02  0.47964694094E+02  0.51100000000E-03 0. -1.
         22    1    1    0    0    0  0.21148487874E+02 -0.79304225948E+01 -0.18793092215E+02  0.29382485546E+02  0.00000000000E+00 0.  1.
</event>
<event>
 5    1  0.1692171E-003  0.9118800E+02  0.7818608E-02  0.1130116E+00
         25   -1    0    0    0    0  0.00000000000E+00  0.00000000000E+00  0.99999998245E-14  0.12500000000E+03  0.12500000000E+03 0.  0.
        -11    1    3    3    0    0 -0.32894614773E+02 -0.22163968180E+02 -0.24708018863E+02  0.46730967922E+02  0.51100000000E-03 0. -1.
         23    2    1    0    0    0 -0.70111880283E+01  0.18961060982E+02 -0.21589373372E+02  0.95423326189E+02  0.90723930400E+02 0.  0.
         11    1    3    3    0    0  0.25883426745E+02  0.41125029162E+02  0.31186454907E+01  0.48692358267E+02  0.51100000000E-03 0.  1.
         22    1    1    0    0    0  0.70111880283E+01 -0.18961060982E+02  0.21589373372E+02  0.29576673811E+02  0.00000000000E+00 0.  1.
</event>
<event>
 5    1  0.1692171E-003  0.9118800E+02  0.7818608E-02  0.1130116E+00
         25   -1    0    0    0    0  0.00000000000E+00  0.00000000000E+00  0.99999998245E-14  0.12500000000E+03  0.12500000000E+03 0.  0.
        -11    1    3    3    0    0 -0.44006501236E+02 -0.31975007040E+01 -0.29774756022E+02  0.53229054643E+02  0.51100000000E-03 0.  1.
         23    2    1    0    0    0 -0.25432151115E+01 -0.33818043122E+00 -0.30098776126E+02  0.94792076646E+02  0.89849981421E+02 0.  0.
         11    1    3    3    0    0  0.41463286124E+02  0.28593202728E+01 -0.32402010358E+00  0.41563022002E+02  0.51100000000E-03 0. -1.
         22    1    1    0    0    0  0.25432151115E+01  0.33818043122E+00  0.30098776126E+02  0.30207923354E+02  0.00000000000E+00 0. -1.
</event>
<event>
 5    1  0.1692171E-003  0.9118800E+02  0.7818608E-02  0.1130116E+00
         25   -1    0    0    0    0  0.00000000000E+00  0.00000000000E+00  0.99999998245E-14  0.12500000000E+03  0.12500000000E+03 0.  0.
        -11    1    3    3    0    0  0.94400317779E+01  0.45359052054E+02 -0.44320786221E+01  0.46542465818E+02  0.51100000000E-03 0. -1.
         23    2    1    0    0    0 -0.26073766576E+02  0.10158873652E+02 -0.51329343505E+01  0.96550201540E+02  0.92263483486E+02 0.  0.
         11    1    3    3    0    0 -0.35513798354E+02 -0.35200178402E+02 -0.70085572845E+00  0.50007735723E+02  0.51100000000E-03 0.  1.
         22    1    1    0    0    0  0.26073766576E+02 -0.10158873652E+02  0.51329343505E+01  0.28449798460E+02  0.00000000000E+00 0.  1.
</event>
<event>
 5    1  0.1692171E-003  0.9118800E+02  0.7818608E-02  0.1130116E+00
         25   -1    0    0    0    0  0.00000000000E+00  0.00000000000E+00  0.99999998245E-14  0.12500000000E+03  0.12500000000E+03 0.  0.
        -11    1    3    3    0    0  0.44702235808E+02  0.42334633097E+01  0.32115886528E+02  0.55205455034E+02  0.51100000000E-03 0. -1.
         23    2    1    0    0    0  0.28944583300E+02 -0.17777300835E+02  0.11837004076E+02  0.89028678188E+02  0.81438133249E+02 0.  0.
         11    1    3    3    0    0 -0.15757652508E+02 -0.22010764144E+02 -0.20278882452E+02  0.33823223154E+02  0.51100000000E-03 0.  1.
         22    1    1    0    0    0 -0.28944583300E+02  0.17777300835E+02 -0.11837004076E+02  0.35971321812E+02  0.00000000000E+00 0. -1.
</event>
<event>
 5    1  0.1692171E-003  0.9118800E+02  0.7818608E-02  0.1130116E+00
         25   -1    0    0    0    0  0.00000000000E+00  0.00000000000E+00  0.99999998245E-14  0.12500000000E+03  0.12500000000E+03 0.  0.
        -11    1    3    3    0    0  0.23314102208E+02  0.22783067211E+02  0.13662521663E+02  0.35345155421E+02  0.51100000000E-03 0. -1.
         23    2    1    0    0    0 -0.27150803844E+02  0.21145080590E+01 -0.11542713365E+02  0.95421772780E+02  0.90721790078E+02 0.  0.
         11    1    3    3    0    0 -0.50464906051E+02 -0.20668559152E+02 -0.25205235027E+02  0.60076617358E+02  0.51100000000E-03 0.  1.
         22    1    1    0    0    0  0.27150803844E+02 -0.21145080590E+01  0.11542713365E+02  0.29578227220E+02  0.00000000000E+00 0.  1.
</event>
<event>
 5    1  0.1692171E-003  0.9118800E+02  0.7818608E-02  0.1130116E+00
         25   -1    0    0    0    0  0.00000000000E+00  0.00000000000E+00  0.99999998245E-14  0.12500000000E+03  0.12500000000E+03 0.  0.
        -11    1    3    3    0    0 -0.25129463370E+02  0.49871919139E+02  0.66524992002E+01  0.56240145748E+02  0.51100000000E-03 0.  1.
         23    2    1    0    0    0 -0.27130755434E+02  0.11136076831E+02 -0.43299305921E+00  0.95669511075E+02  0.91062493754E+02 0.  0.
         11    1    3    3    0    0 -0.20012920641E+01 -0.38735842308E+02 -0.70854922594E+01  0.39429365327E+02  0.51100000000E-03 0. -1.
         22    1    1    0    0    0  0.27130755434E+02 -0.11136076831E+02  0.43299305921E+00  0.29330488925E+02  0.00000000000E+00 0.  1.
</event>
<event>
 5    1  0.1692171E-003  0.9118800E+02  0.7818608E-02  0.1130116E+00
         25   -1    0    0    0    0  0.00000000000E+00  0.00000000000E+00  0.99999998245E-14  0.12500000000E+03  0.12500000000E+03 0.  0.
        -11    1    3    3    0    0  0.52248740334E+02 -0.10929351558E+01  0.18536923609E+02  0.55450364389E+02  0.51100000000E-03 0.  1.
         23    2    1    0    0    0  0.20690998807E+02 -0.20808050257E+02  0.40652499931E+01  0.95375370979E+02  0.90657833334E+02 0.  0.
         11    1    3    3    0    0 -0.31557741527E+02 -0.19715115101E+02 -0.14471673616E+02  0.39925006590E+02  0.51100000000E-03 0. -1.
         22    1    1    0    0    0 -0.20690998807E+02  0.20808050257E+02 -0.40652499931E+01  0.29624629021E+02  0.00000000000E+00 0.  1.
</event>
<event>
 5    1  0.1692171E-003  0.9118800E+02  0.7818608E-02  0.1130116E+00
         25   -1    0    0    0    0  0.00000000000E+00  0.00000000000E+00  0.99999998245E-14  0.12500000000E+03  0.12500000000E+03 0.  0.
        -11    1    3    3    0    0  0.36193298756E+02  0.40602890701E+02 -0.20452528039E+01  0.54430989955E+02  0.51100000000E-03 0. -1.
         23    2    1    0    0    0  0.13944966170E+02  0.13788599972E+02  0.21048185625E+02  0.96231724265E+02  0.91830991861E+02 0.  0.
         11    1    3    3    0    0 -0.22248332586E+02 -0.26814290729E+02  0.23093438429E+02  0.41800734310E+02  0.51100000000E-03 0.  1.
         22    1    1    0    0    0 -0.13944966170E+02 -0.13788599972E+02 -0.21048185625E+02  0.28768275735E+02  0.00000000000E+00 0. -1.
</event>
<event>
 5    1  0.1692171E-003  0.9118800E+02  0.7818608E-02  0.1130116E+00
         25   -1    0    0    0    0  0.00000000000E+00  0.00000000000E+00  0.99999998245E-14  0.12500000000E+03  0.12500000000E+03 0.  0.
        -11    1    3    3    0    0  0.66259731057E+01  0.26628350961E+02  0.17159622493E+02  0.32363949679E+02  0.51100000000E-03 0.  1.
         23    2    1    0    0    0 -0.62090830296E+00 -0.21971712509E+02 -0.21016775707E+02  0.94588710340E+02  0.89566609766E+02 0.  0.
         11    1    3    3    0    0 -0.72468814086E+01 -0.48600063470E+02 -0.38176398199E+02  0.62224760660E+02  0.51100000000E-03 0. -1.
         22    1    1    0    0    0  0.62090830296E+00  0.21971712509E+02  0.21016775707E+02  0.30411289660E+02  0.00000000000E+00 0. -1.
</event>
<event>
 5    1  0.1692171E-003  0.9118800E+02  0.7818608E-02  0.1130116E+00
         25   -1    0    0    0    0  0.00000000000E+00  0.00000000000E+00  0.99999998245E-14  0.12500000000E+03  0.12500000000E+03 0.  0.
        -11    1    3    3    0    0  0.11860333214E+01  0.26716658176E+02  0.20768619759E+02  0.33860331748E+02  0.51100000000E-03 0. -1.
         23    2    1    0    0    0 -0.17222869305E+02 -0.19556757771E+02 -0.14774306654E+02  0.95043796324E+02  0.90199496013E+02 0.  0.
         11    1    3    3    0    0 -0.18408902626E+02 -0.46273415947E+02 -0.35542926413E+02  0.61183464576E+02  0.51100000000E-03 0.  1.
         22    1    1    0    0    0  0.17222869305E+02  0.19556757771E+02  0.14774306654E+02  0.29956203676E+02  0.00000000000E+00 0.  1.
</event>
<event>
 5    1  0.1692171E-003  0.9118800E+02  0.7818608E-02  0.1130116E+00
         25   -1    0    0    0    0  0.00000000000E+00  0.00000000000E+00  0.99999998245E-14  0.12500000000E+03  0.12500000000E+03 0.  0.
        -11    1    3    3    0    0 -0.30754902615E+02  0.11165414651E+02  0.12943117811E+02  0.35186003157E+02  0.51100000000E-03 0. -1.
         23    2    1    0    0    0  0.22829833882E+02  0.21420263968E+01 -0.16273899556E+02  0.96881867080E+02  0.92711740195E+02 0.  0.
         11    1    3    3    0    0  0.53584736497E+02 -0.90233882537E+01 -0.29217017368E+02  0.61695863923E+02  0.51100000000E-03 0.  1.
         22    1    1    0    0    0 -0.22829833882E+02 -0.21420263968E+01  0.16273899556E+02  0.28118132920E+02  0.00000000000E+00 0.  1.
</event>
<event>
 5    1  0.1692171E-003  0.9118800E+02  0.7818608E-02  0.1130116E+00
         25   -1    0    0    0    0  0.00000000000E+00  0.00000000000E+00  0.99999998245E-14  0.12500000000E+03  0.12500000000E+03 0.  0.
        -11    1    3    3    0    0  0.59630798693E+02  0.83878150362E+01  0.13219952195E+02  0.61651883427E+02  0.51100000000E-03 0.  1.
         23    2    1    0    0    0  0.31040755756E+02 -0.19619085501E+01  0.28947863522E+01  0.93762884398E+02  0.88406567062E+02 0.  0.
         11    1    3    3    0    0 -0.28590042937E+02 -0.10349723586E+02 -0.10325165842E+02  0.32111000971E+02  0.51100000000E-03 0. -1.
         22    1    1    0    0    0 -0.31040755756E+02  0.19619085501E+01 -0.28947863522E+01  0.31237115602E+02  0.00000000000E+00 0.  1.
</event>
<event>
 5    1  0.1692171E-003  0.9118800E+02  0.7818608E-02  0.1130116E+00
         25   -1    0    0    0    0  0.00000000000E+00  0.00000000000E+00  0.99999998245E-14  0.12500000000E+03  0.12500000000E+03 0.  0.
        -11    1    3    3    0    0 -0.41182823760E+02  0.42597237740E+01 -0.24796968603E+02  0.48260334350E+02  0.51100000000E-03 0.  1.
         23    2    1    0    0    0 -0.13286486689E+02 -0.26796943572E+02 -0.42474768448E+01  0.94789935900E+02  0.89847003150E+02 0.  0.
         11    1    3    3    0    0  0.27896337071E+02 -0.31056667346E+02  0.20549491758E+02  0.46529601550E+02  0.51100000000E-03 0. -1.
         22    1    1    0    0    0  0.13286486689E+02  0.26796943572E+02  0.42474768448E+01  0.30210064100E+02  0.00000000000E+00 0.  1.
</event>
<event>
 5    1  0.1692171E-003  0.9118800E+02  0.7818608E-02  0.1130116E+00
         25   -1    0    0    0    0  0.00000000000E+00  0.00000000000E+00  0.99999998245E-14  0.12500000000E+03  0.12500000000E+03 0.  0.
        -11    1    3    3    0    0  0.47303756239E+02  0.91724941491E+01  0.12524230898E+02  0.49785905265E+02  0.51100000000E-03 0.  1.
         23    2    1    0    0    0  0.32513324495E+01  0.11289312109E+02  0.26468767330E+02  0.96041143417E+02  0.91571206470E+02 0.  0.
         11    1    3    3    0    0 -0.44052423789E+02  0.21168179597E+01  0.13944536432E+02  0.46255238153E+02  0.51100000000E-03 0. -1.
         22    1    1    0    0    0 -0.32513324495E+01 -0.11289312109E+02 -0.26468767330E+02  0.28958856583E+02  0.00000000000E+00 0.  1.
</event>
<event>
 5    1  0.1692171E-003  0.9118800E+02  0.7818608E-02  0.1130116E+00
         25   -1    0    0    0    0  0.00000000000E+00  0.00000000000E+00  0.99999998245E-14  0.12500000000E+03  0.12500000000E+03 0.  0.
        -11    1    3    3    0    0 -0.68921453805E+01 -0.32813916436E+02  0.31584920587E+02  0.46063673199E+02  0.51100000000E-03 0. -1.
         23    2    1    0    0    0 -0.15228099982E+02  0.14685289191E+02  0.20489674132E+02  0.95548692835E+02  0.90896497231E+02 0.  0.
         11    1    3    3    0    0 -0.83359546010E+01  0.47499205627E+02 -0.11095246454E+02  0.49485019637E+02  0.51100000000E-03 0.  1.
         22    1    1    0    0    0  0.15228099982E+02 -0.14685289191E+02 -0.20489674132E+02  0.29451307165E+02  0.00000000000E+00 0. -1.
</event>
<event>
 5    1  0.1692171E-003  0.9118800E+02  0.7818608E-02  0.1130116E+00
         25   -1    0    0    0    0  0.00000000000E+00  0.00000000000E+00  0.99999998245E-14  0.12500000000E+03  0.12500000000E+03 0.  0.
        -11    1    3    3    0    0 -0.36698936050E+02 -0.28337517150E+02  0.19522399892E+02  0.50308556760E+02  0.51100000000E-03 0. -1.
         23    2    1    0    0    0 -0.23633776092E+02  0.11866612860E+02 -0.32995982216E+01  0.98349311049E+02  0.94669571470E+02 0.  0.
         11    1    3    3    0    0  0.13065159958E+02  0.40204130010E+02 -0.22821998114E+02  0.48040754290E+02  0.51100000000E-03 0.  1.
         22    1    1    0    0    0  0.23633776092E+02 -0.11866612860E+02  0.32995982216E+01  0.26650688951E+02  0.00000000000E+00 0.  1.
</event>
<event>
 5    1  0.1692171E-003  0.9118800E+02  0.7818608E-02  0.1130116E+00
         25   -1    0    0    0    0  0.00000000000E+00  0.00000000000E+00  0.99999998245E-14  0.12500000000E+03  0.12500000000E+03 0.  0.
        -11    1    3    3    0    0 -0.98126509600E+01  0.25767524168E+02  0.21746829094E+02  0.35116634185E+02  0.51100000000E-03 0.  1.
         23    2    1    0    0    0  0.27918392919E+01 -0.38558243337E+01 -0.29217370150E+02  0.95397357105E+02  0.90688142975E+02 0.  0.
         11    1    3    3    0    0  0.12604490252E+02 -0.29623348501E+02 -0.50964199243E+02  0.60280722920E+02  0.51100000000E-03 0. -1.
         22    1    1    0    0    0 -0.27918392919E+01  0.38558243337E+01  0.29217370150E+02  0.29602642895E+02  0.00000000000E+00 0. -1.
</event>
<event>
 5    1  0.1692171E-003  0.9118800E+02  0.7818608E-02  0.1130116E+00
         25   -1    0    0    0    0  0.00000000000E+00  0.00000000000E+00  0.99999998245E-14  0.12500000000E+03  0.12500000000E+03 0.  0.
        -11    1    3    3    0    0  0.28154832124E+01  0.25821846020E+02  0.24138408646E+02  0.35459236453E+02  0.51100000000E-03 0.  1.
         23    2    1    0    0    0  0.26675612542E+02 -0.86378344441E+01 -0.15340670743E+02  0.93038512750E+02  0.87376359432E+02 0.  0.
         11    1    3    3    0    0  0.23860129330E+02 -0.34459680464E+02 -0.39479079389E+02  0.57579276298E+02  0.51100000000E-03 0. -1.
         22    1    1    0    0    0 -0.26675612542E+02  0.86378344441E+01  0.15340670743E+02  0.31961487250E+02  0.00000000000E+00 0. -1.
</event>
<event>
 5    1  0.1692171E-003  0.9118800E+02  0.7818608E-02  0.1130116E+00
         25   -1    0    0    0    0  0.00000000000E+00  0.00000000000E+00  0.99999998245E-14  0.12500000000E+03  0.12500000000E+03 0.  0.
        -11    1    3    3    0    0  0.21481441820E+02 -0.72521185946E+01 -0.56907443745E+02  0.61257674790E+02  0.51100000000E-03 0. -1.
         23    2    1    0    0    0  0.16723896166E+02 -0.57859463997E+01 -0.20870683900E+02  0.97636679200E+02  0.93723901968E+02 0.  0.
         11    1    3    3    0    0 -0.47575456538E+01  0.14661721948E+01  0.36036759845E+02  0.36379004411E+02  0.51100000000E-03 0.  1.
         22    1    1    0    0    0 -0.16723896166E+02  0.57859463997E+01  0.20870683900E+02  0.27363320800E+02  0.00000000000E+00 0. -1.
</event>
<event>
 5    1  0.1692171E-003  0.9118800E+02  0.7818608E-02  0.1130116E+00
         25   -1    0    0    0    0  0.00000000000E+00  0.00000000000E+00  0.99999998245E-14  0.12500000000E+03  0.12500000000E+03 0.  0.
        -11    1    3    3    0    0  0.15622886192E+02 -0.53651052830E+02 -0.11166181974E+02  0.56984152734E+02  0.51100000000E-03 0.  1.
         23    2    1    0    0    0  0.98020245735E+01 -0.16181533553E+02 -0.21574239133E+02  0.96305584027E+02  0.91931474516E+02 0.  0.
         11    1    3    3    0    0 -0.58208616183E+01  0.37469519276E+02 -0.10408057159E+02  0.39321431292E+02  0.51100000000E-03 0. -1.
         22    1    1    0    0    0 -0.98020245735E+01  0.16181533553E+02  0.21574239133E+02  0.28694415973E+02  0.00000000000E+00 0.  1.
</event>
<event>
 5    1  0.1692171E-003  0.9118800E+02  0.7818608E-02  0.1130116E+00
         25   -1    0    0    0    0  0.00000000000E+00  0.00000000000E+00  0.99999998245E-14  0.12500000000E+03  0.12500000000E+03 0.  0.
        -11    1    3    3    0    0 -0.42190619355E+02  0.69374686635E+01  0.15358313151E+02  0.45431867847E+02  0.51100000000E-03 0. -1.
         23    2    1    0    0    0  0.46987311000E+01  0.21047474281E+02  0.21216613539E+02  0.94747414364E+02  0.89787825406E+02 0.  0.
         11    1    3    3    0    0  0.46889350455E+02  0.14110005617E+02  0.58583003881E+01  0.49315546517E+02  0.51100000000E-03 0.  1.
         22    1    1    0    0    0 -0.46987311000E+01 -0.21047474281E+02 -0.21216613539E+02  0.30252585636E+02  0.00000000000E+00 0.  1.
</event>
<event>
 5    1  0.1692171E-003  0.9118800E+02  0.7818608E-02  0.1130116E+00
         25   -1    0    0    0    0  0.00000000000E+00  0.00000000000E+00  0.99999998245E-14  0.12500000000E+03  0.12500000000E+03 0.  0.
        -11    1    3    3    0    0 -0.36283923101E+02  0.13570761305E+02 -0.12002531662E+02  0.40555510162E+02  0.51100000000E-03 0.  1.
         23    2    1    0    0    0  0.21655378118E+02  0.13566225200E+02 -0.55244133524E+01  0.98855841752E+02  0.95336039555E+02 0.  0.
         11    1    3    3    0    0  0.57939301219E+02 -0.45361046883E-02  0.64781183096E+01  0.58300331589E+02  0.51100000000E-03 0. -1.
         22    1    1    0    0    0 -0.21655378118E+02 -0.13566225200E+02  0.55244133524E+01  0.26144158248E+02  0.00000000000E+00 0. -1.
</event>
<event>
 5    1  0.1692171E-003  0.9118800E+02  0.7818608E-02  0.1130116E+00
         25   -1    0    0    0    0  0.00000000000E+00  0.00000000000E+00  0.99999998245E-14  0.12500000000E+03  0.12500000000E+03 0.  0.
        -11    1    3    3    0    0  0.97898277183E+01 -0.23770741467E+02 -0.35943017360E+02  0.44190376485E+02  0.51100000000E-03 0. -1.
         23    2    1    0    0    0  0.25489681840E+02  0.13803562949E+02 -0.44425921115E+01  0.95674262924E+02  0.91069016307E+02 0.  0.
         11    1    3    3    0    0  0.15699854122E+02  0.37574304416E+02  0.31500425249E+02  0.51483886439E+02  0.51100000000E-03 0.  1.
         22    1    1    0    0    0 -0.25489681840E+02 -0.13803562949E+02  0.44425921115E+01  0.29325737076E+02  0.00000000000E+00 0.  1.
</event>
<event>
 5    1  0.1692171E-003  0.9118800E+02  0.7818608E-02  0.1130116E+00
         25   -1    0    0    0    0  0.00000000000E+00  0.00000000000E+00  0.99999998245E-14  0.12500000000E+03  0.12500000000E+03 0.  0.
        -11    1    3    3    0    0 -0.24889940875E+02  0.21998504663E+02  0.18837893136E+02  0.38187819815E+02  0.51100000000E-03 0. -1.
         23    2    1    0    0    0  0.24672724046E+02  0.71612671377E+01 -0.10015668003E+02  0.97425724590E+02  0.93442127263E+02 0.  0.
         11    1    3    3    0    0  0.49562664921E+02 -0.14837237525E+02 -0.28853561139E+02  0.59237904775E+02  0.51100000000E-03 0.  1.
         22    1    1    0    0    0 -0.24672724046E+02 -0.71612671377E+01  0.10015668003E+02  0.27574275410E+02  0.00000000000E+00 0.  1.
</event>
<event>
 5    1  0.1692171E-003  0.9118800E+02  0.7818608E-02  0.1130116E+00
         25   -1    0    0    0    0  0.00000000000E+00  0.00000000000E+00  0.99999998245E-14  0.12500000000E+03  0.12500000000E+03 0.  0.
        -11    1    3    3    0    0 -0.33344248964E+02  0.26627473241E+02 -0.42240517761E+01  0.42880110585E+02  0.51100000000E-03 0. -1.
         23    2    1    0    0    0 -0.13395619443E+02 -0.22623806215E+02 -0.11099442302E+02  0.96460959243E+02  0.92142497312E+02 0.  0.
         11    1    3    3    0    0  0.19948629521E+02 -0.49251279456E+02 -0.68753905256E+01  0.53580848658E+02  0.51100000000E-03 0.  1.
         22    1    1    0    0    0  0.13395619443E+02  0.22623806215E+02  0.11099442302E+02  0.28539040757E+02  0.00000000000E+00 0.  1.
</event>
<event>
 5    1  0.1692171E-003  0.9118800E+02  0.7818608E-02  0.1130116E+00
         25   -1    0    0    0    0  0.00000000000E+00  0.00000000000E+00  0.99999998245E-14  0.12500000000E+03  0.12500000000E+03 0.  0.
        -11    1    3    3    0    0 -0.23962498533E+02  0.37394147095E+02 -0.97882633822E+01  0.45478936588E+02  0.51100000000E-03 0. -1.
         23    2    1    0    0    0 -0.26234076943E+02 -0.50844618563E+01  0.14636822616E+02  0.94531735827E+02  0.89487060275E+02 0.  0.
         11    1    3    3    0    0 -0.22715784100E+01 -0.42478608951E+02  0.24425085998E+02  0.49052799239E+02  0.51100000000E-03 0.  1.
         22    1    1    0    0    0  0.26234076943E+02  0.50844618563E+01 -0.14636822616E+02  0.30468264173E+02  0.00000000000E+00 0.  1.
</event>
<event>
 5    1  0.1692171E-003  0.9118800E+02  0.7818608E-02  0.1130116E+00
         25   -1    0    0    0    0  0.00000000000E+00  0.00000000000E+00  0.99999998245E-14  0.12500000000E+03  0.12500000000E+03 0.  0.
        -11    1    3    3    0    0  0.26294680166E+02 -0.19450483849E+01 -0.22698578775E+02  0.34791074961E+02  0.51100000000E-03 0. -1.
         23    2    1    0    0    0 -0.31552979926E+01  0.40466222004E+01  0.29518342913E+02  0.95038964888E+02  0.90192800279E+02 0.  0.
         11    1    3    3    0    0 -0.29449978158E+02  0.59916705853E+01  0.52216921688E+02  0.60247889928E+02  0.51100000000E-03 0.  1.
         22    1    1    0    0    0  0.31552979926E+01 -0.40466222004E+01 -0.29518342913E+02  0.29961035112E+02  0.00000000000E+00 0.  1.
</event>
<event>
 5    1  0.1692171E-003  0.9118800E+02  0.7818608E-02  0.1130116E+00
         25   -1    0    0    0    0  0.00000000000E+00  0.00000000000E+00  0.99999998245E-14  0.12500000000E+03  0.12500000000E+03 0.  0.
        -11    1    3    3    0    0  0.18894168665E+02  0.39126076597E+02  0.32216531386E+02  0.54090150436E+02  0.51100000000E-03 0. -1.
         23    2    1    0    0    0 -0.94751394231E+01  0.14329378475E+02  0.28196137542E+02  0.91982860105E+02  0.85852868480E+02 0.  0.
         11    1    3    3    0    0 -0.28369308088E+02 -0.24796698122E+02 -0.40203938436E+01  0.37892709669E+02  0.51100000000E-03 0.  1.
         22    1    1    0    0    0  0.94751394231E+01 -0.14329378475E+02 -0.28196137542E+02  0.33017139895E+02  0.00000000000E+00 0. -1.
</event>
<event>
 5    1  0.1692171E-003  0.9118800E+02  0.7818608E-02  0.1130116E+00
         25   -1    0    0    0    0  0.00000000000E+00  0.00000000000E+00  0.99999998245E-14  0.12500000000E+03  0.12500000000E+03 0.  0.
        -11    1    3    3    0    0 -0.58249577303E+02 -0.12988907985E+02 -0.14978599496E+02  0.61531158203E+02  0.51100000000E-03 0.  1.
         23    2    1    0    0    0 -0.24826567908E+02  0.19919333204E+01 -0.81889877347E+01  0.98781956737E+02  0.95239115831E+02 0.  0.
         11    1    3    3    0    0  0.33423009396E+02  0.14980841306E+02  0.67896117616E+01  0.37250798534E+02  0.51100000000E-03 0. -1.
         22    1    1    0    0    0  0.24826567908E+02 -0.19919333204E+01  0.81889877347E+01  0.26218043263E+02  0.00000000000E+00 0.  1.
</event>
<event>
 5    1  0.1692171E-003  0.9118800E+02  0.7818608E-02  0.1130116E+00
         25   -1    0    0    0    0  0.00000000000E+00  0.00000000000E+00  0.99999998245E-14  0.12500000000E+03  0.12500000000E+03 0.  0.
        -11    1    3    3    0    0  0.26855304462E+02 -0.99957655216E+01  0.43944376915E+02  0.52461709549E+02  0.51100000000E-03 0.  1.
         23    2    1    0    0    0 -0.33650799021E+00  0.17285750044E+02  0.22749361418E+02  0.96426518638E+02  0.92095763527E+02 0.  0.
         11    1    3    3    0    0 -0.27191812452E+02  0.27281515566E+02 -0.21195015497E+02  0.43964809089E+02  0.51100000000E-03 0. -1.
         22    1    1    0    0    0  0.33650799021E+00 -0.17285750044E+02 -0.22749361418E+02  0.28573481362E+02  0.00000000000E+00 0.  1.
</event>
<event>
 5    1  0.1692171E-003  0.9118800E+02  0.7818608E-02  0.1130116E+00
         25   -1    0    0    0    0  0.00000000000E+00  0.00000000000E+00  0.99999998245E-14  0.12500000000E+03  0.12500000000E+03 0.  0.
        -11    1    3    3    0    0  0.20867322837E+02  0.32495028390E+02 -0.25553890586E+01  0.38702739515E+02  0.51100000000E-03 0.  1.
         23    2    1    0    0    0 -0.23178421914E+02 -0.33488922111E+00 -0.17868273704E+02  0.95731815936E+02  0.91147978496E+02 0.  0.
         11    1    3    3    0    0 -0.44045744751E+02 -0.32829917611E+02 -0.15312884646E+02  0.57029076421E+02  0.51100000000E-03 0. -1.
         22    1    1    0    0    0  0.23178421914E+02  0.33488922111E+00  0.17868273704E+02  0.29268184064E+02  0.00000000000E+00 0. -1.
</event>
<event>
 5    1  0.1692171E-003  0.9118800E+02  0.7818608E-02  0.1130116E+00
         25   -1    0    0    0    0  0.00000000000E+00  0.00000000000E+00  0.99999998245E-14  0.12500000000E+03  0.12500000000E+03 0.  0.
        -11    1    3    3    0    0  0.24122521878E+02  0.84976159873E+01  0.21720092718E+02  0.33553956058E+02  0.51100000000E-03 0. -1.
         23    2    1    0    0    0 -0.25338106366E+02  0.16991087624E+01 -0.14978702425E+02  0.95516646542E+02  0.90852416784E+02 0.  0.
         11    1    3    3    0    0 -0.49460628244E+02 -0.67985072249E+01 -0.36698795143E+02  0.61962690484E+02  0.51100000000E-03 0.  1.
         22    1    1    0    0    0  0.25338106366E+02 -0.16991087624E+01  0.14978702425E+02  0.29483353458E+02  0.00000000000E+00 0.  1.
</event>
<event>
 5    1  0.1692171E-003  0.9118800E+02  0.7818608E-02  0.1130116E+00
         25   -1    0    0    0    0  0.00000000000E+00  0.00000000000E+00  0.99999998245E-14  0.12500000000E+03  0.12500000000E+03 0.  0.
        -11    1    3    3    0    0 -0.45299302377E+01 -0.57209734249E+02 -0.14000986690E+02  0.59072003432E+02  0.51100000000E-03 0.  1.
         23    2    1    0    0    0  0.11438884110E+02 -0.31241034758E+02 -0.25656031536E+01  0.91631861874E+02  0.85340292175E+02 0.  0.
         11    1    3    3    0    0  0.15968814347E+02  0.25968699491E+02  0.11435383537E+02  0.32559858443E+02  0.51100000000E-03 0. -1.
         22    1    1    0    0    0 -0.11438884110E+02  0.31241034758E+02  0.25656031536E+01  0.33368138126E+02  0.00000000000E+00 0.  1.
</event>
<event>
 5    1  0.1692171E-003  0.9118800E+02  0.7818608E-02  0.1130116E+00
         25   -1    0    0    0    0  0.00000000000E+00  0.00000000000E+00  0.99999998245E-14  0.12500000000E+03  0.12500000000E+03 0.  0.
        -11    1    3    3    0    0 -0.68983093864E+01  0.53512072707E+02 -0.28236599920E+02  0.60896914315E+02  0.51100000000E-03 0.  1.
         23    2    1    0    0    0 -0.29951254698E+00  0.19187130356E+02 -0.20927483574E+02  0.96606422420E+02  0.92339620993E+02 0.  0.
         11    1    3    3    0    0  0.65987968394E+01 -0.34324942351E+02  0.73091163465E+01  0.35709508106E+02  0.51100000000E-03 0. -1.
         22    1    1    0    0    0  0.29951254698E+00 -0.19187130356E+02  0.20927483574E+02  0.28393577580E+02  0.00000000000E+00 0.  1.
</event>
<event>
 5    1  0.1692171E-003  0.9118800E+02  0.7818608E-02  0.1130116E+00
         25   -1    0    0    0    0  0.00000000000E+00  0.00000000000E+00  0.99999998245E-14  0.12500000000E+03  0.12500000000E+03 0.  0.
        -11    1    3    3    0    0  0.42972695205E+02  0.20368913117E+02 -0.36694388592E+02  0.60066823698E+02  0.51100000000E-03 0. -1.
         23    2    1    0    0    0  0.27242799604E+02  0.11515537119E+00 -0.13721145169E+02  0.94496668776E+02  0.89438063451E+02 0.  0.
         11    1    3    3    0    0 -0.15729895601E+02 -0.20253757746E+02  0.22973243423E+02  0.34429845078E+02  0.51100000000E-03 0.  1.
         22    1    1    0    0    0 -0.27242799604E+02 -0.11515537119E+00  0.13721145169E+02  0.30503331224E+02  0.00000000000E+00 0. -1.
</event>
<event>
 5    1  0.1692171E-003  0.9118800E+02  0.7818608E-02  0.1130116E+00
         25   -1    0    0    0    0  0.00000000000E+00  0.00000000000E+00  0.99999998245E-14  0.12500000000E+03  0.12500000000E+03 0.  0.
        -11    1    3    3    0    0  0.89385681574E+01  0.37070455023E+02  0.44490373856E+02  0.58596160304E+02  0.51100000000E-03 0.  1.
         23    2    1    0    0    0 -0.10817001687E+02  0.13996776322E+02  0.23787783135E+02  0.95355845443E+02  0.90630907315E+02 0.  0.
         11    1    3    3    0    0 -0.19755569845E+02 -0.23073678701E+02 -0.20702590721E+02  0.36759685139E+02  0.51100000000E-03 0. -1.
         22    1    1    0    0    0  0.10817001687E+02 -0.13996776322E+02 -0.23787783135E+02  0.29644154557E+02  0.00000000000E+00 0.  1.
</event>
<event>
 5    1  0.1692171E-003  0.9118800E+02  0.7818608E-02  0.1130116E+00
         25   -1    0    0    0    0  0.00000000000E+00  0.00000000000E+00  0.99999998245E-14  0.12500000000E+03  0.12500000000E+03 0.  0.
        -11    1    3    3    0    0  0.41220369621E+02  0.31531377460E+02 -0.17935369204E+02  0.54909235152E+02  0.51100000000E-03 0. -1.
         23    2    1    0    0    0  0.26608373662E+02  0.22232695534E+01  0.84812084730E+01  0.96984301301E+02  0.92849745962E+02 0.  0.
         11    1    3    3    0    0 -0.14611995959E+02 -0.29308107907E+02  0.26416577677E+02  0.42075066149E+02  0.51100000000E-03 0.  1.
         22    1    1    0    0    0 -0.26608373662E+02 -0.22232695534E+01 -0.84812084730E+01  0.28015698699E+02  0.00000000000E+00 0. -1.
</event>
<event>
 5    1  0.1692171E-003  0.9118800E+02  0.7818608E-02  0.1130116E+00
         25   -1    0    0    0    0  0.00000000000E+00  0.00000000000E+00  0.99999998245E-14  0.12500000000E+03  0.12500000000E+03 0.  0.
        -11    1    3    3    0    0 -0.47016003858E+02 -0.78301464300E+01 -0.11984707095E+02  0.49147217788E+02  0.51100000000E-03 0.  1.
         23    2    1    0    0    0 -0.75636855588E+01 -0.28400228743E+02  0.13002358867E+01  0.95581078448E+02  0.90941022713E+02 0.  0.
         11    1    3    3    0    0  0.39452318299E+02 -0.20570082313E+02  0.13284942982E+02  0.46433860660E+02  0.51100000000E-03 0. -1.
         22    1    1    0    0    0  0.75636855588E+01  0.28400228743E+02 -0.13002358867E+01  0.29418921552E+02  0.00000000000E+00 0.  1.
</event>
<event>
 5    1  0.1692171E-003  0.9118800E+02  0.7818608E-02  0.1130116E+00
         25   -1    0    0    0    0  0.00000000000E+00  0.00000000000E+00  0.99999998245E-14  0.12500000000E+03  0.12500000000E+03 0.  0.
        -11    1    3    3    0    0 -0.29678589457E+01  0.35585716284E+02  0.13429043517E+02  0.38150892522E+02  0.51100000000E-03 0.  1.
         23    2    1    0    0    0 -0.66430867199E+01 -0.81295128532E+00 -0.29613239303E+02  0.94639903937E+02  0.89638027556E+02 0.  0.
         11    1    3    3    0    0 -0.36752277742E+01 -0.36398667569E+02 -0.43042282820E+02  0.56489011415E+02  0.51100000000E-03 0. -1.
         22    1    1    0    0    0  0.66430867199E+01  0.81295128532E+00  0.29613239303E+02  0.30360096063E+02  0.00000000000E+00 0. -1.
</event>
<event>
 5    1  0.1692171E-003  0.9118800E+02  0.7818608E-02  0.1130116E+00
         25   -1    0    0    0    0  0.00000000000E+00  0.00000000000E+00  0.99999998245E-14  0.12500000000E+03  0.12500000000E+03 0.  0.
        -11    1    3    3    0    0  0.39469444007E+01 -0.27674865287E+02  0.49050265634E+02  0.56457108479E+02  0.51100000000E-03 0.  1.
         23    2    1    0    0    0 -0.11012195042E+02 -0.23788402273E+02  0.12876255252E+02  0.95794615708E+02  0.91234061221E+02 0.  0.
         11    1    3    3    0    0 -0.14959139443E+02  0.38864630138E+01 -0.36174010382E+02  0.39337507229E+02  0.51100000000E-03 0. -1.
         22    1    1    0    0    0  0.11012195042E+02  0.23788402273E+02 -0.12876255252E+02  0.29205384292E+02  0.00000000000E+00 0.  1.
</event>
<event>
 5    1  0.1692171E-003  0.9118800E+02  0.7818608E-02  0.1130116E+00
         25   -1    0    0    0    0  0.00000000000E+00  0.00000000000E+00  0.99999998245E-14  0.12500000000E+03  0.12500000000E+03 0.  0.
        -11    1    3    3    0    0  0.22822099082E+02 -0.48420349280E+02  0.26676528351E+02  0.59808156601E+02  0.51100000000E-03 0.  1.
         23    2    1    0    0    0  0.21393990402E+02 -0.15245369417E+02  0.12315027898E+02  0.95986485458E+02  0.91496564768E+02 0.  0.
         11    1    3    3    0    0 -0.14281086806E+01  0.33174979863E+02 -0.14361500454E+02  0.36178328856E+02  0.51100000000E-03 0. -1.
         22    1    1    0    0    0 -0.21393990402E+02  0.15245369417E+02 -0.12315027898E+02  0.29013514542E+02  0.00000000000E+00 0.  1.
</event>
<event>
 5    1  0.1692171E-003  0.9118800E+02  0.7818608E-02  0.1130116E+00
         25   -1    0    0    0    0  0.00000000000E+00  0.00000000000E+00  0.99999998245E-14  0.12500000000E+03  0.12500000000E+03 0.  0.
        -11    1    3    3    0    0  0.64472665453E+01  0.75126729764E+01  0.38105063150E+02  0.39370081776E+02  0.51100000000E-03 0. -1.
         23    2    1    0    0    0 -0.23615199738E+02  0.51789273026E+01 -0.12123407302E+02  0.97954187916E+02  0.94146412459E+02 0.  0.
         11    1    3    3    0    0 -0.30062466284E+02 -0.23337456738E+01 -0.50228470452E+02  0.58584106139E+02  0.51100000000E-03 0.  1.
         22    1    1    0    0    0  0.23615199738E+02 -0.51789273026E+01  0.12123407302E+02  0.27045812084E+02  0.00000000000E+00 0.  1.
</event>
<event>
 5    1  0.1692171E-003  0.9118800E+02  0.7818608E-02  0.1130116E+00
         25   -1    0    0    0    0  0.00000000000E+00  0.00000000000E+00  0.99999998245E-14  0.12500000000E+03  0.12500000000E+03 0.  0.
        -11    1    3    3    0    0 -0.30776059389E+01  0.36390469885E+02  0.37837556452E+02  0.52587247839E+02  0.51100000000E-03 0.  1.
         23    2    1    0    0    0 -0.18563269944E+02  0.18622044500E+02 -0.17368377480E+01  0.98648678634E+02  0.95064029257E+02 0.  0.
         11    1    3    3    0    0 -0.15485664005E+02 -0.17768425385E+02 -0.39574394200E+02  0.46061430795E+02  0.51100000000E-03 0. -1.
         22    1    1    0    0    0  0.18563269944E+02 -0.18622044500E+02  0.17368377480E+01  0.26351321366E+02  0.00000000000E+00 0.  1.
</event>
<event>
 5    1  0.1692171E-003  0.9118800E+02  0.7818608E-02  0.1130116E+00
         25   -1    0    0    0    0  0.00000000000E+00  0.00000000000E+00  0.99999998245E-14  0.12500000000E+03  0.12500000000E+03 0.  0.
        -11    1    3    3    0    0 -0.46908412421E+01  0.67637751982E+00 -0.56117243262E+02  0.56317017585E+02  0.51100000000E-03 0.  1.
         23    2    1    0    0    0 -0.16996753858E+02  0.12684315445E+02 -0.22474317346E+02  0.94098924935E+02  0.88880432231E+02 0.  0.
         11    1    3    3    0    0 -0.12305912616E+02  0.12007937926E+02  0.33642925916E+02  0.37781907349E+02  0.51100000000E-03 0. -1.
         22    1    1    0    0    0  0.16996753858E+02 -0.12684315445E+02  0.22474317346E+02  0.30901075065E+02  0.00000000000E+00 0.  1.
</event>
<event>
 5    1  0.1692171E-003  0.9118800E+02  0.7818608E-02  0.1130116E+00
         25   -1    0    0    0    0  0.00000000000E+00  0.00000000000E+00  0.99999998245E-14  0.12500000000E+03  0.12500000000E+03 0.  0.
        -11    1    3    3    0    0  0.30654390783E+02 -0.17565374486E+02  0.22461729756E+02  0.41866016756E+02  0.51100000000E-03 0.  1.
         23    2    1    0    0    0 -0.17291192589E+02  0.77266434790E+01  0.21859903179E+02  0.96076968907E+02  0.91620097287E+02 0.  0.
         11    1    3    3    0    0 -0.47945583373E+02  0.25292017965E+02 -0.60182657686E+00  0.54210952151E+02  0.51100000000E-03 0. -1.
         22    1    1    0    0    0  0.17291192589E+02 -0.77266434790E+01 -0.21859903179E+02  0.28923031093E+02  0.00000000000E+00 0. -1.
</event>
<event>
 5    1  0.1692171E-003  0.9118800E+02  0.7818608E-02  0.1130116E+00
         25   -1    0    0    0    0  0.00000000000E+00  0.00000000000E+00  0.99999998245E-14  0.12500000000E+03  0.12500000000E+03 0.  0.
        -11    1    3    3    0    0 -0.10522798825E+02 -0.58972067252E+02 -0.14186659840E+02  0.61560501369E+02  0.51100000000E-03 0.  1.
         23    2    1    0    0    0 -0.12905163173E+02 -0.28730822169E+02 -0.69789302154E+01  0.92739980689E+02  0.86948232715E+02 0.  0.
         11    1    3    3    0    0 -0.23823643482E+01  0.30241245083E+02  0.72077296241E+01  0.31179479320E+02  0.51100000000E-03 0. -1.
         22    1    1    0    0    0  0.12905163173E+02  0.28730822169E+02  0.69789302154E+01  0.32260019311E+02  0.00000000000E+00 0.  1.
</event>
<event>
 4    1  0.1692171E-003  0.9118800E+02  0.7818608E-02  0.1130116E+00
         25   -1    0    0    0    0  0.00000000000E+00  0.00000000000E+00  0.99999998245E-14  0.12500000000E+03  0.12500000000E+03 0.  0.
        -11    1    1    0    0    0 -0.64462279938E+01  0.15206960693E+02 -0.70594502105E+01  0.17962219974E+02  0.51100000000E-03 0.  1.
         11    1    1    0    0    0  0.11664610072E+02  0.15264562054E+02  0.50322079839E+02  0.53864475329E+02  0.51100000000E-03 0. -1.
         22    1    1    0    0    0 -0.52183820780E+01 -0.30471522747E+02 -0.43262629629E+02  0.53173304697E+02  0.00000000000E+00 0.  1.
</event>
<event>
 5    1  0.1692171E-003  0.9118800E+02  0.7818608E-02  0.1130116E+00
         25   -1    0    0    0    0  0.00000000000E+00  0.00000000000E+00  0.99999998245E-14  0.12500000000E+03  0.12500000000E+03 0.  0.
        -11    1    3    3    0    0 -0.15352281279E+02  0.50848251602E+02  0.27482408976E+02  0.59804013535E+02  0.51100000000E-03 0. -1.
         23    2    1    0    0    0 -0.17803749461E+02  0.20676012812E+02  0.56268521997E+01  0.97140845915E+02  0.93060257246E+02 0.  0.
         11    1    3    3    0    0 -0.24514681819E+01 -0.30172238790E+02 -0.21855556777E+02  0.37336832380E+02  0.51100000000E-03 0.  1.
         22    1    1    0    0    0  0.17803749461E+02 -0.20676012812E+02 -0.56268521997E+01  0.27859154085E+02  0.00000000000E+00 0. -1.
</event>
<event>
 5    1  0.1692171E-003  0.9118800E+02  0.7818608E-02  0.1130116E+00
         25   -1    0    0    0    0  0.00000000000E+00  0.00000000000E+00  0.99999998245E-14  0.12500000000E+03  0.12500000000E+03 0.  0.
        -11    1    3    3    0    0  0.32972180916E+02 -0.28119520081E+02 -0.29080224197E+02  0.52187465579E+02  0.51100000000E-03 0.  1.
         23    2    1    0    0    0  0.15557481924E+02 -0.22229840904E+02  0.10561080227E+02  0.95884068176E+02  0.91356538047E+02 0.  0.
         11    1    3    3    0    0 -0.17414698992E+02  0.58896791773E+01  0.39641304424E+02  0.43696602596E+02  0.51100000000E-03 0. -1.
         22    1    1    0    0    0 -0.15557481924E+02  0.22229840904E+02 -0.10561080227E+02  0.29115931824E+02  0.00000000000E+00 0.  1.
</event>
<event>
 5    1  0.1692171E-003  0.9118800E+02  0.7818608E-02  0.1130116E+00
         25   -1    0    0    0    0  0.00000000000E+00  0.00000000000E+00  0.99999998245E-14  0.12500000000E+03  0.12500000000E+03 0.  0.
        -11    1    3    3    0    0 -0.28563332825E+02 -0.57043158928E+01  0.33226623596E+02  0.44186103220E+02  0.51100000000E-03 0.  1.
         23    2    1    0    0    0 -0.22454363470E+02  0.13968826051E+02 -0.13541311879E+02  0.95289838986E+02  0.90539824091E+02 0.  0.
         11    1    3    3    0    0  0.61089693555E+01  0.19673141944E+02 -0.46767935474E+02  0.51103735767E+02  0.51100000000E-03 0. -1.
         22    1    1    0    0    0  0.22454363470E+02 -0.13968826051E+02  0.13541311879E+02  0.29710161014E+02  0.00000000000E+00 0.  1.
</event>
<event>
 5    1  0.1692171E-003  0.9118800E+02  0.7818608E-02  0.1130116E+00
         25   -1    0    0    0    0  0.00000000000E+00  0.00000000000E+00  0.99999998245E-14  0.12500000000E+03  0.12500000000E+03 0.  0.
        -11    1    3    3    0    0  0.41643007733E+02 -0.11375081457E+02  0.26177175441E+02  0.50485414582E+02  0.51100000000E-03 0.  1.
         23    2    1    0    0    0  0.17016834863E+02  0.22266787071E+02  0.91643974909E+01  0.95514941808E+02  0.90850071282E+02 0.  0.
         11    1    3    3    0    0 -0.24626172870E+02  0.33641868528E+02 -0.17012777950E+02  0.45029527225E+02  0.51100000000E-03 0. -1.
         22    1    1    0    0    0 -0.17016834863E+02 -0.22266787071E+02 -0.91643974909E+01  0.29485058192E+02  0.00000000000E+00 0.  1.
</event>
<event>
 5    1  0.1692171E-003  0.9118800E+02  0.7818608E-02  0.1130116E+00
         25   -1    0    0    0    0  0.00000000000E+00  0.00000000000E+00  0.99999998245E-14  0.12500000000E+03  0.12500000000E+03 0.  0.
        -11    1    3    3    0    0  0.14867600658E+02  0.33905591652E+02 -0.23960005159E+02  0.44098940373E+02  0.51100000000E-03 0.  1.
         23    2    1    0    0    0  0.10805867907E+01  0.21579492921E+02  0.22318751127E+02  0.93936052498E+02  0.88651075146E+02 0.  0.
         11    1    3    3    0    0 -0.13787013867E+02 -0.12326098731E+02  0.46278756286E+02  0.49837112125E+02  0.51100000000E-03 0. -1.
         22    1    1    0    0    0 -0.10805867907E+01 -0.21579492921E+02 -0.22318751127E+02  0.31063947502E+02  0.00000000000E+00 0.  1.
</event>
<event>
 5    1  0.1692171E-003  0.9118800E+02  0.7818608E-02  0.1130116E+00
         25   -1    0    0    0    0  0.00000000000E+00  0.00000000000E+00  0.99999998245E-14  0.12500000000E+03  0.12500000000E+03 0.  0.
        -11    1    3    3    0    0 -0.18949849782E+02 -0.76037668528E+01 -0.34502224195E+02  0.40091365052E+02  0.51100000000E-03 0.  1.
         23    2    1    0    0    0  0.27163568950E+01 -0.28993291388E+02  0.10172599952E+02  0.94154071094E+02  0.88957955088E+02 0.  0.
         11    1    3    3    0    0  0.21666206677E+02 -0.21389524536E+02  0.44674824147E+02  0.54062706041E+02  0.51100000000E-03 0. -1.
         22    1    1    0    0    0 -0.27163568950E+01  0.28993291388E+02 -0.10172599952E+02  0.30845928906E+02  0.00000000000E+00 0. -1.
</event>
<event>
 5    1  0.1692171E-003  0.9118800E+02  0.7818608E-02  0.1130116E+00
         25   -1    0    0    0    0  0.00000000000E+00  0.00000000000E+00  0.99999998245E-14  0.12500000000E+03  0.12500000000E+03 0.  0.
        -11    1    3    3    0    0 -0.29499047508E+01  0.60939885372E+01  0.33457860518E+02  0.34136008335E+02  0.51100000000E-03 0. -1.
         23    2    1    0    0    0  0.13022430584E+02 -0.13745432374E+02 -0.22485256602E+02  0.95604296676E+02  0.90972930969E+02 0.  0.
         11    1    3    3    0    0  0.15972335334E+02 -0.19839420911E+02 -0.55943117121E+02  0.61468288341E+02  0.51100000000E-03 0.  1.
         22    1    1    0    0    0 -0.13022430584E+02  0.13745432374E+02  0.22485256602E+02  0.29395703324E+02  0.00000000000E+00 0.  1.
</event>
<event>
 5    1  0.1692171E-003  0.9118800E+02  0.7818608E-02  0.1130116E+00
         25   -1    0    0    0    0  0.00000000000E+00  0.00000000000E+00  0.99999998245E-14  0.12500000000E+03  0.12500000000E+03 0.  0.
        -11    1    3    3    0    0 -0.52684867763E+01  0.34991355874E+02  0.35536618190E+01  0.35563751931E+02  0.51100000000E-03 0.  1.
         23    2    1    0    0    0  0.21590247590E+02 -0.15098293630E+02 -0.14151786241E+02  0.95093975267E+02  0.90269008064E+02 0.  0.
         11    1    3    3    0    0  0.26858734366E+02 -0.50089649504E+02 -0.17705448060E+02  0.59530223336E+02  0.51100000000E-03 0. -1.
         22    1    1    0    0    0 -0.21590247590E+02  0.15098293630E+02  0.14151786241E+02  0.29906024733E+02  0.00000000000E+00 0. -1.
</event>
<event>
 5    1  0.1692171E-003  0.9118800E+02  0.7818608E-02  0.1130116E+00
         25   -1    0    0    0    0  0.00000000000E+00  0.00000000000E+00  0.99999998245E-14  0.12500000000E+03  0.12500000000E+03 0.  0.
        -11    1    3    3    0    0 -0.26812102477E+02  0.11530165867E+02  0.26448620398E+02  0.39387346767E+02  0.51100000000E-03 0. -1.
         23    2    1    0    0    0 -0.31023228519E+01 -0.22713614458E+02 -0.14563561890E+02  0.97840654946E+02  0.93995551685E+02 0.  0.
         11    1    3    3    0    0  0.23709779625E+02 -0.34243780325E+02 -0.41012182288E+02  0.58453308179E+02  0.51100000000E-03 0.  1.
         22    1    1    0    0    0  0.31023228519E+01  0.22713614458E+02  0.14563561890E+02  0.27159345054E+02  0.00000000000E+00 0.  1.
</event>
<event>
 5    1  0.1692171E-003  0.9118800E+02  0.7818608E-02  0.1130116E+00
         25   -1    0    0    0    0  0.00000000000E+00  0.00000000000E+00  0.99999998245E-14  0.12500000000E+03  0.12500000000E+03 0.  0.
        -11    1    3    3    0    0 -0.34294201281E+02 -0.22279312216E+02  0.77671267568E+01  0.41626773268E+02  0.51100000000E-03 0. -1.
         23    2    1    0    0    0  0.22798704863E+02 -0.57538408815E+01  0.76805085394E+00  0.10147389683E+03  0.98709038123E+02 0.  0.
         11    1    3    3    0    0  0.57092906144E+02  0.16525471335E+02 -0.69990759029E+01  0.59847123561E+02  0.51100000000E-03 0.  1.
         22    1    1    0    0    0 -0.22798704863E+02  0.57538408815E+01 -0.76805085394E+00  0.23526103171E+02  0.00000000000E+00 0.  1.
</event>
<event>
 5    1  0.1692171E-003  0.9118800E+02  0.7818608E-02  0.1130116E+00
         25   -1    0    0    0    0  0.00000000000E+00  0.00000000000E+00  0.99999998245E-14  0.12500000000E+03  0.12500000000E+03 0.  0.
        -11    1    3    3    0    0  0.27006264144E+02 -0.30581947093E+01  0.20313898647E+02  0.33931480021E+02  0.51100000000E-03 0.  1.
         23    2    1    0    0    0 -0.17854416617E+02  0.34421093086E+01 -0.22354888658E+02  0.96183869862E+02  0.91765829509E+02 0.  0.
         11    1    3    3    0    0 -0.44860680761E+02  0.65003040179E+01 -0.42668787305E+02  0.62252389841E+02  0.51100000000E-03 0. -1.
         22    1    1    0    0    0  0.17854416617E+02 -0.34421093086E+01  0.22354888658E+02  0.28816130138E+02  0.00000000000E+00 0. -1.
</event>
<event>
 5    1  0.1692171E-003  0.9118800E+02  0.7818608E-02  0.1130116E+00
         25   -1    0    0    0    0  0.00000000000E+00  0.00000000000E+00  0.99999998245E-14  0.12500000000E+03  0.12500000000E+03 0.  0.
        -11    1    3    3    0    0 -0.14609706433E+02 -0.28638979017E+01  0.28465876237E+02  0.32124002606E+02  0.51100000000E-03 0.  1.
         23    2    1    0    0    0 -0.18459410521E+02  0.39012476071E+02  0.26773084461E+02  0.74211013226E+02  0.54108717472E+02 0.  0.
         11    1    3    3    0    0 -0.38497040880E+01  0.41876373973E+02 -0.16927917754E+01  0.42087010620E+02  0.51100000000E-03 0. -1.
         22    1    1    0    0    0  0.18459410521E+02 -0.39012476071E+02 -0.26773084461E+02  0.50788986774E+02  0.00000000000E+00 0. -1.
</event>
<event>
 5    1  0.1692171E-003  0.9118800E+02  0.7818608E-02  0.1130116E+00
         25   -1    0    0    0    0  0.00000000000E+00  0.00000000000E+00  0.99999998245E-14  0.12500000000E+03  0.12500000000E+03 0.  0.
        -11    1    3    3    0    0  0.49530874964E+02  0.19353250527E+02 -0.30159759522E+02  0.61134826207E+02  0.51100000000E-03 0.  1.
         23    2    1    0    0    0  0.18968612832E+02  0.17265167569E+02 -0.14408263144E+02  0.95580748977E+02  0.90940569847E+02 0.  0.
         11    1    3    3    0    0 -0.30562262132E+02 -0.20880829574E+01  0.15751496378E+02  0.34445922770E+02  0.51100000000E-03 0. -1.
         22    1    1    0    0    0 -0.18968612832E+02 -0.17265167569E+02  0.14408263144E+02  0.29419251023E+02  0.00000000000E+00 0.  1.
</event>
<event>
 5    1  0.1692171E-003  0.9118800E+02  0.7818608E-02  0.1130116E+00
         25   -1    0    0    0    0  0.00000000000E+00  0.00000000000E+00  0.99999998245E-14  0.12500000000E+03  0.12500000000E+03 0.  0.
        -11    1    3    3    0    0 -0.24191423506E+02  0.35009543493E+02 -0.35968157493E+02  0.55718950641E+02  0.51100000000E-03 0. -1.
         23    2    1    0    0    0  0.66044241090E+01  0.10976022527E+02 -0.25970712216E+02  0.96041937542E+02  0.91572290489E+02 0.  0.
         11    1    3    3    0    0  0.30795847615E+02 -0.24033520966E+02  0.99974452770E+01  0.40322986901E+02  0.51100000000E-03 0.  1.
         22    1    1    0    0    0 -0.66044241090E+01 -0.10976022527E+02  0.25970712216E+02  0.28958062458E+02  0.00000000000E+00 0. -1.
</event>
<event>
 5    1  0.1692171E-003  0.9118800E+02  0.7818608E-02  0.1130116E+00
         25   -1    0    0    0    0  0.00000000000E+00  0.00000000000E+00  0.99999998245E-14  0.12500000000E+03  0.12500000000E+03 0.  0.
        -11    1    3    3    0    0 -0.12254371242E+02 -0.47754801724E+02  0.32494855906E+02  0.59047492435E+02  0.51100000000E-03 0.  1.
         23    2    1    0    0    0 -0.19074734258E+02 -0.16209293605E+02  0.15986979045E+02  0.95298650112E+02  0.90551987984E+02 0.  0.
         11    1    3    3    0    0 -0.68203630164E+01  0.31545508119E+02 -0.16507876861E+02  0.36251157676E+02  0.51100000000E-03 0. -1.
         22    1    1    0    0    0  0.19074734258E+02  0.16209293605E+02 -0.15986979045E+02  0.29701349888E+02  0.00000000000E+00 0.  1.
</event>
<event>
 5    1  0.1692171E-003  0.9118800E+02  0.7818608E-02  0.1130116E+00
         25   -1    0    0    0    0  0.00000000000E+00  0.00000000000E+00  0.99999998245E-14  0.12500000000E+03  0.12500000000E+03 0.  0.
        -11    1    3    3    0    0 -0.12478162406E+02 -0.19923264589E+02 -0.13585836632E+02  0.27151721237E+02  0.51100000000E-03 0.  1.
         23    2    1    0    0    0  0.18143937290E+02  0.31452125973E+01  0.32832652360E+02  0.87355905062E+02  0.78828778156E+02 0.  0.
         11    1    3    3    0    0  0.30622099696E+02  0.23068477186E+02  0.46418488992E+02  0.60204183825E+02  0.51100000000E-03 0. -1.
         22    1    1    0    0    0 -0.18143937290E+02 -0.31452125973E+01 -0.32832652360E+02  0.37644094938E+02  0.00000000000E+00 0. -1.
</event>
<event>
 5    1  0.1692171E-003  0.9118800E+02  0.7818608E-02  0.1130116E+00
         25   -1    0    0    0    0  0.00000000000E+00  0.00000000000E+00  0.99999998245E-14  0.12500000000E+03  0.12500000000E+03 0.  0.
        -11    1    3    3    0    0 -0.12845665993E+01  0.21047939874E+02  0.49933798846E+02  0.54203783556E+02  0.51100000000E-03 0.  1.
         23    2    1    0    0    0 -0.18585714312E+02 -0.46126873530E+01  0.21155653065E+02  0.96464630409E+02  0.92147477459E+02 0.  0.
         11    1    3    3    0    0 -0.17301147712E+02 -0.25660627227E+02 -0.28778145781E+02  0.42260846853E+02  0.51100000000E-03 0. -1.
         22    1    1    0    0    0  0.18585714312E+02  0.46126873530E+01 -0.21155653065E+02  0.28535369591E+02  0.00000000000E+00 0.  1.
</event>
<event>
 5    1  0.1692171E-003  0.9118800E+02  0.7818608E-02  0.1130116E+00
         25   -1    0    0    0    0  0.00000000000E+00  0.00000000000E+00  0.99999998245E-14  0.12500000000E+03  0.12500000000E+03 0.  0.
        -11    1    3    3    0    0 -0.28890145502E+02  0.29017789155E+02 -0.43466889824E+01  0.41177254643E+02  0.51100000000E-03 0.  1.
         23    2    1    0    0    0  0.69912492124E+01  0.53190136088E+01  0.28428627365E+02  0.95245062172E+02  0.90477983747E+02 0.  0.
         11    1    3    3    0    0  0.35881394715E+02 -0.23698775546E+02  0.32775316347E+02  0.54067807529E+02  0.51100000000E-03 0. -1.
         22    1    1    0    0    0 -0.69912492124E+01 -0.53190136088E+01 -0.28428627365E+02  0.29754937828E+02  0.00000000000E+00 0.  1.
</event>
<event>
 5    1  0.1692171E-003  0.9118800E+02  0.7818608E-02  0.1130116E+00
         25   -1    0    0    0    0  0.00000000000E+00  0.00000000000E+00  0.99999998245E-14  0.12500000000E+03  0.12500000000E+03 0.  0.
        -11    1    3    3    0    0  0.39474738666E+02  0.94419636911E+01  0.24895921164E+02  0.47615255559E+02  0.51100000000E-03 0.  1.
         23    2    1    0    0    0 -0.50357026929E+01  0.24495559677E+02  0.15636647428E+02  0.95506009286E+02  0.90837780253E+02 0.  0.
         11    1    3    3    0    0 -0.44510441359E+02  0.15053595985E+02 -0.92592737359E+01  0.47890753726E+02  0.51100000000E-03 0. -1.
         22    1    1    0    0    0  0.50357026929E+01 -0.24495559677E+02 -0.15636647428E+02  0.29493990714E+02  0.00000000000E+00 0.  1.
</event>
<event>
 5    1  0.1692171E-003  0.9118800E+02  0.7818608E-02  0.1130116E+00
         25   -1    0    0    0    0  0.00000000000E+00  0.00000000000E+00  0.99999998245E-14  0.12500000000E+03  0.12500000000E+03 0.  0.
        -11    1    3    3    0    0  0.25747580497E+02  0.11859366429E+02 -0.50382756656E+02  0.57810073881E+02  0.51100000000E-03 0.  1.
         23    2    1    0    0    0  0.10820437193E+02  0.18208129935E+02 -0.95131736486E+01  0.10178107820E+03  0.99097273169E+02 0.  0.
         11    1    3    3    0    0 -0.14927143304E+02  0.63487635052E+01  0.40869583007E+02  0.43971004318E+02  0.51100000000E-03 0. -1.
         22    1    1    0    0    0 -0.10820437193E+02 -0.18208129935E+02  0.95131736486E+01  0.23218921802E+02  0.00000000000E+00 0.  1.
</event>
<event>
 5    1  0.1692171E-003  0.9118800E+02  0.7818608E-02  0.1130116E+00
         25   -1    0    0    0    0  0.00000000000E+00  0.00000000000E+00  0.99999998245E-14  0.12500000000E+03  0.12500000000E+03 0.  0.
        -11    1    3    3    0    0 -0.83695927026E+00  0.36293499012E+02  0.49143166219E+01  0.36634261007E+02  0.51100000000E-03 0. -1.
         23    2    1    0    0    0 -0.22540042530E+02 -0.18583584061E+02  0.19733165156E+01  0.95720363870E+02  0.91132271822E+02 0.  0.
         11    1    3    3    0    0 -0.21703083260E+02 -0.54877083074E+02 -0.29410001063E+01  0.59086102863E+02  0.51100000000E-03 0.  1.
         22    1    1    0    0    0  0.22540042530E+02  0.18583584061E+02 -0.19733165156E+01  0.29279636130E+02  0.00000000000E+00 0.  1.
</event>
<event>
 5    1  0.1692171E-003  0.9118800E+02  0.7818608E-02  0.1130116E+00
         25   -1    0    0    0    0  0.00000000000E+00  0.00000000000E+00  0.99999998245E-14  0.12500000000E+03  0.12500000000E+03 0.  0.
        -11    1    3    3    0    0 -0.42050862888E+02 -0.23596651021E+02 -0.85095579038E+01  0.48964166336E+02  0.51100000000E-03 0.  1.
         23    2    1    0    0    0 -0.14532274171E+02  0.16359460836E+02 -0.15780293064E+02  0.98021553035E+02  0.94235811976E+02 0.  0.
         11    1    3    3    0    0  0.27518588716E+02  0.39956111858E+02 -0.72707351600E+01  0.49057386699E+02  0.51100000000E-03 0. -1.
         22    1    1    0    0    0  0.14532274171E+02 -0.16359460836E+02  0.15780293064E+02  0.26978446965E+02  0.00000000000E+00 0. -1.
</event>
<event>
 5    1  0.1692171E-003  0.9118800E+02  0.7818608E-02  0.1130116E+00
         25   -1    0    0    0    0  0.00000000000E+00  0.00000000000E+00  0.99999998245E-14  0.12500000000E+03  0.12500000000E+03 0.  0.
        -11    1    3    3    0    0  0.62956565125E+01  0.27272132549E+02 -0.27017524467E+02  0.38901814011E+02  0.51100000000E-03 0. -1.
         23    2    1    0    0    0 -0.25744091931E+02 -0.13464492482E+02 -0.37697768572E+01  0.95703890280E+02  0.91109673306E+02 0.  0.
         11    1    3    3    0    0 -0.32039748444E+02 -0.40736625031E+02  0.23247747610E+02  0.56802076269E+02  0.51100000000E-03 0.  1.
         22    1    1    0    0    0  0.25744091931E+02  0.13464492482E+02  0.37697768572E+01  0.29296109720E+02  0.00000000000E+00 0.  1.
</event>
<event>
 5    1  0.1692171E-003  0.9118800E+02  0.7818608E-02  0.1130116E+00
         25   -1    0    0    0    0  0.00000000000E+00  0.00000000000E+00  0.99999998245E-14  0.12500000000E+03  0.12500000000E+03 0.  0.
        -11    1    3    3    0    0  0.22074388738E+02 -0.10762159820E+02 -0.31648295671E+02  0.40058923366E+02  0.51100000000E-03 0. -1.
         23    2    1    0    0    0 -0.24366409327E+01 -0.24177803137E+02  0.16429503064E+02  0.95666879564E+02  0.91058881451E+02 0.  0.
         11    1    3    3    0    0 -0.24511029670E+02 -0.13415643317E+02  0.48077798735E+02  0.55607956198E+02  0.51100000000E-03 0.  1.
         22    1    1    0    0    0  0.24366409327E+01  0.24177803137E+02 -0.16429503064E+02  0.29333120436E+02  0.00000000000E+00 0.  1.
</event>
<event>
 5    1  0.1692171E-003  0.9118800E+02  0.7818608E-02  0.1130116E+00
         25   -1    0    0    0    0  0.00000000000E+00  0.00000000000E+00  0.99999998245E-14  0.12500000000E+03  0.12500000000E+03 0.  0.
        -11    1    3    3    0    0 -0.35614428964E+01  0.36471077071E+02 -0.22679634459E+02  0.43095117562E+02  0.51100000000E-03 0.  1.
         23    2    1    0    0    0 -0.11644630562E+02  0.13087132775E+02  0.23621237715E+02  0.95591951163E+02  0.90955966219E+02 0.  0.
         11    1    3    3    0    0 -0.80831876652E+01 -0.23383944297E+02  0.46300872175E+02  0.52496833601E+02  0.51100000000E-03 0. -1.
         22    1    1    0    0    0  0.11644630562E+02 -0.13087132775E+02 -0.23621237715E+02  0.29408048837E+02  0.00000000000E+00 0. -1.
</event>
<event>
 5    1  0.1692171E-003  0.9118800E+02  0.7818608E-02  0.1130116E+00
         25   -1    0    0    0    0  0.00000000000E+00  0.00000000000E+00  0.99999998245E-14  0.12500000000E+03  0.12500000000E+03 0.  0.
        -11    1    3    3    0    0 -0.18822450014E+02 -0.35271762006E+02  0.24087499396E+02  0.46675362312E+02  0.51100000000E-03 0.  1.
         23    2    1    0    0    0 -0.22318688523E+02  0.10482277431E+02  0.20905345382E+02  0.92672991739E+02  0.86851873525E+02 0.  0.
         11    1    3    3    0    0 -0.34962385084E+01  0.45754039437E+02 -0.31821540133E+01  0.45997629428E+02  0.51100000000E-03 0. -1.
         22    1    1    0    0    0  0.22318688523E+02 -0.10482277431E+02 -0.20905345382E+02  0.32327008261E+02  0.00000000000E+00 0.  1.
</event>
<event>
 5    1  0.1692171E-003  0.9118800E+02  0.7818608E-02  0.1130116E+00
         25   -1    0    0    0    0  0.00000000000E+00  0.00000000000E+00  0.99999998245E-14  0.12500000000E+03  0.12500000000E+03 0.  0.
        -11    1    3    3    0    0  0.67095694773E+01 -0.42601023046E+02  0.11601518428E+02  0.44659385544E+02  0.51100000000E-03 0.  1.
         23    2    1    0    0    0 -0.23791135692E+02 -0.29471784222E+01  0.17900038430E+02  0.95081521196E+02  0.90251760642E+02 0.  0.
         11    1    3    3    0    0 -0.30500705169E+02  0.39653844623E+02  0.62985200014E+01  0.50422135652E+02  0.51100000000E-03 0. -1.
         22    1    1    0    0    0  0.23791135692E+02  0.29471784222E+01 -0.17900038430E+02  0.29918478804E+02  0.00000000000E+00 0. -1.
</event>
<event>
 5    1  0.1692171E-003  0.9118800E+02  0.7818608E-02  0.1130116E+00
         25   -1    0    0    0    0  0.00000000000E+00  0.00000000000E+00  0.99999998245E-14  0.12500000000E+03  0.12500000000E+03 0.  0.
        -11    1    3    3    0    0 -0.10889007408E+02 -0.29955626579E+02 -0.49898255871E+02  0.59209340356E+02  0.51100000000E-03 0.  1.
         23    2    1    0    0    0  0.54407352805E+01 -0.76932421197E+01 -0.30826965784E+02  0.92765090443E+02  0.86984323937E+02 0.  0.
         11    1    3    3    0    0  0.16329742688E+02  0.22262384459E+02  0.19071290088E+02  0.33555750088E+02  0.51100000000E-03 0. -1.
         22    1    1    0    0    0 -0.54407352805E+01  0.76932421197E+01  0.30826965784E+02  0.32234909557E+02  0.00000000000E+00 0.  1.
</event>
<event>
 5    1  0.1692171E-003  0.9118800E+02  0.7818608E-02  0.1130116E+00
         25   -1    0    0    0    0  0.00000000000E+00  0.00000000000E+00  0.99999998245E-14  0.12500000000E+03  0.12500000000E+03 0.  0.
        -11    1    3    3    0    0 -0.74178131188E+01 -0.21825414784E+02 -0.57597684907E+02  0.62039229435E+02  0.51100000000E-03 0.  1.
         23    2    1    0    0    0 -0.60391916218E+01 -0.55085239742E+01 -0.27596630591E+02  0.96218240294E+02  0.91812635696E+02 0.  0.
         11    1    3    3    0    0  0.13786214970E+01  0.16316890810E+02  0.30001054316E+02  0.34179010859E+02  0.51100000000E-03 0. -1.
         22    1    1    0    0    0  0.60391916218E+01  0.55085239742E+01  0.27596630591E+02  0.28781759706E+02  0.00000000000E+00 0.  1.
</event>
<event>
 5    1  0.1692171E-003  0.9118800E+02  0.7818608E-02  0.1130116E+00
         25   -1    0    0    0    0  0.00000000000E+00  0.00000000000E+00  0.99999998245E-14  0.12500000000E+03  0.12500000000E+03 0.  0.
        -11    1    3    3    0    0 -0.33506851635E+02 -0.20318247017E+02 -0.32102843574E+01  0.39317250594E+02  0.51100000000E-03 0. -1.
         23    2    1    0    0    0  0.10910732152E+02  0.38552921623E+01 -0.27312760197E+02  0.95336988971E+02  0.90604896350E+02 0.  0.
         11    1    3    3    0    0  0.44417583788E+02  0.24173539179E+02 -0.24102475840E+02  0.56019738377E+02  0.51100000000E-03 0.  1.
         22    1    1    0    0    0 -0.10910732152E+02 -0.38552921623E+01  0.27312760197E+02  0.29663011029E+02  0.00000000000E+00 0.  1.
</event>
<event>
 5    1  0.1692171E-003  0.9118800E+02  0.7818608E-02  0.1130116E+00
         25   -1    0    0    0    0  0.00000000000E+00  0.00000000000E+00  0.99999998245E-14  0.12500000000E+03  0.12500000000E+03 0.  0.
        -11    1    3    3    0    0  0.14722045820E+02 -0.53074293986E+02  0.27101263475E+02  0.61384833611E+02  0.51100000000E-03 0.  1.
         23    2    1    0    0    0 -0.20370095478E+01 -0.17676230531E+02  0.12808103829E+02  0.10307635848E+03  0.10071787141E+03 0.  0.
         11    1    3    3    0    0 -0.16759055368E+02  0.35398063455E+02 -0.14293159646E+02  0.41691524871E+02  0.51100000000E-03 0. -1.
         22    1    1    0    0    0  0.20370095478E+01  0.17676230531E+02 -0.12808103829E+02  0.21923641518E+02  0.00000000000E+00 0.  1.
</event>
<event>
 5    1  0.1692171E-003  0.9118800E+02  0.7818608E-02  0.1130116E+00
         25   -1    0    0    0    0  0.00000000000E+00  0.00000000000E+00  0.99999998245E-14  0.12500000000E+03  0.12500000000E+03 0.  0.
        -11    1    3    3    0    0 -0.39893931072E+02  0.15882413543E+02 -0.34557725404E+02  0.55118174695E+02  0.51100000000E-03 0. -1.
         23    2    1    0    0    0 -0.14606074268E+02  0.20075921428E+02  0.23586065337E+01  0.10006121391E+03  0.96903578253E+02 0.  0.
         11    1    3    3    0    0  0.25287856804E+02  0.41935078850E+01  0.36916331938E+02  0.44943039218E+02  0.51100000000E-03 0.  1.
         22    1    1    0    0    0  0.14606074268E+02 -0.20075921428E+02 -0.23586065337E+01  0.24938786087E+02  0.00000000000E+00 0. -1.
</event>
<event>
 5    1  0.1692171E-003  0.9118800E+02  0.7818608E-02  0.1130116E+00
         25   -1    0    0    0    0  0.00000000000E+00  0.00000000000E+00  0.99999998245E-14  0.12500000000E+03  0.12500000000E+03 0.  0.
        -11    1    3    3    0    0 -0.16863726168E+02  0.54761847470E+01  0.42036652132E+02  0.45622954556E+02  0.51100000000E-03 0.  1.
         23    2    1    0    0    0 -0.47740582262E+01  0.27530110866E+02 -0.26838127454E+01  0.96930417048E+02  0.92777175329E+02 0.  0.
         11    1    3    3    0    0  0.12089667942E+02  0.22053926119E+02 -0.44720464878E+02  0.51307462492E+02  0.51100000000E-03 0. -1.
         22    1    1    0    0    0  0.47740582262E+01 -0.27530110866E+02  0.26838127454E+01  0.28069582952E+02  0.00000000000E+00 0. -1.
</event>
<event>
 5    1  0.1692171E-003  0.9118800E+02  0.7818608E-02  0.1130116E+00
         25   -1    0    0    0    0  0.00000000000E+00  0.00000000000E+00  0.99999998245E-14  0.12500000000E+03  0.12500000000E+03 0.  0.
        -11    1    3    3    0    0 -0.17990966028E+02  0.10875911693E+02  0.26849327017E+02  0.34100537757E+02  0.51100000000E-03 0.  1.
         23    2    1    0    0    0  0.11683814921E+02  0.61570317651E+01 -0.26534910769E+02  0.95360127180E+02  0.90636812582E+02 0.  0.
         11    1    3    3    0    0  0.29674780949E+02 -0.47188799275E+01 -0.53384237785E+02  0.61259589424E+02  0.51100000000E-03 0. -1.
         22    1    1    0    0    0 -0.11683814921E+02 -0.61570317651E+01  0.26534910769E+02  0.29639872820E+02  0.00000000000E+00 0. -1.
</event>
<event>
 5    1  0.1692171E-003  0.9118800E+02  0.7818608E-02  0.1130116E+00
         25   -1    0    0    0    0  0.00000000000E+00  0.00000000000E+00  0.99999998245E-14  0.12500000000E+03  0.12500000000E+03 0.  0.
        -11    1    3    3    0    0 -0.23344416911E+02 -0.27177500617E+02 -0.13131893730E+02  0.38157895302E+02  0.51100000000E-03 0.  1.
         23    2    1    0    0    0  0.58401377801E+01  0.20284165221E+02 -0.21926503063E+02  0.94564394132E+02  0.89532667406E+02 0.  0.
         11    1    3    3    0    0  0.29184554691E+02  0.47461665838E+02 -0.87946093331E+01  0.56406498829E+02  0.51100000000E-03 0. -1.
         22    1    1    0    0    0 -0.58401377801E+01 -0.20284165221E+02  0.21926503063E+02  0.30435605868E+02  0.00000000000E+00 0. -1.
</event>
<event>
 5    1  0.1692171E-003  0.9118800E+02  0.7818608E-02  0.1130116E+00
         25   -1    0    0    0    0  0.00000000000E+00  0.00000000000E+00  0.99999998245E-14  0.12500000000E+03  0.12500000000E+03 0.  0.
        -11    1    3    3    0    0  0.49292871052E+02  0.91700489500E+01  0.29498335249E+02  0.58172405116E+02  0.51100000000E-03 0.  1.
         23    2    1    0    0    0  0.19666415235E+02  0.20010906406E+02  0.10245994299E+02  0.95130539634E+02  0.90319626375E+02 0.  0.
         11    1    3    3    0    0 -0.29626455818E+02  0.10840857457E+02 -0.19252340949E+02  0.36958134517E+02  0.51100000000E-03 0. -1.
         22    1    1    0    0    0 -0.19666415235E+02 -0.20010906406E+02 -0.10245994299E+02  0.29869460366E+02  0.00000000000E+00 0.  1.
</event>
<event>
 5    1  0.1692171E-003  0.9118800E+02  0.7818608E-02  0.1130116E+00
         25   -1    0    0    0    0  0.00000000000E+00  0.00000000000E+00  0.99999998245E-14  0.12500000000E+03  0.12500000000E+03 0.  0.
        -11    1    3    3    0    0 -0.27554756530E+02  0.35390056590E+02 -0.11961289307E+02  0.46419749623E+02  0.51100000000E-03 0. -1.
         23    2    1    0    0    0 -0.33590394615E+01 -0.28126465366E+01 -0.29688000267E+02  0.94990476737E+02  0.90125574529E+02 0.  0.
         11    1    3    3    0    0  0.24195717069E+02 -0.38202703127E+02 -0.17726710960E+02  0.48570727114E+02  0.51100000000E-03 0.  1.
         22    1    1    0    0    0  0.33590394615E+01  0.28126465366E+01  0.29688000267E+02  0.30009523263E+02  0.00000000000E+00 0.  1.
</event>
<event>
 5    1  0.1692171E-003  0.9118800E+02  0.7818608E-02  0.1130116E+00
         25   -1    0    0    0    0  0.00000000000E+00  0.00000000000E+00  0.99999998245E-14  0.12500000000E+03  0.12500000000E+03 0.  0.
        -11    1    3    3    0    0  0.18025480967E+02  0.27746125327E+02 -0.12717014334E+02  0.35446972911E+02  0.51100000000E-03 0. -1.
         23    2    1    0    0    0 -0.23753353626E+00 -0.28956171656E+02 -0.63281496686E+01  0.95359457202E+02  0.90635888590E+02 0.  0.
         11    1    3    3    0    0 -0.18263014503E+02 -0.56702296983E+02  0.63888646654E+01  0.59912484290E+02  0.51100000000E-03 0.  1.
         22    1    1    0    0    0  0.23753353626E+00  0.28956171656E+02  0.63281496686E+01  0.29640542798E+02  0.00000000000E+00 0.  1.
</event>
<event>
 5    1  0.1692171E-003  0.9118800E+02  0.7818608E-02  0.1130116E+00
         25   -1    0    0    0    0  0.00000000000E+00  0.00000000000E+00  0.99999998245E-14  0.12500000000E+03  0.12500000000E+03 0.  0.
        -11    1    3    3    0    0  0.29803160629E+02 -0.21367010920E+02 -0.10492552276E+02  0.38142773794E+02  0.51100000000E-03 0. -1.
         23    2    1    0    0    0  0.11543299477E+00  0.98780113050E+01  0.27613511656E+02  0.95672632950E+02  0.91066779001E+02 0.  0.
         11    1    3    3    0    0 -0.29687727635E+02  0.31245022225E+02  0.38106063932E+02  0.57529859157E+02  0.51100000000E-03 0.  1.
         22    1    1    0    0    0 -0.11543299477E+00 -0.98780113050E+01 -0.27613511656E+02  0.29327367050E+02  0.00000000000E+00 0.  1.
</event>
<event>
 5    1  0.1692171E-003  0.9118800E+02  0.7818608E-02  0.1130116E+00
         25   -1    0    0    0    0  0.00000000000E+00  0.00000000000E+00  0.99999998245E-14  0.12500000000E+03  0.12500000000E+03 0.  0.
        -11    1    3    3    0    0  0.31864106750E+02  0.47857570362E+02  0.23905889227E+02  0.62266844146E+02  0.51100000000E-03 0.  1.
         23    2    1    0    0    0  0.19679793879E+02  0.22848195961E+02  0.13352906003E+02  0.92020696725E+02  0.85907940152E+02 0.  0.
         11    1    3    3    0    0 -0.12184312871E+02 -0.25009374401E+02 -0.10552983224E+02  0.29753852578E+02  0.51100000000E-03 0. -1.
         22    1    1    0    0    0 -0.19679793879E+02 -0.22848195961E+02 -0.13352906003E+02  0.32979303275E+02  0.00000000000E+00 0.  1.
</event>
<event>
 5    1  0.1692171E-003  0.9118800E+02  0.7818608E-02  0.1130116E+00
         25   -1    0    0    0    0  0.00000000000E+00  0.00000000000E+00  0.99999998245E-14  0.12500000000E+03  0.12500000000E+03 0.  0.
        -11    1    3    3    0    0 -0.40094530399E+02 -0.32171301832E+02 -0.25822977815E+02  0.57527299719E+02  0.51100000000E-03 0. -1.
         23    2    1    0    0    0 -0.50516327519E+01 -0.26306526147E+02 -0.11909457532E+02  0.95684688470E+02  0.91083325134E+02 0.  0.
         11    1    3    3    0    0  0.35042897647E+02  0.58647756843E+01  0.13913520283E+02  0.38157388751E+02  0.51100000000E-03 0.  1.
         22    1    1    0    0    0  0.50516327519E+01  0.26306526147E+02  0.11909457532E+02  0.29315311530E+02  0.00000000000E+00 0. -1.
</event>
<event>
 5    1  0.1692171E-003  0.9118800E+02  0.7818608E-02  0.1130116E+00
         25   -1    0    0    0    0  0.00000000000E+00  0.00000000000E+00  0.99999998245E-14  0.12500000000E+03  0.12500000000E+03 0.  0.
        -11    1    3    3    0    0  0.80723203687E+01 -0.22920938099E+02 -0.23806419817E+02  0.34018779876E+02  0.51100000000E-03 0. -1.
         23    2    1    0    0    0  0.44100801453E+01  0.13189849169E+02  0.25921101839E+02  0.95583602387E+02  0.90944491844E+02 0.  0.
         11    1    3    3    0    0 -0.36622402234E+01  0.36110787268E+02  0.49727521656E+02  0.61564822511E+02  0.51100000000E-03 0.  1.
         22    1    1    0    0    0 -0.44100801453E+01 -0.13189849169E+02 -0.25921101839E+02  0.29416397613E+02  0.00000000000E+00 0.  1.
</event>
<event>
 5    1  0.1692171E-003  0.9118800E+02  0.7818608E-02  0.1130116E+00
         25   -1    0    0    0    0  0.00000000000E+00  0.00000000000E+00  0.99999998245E-14  0.12500000000E+03  0.12500000000E+03 0.  0.
        -11    1    3    3    0    0  0.23596039842E+02 -0.44948406193E+02  0.16822069115E+01  0.50793327671E+02  0.51100000000E-03 0.  1.
         23    2    1    0    0    0 -0.14862600412E+02 -0.25349952350E+02 -0.69293780232E+01  0.94808390985E+02  0.89872675192E+02 0.  0.
         11    1    3    3    0    0 -0.38458640254E+02  0.19598453843E+02 -0.86115849347E+01  0.44015063314E+02  0.51100000000E-03 0. -1.
         22    1    1    0    0    0  0.14862600412E+02  0.25349952350E+02  0.69293780232E+01  0.30191609015E+02  0.00000000000E+00 0.  1.
</event>
<event>
 5    1  0.1692171E-003  0.9118800E+02  0.7818608E-02  0.1130116E+00
         25   -1    0    0    0    0  0.00000000000E+00  0.00000000000E+00  0.99999998245E-14  0.12500000000E+03  0.12500000000E+03 0.  0.
        -11    1    3    3    0    0 -0.50110040233E+02  0.38083672537E+01  0.21112261527E+02  0.54509149510E+02  0.51100000000E-03 0.  1.
         23    2    1    0    0    0 -0.21225948982E+02  0.21482369409E+02 -0.70598658613E+00  0.94791863303E+02  0.89849684617E+02 0.  0.
         11    1    3    3    0    0  0.28884091251E+02  0.17674002156E+02 -0.21818248113E+02  0.40282713793E+02  0.51100000000E-03 0. -1.
         22    1    1    0    0    0  0.21225948982E+02 -0.21482369409E+02  0.70598658613E+00  0.30208136697E+02  0.00000000000E+00 0.  1.
</event>
<event>
 5    1  0.1692171E-003  0.9118800E+02  0.7818608E-02  0.1130116E+00
         25   -1    0    0    0    0  0.00000000000E+00  0.00000000000E+00  0.99999998245E-14  0.12500000000E+03  0.12500000000E+03 0.  0.
        -11    1    3    3    0    0 -0.16071775166E+02  0.23494032668E+02 -0.35650563067E+02  0.45620545539E+02  0.51100000000E-03 0.  1.
         23    2    1    0    0    0 -0.21377245262E+02 -0.17969446026E+02 -0.72805711938E+01  0.96140091435E+02  0.91706176775E+02 0.  0.
         11    1    3    3    0    0 -0.53054700964E+01 -0.41463478694E+02  0.28369991873E+02  0.50519545896E+02  0.51100000000E-03 0. -1.
         22    1    1    0    0    0  0.21377245262E+02  0.17969446026E+02  0.72805711938E+01  0.28859908565E+02  0.00000000000E+00 0.  1.
</event>
<event>
 5    1  0.1692171E-003  0.9118800E+02  0.7818608E-02  0.1130116E+00
         25   -1    0    0    0    0  0.00000000000E+00  0.00000000000E+00  0.99999998245E-14  0.12500000000E+03  0.12500000000E+03 0.  0.
        -11    1    3    3    0    0 -0.37409962521E+02  0.46514950452E+00 -0.21391779942E+02  0.43096750565E+02  0.51100000000E-03 0.  1.
         23    2    1    0    0    0 -0.14847501152E+02  0.21107759725E+02  0.18416994173E+02  0.93295560477E+02  0.87743319514E+02 0.  0.
         11    1    3    3    0    0  0.22562461369E+02  0.20642610221E+02  0.39808774116E+02  0.50198809912E+02  0.51100000000E-03 0. -1.
         22    1    1    0    0    0  0.14847501152E+02 -0.21107759725E+02 -0.18416994173E+02  0.31704439523E+02  0.00000000000E+00 0. -1.
</event>
<event>
 5    1  0.1692171E-003  0.9118800E+02  0.7818608E-02  0.1130116E+00
         25   -1    0    0    0    0  0.00000000000E+00  0.00000000000E+00  0.99999998245E-14  0.12500000000E+03  0.12500000000E+03 0.  0.
        -11    1    3    3    0    0 -0.38343740965E+02  0.22299619326E+02 -0.23701461374E+02  0.50291895618E+02  0.51100000000E-03 0. -1.
         23    2    1    0    0    0 -0.10537237378E+02  0.23278450098E+02  0.12986355865E+02  0.96337043956E+02  0.91974240899E+02 0.  0.
         11    1    3    3    0    0  0.27806503587E+02  0.97883077283E+00  0.36687817239E+02  0.46045148338E+02  0.51100000000E-03 0.  1.
         22    1    1    0    0    0  0.10537237378E+02 -0.23278450098E+02 -0.12986355865E+02  0.28662956044E+02  0.00000000000E+00 0. -1.
</event>
<event>
 5    1  0.1692171E-003  0.9118800E+02  0.7818608E-02  0.1130116E+00
         25   -1    0    0    0    0  0.00000000000E+00  0.00000000000E+00  0.99999998245E-14  0.12500000000E+03  0.12500000000E+03 0.  0.
        -11    1    3    3    0    0  0.52433100578E+02 -0.28187623780E+02 -0.12364006881E+02  0.60800006883E+02  0.51100000000E-03 0. -1.
         23    2    1    0    0    0  0.20812408358E+02 -0.13526431626E+02 -0.15404557458E+02  0.95786628324E+02  0.91223117032E+02 0.  0.
         11    1    3    3    0    0 -0.31620692220E+02  0.14661192154E+02 -0.30405505769E+01  0.34986621442E+02  0.51100000000E-03 0.  1.
         22    1    1    0    0    0 -0.20812408358E+02  0.13526431626E+02  0.15404557458E+02  0.29213371676E+02  0.00000000000E+00 0. -1.
</event>
<event>
 5    1  0.1692171E-003  0.9118800E+02  0.7818608E-02  0.1130116E+00
         25   -1    0    0    0    0  0.00000000000E+00  0.00000000000E+00  0.99999998245E-14  0.12500000000E+03  0.12500000000E+03 0.  0.
        -11    1    3    3    0    0  0.21473527106E+02  0.28655300125E+02 -0.11272352656E+01  0.35826097349E+02  0.51100000000E-03 0. -1.
         23    2    1    0    0    0 -0.23766656898E+02 -0.10693174780E+02  0.10502966916E+02  0.96901774415E+02  0.92738576675E+02 0.  0.
         11    1    3    3    0    0 -0.45240184004E+02 -0.39348474905E+02  0.11630202182E+02  0.61075677066E+02  0.51100000000E-03 0.  1.
         22    1    1    0    0    0  0.23766656898E+02  0.10693174780E+02 -0.10502966916E+02  0.28098225585E+02  0.00000000000E+00 0.  1.
</event>
<event>
 5    1  0.1692171E-003  0.9118800E+02  0.7818608E-02  0.1130116E+00
         25   -1    0    0    0    0  0.00000000000E+00  0.00000000000E+00  0.99999998245E-14  0.12500000000E+03  0.12500000000E+03 0.  0.
        -11    1    3    3    0    0 -0.30685955944E+02  0.30982611110E+02  0.31704623268E+02  0.53914128206E+02  0.51100000000E-03 0.  1.
         23    2    1    0    0    0  0.55134341201E+01  0.11497314448E+02  0.26806534447E+02  0.95315383035E+02  0.90575083542E+02 0.  0.
         11    1    3    3    0    0  0.36199390064E+02 -0.19485296662E+02 -0.48980888203E+01  0.41401254829E+02  0.51100000000E-03 0. -1.
         22    1    1    0    0    0 -0.55134341201E+01 -0.11497314448E+02 -0.26806534447E+02  0.29684616965E+02  0.00000000000E+00 0.  1.
</event>
<event>
 5    1  0.1692171E-003  0.9118800E+02  0.7818608E-02  0.1130116E+00
         25   -1    0    0    0    0  0.00000000000E+00  0.00000000000E+00  0.99999998245E-14  0.12500000000E+03  0.12500000000E+03 0.  0.
        -11    1    3    3    0    0  0.17954440674E+02 -0.50725391880E+02 -0.21284582913E+02  0.57865886249E+02  0.51100000000E-03 0.  1.
         23    2    1    0    0    0  0.77503629435E+01 -0.14665781276E+02 -0.24427247477E+02  0.95473000736E+02  0.90792346506E+02 0.  0.
         11    1    3    3    0    0 -0.10204077731E+02  0.36059610604E+02 -0.31426645637E+01  0.37607114487E+02  0.51100000000E-03 0. -1.
         22    1    1    0    0    0 -0.77503629435E+01  0.14665781276E+02  0.24427247477E+02  0.29526999264E+02  0.00000000000E+00 0.  1.
</event>
<event>
 5    1  0.1692171E-003  0.9118800E+02  0.7818608E-02  0.1130116E+00
         25   -1    0    0    0    0  0.00000000000E+00  0.00000000000E+00  0.99999998245E-14  0.12500000000E+03  0.12500000000E+03 0.  0.
        -11    1    3    3    0    0 -0.34767602439E+01 -0.20516708893E+02 -0.34826372372E+02  0.40569685954E+02  0.51100000000E-03 0.  1.
         23    2    1    0    0    0 -0.15998359420E+02  0.24049738726E+02 -0.48741263999E+01  0.95706749155E+02  0.91113595520E+02 0.  0.
         11    1    3    3    0    0 -0.12521599176E+02  0.44566447620E+02  0.29952245972E+02  0.55137063200E+02  0.51100000000E-03 0. -1.
         22    1    1    0    0    0  0.15998359420E+02 -0.24049738726E+02  0.48741263999E+01  0.29293250845E+02  0.00000000000E+00 0. -1.
</event>
<event>
 5    1  0.1692171E-003  0.9118800E+02  0.7818608E-02  0.1130116E+00
         25   -1    0    0    0    0  0.00000000000E+00  0.00000000000E+00  0.99999998245E-14  0.12500000000E+03  0.12500000000E+03 0.  0.
        -11    1    3    3    0    0 -0.38660902410E+02 -0.90183141533E+00  0.38984129597E+01  0.38867419504E+02  0.51100000000E-03 0. -1.
         23    2    1    0    0    0  0.40375973421E+01 -0.66340103574E+01 -0.30204482562E+02  0.93813094854E+02  0.88477532253E+02 0.  0.
         11    1    3    3    0    0  0.42698499752E+02 -0.57321789421E+01 -0.34102895522E+02  0.54945675350E+02  0.51100000000E-03 0.  1.
         22    1    1    0    0    0 -0.40375973421E+01  0.66340103574E+01  0.30204482562E+02  0.31186905146E+02  0.00000000000E+00 0.  1.
</event>
<event>
 5    1  0.1692171E-003  0.9118800E+02  0.7818608E-02  0.1130116E+00
         25   -1    0    0    0    0  0.00000000000E+00  0.00000000000E+00  0.99999998245E-14  0.12500000000E+03  0.12500000000E+03 0.  0.
        -11    1    3    3    0    0 -0.11738486836E+02 -0.65940878112E+01  0.57995180923E+02  0.59537509839E+02  0.51100000000E-03 0. -1.
         23    2    1    0    0    0  0.79256660159E+01 -0.49831381896E+01  0.28316808467E+02  0.95175689618E+02  0.90382091171E+02 0.  0.
         11    1    3    3    0    0  0.19664152852E+02  0.16109496217E+01 -0.29678372456E+02  0.35638179779E+02  0.51100000000E-03 0.  1.
         22    1    1    0    0    0 -0.79256660159E+01  0.49831381896E+01 -0.28316808467E+02  0.29824310382E+02  0.00000000000E+00 0.  1.
</event>
<event>
 5    1  0.1692171E-003  0.9118800E+02  0.7818608E-02  0.1130116E+00
         25   -1    0    0    0    0  0.00000000000E+00  0.00000000000E+00  0.99999998245E-14  0.12500000000E+03  0.12500000000E+03 0.  0.
        -11    1    3    3    0    0 -0.40217416252E+02 -0.32355584788E+02  0.28725238324E+02  0.59071683182E+02  0.51100000000E-03 0.  1.
         23    2    1    0    0    0 -0.12776383236E+02 -0.25512187064E+02  0.49030693004E+01  0.96049218561E+02  0.91582228845E+02 0.  0.
         11    1    3    3    0    0  0.27441033017E+02  0.68433977235E+01 -0.23822169024E+02  0.36977535379E+02  0.51100000000E-03 0. -1.
         22    1    1    0    0    0  0.12776383236E+02  0.25512187064E+02 -0.49030693004E+01  0.28950781439E+02  0.00000000000E+00 0.  1.
</event>
<event>
 5    1  0.1692171E-003  0.9118800E+02  0.7818608E-02  0.1130116E+00
         25   -1    0    0    0    0  0.00000000000E+00  0.00000000000E+00  0.99999998245E-14  0.12500000000E+03  0.12500000000E+03 0.  0.
        -11    1    3    3    0    0 -0.33230720428E+02 -0.14082520384E+02  0.42863027425E+02  0.56034250962E+02  0.51100000000E-03 0.  1.
         23    2    1    0    0    0 -0.54819988609E+01  0.84087988994E+01  0.28935945088E+02  0.94372412295E+02  0.89264231772E+02 0.  0.
         11    1    3    3    0    0  0.27748721568E+02  0.22491319284E+02 -0.13927082337E+02  0.38338161333E+02  0.51100000000E-03 0. -1.
         22    1    1    0    0    0  0.54819988609E+01 -0.84087988994E+01 -0.28935945088E+02  0.30627587705E+02  0.00000000000E+00 0.  1.
</event>
<event>
 5    1  0.1692171E-003  0.9118800E+02  0.7818608E-02  0.1130116E+00
         25   -1    0    0    0    0  0.00000000000E+00  0.00000000000E+00  0.99999998245E-14  0.12500000000E+03  0.12500000000E+03 0.  0.
        -11    1    3    3    0    0  0.25168744235E+02  0.17301041220E+02  0.18774469258E+02  0.35850696085E+02  0.51100000000E-03 0. -1.
         23    2    1    0    0    0 -0.25003526559E+02  0.63930819516E+01 -0.12867665922E+02  0.96162096757E+02  0.91736166200E+02 0.  0.
         11    1    3    3    0    0 -0.50172270793E+02 -0.10907959268E+02 -0.31642135180E+02  0.60311400671E+02  0.51100000000E-03 0.  1.
         22    1    1    0    0    0  0.25003526559E+02 -0.63930819516E+01  0.12867665922E+02  0.28837903243E+02  0.00000000000E+00 0.  1.
</event>
<event>
 5    1  0.1692171E-003  0.9118800E+02  0.7818608E-02  0.1130116E+00
         25   -1    0    0    0    0  0.00000000000E+00  0.00000000000E+00  0.99999998245E-14  0.12500000000E+03  0.12500000000E+03 0.  0.
        -11    1    3    3    0    0  0.66614737219E+01  0.45309175385E+01 -0.41183427767E+02  0.41964022314E+02  0.51100000000E-03 0.  1.
         23    2    1    0    0    0 -0.12968511305E+02 -0.26182877327E+02 -0.16535809845E+01  0.95734667597E+02  0.91151889170E+02 0.  0.
         11    1    3    3    0    0 -0.19629985027E+02 -0.30713794866E+02  0.39529846782E+02  0.53770645283E+02  0.51100000000E-03 0. -1.
         22    1    1    0    0    0  0.12968511305E+02  0.26182877327E+02  0.16535809845E+01  0.29265332403E+02  0.00000000000E+00 0. -1.
</event>
<event>
 5    1  0.1692171E-003  0.9118800E+02  0.7818608E-02  0.1130116E+00
         25   -1    0    0    0    0  0.00000000000E+00  0.00000000000E+00  0.99999998245E-14  0.12500000000E+03  0.12500000000E+03 0.  0.
        -11    1    3    3    0    0 -0.30148820685E+02  0.95907769549E+01 -0.19495521224E+02  0.37161939392E+02  0.51100000000E-03 0.  1.
         23    2    1    0    0    0  0.14166820629E+02 -0.15902964701E+02  0.15099842223E+02  0.98892370307E+02  0.95383922004E+02 0.  0.
         11    1    3    3    0    0  0.44315641314E+02 -0.25493741656E+02  0.34595363447E+02  0.61730430915E+02  0.51100000000E-03 0. -1.
         22    1    1    0    0    0 -0.14166820629E+02  0.15902964701E+02 -0.15099842223E+02  0.26107629693E+02  0.00000000000E+00 0. -1.
</event>
<event>
 5    1  0.1692171E-003  0.9118800E+02  0.7818608E-02  0.1130116E+00
         25   -1    0    0    0    0  0.00000000000E+00  0.00000000000E+00  0.99999998245E-14  0.12500000000E+03  0.12500000000E+03 0.  0.
        -11    1    3    3    0    0 -0.70970122753E+00 -0.30406275459E+02  0.12347888668E+02  0.32825533019E+02  0.51100000000E-03 0. -1.
         23    2    1    0    0    0 -0.40079020576E+01  0.23369897239E+02 -0.18515057294E+02  0.94916404429E+02  0.90022781046E+02 0.  0.
         11    1    3    3    0    0 -0.32982008301E+01  0.53776172698E+02 -0.30862945963E+02  0.62090871411E+02  0.51100000000E-03 0.  1.
         22    1    1    0    0    0  0.40079020576E+01 -0.23369897239E+02  0.18515057294E+02  0.30083595571E+02  0.00000000000E+00 0.  1.
</event>
<event>
 5    1  0.1692171E-003  0.9118800E+02  0.7818608E-02  0.1130116E+00
         25   -1    0    0    0    0  0.00000000000E+00  0.00000000000E+00  0.99999998245E-14  0.12500000000E+03  0.12500000000E+03 0.  0.
        -11    1    3    3    0    0  0.63243968317E+01 -0.26380837272E+02  0.33747254003E+02  0.43299234675E+02  0.51100000000E-03 0.  1.
         23    2    1    0    0    0  0.23012416143E+02  0.16432529817E+02  0.10137728975E+02  0.94960478005E+02  0.90083958068E+02 0.  0.
         11    1    3    3    0    0  0.16688019312E+02  0.42813367089E+02 -0.23609525028E+02  0.51661243330E+02  0.51100000000E-03 0. -1.
         22    1    1    0    0    0 -0.23012416143E+02 -0.16432529817E+02 -0.10137728975E+02  0.30039521995E+02  0.00000000000E+00 0. -1.
</event>
<event>
 5    1  0.1692171E-003  0.9118800E+02  0.7818608E-02  0.1130116E+00
         25   -1    0    0    0    0  0.00000000000E+00  0.00000000000E+00  0.99999998245E-14  0.12500000000E+03  0.12500000000E+03 0.  0.
        -11    1    3    3    0    0 -0.61409516214E+02 -0.11798153248E+01  0.95987610687E+01  0.62166364380E+02  0.51100000000E-03 0. -1.
         23    2    1    0    0    0 -0.30067347327E+02 -0.33708267332E+01  0.10552900648E+01  0.94725894145E+02  0.89757860582E+02 0.  0.
         11    1    3    3    0    0  0.31342168887E+02 -0.21910114084E+01 -0.85434710039E+01  0.32559529766E+02  0.51100000000E-03 0.  1.
         22    1    1    0    0    0  0.30067347327E+02  0.33708267332E+01 -0.10552900648E+01  0.30274105855E+02  0.00000000000E+00 0. -1.
</event>
<event>
 5    1  0.1692171E-003  0.9118800E+02  0.7818608E-02  0.1130116E+00
         25   -1    0    0    0    0  0.00000000000E+00  0.00000000000E+00  0.99999998245E-14  0.12500000000E+03  0.12500000000E+03 0.  0.
        -11    1    3    3    0    0  0.21553114716E+02 -0.40042641274E+02  0.71310220096E+01  0.46030439378E+02  0.51100000000E-03 0. -1.
         23    2    1    0    0    0  0.61656500941E+01  0.21281641172E+01  0.28511144153E+02  0.95752270780E+02  0.91176025879E+02 0.  0.
         11    1    3    3    0    0 -0.15387464622E+02  0.42170805392E+02  0.21380122143E+02  0.49721831402E+02  0.51100000000E-03 0.  1.
         22    1    1    0    0    0 -0.61656500941E+01 -0.21281641172E+01 -0.28511144153E+02  0.29247729220E+02  0.00000000000E+00 0. -1.
</event>
<event>
 5    1  0.1692171E-003  0.9118800E+02  0.7818608E-02  0.1130116E+00
         25   -1    0    0    0    0  0.00000000000E+00  0.00000000000E+00  0.99999998245E-14  0.12500000000E+03  0.12500000000E+03 0.  0.
        -11    1    3    3    0    0 -0.21542922404E+02 -0.26163914044E+02 -0.79616669260E+01  0.34814308040E+02  0.51100000000E-03 0.  1.
         23    2    1    0    0    0  0.25825878484E+02  0.12417790415E+02 -0.72235436971E+00  0.96334701919E+02  0.91971057838E+02 0.  0.
         11    1    3    3    0    0  0.47368800888E+02  0.38581704459E+02  0.72393125562E+01  0.61520393879E+02  0.51100000000E-03 0. -1.
         22    1    1    0    0    0 -0.25825878484E+02 -0.12417790415E+02  0.72235436971E+00  0.28665298081E+02  0.00000000000E+00 0. -1.
</event>
<event>
 5    1  0.1692171E-003  0.9118800E+02  0.7818608E-02  0.1130116E+00
         25   -1    0    0    0    0  0.00000000000E+00  0.00000000000E+00  0.99999998245E-14  0.12500000000E+03  0.12500000000E+03 0.  0.
        -11    1    3    3    0    0  0.53760032197E+01 -0.51784437766E+02  0.30250869561E+01  0.52150556629E+02  0.51100000000E-03 0.  1.
         23    2    1    0    0    0 -0.21064160391E+02 -0.16083365435E+02  0.90763331670E+01  0.96986551079E+02  0.92852774702E+02 0.  0.
         11    1    3    3    0    0 -0.26440163610E+02  0.35701072331E+02  0.60512462109E+01  0.44835994450E+02  0.51100000000E-03 0. -1.
         22    1    1    0    0    0  0.21064160391E+02  0.16083365435E+02 -0.90763331670E+01  0.28013448921E+02  0.00000000000E+00 0.  1.
</event>
<event>
 5    1  0.1692171E-003  0.9118800E+02  0.7818608E-02  0.1130116E+00
         25   -1    0    0    0    0  0.00000000000E+00  0.00000000000E+00  0.99999998245E-14  0.12500000000E+03  0.12500000000E+03 0.  0.
        -11    1    3    3    0    0 -0.59750031712E+02 -0.16423833066E+02  0.20490967472E+01  0.62000059515E+02  0.51100000000E-03 0.  1.
         23    2    1    0    0    0 -0.26654826984E+02 -0.85515921340E+01  0.63682322784E+01  0.96291744882E+02  0.91912655388E+02 0.  0.
         11    1    3    3    0    0  0.33095204728E+02  0.78722409315E+01  0.43191355313E+01  0.34291685367E+02  0.51100000000E-03 0. -1.
         22    1    1    0    0    0  0.26654826984E+02  0.85515921340E+01 -0.63682322784E+01  0.28708255118E+02  0.00000000000E+00 0.  1.
</event>
<event>
 5    1  0.1692171E-003  0.9118800E+02  0.7818608E-02  0.1130116E+00
         25   -1    0    0    0    0  0.00000000000E+00  0.00000000000E+00  0.99999998245E-14  0.12500000000E+03  0.12500000000E+03 0.  0.
        -11    1    3    3    0    0  0.39415170343E+02  0.10164160097E+02  0.29728182503E+00  0.40705702062E+02  0.51100000000E-03 0.  1.
         23    2    1    0    0    0 -0.39156381618E+01  0.24267422149E+02 -0.22515664091E+02  0.91665406415E+02  0.85389411544E+02 0.  0.
         11    1    3    3    0    0 -0.43330808504E+02  0.14103262052E+02 -0.22812945916E+02  0.50959704353E+02  0.51100000000E-03 0. -1.
         22    1    1    0    0    0  0.39156381618E+01 -0.24267422149E+02  0.22515664091E+02  0.33334593585E+02  0.00000000000E+00 0.  1.
</event>
<event>
 5    1  0.1692171E-003  0.9118800E+02  0.7818608E-02  0.1130116E+00
         25   -1    0    0    0    0  0.00000000000E+00  0.00000000000E+00  0.99999998245E-14  0.12500000000E+03  0.12500000000E+03 0.  0.
        -11    1    3    3    0    0  0.48447139200E+01  0.41602029165E+02  0.34006721716E+02  0.53950507002E+02  0.51100000000E-03 0. -1.
         23    2    1    0    0    0  0.14080967231E+02  0.26172433308E+02 -0.30339868304E+01  0.95125680267E+02  0.90312900888E+02 0.  0.
         11    1    3    3    0    0  0.92362533111E+01 -0.15429595857E+02 -0.37040708546E+02  0.41175173265E+02  0.51100000000E-03 0.  1.
         22    1    1    0    0    0 -0.14080967231E+02 -0.26172433308E+02  0.30339868304E+01  0.29874319733E+02  0.00000000000E+00 0.  1.
</event>
<event>
 5    1  0.1692171E-003  0.9118800E+02  0.7818608E-02  0.1130116E+00
         25   -1    0    0    0    0  0.00000000000E+00  0.00000000000E+00  0.99999998245E-14  0.12500000000E+03  0.12500000000E+03 0.  0.
        -11    1    3    3    0    0  0.31374449508E+02  0.14468551903E+00  0.48462019715E+02  0.57731658307E+02  0.51100000000E-03 0.  1.
         23    2    1    0    0    0  0.21441909335E+02  0.13880272298E+02  0.14650339745E+02  0.95554289113E+02  0.90904192853E+02 0.  0.
         11    1    3    3    0    0 -0.99325401733E+01  0.13735586779E+02 -0.33811679969E+02  0.37822630806E+02  0.51100000000E-03 0. -1.
         22    1    1    0    0    0 -0.21441909335E+02 -0.13880272298E+02 -0.14650339745E+02  0.29445710887E+02  0.00000000000E+00 0.  1.
</event>
<event>
 5    1  0.1692171E-003  0.9118800E+02  0.7818608E-02  0.1130116E+00
         25   -1    0    0    0    0  0.00000000000E+00  0.00000000000E+00  0.99999998245E-14  0.12500000000E+03  0.12500000000E+03 0.  0.
        -11    1    3    3    0    0  0.35274790688E+02 -0.24083389665E+02  0.36868529890E+02  0.56423479265E+02  0.51100000000E-03 0. -1.
         23    2    1    0    0    0  0.27744844390E+02 -0.83211660984E+01  0.13529004928E+01  0.96002611579E+02  0.91518593164E+02 0.  0.
         11    1    3    3    0    0 -0.75299462975E+01  0.15762223567E+02 -0.35515629397E+02  0.39579132314E+02  0.51100000000E-03 0.  1.
         22    1    1    0    0    0 -0.27744844390E+02  0.83211660984E+01 -0.13529004928E+01  0.28997388421E+02  0.00000000000E+00 0. -1.
</event>
<event>
 5    1  0.1692171E-003  0.9118800E+02  0.7818608E-02  0.1130116E+00
         25   -1    0    0    0    0  0.00000000000E+00  0.00000000000E+00  0.99999998245E-14  0.12500000000E+03  0.12500000000E+03 0.  0.
        -11    1    3    3    0    0  0.98086087851E+01  0.24968310157E+02  0.51886701918E+02  0.58411087600E+02  0.51100000000E-03 0.  1.
         23    2    1    0    0    0  0.10389768905E+02  0.23934808926E+02  0.15843131080E+02  0.94474155563E+02  0.89406593105E+02 0.  0.
         11    1    3    3    0    0  0.58116011943E+00 -0.10335012314E+01 -0.36043570838E+02  0.36063067963E+02  0.51100000000E-03 0. -1.
         22    1    1    0    0    0 -0.10389768905E+02 -0.23934808926E+02 -0.15843131080E+02  0.30525844437E+02  0.00000000000E+00 0.  1.
</event>
<event>
 5    1  0.1692171E-003  0.9118800E+02  0.7818608E-02  0.1130116E+00
         25   -1    0    0    0    0  0.00000000000E+00  0.00000000000E+00  0.99999998245E-14  0.12500000000E+03  0.12500000000E+03 0.  0.
        -11    1    3    3    0    0  0.15704206949E+02  0.16509591766E+02 -0.19007314293E+02  0.29672659690E+02  0.51100000000E-03 0.  1.
         23    2    1    0    0    0 -0.48550664760E+01 -0.58808639693E+01  0.33662293049E+02  0.90484696078E+02  0.83643134921E+02 0.  0.
         11    1    3    3    0    0 -0.20559273425E+02 -0.22390455735E+02  0.52669607342E+02  0.60812036388E+02  0.51100000000E-03 0. -1.
         22    1    1    0    0    0  0.48550664760E+01  0.58808639693E+01 -0.33662293049E+02  0.34515303922E+02  0.00000000000E+00 0. -1.
</event>
<event>
 5    1  0.1692171E-003  0.9118800E+02  0.7818608E-02  0.1130116E+00
         25   -1    0    0    0    0  0.00000000000E+00  0.00000000000E+00  0.99999998245E-14  0.12500000000E+03  0.12500000000E+03 0.  0.
        -11    1    3    3    0    0 -0.24417460637E+02  0.30314526955E+02  0.72045074967E+01  0.39586460526E+02  0.51100000000E-03 0. -1.
         23    2    1    0    0    0  0.13852741475E+02 -0.74964192819E+01  0.24305111083E+02  0.96037383178E+02  0.91566073381E+02 0.  0.
         11    1    3    3    0    0  0.38270202112E+02 -0.37810946237E+02  0.17100603586E+02  0.56450922652E+02  0.51100000000E-03 0.  1.
         22    1    1    0    0    0 -0.13852741475E+02  0.74964192819E+01 -0.24305111083E+02  0.28962616822E+02  0.00000000000E+00 0.  1.
</event>
<event>
 5    1  0.1692171E-003  0.9118800E+02  0.7818608E-02  0.1130116E+00
         25   -1    0    0    0    0  0.00000000000E+00  0.00000000000E+00  0.99999998245E-14  0.12500000000E+03  0.12500000000E+03 0.  0.
        -11    1    3    3    0    0 -0.16940875707E+02 -0.47716156638E+02 -0.32171402420E+02  0.59990199266E+02  0.51100000000E-03 0. -1.
         23    2    1    0    0    0 -0.17910356317E+02 -0.22715040749E+02 -0.75250698722E+01  0.95110526666E+02  0.90291924702E+02 0.  0.
         11    1    3    3    0    0 -0.96948061014E+00  0.25001115890E+02  0.24646332547E+02  0.35120327400E+02  0.51100000000E-03 0.  1.
         22    1    1    0    0    0  0.17910356317E+02  0.22715040749E+02  0.75250698722E+01  0.29889473334E+02  0.00000000000E+00 0. -1.
</event>
<event>
 5    1  0.1692171E-003  0.9118800E+02  0.7818608E-02  0.1130116E+00
         25   -1    0    0    0    0  0.00000000000E+00  0.00000000000E+00  0.99999998245E-14  0.12500000000E+03  0.12500000000E+03 0.  0.
        -11    1    3    3    0    0  0.94600382713E+01  0.32198167455E+02  0.14265521281E+01  0.33589423377E+02  0.51100000000E-03 0. -1.
         23    2    1    0    0    0 -0.36220214336E+02  0.59556860678E+01  0.99799508409E+01  0.86960894571E+02  0.78199895414E+02 0.  0.
         11    1    3    3    0    0 -0.45680252607E+02 -0.26242481387E+02  0.85533987128E+01  0.53371471194E+02  0.51100000000E-03 0.  1.
         22    1    1    0    0    0  0.36220214336E+02 -0.59556860678E+01 -0.99799508409E+01  0.38039105429E+02  0.00000000000E+00 0.  1.
</event>
<event>
 5    1  0.1692171E-003  0.9118800E+02  0.7818608E-02  0.1130116E+00
         25   -1    0    0    0    0  0.00000000000E+00  0.00000000000E+00  0.99999998245E-14  0.12500000000E+03  0.12500000000E+03 0.  0.
        -11    1    3    3    0    0  0.32844313836E+02  0.24624061433E+00  0.17933971449E+02  0.37422411974E+02  0.51100000000E-03 0.  1.
         23    2    1    0    0    0 -0.14712311998E+02  0.26521334430E+02 -0.10473974789E+00  0.94671065388E+02  0.89681471592E+02 0.  0.
         11    1    3    3    0    0 -0.47556625834E+02  0.26275093816E+02 -0.18038711196E+02  0.57248653414E+02  0.51100000000E-03 0. -1.
         22    1    1    0    0    0  0.14712311998E+02 -0.26521334430E+02  0.10473974789E+00  0.30328934612E+02  0.00000000000E+00 0. -1.
</event>
<event>
 5    1  0.1692171E-003  0.9118800E+02  0.7818608E-02  0.1130116E+00
         25   -1    0    0    0    0  0.00000000000E+00  0.00000000000E+00  0.99999998245E-14  0.12500000000E+03  0.12500000000E+03 0.  0.
        -11    1    3    3    0    0 -0.48664323009E+02  0.87229561972E+01 -0.35615543144E+02  0.60932530002E+02  0.51100000000E-03 0.  1.
         23    2    1    0    0    0 -0.25076515253E+02 -0.40982611161E+01 -0.11161411485E+02  0.97247442141E+02  0.93203328992E+02 0.  0.
         11    1    3    3    0    0  0.23587807756E+02 -0.12821217313E+02  0.24454131660E+02  0.36314912139E+02  0.51100000000E-03 0. -1.
         22    1    1    0    0    0  0.25076515253E+02  0.40982611161E+01  0.11161411485E+02  0.27752557859E+02  0.00000000000E+00 0.  1.
</event>
<event>
 5    1  0.1692171E-003  0.9118800E+02  0.7818608E-02  0.1130116E+00
         25   -1    0    0    0    0  0.00000000000E+00  0.00000000000E+00  0.99999998245E-14  0.12500000000E+03  0.12500000000E+03 0.  0.
        -11    1    3    3    0    0 -0.28766968066E+02 -0.41024768773E+02  0.93645024558E+01  0.50973169522E+02  0.51100000000E-03 0.  1.
         23    2    1    0    0    0  0.72204938972E+01 -0.15847686815E+02  0.22250388362E+02  0.96744655518E+02  0.92526557698E+02 0.  0.
         11    1    3    3    0    0  0.35987461963E+02  0.25177081958E+02  0.12885885907E+02  0.45771485996E+02  0.51100000000E-03 0. -1.
         22    1    1    0    0    0 -0.72204938972E+01  0.15847686815E+02 -0.22250388362E+02  0.28255344482E+02  0.00000000000E+00 0.  1.
</event>
<event>
 5    1  0.1692171E-003  0.9118800E+02  0.7818608E-02  0.1130116E+00
         25   -1    0    0    0    0  0.00000000000E+00  0.00000000000E+00  0.99999998245E-14  0.12500000000E+03  0.12500000000E+03 0.  0.
        -11    1    3    3    0    0  0.16991554151E+02 -0.28993638288E+02 -0.34916682805E+02  0.48461517847E+02  0.51100000000E-03 0.  1.
         23    2    1    0    0    0 -0.14416876339E+02 -0.25185493291E+02  0.53131687126E+00  0.95975222769E+02  0.91481176710E+02 0.  0.
         11    1    3    3    0    0 -0.31408430489E+02  0.38081449969E+01  0.35447999677E+02  0.47513704922E+02  0.51100000000E-03 0. -1.
         22    1    1    0    0    0  0.14416876339E+02  0.25185493291E+02 -0.53131687126E+00  0.29024777231E+02  0.00000000000E+00 0.  1.
</event>
<event>
 5    1  0.1692171E-003  0.9118800E+02  0.7818608E-02  0.1130116E+00
         25   -1    0    0    0    0  0.00000000000E+00  0.00000000000E+00  0.99999998245E-14  0.12500000000E+03  0.12500000000E+03 0.  0.
        -11    1    3    3    0    0  0.32784779091E+02 -0.12812627236E+02 -0.19544826132E+02  0.40261711160E+02  0.51100000000E-03 0. -1.
         23    2    1    0    0    0  0.83768837394E+01  0.26498589685E+02  0.10342428968E+02  0.95346783085E+02  0.90618407463E+02 0.  0.
         11    1    3    3    0    0 -0.24407895352E+02  0.39311216921E+02  0.29887255100E+02  0.55085071925E+02  0.51100000000E-03 0.  1.
         22    1    1    0    0    0 -0.83768837394E+01 -0.26498589685E+02 -0.10342428968E+02  0.29653216915E+02  0.00000000000E+00 0.  1.
</event>
<event>
 5    1  0.1692171E-003  0.9118800E+02  0.7818608E-02  0.1130116E+00
         25   -1    0    0    0    0  0.00000000000E+00  0.00000000000E+00  0.99999998245E-14  0.12500000000E+03  0.12500000000E+03 0.  0.
        -11    1    3    3    0    0  0.33840320529E+02 -0.27944405340E+02  0.38406287932E+02  0.58318950919E+02  0.51100000000E-03 0.  1.
         23    2    1    0    0    0  0.16307554822E+02 -0.23286501386E+02  0.52832160189E+01  0.96084435634E+02  0.91630283796E+02 0.  0.
         11    1    3    3    0    0 -0.17532765707E+02  0.46579039540E+01 -0.33123071913E+02  0.37765484715E+02  0.51100000000E-03 0. -1.
         22    1    1    0    0    0 -0.16307554822E+02  0.23286501386E+02 -0.52832160189E+01  0.28915564366E+02  0.00000000000E+00 0.  1.
</event>
<event>
 5    1  0.1692171E-003  0.9118800E+02  0.7818608E-02  0.1130116E+00
         25   -1    0    0    0    0  0.00000000000E+00  0.00000000000E+00  0.99999998245E-14  0.12500000000E+03  0.12500000000E+03 0.  0.
        -11    1    3    3    0    0  0.19513191549E+01 -0.28961444852E+02  0.14373683827E+02  0.32390982100E+02  0.51100000000E-03 0.  1.
         23    2    1    0    0    0 -0.19098935307E+02  0.18567650501E+02 -0.17277033618E+02  0.93250624170E+02  0.87679279437E+02 0.  0.
         11    1    3    3    0    0 -0.21050254461E+02  0.47529095353E+02 -0.31650717445E+02  0.60859642071E+02  0.51100000000E-03 0. -1.
         22    1    1    0    0    0  0.19098935307E+02 -0.18567650501E+02  0.17277033618E+02  0.31749375830E+02  0.00000000000E+00 0. -1.
</event>
<event>
 5    1  0.1692171E-003  0.9118800E+02  0.7818608E-02  0.1130116E+00
         25   -1    0    0    0    0  0.00000000000E+00  0.00000000000E+00  0.99999998245E-14  0.12500000000E+03  0.12500000000E+03 0.  0.
        -11    1    3    3    0    0  0.20115928196E+02 -0.27258711735E+02 -0.24751417078E+02  0.41956174519E+02  0.51100000000E-03 0. -1.
         23    2    1    0    0    0  0.24007506366E+02  0.15721556876E+02  0.69121156326E+01  0.95482123128E+02  0.90804905054E+02 0.  0.
         11    1    3    3    0    0  0.38915781706E+01  0.42980268611E+02  0.31663532710E+02  0.53525948609E+02  0.51100000000E-03 0.  1.
         22    1    1    0    0    0 -0.24007506366E+02 -0.15721556876E+02 -0.69121156326E+01  0.29517876872E+02  0.00000000000E+00 0.  1.
</event>
<event>
 5    1  0.1692171E-003  0.9118800E+02  0.7818608E-02  0.1130116E+00
         25   -1    0    0    0    0  0.00000000000E+00  0.00000000000E+00  0.99999998245E-14  0.12500000000E+03  0.12500000000E+03 0.  0.
        -11    1    3    3    0    0 -0.26690811005E+02 -0.52464601683E+02  0.15507954288E+02  0.60872247111E+02  0.51100000000E-03 0. -1.
         23    2    1    0    0    0 -0.58695705250E+01 -0.25815745377E+02  0.14738399276E+02  0.94699422766E+02  0.89720988021E+02 0.  0.
         11    1    3    3    0    0  0.20821240480E+02  0.26648856306E+02 -0.76955501211E+00  0.33827175654E+02  0.51100000000E-03 0.  1.
         22    1    1    0    0    0  0.58695705250E+01  0.25815745377E+02 -0.14738399276E+02  0.30300577234E+02  0.00000000000E+00 0. -1.
</event>
<event>
 5    1  0.1692171E-003  0.9118800E+02  0.7818608E-02  0.1130116E+00
         25   -1    0    0    0    0  0.00000000000E+00  0.00000000000E+00  0.99999998245E-14  0.12500000000E+03  0.12500000000E+03 0.  0.
        -11    1    3    3    0    0 -0.10144847661E+02 -0.32641450976E+02  0.16245270649E+02  0.37845621604E+02  0.51100000000E-03 0.  1.
         23    2    1    0    0    0  0.28986462457E+02  0.43990328148E+01 -0.40095027623E+01  0.95408741022E+02  0.90703832640E+02 0.  0.
         11    1    3    3    0    0  0.39131310118E+02  0.37040483790E+02 -0.20254773411E+02  0.57563119419E+02  0.51100000000E-03 0. -1.
         22    1    1    0    0    0 -0.28986462457E+02 -0.43990328148E+01  0.40095027623E+01  0.29591258978E+02  0.00000000000E+00 0. -1.
</event>
<event>
 5    1  0.1692171E-003  0.9118800E+02  0.7818608E-02  0.1130116E+00
         25   -1    0    0    0    0  0.00000000000E+00  0.00000000000E+00  0.99999998245E-14  0.12500000000E+03  0.12500000000E+03 0.  0.
        -11    1    3    3    0    0 -0.15157724357E+02  0.11940961783E+02 -0.52510438057E+02  0.55943625921E+02  0.51100000000E-03 0.  1.
         23    2    1    0    0    0  0.53540245211E+01 -0.10840934422E+02 -0.25408444991E+02  0.96861405248E+02  0.92684148117E+02 0.  0.
         11    1    3    3    0    0  0.20511748879E+02 -0.22781896205E+02  0.27101993065E+02  0.40917779328E+02  0.51100000000E-03 0. -1.
         22    1    1    0    0    0 -0.53540245211E+01  0.10840934422E+02  0.25408444991E+02  0.28138594752E+02  0.00000000000E+00 0. -1.
</event>
<event>
 5    1  0.1692171E-003  0.9118800E+02  0.7818608E-02  0.1130116E+00
         25   -1    0    0    0    0  0.00000000000E+00  0.00000000000E+00  0.99999998245E-14  0.12500000000E+03  0.12500000000E+03 0.  0.
        -11    1    3    3    0    0  0.20758317787E+02  0.22707953127E+02 -0.12322515457E+02  0.33142167702E+02  0.51100000000E-03 0. -1.
         23    2    1    0    0    0 -0.25443532475E+02 -0.17082539498E+01  0.18209930032E+02  0.93664827619E+02  0.88267813527E+02 0.  0.
         11    1    3    3    0    0 -0.46201850262E+02 -0.24416207077E+02  0.30532445489E+02  0.60522659917E+02  0.51100000000E-03 0.  1.
         22    1    1    0    0    0  0.25443532475E+02  0.17082539498E+01 -0.18209930032E+02  0.31335172381E+02  0.00000000000E+00 0.  1.
</event>
<event>
 5    1  0.1692171E-003  0.9118800E+02  0.7818608E-02  0.1130116E+00
         25   -1    0    0    0    0  0.00000000000E+00  0.00000000000E+00  0.99999998245E-14  0.12500000000E+03  0.12500000000E+03 0.  0.
        -11    1    3    3    0    0  0.38444192544E+02  0.14304641825E+02 -0.11477118752E+02  0.42594635499E+02  0.51100000000E-03 0.  1.
         23    2    1    0    0    0  0.78873154325E+00 -0.21776409620E+02 -0.19981435034E+02  0.95434955447E+02  0.90739951851E+02 0.  0.
         11    1    3    3    0    0 -0.37655461001E+02 -0.36081051445E+02 -0.85043162814E+01  0.52840319949E+02  0.51100000000E-03 0. -1.
         22    1    1    0    0    0 -0.78873154325E+00  0.21776409620E+02  0.19981435034E+02  0.29565044553E+02  0.00000000000E+00 0. -1.
</event>
<event>
 5    1  0.1692171E-003  0.9118800E+02  0.7818608E-02  0.1130116E+00
         25   -1    0    0    0    0  0.00000000000E+00  0.00000000000E+00  0.99999998245E-14  0.12500000000E+03  0.12500000000E+03 0.  0.
        -11    1    3    3    0    0  0.95674053476E+00  0.58527299804E+02  0.11218802566E+01  0.58545869114E+02  0.51100000000E-03 0.  1.
         23    2    1    0    0    0 -0.86299014786E+01  0.24274789412E+02  0.13126127036E+02  0.96085716134E+02  0.91632030608E+02 0.  0.
         11    1    3    3    0    0 -0.95866420134E+01 -0.34252510392E+02  0.12004246780E+02  0.37539847019E+02  0.51100000000E-03 0. -1.
         22    1    1    0    0    0  0.86299014786E+01 -0.24274789412E+02 -0.13126127036E+02  0.28914283866E+02  0.00000000000E+00 0.  1.
</event>
<event>
 5    1  0.1692171E-003  0.9118800E+02  0.7818608E-02  0.1130116E+00
         25   -1    0    0    0    0  0.00000000000E+00  0.00000000000E+00  0.99999998245E-14  0.12500000000E+03  0.12500000000E+03 0.  0.
        -11    1    3    3    0    0 -0.23383528747E+02  0.34176677808E+02 -0.13151860678E+02  0.43448891380E+02  0.51100000000E-03 0.  1.
         23    2    1    0    0    0 -0.27649310808E+02 -0.13920526078E+02  0.17858540177E+01  0.93992666851E+02  0.88730866741E+02 0.  0.
         11    1    3    3    0    0 -0.42657820618E+01 -0.48097203886E+02  0.14937714696E+02  0.50543775470E+02  0.51100000000E-03 0. -1.
         22    1    1    0    0    0  0.27649310808E+02  0.13920526078E+02 -0.17858540177E+01  0.31007333149E+02  0.00000000000E+00 0.  1.
</event>
<event>
 5    1  0.1692171E-003  0.9118800E+02  0.7818608E-02  0.1130116E+00
         25   -1    0    0    0    0  0.00000000000E+00  0.00000000000E+00  0.99999998245E-14  0.12500000000E+03  0.12500000000E+03 0.  0.
        -11    1    3    3    0    0  0.13512803538E+02 -0.44576376947E+02  0.24862359293E+02  0.52799490064E+02  0.51100000000E-03 0. -1.
         23    2    1    0    0    0  0.19895099871E+02 -0.20810519735E+02 -0.91591225877E+01  0.94787713475E+02  0.89843911139E+02 0.  0.
         11    1    3    3    0    0  0.63822963333E+01  0.23765857213E+02 -0.34021481881E+02  0.41988223410E+02  0.51100000000E-03 0.  1.
         22    1    1    0    0    0 -0.19895099871E+02  0.20810519735E+02  0.91591225877E+01  0.30212286525E+02  0.00000000000E+00 0. -1.
</event>
<event>
 5    1  0.1692171E-003  0.9118800E+02  0.7818608E-02  0.1130116E+00
         25   -1    0    0    0    0  0.00000000000E+00  0.00000000000E+00  0.99999998245E-14  0.12500000000E+03  0.12500000000E+03 0.  0.
        -11    1    3    3    0    0 -0.25354920776E+02 -0.48935164083E+00 -0.42401999501E+02  0.49406892581E+02  0.51100000000E-03 0. -1.
         23    2    1    0    0    0 -0.19283604679E+02  0.21213634079E+02 -0.12754955489E+01  0.96303265532E+02  0.91928321985E+02 0.  0.
         11    1    3    3    0    0  0.60713160971E+01  0.21702985720E+02  0.41126503952E+02  0.46896372950E+02  0.51100000000E-03 0.  1.
         22    1    1    0    0    0  0.19283604679E+02 -0.21213634079E+02  0.12754955489E+01  0.28696734468E+02  0.00000000000E+00 0. -1.
</event>
<event>
 5    1  0.1692171E-003  0.9118800E+02  0.7818608E-02  0.1130116E+00
         25   -1    0    0    0    0  0.00000000000E+00  0.00000000000E+00  0.99999998245E-14  0.12500000000E+03  0.12500000000E+03 0.  0.
        -11    1    3    3    0    0 -0.30544374959E+02  0.42562967244E+02 -0.33375320935E+02  0.62116640846E+02  0.51100000000E-03 0.  1.
         23    2    1    0    0    0 -0.13688066188E+02  0.23276216539E+02 -0.12119043929E+02  0.95402421754E+02  0.90695123565E+02 0.  0.
         11    1    3    3    0    0  0.16856308772E+02 -0.19286750705E+02  0.21256277007E+02  0.33285780907E+02  0.51100000000E-03 0. -1.
         22    1    1    0    0    0  0.13688066188E+02 -0.23276216539E+02  0.12119043929E+02  0.29597578246E+02  0.00000000000E+00 0.  1.
</event>
<event>
 5    1  0.1692171E-003  0.9118800E+02  0.7818608E-02  0.1130116E+00
         25   -1    0    0    0    0  0.00000000000E+00  0.00000000000E+00  0.99999998245E-14  0.12500000000E+03  0.12500000000E+03 0.  0.
        -11    1    3    3    0    0  0.18996376260E+02 -0.25934976724E+02  0.51777283098E+02  0.60945650984E+02  0.51100000000E-03 0. -1.
         23    2    1    0    0    0  0.17388300409E+02 -0.13727464493E+02  0.19519141233E+02  0.95473856551E+02  0.90793524756E+02 0.  0.
         11    1    3    3    0    0 -0.16080758512E+01  0.12207512231E+02 -0.32258141864E+02  0.34528205566E+02  0.51100000000E-03 0.  1.
         22    1    1    0    0    0 -0.17388300409E+02  0.13727464493E+02 -0.19519141233E+02  0.29526143449E+02  0.00000000000E+00 0. -1.
</event>
<event>
 5    1  0.1692171E-003  0.9118800E+02  0.7818608E-02  0.1130116E+00
         25   -1    0    0    0    0  0.00000000000E+00  0.00000000000E+00  0.99999998245E-14  0.12500000000E+03  0.12500000000E+03 0.  0.
        -11    1    3    3    0    0 -0.22261923353E+02  0.31505345916E+02 -0.15824692448E+02  0.41696533957E+02  0.51100000000E-03 0.  1.
         23    2    1    0    0    0 -0.18246839347E+02 -0.21516568777E+02 -0.15863331250E+01  0.96743561249E+02  0.92525079370E+02 0.  0.
         11    1    3    3    0    0  0.40150840060E+01 -0.53021914693E+02  0.14238359322E+02  0.55047027293E+02  0.51100000000E-03 0. -1.
         22    1    1    0    0    0  0.18246839347E+02  0.21516568777E+02  0.15863331250E+01  0.28256438751E+02  0.00000000000E+00 0. -1.
</event>
<event>
 5    1  0.1692171E-003  0.9118800E+02  0.7818608E-02  0.1130116E+00
         25   -1    0    0    0    0  0.00000000000E+00  0.00000000000E+00  0.99999998245E-14  0.12500000000E+03  0.12500000000E+03 0.  0.
        -11    1    3    3    0    0  0.53450911839E+00  0.17970543078E+02  0.24842776614E+02  0.30665773570E+02  0.51100000000E-03 0. -1.
         23    2    1    0    0    0 -0.16691517073E+02 -0.14195332680E+02 -0.24562490366E+02  0.92084499927E+02  0.86000726635E+02 0.  0.
         11    1    3    3    0    0 -0.17226026192E+02 -0.32165875759E+02 -0.49405266979E+02  0.61418726356E+02  0.51100000000E-03 0.  1.
         22    1    1    0    0    0  0.16691517073E+02  0.14195332680E+02  0.24562490366E+02  0.32915500073E+02  0.00000000000E+00 0.  1.
</event>
<event>
 5    1  0.1692171E-003  0.9118800E+02  0.7818608E-02  0.1130116E+00
         25   -1    0    0    0    0  0.00000000000E+00  0.00000000000E+00  0.99999998245E-14  0.12500000000E+03  0.12500000000E+03 0.  0.
        -11    1    3    3    0    0  0.44594183140E+02 -0.81463636261E+01 -0.60439161286E+01  0.45733284736E+02  0.51100000000E-03 0. -1.
         23    2    1    0    0    0 -0.34478109082E+01 -0.20530978547E+02  0.14706982360E+02  0.99510711852E+02  0.96190841368E+02 0.  0.
         11    1    3    3    0    0 -0.48041994049E+02 -0.12384614921E+02  0.20750898489E+02  0.53777427116E+02  0.51100000000E-03 0.  1.
         22    1    1    0    0    0  0.34478109082E+01  0.20530978547E+02 -0.14706982360E+02  0.25489288148E+02  0.00000000000E+00 0.  1.
</event>
<event>
 5    1  0.1692171E-003  0.9118800E+02  0.7818608E-02  0.1130116E+00
         25   -1    0    0    0    0  0.00000000000E+00  0.00000000000E+00  0.99999998245E-14  0.12500000000E+03  0.12500000000E+03 0.  0.
        -11    1    3    3    0    0  0.31072346702E+02 -0.14056805606E+02  0.12937986167E+02  0.36475690531E+02  0.51100000000E-03 0.  1.
         23    2    1    0    0    0 -0.25032966207E+02  0.14577064265E+01  0.16803927481E+02  0.94814800250E+02  0.89881589119E+02 0.  0.
         11    1    3    3    0    0 -0.56105312909E+02  0.15514512033E+02  0.38659413142E+01  0.58339109719E+02  0.51100000000E-03 0. -1.
         22    1    1    0    0    0  0.25032966207E+02 -0.14577064265E+01 -0.16803927481E+02  0.30185199750E+02  0.00000000000E+00 0. -1.
</event>
<event>
 5    1  0.1692171E-003  0.9118800E+02  0.7818608E-02  0.1130116E+00
         25   -1    0    0    0    0  0.00000000000E+00  0.00000000000E+00  0.99999998245E-14  0.12500000000E+03  0.12500000000E+03 0.  0.
        -11    1    3    3    0    0 -0.17702236695E+02 -0.18607235211E+02  0.30805419930E+02  0.40107010404E+02  0.51100000000E-03 0.  1.
         23    2    1    0    0    0  0.28589859252E+02 -0.23848989779E+00  0.58341344126E+01  0.95819971662E+02  0.91268794862E+02 0.  0.
         11    1    3    3    0    0  0.46292095947E+02  0.18368745313E+02 -0.24971285517E+02  0.55712961258E+02  0.51100000000E-03 0. -1.
         22    1    1    0    0    0 -0.28589859252E+02  0.23848989779E+00 -0.58341344126E+01  0.29180028338E+02  0.00000000000E+00 0. -1.
</event>
<event>
 5    1  0.1692171E-003  0.9118800E+02  0.7818608E-02  0.1130116E+00
         25   -1    0    0    0    0  0.00000000000E+00  0.00000000000E+00  0.99999998245E-14  0.12500000000E+03  0.12500000000E+03 0.  0.
        -11    1    3    3    0    0 -0.24825558886E+02 -0.16498291161E+02 -0.49481748964E+02  0.57766300436E+02  0.51100000000E-03 0.  1.
         23    2    1    0    0    0  0.43524087923E+01 -0.15711957427E+01 -0.27227122720E+02  0.97382463362E+02  0.93384237644E+02 0.  0.
         11    1    3    3    0    0  0.29177967679E+02  0.14927095418E+02  0.22254626244E+02  0.39616162926E+02  0.51100000000E-03 0. -1.
         22    1    1    0    0    0 -0.43524087923E+01  0.15711957427E+01  0.27227122720E+02  0.27617536638E+02  0.00000000000E+00 0.  1.
</event>
<event>
 5    1  0.1692171E-003  0.9118800E+02  0.7818608E-02  0.1130116E+00
         25   -1    0    0    0    0  0.00000000000E+00  0.00000000000E+00  0.99999998245E-14  0.12500000000E+03  0.12500000000E+03 0.  0.
        -11    1    3    3    0    0 -0.30358720452E+02 -0.24771619836E+02  0.25300583947E+02  0.46641232886E+02  0.51100000000E-03 0. -1.
         23    2    1    0    0    0  0.17559556490E+02 -0.51792300600E+01  0.18701783953E+02  0.98829039544E+02  0.95300891318E+02 0.  0.
         11    1    3    3    0    0  0.47918276942E+02  0.19592389776E+02 -0.65987999937E+01  0.52187806659E+02  0.51100000000E-03 0.  1.
         22    1    1    0    0    0 -0.17559556490E+02  0.51792300600E+01 -0.18701783953E+02  0.26170960456E+02  0.00000000000E+00 0.  1.
</event>
<event>
 5    1  0.1692171E-003  0.9118800E+02  0.7818608E-02  0.1130116E+00
         25   -1    0    0    0    0  0.00000000000E+00  0.00000000000E+00  0.99999998245E-14  0.12500000000E+03  0.12500000000E+03 0.  0.
        -11    1    3    3    0    0  0.42256254005E+02 -0.15591329431E+02 -0.39815289631E+02  0.60116036502E+02  0.51100000000E-03 0. -1.
         23    2    1    0    0    0  0.10245883993E+02 -0.13783784593E+02 -0.22927545001E+02  0.96353129730E+02  0.91996100094E+02 0.  0.
         11    1    3    3    0    0 -0.32010370012E+02  0.18075448384E+01  0.16887744630E+02  0.36237093228E+02  0.51100000000E-03 0.  1.
         22    1    1    0    0    0 -0.10245883993E+02  0.13783784593E+02  0.22927545001E+02  0.28646870270E+02  0.00000000000E+00 0. -1.
</event>
<event>
 5    1  0.1692171E-003  0.9118800E+02  0.7818608E-02  0.1130116E+00
         25   -1    0    0    0    0  0.00000000000E+00  0.00000000000E+00  0.99999998245E-14  0.12500000000E+03  0.12500000000E+03 0.  0.
        -11    1    3    3    0    0 -0.10811187347E+02 -0.37679680389E+02 -0.48475413794E+02  0.62341846530E+02  0.51100000000E-03 0.  1.
         23    2    1    0    0    0 -0.45489482227E+01 -0.20413460926E+02 -0.21239811994E+02  0.95191747277E+02  0.90404296464E+02 0.  0.
         11    1    3    3    0    0  0.62622391246E+01  0.17266219463E+02  0.27235601800E+02  0.32849900747E+02  0.51100000000E-03 0. -1.
         22    1    1    0    0    0  0.45489482227E+01  0.20413460926E+02  0.21239811994E+02  0.29808252723E+02  0.00000000000E+00 0.  1.
</event>
<event>
 5    1  0.1692171E-003  0.9118800E+02  0.7818608E-02  0.1130116E+00
         25   -1    0    0    0    0  0.00000000000E+00  0.00000000000E+00  0.99999998245E-14  0.12500000000E+03  0.12500000000E+03 0.  0.
        -11    1    3    3    0    0  0.23878475151E+02 -0.20954176615E+02 -0.15439134941E+02  0.35321749406E+02  0.51100000000E-03 0. -1.
         23    2    1    0    0    0 -0.21783380279E+02  0.17906357789E+02 -0.22709797379E+01  0.96710237636E+02  0.92480048708E+02 0.  0.
         11    1    3    3    0    0 -0.45661855430E+02  0.38860534404E+02  0.13168155203E+02  0.61388488230E+02  0.51100000000E-03 0.  1.
         22    1    1    0    0    0  0.21783380279E+02 -0.17906357789E+02  0.22709797379E+01  0.28289762364E+02  0.00000000000E+00 0.  1.
</event>
<event>
 5    1  0.1692171E-003  0.9118800E+02  0.7818608E-02  0.1130116E+00
         25   -1    0    0    0    0  0.00000000000E+00  0.00000000000E+00  0.99999998245E-14  0.12500000000E+03  0.12500000000E+03 0.  0.
        -11    1    3    3    0    0  0.20106834750E+02 -0.15068043794E+02 -0.39204972407E+02  0.46565659118E+02  0.51100000000E-03 0.  1.
         23    2    1    0    0    0  0.16339783674E+02 -0.76081911576E+01  0.15085665231E+02  0.10149573659E+03  0.98736690984E+02 0.  0.
         11    1    3    3    0    0 -0.37670510761E+01  0.74598526360E+01  0.54290637638E+02  0.54930077467E+02  0.51100000000E-03 0. -1.
         22    1    1    0    0    0 -0.16339783674E+02  0.76081911576E+01 -0.15085665231E+02  0.23504263414E+02  0.00000000000E+00 0. -1.
</event>
<event>
 5    1  0.1692171E-003  0.9118800E+02  0.7818608E-02  0.1130116E+00
         25   -1    0    0    0    0  0.00000000000E+00  0.00000000000E+00  0.99999998245E-14  0.12500000000E+03  0.12500000000E+03 0.  0.
        -11    1    3    3    0    0 -0.25575560863E+02 -0.14650919479E+02 -0.24557728607E+02  0.38364577277E+02  0.51100000000E-03 0. -1.
         23    2    1    0    0    0  0.33468250037E+01  0.29791361395E+02 -0.70674652536E+01  0.94199423439E+02  0.89021659497E+02 0.  0.
         11    1    3    3    0    0  0.28922385867E+02  0.44442280874E+02  0.17490263353E+02  0.55834846162E+02  0.51100000000E-03 0.  1.
         22    1    1    0    0    0 -0.33468250037E+01 -0.29791361395E+02  0.70674652536E+01  0.30800576561E+02  0.00000000000E+00 0.  1.
</event>
<event>
 5    1  0.1692171E-003  0.9118800E+02  0.7818608E-02  0.1130116E+00
         25   -1    0    0    0    0  0.00000000000E+00  0.00000000000E+00  0.99999998245E-14  0.12500000000E+03  0.12500000000E+03 0.  0.
        -11    1    3    3    0    0  0.94617294338E+01 -0.20771257778E+01 -0.30975900552E+02  0.32455279858E+02  0.51100000000E-03 0.  1.
         23    2    1    0    0    0 -0.54009349986E+01  0.14522574547E+02  0.26613484991E+02  0.94204661818E+02  0.89029014678E+02 0.  0.
         11    1    3    3    0    0 -0.14862664432E+02  0.16599700325E+02  0.57589385544E+02  0.61749381960E+02  0.51100000000E-03 0. -1.
         22    1    1    0    0    0  0.54009349986E+01 -0.14522574547E+02 -0.26613484991E+02  0.30795338182E+02  0.00000000000E+00 0. -1.
</event>
<event>
 5    1  0.1692171E-003  0.9118800E+02  0.7818608E-02  0.1130116E+00
         25   -1    0    0    0    0  0.00000000000E+00  0.00000000000E+00  0.99999998245E-14  0.12500000000E+03  0.12500000000E+03 0.  0.
        -11    1    3    3    0    0 -0.22218687333E+02  0.34520358076E+02 -0.36477372252E+02  0.54917427791E+02  0.51100000000E-03 0. -1.
         23    2    1    0    0    0  0.10135926361E+02  0.23614341780E+02 -0.15751072166E+02  0.94859157025E+02  0.89943255757E+02 0.  0.
         11    1    3    3    0    0  0.32354613693E+02 -0.10906016297E+02  0.20726300086E+02  0.39941729234E+02  0.51100000000E-03 0.  1.
         22    1    1    0    0    0 -0.10135926361E+02 -0.23614341780E+02  0.15751072166E+02  0.30140842975E+02  0.00000000000E+00 0. -1.
</event>
<event>
 5    1  0.1692171E-003  0.9118800E+02  0.7818608E-02  0.1130116E+00
         25   -1    0    0    0    0  0.00000000000E+00  0.00000000000E+00  0.99999998245E-14  0.12500000000E+03  0.12500000000E+03 0.  0.
        -11    1    3    3    0    0 -0.12103837553E+02 -0.17879033137E+02 -0.25373109117E+02  0.33316022811E+02  0.51100000000E-03 0. -1.
         23    2    1    0    0    0  0.12349951247E+02 -0.23705633367E+01  0.28149247945E+02  0.94169478982E+02  0.88979602975E+02 0.  0.
         11    1    3    3    0    0  0.24453788799E+02  0.15508469800E+02  0.53522357063E+02  0.60853456171E+02  0.51100000000E-03 0.  1.
         22    1    1    0    0    0 -0.12349951247E+02  0.23705633367E+01 -0.28149247945E+02  0.30830521018E+02  0.00000000000E+00 0.  1.
</event>
<event>
 5    1  0.1692171E-003  0.9118800E+02  0.7818608E-02  0.1130116E+00
         25   -1    0    0    0    0  0.00000000000E+00  0.00000000000E+00  0.99999998245E-14  0.12500000000E+03  0.12500000000E+03 0.  0.
        -11    1    3    3    0    0 -0.29315963808E+02 -0.38469844542E+02  0.36720737003E+02  0.60726989053E+02  0.51100000000E-03 0.  1.
         23    2    1    0    0    0 -0.24251243266E+02 -0.14888668791E+02  0.17261671191E+02  0.91716963019E+02  0.85464850991E+02 0.  0.
         11    1    3    3    0    0  0.50647205422E+01  0.23581175751E+02 -0.19459065812E+02  0.30989973967E+02  0.51100000000E-03 0. -1.
         22    1    1    0    0    0  0.24251243266E+02  0.14888668791E+02 -0.17261671191E+02  0.33283036981E+02  0.00000000000E+00 0.  1.
</event>
<event>
 5    1  0.1692171E-003  0.9118800E+02  0.7818608E-02  0.1130116E+00
         25   -1    0    0    0    0  0.00000000000E+00  0.00000000000E+00  0.99999998245E-14  0.12500000000E+03  0.12500000000E+03 0.  0.
        -11    1    3    3    0    0 -0.14252012726E+02  0.54288214579E+02 -0.26732175539E+02  0.62168636130E+02  0.51100000000E-03 0.  1.
         23    2    1    0    0    0 -0.91194988294E+01  0.28147997380E+02 -0.93824611581E+01  0.93959613521E+02  0.88684290493E+02 0.  0.
         11    1    3    3    0    0  0.51325138965E+01 -0.26140217199E+02  0.17349714381E+02  0.31790977391E+02  0.51100000000E-03 0. -1.
         22    1    1    0    0    0  0.91194988294E+01 -0.28147997380E+02  0.93824611581E+01  0.31040386479E+02  0.00000000000E+00 0.  1.
</event>
<event>
 5    1  0.1692171E-003  0.9118800E+02  0.7818608E-02  0.1130116E+00
         25   -1    0    0    0    0  0.00000000000E+00  0.00000000000E+00  0.99999998245E-14  0.12500000000E+03  0.12500000000E+03 0.  0.
        -11    1    3    3    0    0 -0.47252141945E+02  0.36479423503E+02  0.67209505235E+01  0.60072326688E+02  0.51100000000E-03 0.  1.
         23    2    1    0    0    0 -0.19936537975E+02  0.30577555043E+02  0.17626796859E+01  0.88454693071E+02  0.80552301442E+02 0.  0.
         11    1    3    3    0    0  0.27315603969E+02 -0.59018684598E+01 -0.49582708377E+01  0.28382366383E+02  0.51100000000E-03 0. -1.
         22    1    1    0    0    0  0.19936537975E+02 -0.30577555043E+02 -0.17626796859E+01  0.36545306929E+02  0.00000000000E+00 0.  1.
</event>
<event>
 5    1  0.1692171E-003  0.9118800E+02  0.7818608E-02  0.1130116E+00
         25   -1    0    0    0    0  0.00000000000E+00  0.00000000000E+00  0.99999998245E-14  0.12500000000E+03  0.12500000000E+03 0.  0.
        -11    1    3    3    0    0  0.27814442462E+01 -0.33093165912E+02 -0.22616862479E+02  0.40179802524E+02  0.51100000000E-03 0.  1.
         23    2    1    0    0    0 -0.63349218914E+01  0.21539361568E+02 -0.18830604859E+02  0.95696979482E+02  0.91100191385E+02 0.  0.
         11    1    3    3    0    0 -0.91163661376E+01  0.54632527480E+02  0.37862576196E+01  0.55517176958E+02  0.51100000000E-03 0. -1.
         22    1    1    0    0    0  0.63349218914E+01 -0.21539361568E+02  0.18830604859E+02  0.29303020518E+02  0.00000000000E+00 0. -1.
</event>
<event>
 5    1  0.1692171E-003  0.9118800E+02  0.7818608E-02  0.1130116E+00
         25   -1    0    0    0    0  0.00000000000E+00  0.00000000000E+00  0.99999998245E-14  0.12500000000E+03  0.12500000000E+03 0.  0.
        -11    1    3    3    0    0 -0.14685714813E+02  0.48845042852E+02  0.33089032834E+01  0.51112202770E+02  0.51100000000E-03 0. -1.
         23    2    1    0    0    0 -0.27667237524E+02  0.69075030082E+01  0.83111977602E+01  0.95297043275E+02  0.90549769843E+02 0.  0.
         11    1    3    3    0    0 -0.12981522711E+02 -0.41937539844E+02  0.50022944768E+01  0.44184840504E+02  0.51100000000E-03 0.  1.
         22    1    1    0    0    0  0.27667237524E+02 -0.69075030082E+01 -0.83111977602E+01  0.29702956725E+02  0.00000000000E+00 0. -1.
</event>
<event>
 5    1  0.1692171E-003  0.9118800E+02  0.7818608E-02  0.1130116E+00
         25   -1    0    0    0    0  0.00000000000E+00  0.00000000000E+00  0.99999998245E-14  0.12500000000E+03  0.12500000000E+03 0.  0.
        -11    1    3    3    0    0 -0.47287660787E+02  0.36057355767E+02 -0.72941284001E+01  0.59912102926E+02  0.51100000000E-03 0.  1.
         23    2    1    0    0    0 -0.25556464068E+02  0.96268705917E+01 -0.13253506067E+02  0.94644359402E+02  0.89644240476E+02 0.  0.
         11    1    3    3    0    0  0.21731196719E+02 -0.26430485176E+02 -0.59593776666E+01  0.34732256476E+02  0.51100000000E-03 0. -1.
         22    1    1    0    0    0  0.25556464068E+02 -0.96268705917E+01  0.13253506067E+02  0.30355640598E+02  0.00000000000E+00 0.  1.
</event>
<event>
 4    1  0.1692171E-003  0.9118800E+02  0.7818608E-02  0.1130116E+00
         25   -1    0    0    0    0  0.00000000000E+00  0.00000000000E+00  0.99999998245E-14  0.12500000000E+03  0.12500000000E+03 0.  0.
        -11    1    1    0    0    0 -0.73688493039E+01  0.14151965463E+02 -0.10087014041E+02  0.18876597126E+02  0.51100000000E-03 0. -1.
         11    1    1    0    0    0  0.78160451420E+01  0.17120656362E+02  0.51152038352E+02  0.54504481134E+02  0.51100000000E-03 0.  1.
         22    1    1    0    0    0 -0.44719583810E+00 -0.31272621825E+02 -0.41065024311E+02  0.51618921739E+02  0.00000000000E+00 0.  1.
</event>
<event>
 5    1  0.1692171E-003  0.9118800E+02  0.7818608E-02  0.1130116E+00
         25   -1    0    0    0    0  0.00000000000E+00  0.00000000000E+00  0.99999998245E-14  0.12500000000E+03  0.12500000000E+03 0.  0.
        -11    1    3    3    0    0 -0.72728513326E+01  0.13441467905E+02  0.51734153351E+02  0.53944323605E+02  0.51100000000E-03 0. -1.
         23    2    1    0    0    0 -0.16025756770E+02 -0.13089429366E+02  0.20028721153E+02  0.96202296755E+02  0.91790926505E+02 0.  0.
         11    1    3    3    0    0 -0.87529054372E+01 -0.26530897271E+02 -0.31705432198E+02  0.42257973150E+02  0.51100000000E-03 0.  1.
         22    1    1    0    0    0  0.16025756770E+02  0.13089429366E+02 -0.20028721153E+02  0.28797703245E+02  0.00000000000E+00 0. -1.
</event>
<event>
 5    1  0.1692171E-003  0.9118800E+02  0.7818608E-02  0.1130116E+00
         25   -1    0    0    0    0  0.00000000000E+00  0.00000000000E+00  0.99999998245E-14  0.12500000000E+03  0.12500000000E+03 0.  0.
        -11    1    3    3    0    0 -0.27793006901E+02  0.98199375371E+01  0.13631501856E+02  0.32476148924E+02  0.51100000000E-03 0.  1.
         23    2    1    0    0    0  0.16846584310E+02 -0.27184129991E+02 -0.32181874663E+01  0.92857488323E+02  0.87117002249E+02 0.  0.
         11    1    3    3    0    0  0.44639591211E+02 -0.37004067529E+02 -0.16849689322E+02  0.60381339399E+02  0.51100000000E-03 0. -1.
         22    1    1    0    0    0 -0.16846584310E+02  0.27184129991E+02  0.32181874663E+01  0.32142511677E+02  0.00000000000E+00 0. -1.
</event>
<event>
 5    1  0.1692171E-003  0.9118800E+02  0.7818608E-02  0.1130116E+00
         25   -1    0    0    0    0  0.00000000000E+00  0.00000000000E+00  0.99999998245E-14  0.12500000000E+03  0.12500000000E+03 0.  0.
        -11    1    3    3    0    0  0.15266827618E+02 -0.44590843603E+02  0.90066126309E+01  0.47984772899E+02  0.51100000000E-03 0. -1.
         23    2    1    0    0    0  0.13488125001E+02  0.52518275742E+00  0.25576299192E+02  0.96080241818E+02  0.91624562506E+02 0.  0.
         11    1    3    3    0    0 -0.17787026167E+01  0.45116026361E+02  0.16569686561E+02  0.48095468919E+02  0.51100000000E-03 0.  1.
         22    1    1    0    0    0 -0.13488125001E+02 -0.52518275742E+00 -0.25576299192E+02  0.28919758182E+02  0.00000000000E+00 0. -1.
</event>
<event>
 5    1  0.1692171E-003  0.9118800E+02  0.7818608E-02  0.1130116E+00
         25   -1    0    0    0    0  0.00000000000E+00  0.00000000000E+00  0.99999998245E-14  0.12500000000E+03  0.12500000000E+03 0.  0.
        -11    1    3    3    0    0 -0.30145261703E+02 -0.42383115682E+02 -0.11090929244E+02  0.53179639053E+02  0.51100000000E-03 0.  1.
         23    2    1    0    0    0 -0.29277566070E+02 -0.12047489031E+01 -0.55919538269E+00  0.95692321921E+02  0.91093800449E+02 0.  0.
         11    1    3    3    0    0  0.86769563247E+00  0.41178366779E+02  0.10531733861E+02  0.42512682868E+02  0.51100000000E-03 0. -1.
         22    1    1    0    0    0  0.29277566070E+02  0.12047489031E+01  0.55919538269E+00  0.29307678079E+02  0.00000000000E+00 0.  1.
</event>
<event>
 5    1  0.1692171E-003  0.9118800E+02  0.7818608E-02  0.1130116E+00
         25   -1    0    0    0    0  0.00000000000E+00  0.00000000000E+00  0.99999998245E-14  0.12500000000E+03  0.12500000000E+03 0.  0.
        -11    1    3    3    0    0  0.69828131589E+01 -0.30152673702E+02  0.29936390776E+02  0.43059620342E+02  0.51100000000E-03 0. -1.
         23    2    1    0    0    0 -0.15106711582E+02  0.16113689264E+02  0.19833019320E+02  0.95314778561E+02  0.90574249322E+02 0.  0.
         11    1    3    3    0    0 -0.22089524741E+02  0.46266362967E+02 -0.10103371456E+02  0.52255158219E+02  0.51100000000E-03 0.  1.
         22    1    1    0    0    0  0.15106711582E+02 -0.16113689264E+02 -0.19833019320E+02  0.29685221439E+02  0.00000000000E+00 0.  1.
</event>
<event>
 5    1  0.1692171E-003  0.9118800E+02  0.7818608E-02  0.1130116E+00
         25   -1    0    0    0    0  0.00000000000E+00  0.00000000000E+00  0.99999998245E-14  0.12500000000E+03  0.12500000000E+03 0.  0.
        -11    1    3    3    0    0  0.29475177692E+01  0.40357143350E+02  0.11157080205E+02  0.41974603266E+02  0.51100000000E-03 0. -1.
         23    2    1    0    0    0  0.83597568707E+01 -0.11182343659E+02  0.25659108629E+02  0.95788355057E+02  0.91225483086E+02 0.  0.
         11    1    3    3    0    0  0.54122391015E+01 -0.51539487009E+02  0.14502028424E+02  0.53813751792E+02  0.51100000000E-03 0.  1.
         22    1    1    0    0    0 -0.83597568707E+01  0.11182343659E+02 -0.25659108629E+02  0.29211644943E+02  0.00000000000E+00 0.  1.
</event>
<event>
 5    1  0.1692171E-003  0.9118800E+02  0.7818608E-02  0.1130116E+00
         25   -1    0    0    0    0  0.00000000000E+00  0.00000000000E+00  0.99999998245E-14  0.12500000000E+03  0.12500000000E+03 0.  0.
        -11    1    3    3    0    0  0.11388603055E+02 -0.46005159876E+02 -0.29498298614E+02  0.55824050696E+02  0.51100000000E-03 0.  1.
         23    2    1    0    0    0  0.21043320424E+02 -0.70991391273E+01 -0.13667287916E+02  0.98922924439E+02  0.95423954591E+02 0.  0.
         11    1    3    3    0    0  0.96547173688E+01  0.38906020749E+02  0.15831010697E+02  0.43098873743E+02  0.51100000000E-03 0. -1.
         22    1    1    0    0    0 -0.21043320424E+02  0.70991391273E+01  0.13667287916E+02  0.26077075561E+02  0.00000000000E+00 0.  1.
</event>
<event>
 5    1  0.1692171E-003  0.9118800E+02  0.7818608E-02  0.1130116E+00
         25   -1    0    0    0    0  0.00000000000E+00  0.00000000000E+00  0.99999998245E-14  0.12500000000E+03  0.12500000000E+03 0.  0.
        -11    1    3    3    0    0  0.40655333417E+02  0.47499009763E+01 -0.32636679292E+01  0.41061773259E+02  0.51100000000E-03 0.  1.
         23    2    1    0    0    0 -0.30141892336E+01 -0.28608469707E+02 -0.35473593715E+01  0.96015286198E+02  0.91535903062E+02 0.  0.
         11    1    3    3    0    0 -0.43669522651E+02 -0.33358370683E+02 -0.28369144237E+00  0.54953512939E+02  0.51100000000E-03 0. -1.
         22    1    1    0    0    0  0.30141892336E+01  0.28608469707E+02  0.35473593715E+01  0.28984713802E+02  0.00000000000E+00 0. -1.
</event>
<event>
 5    1  0.1692171E-003  0.9118800E+02  0.7818608E-02  0.1130116E+00
         25   -1    0    0    0    0  0.00000000000E+00  0.00000000000E+00  0.99999998245E-14  0.12500000000E+03  0.12500000000E+03 0.  0.
        -11    1    3    3    0    0  0.22492999467E+02  0.21471204548E+02  0.46883967516E+02  0.56258813177E+02  0.51100000000E-03 0. -1.
         23    2    1    0    0    0  0.17477158227E+02 -0.87071051471E+01  0.20914642376E+02  0.96387292937E+02  0.92042507758E+02 0.  0.
         11    1    3    3    0    0 -0.50158412403E+01 -0.30178309695E+02 -0.25969325140E+02  0.40128479760E+02  0.51100000000E-03 0.  1.
         22    1    1    0    0    0 -0.17477158227E+02  0.87071051471E+01 -0.20914642376E+02  0.28612707063E+02  0.00000000000E+00 0. -1.
</event>
<event>
 5    1  0.1692171E-003  0.9118800E+02  0.7818608E-02  0.1130116E+00
         25   -1    0    0    0    0  0.00000000000E+00  0.00000000000E+00  0.99999998245E-14  0.12500000000E+03  0.12500000000E+03 0.  0.
        -11    1    3    3    0    0 -0.22768946151E+02  0.12307640953E+02  0.24207717705E+02  0.35438912673E+02  0.51100000000E-03 0.  1.
         23    2    1    0    0    0  0.30542005257E+02  0.27822316862E+01  0.11176268904E+01  0.94311174866E+02  0.89178437509E+02 0.  0.
         11    1    3    3    0    0  0.53310951407E+02 -0.95254092672E+01 -0.23090090815E+02  0.58872262193E+02  0.51100000000E-03 0. -1.
         22    1    1    0    0    0 -0.30542005257E+02 -0.27822316862E+01 -0.11176268904E+01  0.30688825134E+02  0.00000000000E+00 0. -1.
</event>
<event>
 5    1  0.1692171E-003  0.9118800E+02  0.7818608E-02  0.1130116E+00
         25   -1    0    0    0    0  0.00000000000E+00  0.00000000000E+00  0.99999998245E-14  0.12500000000E+03  0.12500000000E+03 0.  0.
        -11    1    3    3    0    0 -0.37220876293E+02 -0.46860220240E+02 -0.11218101746E+02  0.60886120586E+02  0.51100000000E-03 0. -1.
         23    2    1    0    0    0 -0.22004973305E+02 -0.15338165540E+02  0.15190728885E+01  0.98133929302E+02  0.94384756850E+02 0.  0.
         11    1    3    3    0    0  0.15215902989E+02  0.31522054700E+02  0.12737174634E+02  0.37247808716E+02  0.51100000000E-03 0.  1.
         22    1    1    0    0    0  0.22004973305E+02  0.15338165540E+02 -0.15190728885E+01  0.26866070698E+02  0.00000000000E+00 0. -1.
</event>
<event>
 5    1  0.1692171E-003  0.9118800E+02  0.7818608E-02  0.1130116E+00
         25   -1    0    0    0    0  0.00000000000E+00  0.00000000000E+00  0.99999998245E-14  0.12500000000E+03  0.12500000000E+03 0.  0.
        -11    1    3    3    0    0  0.25835756943E+02 -0.35168452914E+02  0.32948571708E+02  0.54680113341E+02  0.51100000000E-03 0.  1.
         23    2    1    0    0    0 -0.23662169399E+01 -0.27120090788E+02  0.14206092761E+01  0.97739837901E+02  0.93861384366E+02 0.  0.
         11    1    3    3    0    0 -0.28201973883E+02  0.80483621254E+01 -0.31527962432E+02  0.43059724560E+02  0.51100000000E-03 0. -1.
         22    1    1    0    0    0  0.23662169399E+01  0.27120090788E+02 -0.14206092761E+01  0.27260162099E+02  0.00000000000E+00 0.  1.
</event>
<event>
 5    1  0.1692171E-003  0.9118800E+02  0.7818608E-02  0.1130116E+00
         25   -1    0    0    0    0  0.00000000000E+00  0.00000000000E+00  0.99999998245E-14  0.12500000000E+03  0.12500000000E+03 0.  0.
        -11    1    3    3    0    0 -0.24169033119E+02  0.38724281112E+01  0.30391933114E+02  0.39023165685E+02  0.51100000000E-03 0. -1.
         23    2    1    0    0    0  0.63593621554E+01 -0.28829290370E+02 -0.36688036182E+01  0.95250553110E+02  0.90485569444E+02 0.  0.
         11    1    3    3    0    0  0.30528395274E+02 -0.32701718481E+02 -0.34060736733E+02  0.56227387425E+02  0.51100000000E-03 0.  1.
         22    1    1    0    0    0 -0.63593621554E+01  0.28829290370E+02  0.36688036182E+01  0.29749446890E+02  0.00000000000E+00 0.  1.
</event>
<event>
 5    1  0.1692171E-003  0.9118800E+02  0.7818608E-02  0.1130116E+00
         25   -1    0    0    0    0  0.00000000000E+00  0.00000000000E+00  0.99999998245E-14  0.12500000000E+03  0.12500000000E+03 0.  0.
        -11    1    3    3    0    0  0.11420270432E+02  0.38754964987E+02 -0.39285174271E+02  0.56353303414E+02  0.51100000000E-03 0.  1.
         23    2    1    0    0    0 -0.12900836134E+02  0.12883056375E+02 -0.23614739924E+02  0.95166115637E+02  0.90368849219E+02 0.  0.
         11    1    3    3    0    0 -0.24321106566E+02 -0.25871908611E+02  0.15670434347E+02  0.38812812223E+02  0.51100000000E-03 0. -1.
         22    1    1    0    0    0  0.12900836134E+02 -0.12883056375E+02  0.23614739924E+02  0.29833884363E+02  0.00000000000E+00 0.  1.
</event>
<event>
 5    1  0.1692171E-003  0.9118800E+02  0.7818608E-02  0.1130116E+00
         25   -1    0    0    0    0  0.00000000000E+00  0.00000000000E+00  0.99999998245E-14  0.12500000000E+03  0.12500000000E+03 0.  0.
        -11    1    3    3    0    0 -0.46266223484E+02  0.25880498383E+02 -0.24796964711E+02  0.58525661818E+02  0.51100000000E-03 0.  1.
         23    2    1    0    0    0 -0.10583867770E+02  0.68118482834E+01 -0.22707519455E+02  0.99037508328E+02  0.95573935161E+02 0.  0.
         11    1    3    3    0    0  0.35682355715E+02 -0.19068650100E+02  0.20894452559E+01  0.40511846511E+02  0.51100000000E-03 0. -1.
         22    1    1    0    0    0  0.10583867770E+02 -0.68118482834E+01  0.22707519455E+02  0.25962491672E+02  0.00000000000E+00 0.  1.
</event>
<event>
 5    1  0.1692171E-003  0.9118800E+02  0.7818608E-02  0.1130116E+00
         25   -1    0    0    0    0  0.00000000000E+00  0.00000000000E+00  0.99999998245E-14  0.12500000000E+03  0.12500000000E+03 0.  0.
        -11    1    3    3    0    0  0.24872356048E+02  0.11447568509E+02 -0.47049884958E+02  0.54436867976E+02  0.51100000000E-03 0. -1.
         23    2    1    0    0    0 -0.86734288050E+01  0.15361044217E+02 -0.23524485848E+02  0.95596063510E+02  0.90961617607E+02 0.  0.
         11    1    3    3    0    0 -0.33545784853E+02  0.39134757073E+01  0.23525399110E+02  0.41159195535E+02  0.51100000000E-03 0.  1.
         22    1    1    0    0    0  0.86734288050E+01 -0.15361044217E+02  0.23524485848E+02  0.29403936490E+02  0.00000000000E+00 0. -1.
</event>
<event>
 5    1  0.1692171E-003  0.9118800E+02  0.7818608E-02  0.1130116E+00
         25   -1    0    0    0    0  0.00000000000E+00  0.00000000000E+00  0.99999998245E-14  0.12500000000E+03  0.12500000000E+03 0.  0.
        -11    1    3    3    0    0 -0.12249436384E+02  0.26671761785E+02 -0.22629709941E+02  0.37061237712E+02  0.51100000000E-03 0. -1.
         23    2    1    0    0    0  0.24803170132E+02  0.58193980310E+00  0.15037784941E+02  0.95988435436E+02  0.91499228734E+02 0.  0.
         11    1    3    3    0    0  0.37052606516E+02 -0.26089821982E+02  0.37667494882E+02  0.58927197724E+02  0.51100000000E-03 0.  1.
         22    1    1    0    0    0 -0.24803170132E+02 -0.58193980310E+00 -0.15037784941E+02  0.29011564564E+02  0.00000000000E+00 0.  1.
</event>
<event>
 5    1  0.1692171E-003  0.9118800E+02  0.7818608E-02  0.1130116E+00
         25   -1    0    0    0    0  0.00000000000E+00  0.00000000000E+00  0.99999998245E-14  0.12500000000E+03  0.12500000000E+03 0.  0.
        -11    1    3    3    0    0  0.38494527236E+01 -0.71038590291E+01  0.49529950229E+02  0.50184649738E+02  0.51100000000E-03 0.  1.
         23    2    1    0    0    0 -0.94444338454E+01  0.21897224250E+02  0.17262843035E+02  0.95560375169E+02  0.90912561246E+02 0.  0.
         11    1    3    3    0    0 -0.13293886569E+02  0.29001083280E+02 -0.32267107194E+02  0.45375725431E+02  0.51100000000E-03 0. -1.
         22    1    1    0    0    0  0.94444338454E+01 -0.21897224250E+02 -0.17262843035E+02  0.29439624831E+02  0.00000000000E+00 0.  1.
</event>
<event>
 5    1  0.1692171E-003  0.9118800E+02  0.7818608E-02  0.1130116E+00
         25   -1    0    0    0    0  0.00000000000E+00  0.00000000000E+00  0.99999998245E-14  0.12500000000E+03  0.12500000000E+03 0.  0.
        -11    1    3    3    0    0 -0.42415501520E+02  0.20795284337E+02  0.26062270362E+02  0.53951464823E+02  0.51100000000E-03 0. -1.
         23    2    1    0    0    0 -0.28586764712E+02 -0.87432555042E+01  0.99054758307E+00  0.95089653662E+02  0.90263023524E+02 0.  0.
         11    1    3    3    0    0  0.13828736808E+02 -0.29538539842E+02 -0.25071722779E+02  0.41138188840E+02  0.51100000000E-03 0.  1.
         22    1    1    0    0    0  0.28586764712E+02  0.87432555042E+01 -0.99054758307E+00  0.29910346338E+02  0.00000000000E+00 0. -1.
</event>
<event>
 5    1  0.1692171E-003  0.9118800E+02  0.7818608E-02  0.1130116E+00
         25   -1    0    0    0    0  0.00000000000E+00  0.00000000000E+00  0.99999998245E-14  0.12500000000E+03  0.12500000000E+03 0.  0.
        -11    1    3    3    0    0  0.30789019697E+01 -0.45203894436E+02 -0.38922824238E+02  0.59731549088E+02  0.51100000000E-03 0.  1.
         23    2    1    0    0    0 -0.97950797068E+01 -0.26941433771E+02 -0.14357101728E+02  0.92938951824E+02  0.87233812000E+02 0.  0.
         11    1    3    3    0    0 -0.12873981676E+02  0.18262460665E+02  0.24565722511E+02  0.33207402736E+02  0.51100000000E-03 0. -1.
         22    1    1    0    0    0  0.97950797068E+01  0.26941433771E+02  0.14357101728E+02  0.32061048176E+02  0.00000000000E+00 0.  1.
</event>
<event>
 5    1  0.1692171E-003  0.9118800E+02  0.7818608E-02  0.1130116E+00
         25   -1    0    0    0    0  0.00000000000E+00  0.00000000000E+00  0.99999998245E-14  0.12500000000E+03  0.12500000000E+03 0.  0.
        -11    1    3    3    0    0  0.21655301648E+02 -0.14968077658E+02 -0.28252186679E+02  0.38615819176E+02  0.51100000000E-03 0.  1.
         23    2    1    0    0    0 -0.87533781019E+01  0.27703236203E+02 -0.73292621919E+01  0.95036538775E+02  0.90189437817E+02 0.  0.
         11    1    3    3    0    0 -0.30408679750E+02  0.42671313860E+02  0.20922924487E+02  0.56420719599E+02  0.51100000000E-03 0. -1.
         22    1    1    0    0    0  0.87533781019E+01 -0.27703236203E+02  0.73292621919E+01  0.29963461225E+02  0.00000000000E+00 0. -1.
</event>
<event>
 5    1  0.1692171E-003  0.9118800E+02  0.7818608E-02  0.1130116E+00
         25   -1    0    0    0    0  0.00000000000E+00  0.00000000000E+00  0.99999998245E-14  0.12500000000E+03  0.12500000000E+03 0.  0.
        -11    1    3    3    0    0  0.11989722960E+01 -0.38256054888E+02 -0.31693383969E+02  0.49693398533E+02  0.51100000000E-03 0. -1.
         23    2    1    0    0    0  0.22534566797E+01 -0.25531069790E+02  0.13061017142E+02  0.96233634911E+02  0.91833592589E+02 0.  0.
         11    1    3    3    0    0  0.10544843838E+01  0.12724985098E+02  0.44754401111E+02  0.46540236378E+02  0.51100000000E-03 0.  1.
         22    1    1    0    0    0 -0.22534566797E+01  0.25531069790E+02 -0.13061017142E+02  0.28766365089E+02  0.00000000000E+00 0.  1.
</event>
<event>
 5    1  0.1692171E-003  0.9118800E+02  0.7818608E-02  0.1130116E+00
         25   -1    0    0    0    0  0.00000000000E+00  0.00000000000E+00  0.99999998245E-14  0.12500000000E+03  0.12500000000E+03 0.  0.
        -11    1    3    3    0    0  0.44318043984E+02 -0.46136869020E+01 -0.22847360946E+01  0.44616086210E+02  0.51100000000E-03 0.  1.
         23    2    1    0    0    0  0.29630563274E+00 -0.71090754698E+01 -0.28305474814E+02  0.95813930455E+02  0.91260520564E+02 0.  0.
         11    1    3    3    0    0 -0.44021738351E+02 -0.24953885678E+01 -0.26020738719E+02  0.51197844245E+02  0.51100000000E-03 0. -1.
         22    1    1    0    0    0 -0.29630563274E+00  0.71090754698E+01  0.28305474814E+02  0.29186069545E+02  0.00000000000E+00 0.  1.
</event>
<event>
 5    1  0.1692171E-003  0.9118800E+02  0.7818608E-02  0.1130116E+00
         25   -1    0    0    0    0  0.00000000000E+00  0.00000000000E+00  0.99999998245E-14  0.12500000000E+03  0.12500000000E+03 0.  0.
        -11    1    3    3    0    0 -0.38217111409E+02 -0.21768775942E+02 -0.97476856996E+01  0.45049357235E+02  0.51100000000E-03 0. -1.
         23    2    1    0    0    0 -0.15895286348E+02  0.23667533997E+02 -0.63826693671E+01  0.95784408926E+02  0.91220075814E+02 0.  0.
         11    1    3    3    0    0  0.22321825062E+02  0.45436309939E+02  0.33650163325E+01  0.50735051691E+02  0.51100000000E-03 0.  1.
         22    1    1    0    0    0  0.15895286348E+02 -0.23667533997E+02  0.63826693671E+01  0.29215591074E+02  0.00000000000E+00 0.  1.
</event>
<event>
 5    1  0.1692171E-003  0.9118800E+02  0.7818608E-02  0.1130116E+00
         25   -1    0    0    0    0  0.00000000000E+00  0.00000000000E+00  0.99999998245E-14  0.12500000000E+03  0.12500000000E+03 0.  0.
        -11    1    3    3    0    0  0.27034815753E+02  0.25793977007E+02 -0.43503506066E+02  0.57347759790E+02  0.51100000000E-03 0.  1.
         23    2    1    0    0    0  0.27226216923E+02  0.46134631815E+01 -0.13013948091E+02  0.94472737178E+02  0.89404610030E+02 0.  0.
         11    1    3    3    0    0  0.19140116970E+00 -0.21180513825E+02  0.30489557975E+02  0.37124977388E+02  0.51100000000E-03 0. -1.
         22    1    1    0    0    0 -0.27226216923E+02 -0.46134631815E+01  0.13013948091E+02  0.30527262822E+02  0.00000000000E+00 0.  1.
</event>
<event>
 5    1  0.1692171E-003  0.9118800E+02  0.7818608E-02  0.1130116E+00
         25   -1    0    0    0    0  0.00000000000E+00  0.00000000000E+00  0.99999998245E-14  0.12500000000E+03  0.12500000000E+03 0.  0.
        -11    1    3    3    0    0  0.71692471111E+01 -0.27004519712E+02 -0.74527833690E+01  0.28916883809E+02  0.51100000000E-03 0.  1.
         23    2    1    0    0    0 -0.78025661191E+01  0.30599432595E+02 -0.16906008284E+02  0.89180753368E+02  0.81671221015E+02 0.  0.
         11    1    3    3    0    0 -0.14971813230E+02  0.57603952307E+02 -0.94532249149E+01  0.60263869560E+02  0.51100000000E-03 0. -1.
         22    1    1    0    0    0  0.78025661191E+01 -0.30599432595E+02  0.16906008284E+02  0.35819246632E+02  0.00000000000E+00 0. -1.
</event>
<event>
 5    1  0.1692171E-003  0.9118800E+02  0.7818608E-02  0.1130116E+00
         25   -1    0    0    0    0  0.00000000000E+00  0.00000000000E+00  0.99999998245E-14  0.12500000000E+03  0.12500000000E+03 0.  0.
        -11    1    3    3    0    0 -0.12231515110E+02  0.46783577899E+01 -0.59365878039E+02  0.60793128469E+02  0.51100000000E-03 0.  1.
         23    2    1    0    0    0  0.67134653937E+00 -0.59612974136E+01 -0.28265827339E+02  0.96104589150E+02  0.91657772652E+02 0.  0.
         11    1    3    3    0    0  0.12902861649E+02 -0.10639655204E+02  0.31100050700E+02  0.35311460681E+02  0.51100000000E-03 0. -1.
         22    1    1    0    0    0 -0.67134653937E+00  0.59612974136E+01  0.28265827339E+02  0.28895410850E+02  0.00000000000E+00 0.  1.
</event>
<event>
 5    1  0.1692171E-003  0.9118800E+02  0.7818608E-02  0.1130116E+00
         25   -1    0    0    0    0  0.00000000000E+00  0.00000000000E+00  0.99999998245E-14  0.12500000000E+03  0.12500000000E+03 0.  0.
        -11    1    3    3    0    0 -0.38245274461E+02 -0.47539392261E+02  0.90023566483E+01  0.61674445767E+02  0.51100000000E-03 0.  1.
         23    2    1    0    0    0 -0.17485766981E+02 -0.28632428343E+02 -0.87229468030E+00  0.91439176146E+02  0.85057592469E+02 0.  0.
         11    1    3    3    0    0  0.20759507480E+02  0.18906963918E+02 -0.98746513286E+01  0.29764730379E+02  0.51100000000E-03 0. -1.
         22    1    1    0    0    0  0.17485766981E+02  0.28632428343E+02  0.87229468030E+00  0.33560823854E+02  0.00000000000E+00 0.  1.
</event>
<event>
 5    1  0.1692171E-003  0.9118800E+02  0.7818608E-02  0.1130116E+00
         25   -1    0    0    0    0  0.00000000000E+00  0.00000000000E+00  0.99999998245E-14  0.12500000000E+03  0.12500000000E+03 0.  0.
        -11    1    3    3    0    0  0.15513556107E+02 -0.29394291164E+02  0.25422519377E+02  0.41844943157E+02  0.51100000000E-03 0. -1.
         23    2    1    0    0    0  0.12643602073E+02  0.22915665946E+02  0.13406106883E+02  0.95594012159E+02  0.90958798583E+02 0.  0.
         11    1    3    3    0    0 -0.28699540336E+01  0.52309957111E+02 -0.12016412493E+02  0.53749069002E+02  0.51100000000E-03 0.  1.
         22    1    1    0    0    0 -0.12643602073E+02 -0.22915665946E+02 -0.13406106883E+02  0.29405987841E+02  0.00000000000E+00 0.  1.
</event>
<event>
 5    1  0.1692171E-003  0.9118800E+02  0.7818608E-02  0.1130116E+00
         25   -1    0    0    0    0  0.00000000000E+00  0.00000000000E+00  0.99999998245E-14  0.12500000000E+03  0.12500000000E+03 0.  0.
        -11    1    3    3    0    0  0.58524063693E+01 -0.26359067791E+02 -0.55333485246E+02  0.61569844120E+02  0.51100000000E-03 0.  1.
         23    2    1    0    0    0 -0.19093566644E+01 -0.14204435787E+02 -0.15717735570E+02  0.10372891986E+03  0.10152452888E+03 0.  0.
         11    1    3    3    0    0 -0.77617630337E+01  0.12154632004E+02  0.39615749676E+02  0.42159075740E+02  0.51100000000E-03 0. -1.
         22    1    1    0    0    0  0.19093566644E+01  0.14204435787E+02  0.15717735570E+02  0.21271080141E+02  0.00000000000E+00 0.  1.
</event>
<event>
 5    1  0.1692171E-003  0.9118800E+02  0.7818608E-02  0.1130116E+00
         25   -1    0    0    0    0  0.00000000000E+00  0.00000000000E+00  0.99999998245E-14  0.12500000000E+03  0.12500000000E+03 0.  0.
        -11    1    3    3    0    0  0.23843996280E+01 -0.11308206640E+02  0.58443627897E+02  0.59575318220E+02  0.51100000000E-03 0.  1.
         23    2    1    0    0    0 -0.94399676493E+01 -0.13262522432E+02  0.24390491316E+02  0.95675887787E+02  0.91071246542E+02 0.  0.
         11    1    3    3    0    0 -0.11824367277E+02 -0.19543157912E+01 -0.34053136581E+02  0.36100569566E+02  0.51100000000E-03 0. -1.
         22    1    1    0    0    0  0.94399676493E+01  0.13262522432E+02 -0.24390491316E+02  0.29324112213E+02  0.00000000000E+00 0.  1.
</event>
<event>
 5    1  0.1692171E-003  0.9118800E+02  0.7818608E-02  0.1130116E+00
         25   -1    0    0    0    0  0.00000000000E+00  0.00000000000E+00  0.99999998245E-14  0.12500000000E+03  0.12500000000E+03 0.  0.
        -11    1    3    3    0    0 -0.59870249469E+01 -0.11955775469E+02 -0.32333676950E+02  0.34989308369E+02  0.51100000000E-03 0. -1.
         23    2    1    0    0    0 -0.10701524161E+02  0.16755550080E+02  0.21210655657E+02  0.95928312893E+02  0.91417056522E+02 0.  0.
         11    1    3    3    0    0 -0.47144992140E+01  0.28711325549E+02  0.53544332608E+02  0.60939004523E+02  0.51100000000E-03 0.  1.
         22    1    1    0    0    0  0.10701524161E+02 -0.16755550080E+02 -0.21210655657E+02  0.29071687107E+02  0.00000000000E+00 0.  1.
</event>
<event>
 5    1  0.1692171E-003  0.9118800E+02  0.7818608E-02  0.1130116E+00
         25   -1    0    0    0    0  0.00000000000E+00  0.00000000000E+00  0.99999998245E-14  0.12500000000E+03  0.12500000000E+03 0.  0.
        -11    1    3    3    0    0 -0.15356490741E+02 -0.13459427217E+02  0.31012164589E+02  0.37131285214E+02  0.51100000000E-03 0. -1.
         23    2    1    0    0    0  0.29826907438E+02 -0.82028134223E+01 -0.29876486551E+01  0.93921766462E+02  0.88630929227E+02 0.  0.
         11    1    3    3    0    0  0.45183398179E+02  0.52566137942E+01 -0.33999813244E+02  0.56790481249E+02  0.51100000000E-03 0.  1.
         22    1    1    0    0    0 -0.29826907438E+02  0.82028134223E+01  0.29876486551E+01  0.31078233538E+02  0.00000000000E+00 0.  1.
</event>
<event>
 5    1  0.1692171E-003  0.9118800E+02  0.7818608E-02  0.1130116E+00
         25   -1    0    0    0    0  0.00000000000E+00  0.00000000000E+00  0.99999998245E-14  0.12500000000E+03  0.12500000000E+03 0.  0.
        -11    1    3    3    0    0  0.39247948375E+02  0.25750543960E+02  0.34018591879E+02  0.57972032564E+02  0.51100000000E-03 0. -1.
         23    2    1    0    0    0  0.13355421696E+02  0.24137648808E+02  0.48805615598E+01  0.96985481268E+02  0.92851334493E+02 0.  0.
         11    1    3    3    0    0 -0.25892526680E+02 -0.16128951523E+01 -0.29138030320E+02  0.39013448704E+02  0.51100000000E-03 0.  1.
         22    1    1    0    0    0 -0.13355421696E+02 -0.24137648808E+02 -0.48805615598E+01  0.28014518732E+02  0.00000000000E+00 0. -1.
</event>
<event>
 5    1  0.1692171E-003  0.9118800E+02  0.7818608E-02  0.1130116E+00
         25   -1    0    0    0    0  0.00000000000E+00  0.00000000000E+00  0.99999998245E-14  0.12500000000E+03  0.12500000000E+03 0.  0.
        -11    1    3    3    0    0  0.21932631067E+02 -0.20018059792E+01 -0.39302926847E+02  0.45052942098E+02  0.51100000000E-03 0.  1.
         23    2    1    0    0    0  0.24937070458E+01  0.29866289912E+02 -0.74676447276E+01  0.94113440371E+02  0.88900844162E+02 0.  0.
         11    1    3    3    0    0 -0.19438924021E+02  0.31868095892E+02  0.31835282120E+02  0.49060498272E+02  0.51100000000E-03 0. -1.
         22    1    1    0    0    0 -0.24937070458E+01 -0.29866289912E+02  0.74676447276E+01  0.30886559629E+02  0.00000000000E+00 0. -1.
</event>
<event>
 5    1  0.1692171E-003  0.9118800E+02  0.7818608E-02  0.1130116E+00
         25   -1    0    0    0    0  0.00000000000E+00  0.00000000000E+00  0.99999998245E-14  0.12500000000E+03  0.12500000000E+03 0.  0.
        -11    1    3    3    0    0 -0.44768626503E+02 -0.64937100316E+01  0.23951212865E+02  0.51186509814E+02  0.51100000000E-03 0. -1.
         23    2    1    0    0    0 -0.65161587470E+01  0.63819342099E+01  0.31463678797E+02  0.92240993719E+02  0.86227886613E+02 0.  0.
         11    1    3    3    0    0  0.38252467756E+02  0.12875644242E+02  0.75124659314E+01  0.41054483905E+02  0.51100000000E-03 0.  1.
         22    1    1    0    0    0  0.65161587470E+01 -0.63819342099E+01 -0.31463678797E+02  0.32759006281E+02  0.00000000000E+00 0. -1.
</event>
<event>
 5    1  0.1692171E-003  0.9118800E+02  0.7818608E-02  0.1130116E+00
         25   -1    0    0    0    0  0.00000000000E+00  0.00000000000E+00  0.99999998245E-14  0.12500000000E+03  0.12500000000E+03 0.  0.
        -11    1    3    3    0    0  0.35653644848E+02 -0.10960443930E+02  0.42290797715E+01  0.37539297250E+02  0.51100000000E-03 0. -1.
         23    2    1    0    0    0 -0.18423046255E+02 -0.16156199964E+01  0.22952828767E+02  0.95523717845E+02  0.90862145370E+02 0.  0.
         11    1    3    3    0    0 -0.54076691102E+02  0.93448239336E+01  0.18723748996E+02  0.57984420594E+02  0.51100000000E-03 0.  1.
         22    1    1    0    0    0  0.18423046255E+02  0.16156199964E+01 -0.22952828767E+02  0.29476282155E+02  0.00000000000E+00 0.  1.
</event>
<event>
 5    1  0.1692171E-003  0.9118800E+02  0.7818608E-02  0.1130116E+00
         25   -1    0    0    0    0  0.00000000000E+00  0.00000000000E+00  0.99999998245E-14  0.12500000000E+03  0.12500000000E+03 0.  0.
        -11    1    3    3    0    0 -0.11196763803E+02  0.52879499072E+02 -0.83235250741E+01  0.54689030086E+02  0.51100000000E-03 0. -1.
         23    2    1    0    0    0 -0.98167952931E+01  0.86137642539E+01 -0.20566322010E+02  0.10063732352E+03  0.97643898320E+02 0.  0.
         11    1    3    3    0    0  0.13799685099E+01 -0.44265734818E+02 -0.12242796936E+02  0.45948293430E+02  0.51100000000E-03 0.  1.
         22    1    1    0    0    0  0.98167952931E+01 -0.86137642539E+01  0.20566322010E+02  0.24362676484E+02  0.00000000000E+00 0. -1.
</event>
<event>
 5    1  0.1692171E-003  0.9118800E+02  0.7818608E-02  0.1130116E+00
         25   -1    0    0    0    0  0.00000000000E+00  0.00000000000E+00  0.99999998245E-14  0.12500000000E+03  0.12500000000E+03 0.  0.
        -11    1    3    3    0    0 -0.54651822232E+02  0.23560953632E+02 -0.17322165615E+02  0.61983849761E+02  0.51100000000E-03 0.  1.
         23    2    1    0    0    0 -0.28236104479E+02  0.61621879966E+01 -0.96374459211E+01  0.94534765372E+02  0.89491291996E+02 0.  0.
         11    1    3    3    0    0  0.26415717753E+02 -0.17398765636E+02  0.76847196943E+01  0.32550915611E+02  0.51100000000E-03 0. -1.
         22    1    1    0    0    0  0.28236104479E+02 -0.61621879966E+01  0.96374459211E+01  0.30465234628E+02  0.00000000000E+00 0.  1.
</event>
<event>
 5    1  0.1692171E-003  0.9118800E+02  0.7818608E-02  0.1130116E+00
         25   -1    0    0    0    0  0.00000000000E+00  0.00000000000E+00  0.99999998245E-14  0.12500000000E+03  0.12500000000E+03 0.  0.
        -11    1    3    3    0    0  0.80749382998E+01 -0.19459265613E+02  0.52243392849E+02  0.56331516431E+02  0.51100000000E-03 0.  1.
         23    2    1    0    0    0 -0.93106203534E+00  0.93918561438E+01  0.29126381376E+02  0.94382685774E+02  0.89278616944E+02 0.  0.
         11    1    3    3    0    0 -0.90060003351E+01  0.28851121757E+02 -0.23117011473E+02  0.38051169343E+02  0.51100000000E-03 0. -1.
         22    1    1    0    0    0  0.93106203534E+00 -0.93918561438E+01 -0.29126381376E+02  0.30617314226E+02  0.00000000000E+00 0.  1.
</event>
<event>
 5    1  0.1692171E-003  0.9118800E+02  0.7818608E-02  0.1130116E+00
         25   -1    0    0    0    0  0.00000000000E+00  0.00000000000E+00  0.99999998245E-14  0.12500000000E+03  0.12500000000E+03 0.  0.
        -11    1    3    3    0    0  0.47242153050E+01 -0.35809220835E+02  0.22454458320E+02  0.42530238722E+02  0.51100000000E-03 0.  1.
         23    2    1    0    0    0 -0.41946812849E+01 -0.33756329850E+02 -0.19716586636E+02  0.85682968772E+02  0.76129772054E+02 0.  0.
         11    1    3    3    0    0 -0.89188965899E+01  0.20528909853E+01 -0.42171044956E+02  0.43152730050E+02  0.51100000000E-03 0. -1.
         22    1    1    0    0    0  0.41946812849E+01  0.33756329850E+02  0.19716586636E+02  0.39317031228E+02  0.00000000000E+00 0.  1.
</event>
<event>
 5    1  0.1692171E-003  0.9118800E+02  0.7818608E-02  0.1130116E+00
         25   -1    0    0    0    0  0.00000000000E+00  0.00000000000E+00  0.99999998245E-14  0.12500000000E+03  0.12500000000E+03 0.  0.
        -11    1    3    3    0    0 -0.45120126892E+02 -0.17960438166E+02  0.29884120085E+02  0.57021608390E+02  0.51100000000E-03 0.  1.
         23    2    1    0    0    0 -0.90889153451E+01 -0.12531668255E+02  0.27381462360E+02  0.93545341006E+02  0.88098440688E+02 0.  0.
         11    1    3    3    0    0  0.36031211547E+02  0.54287699109E+01 -0.25026577249E+01  0.36523732616E+02  0.51100000000E-03 0. -1.
         22    1    1    0    0    0  0.90889153451E+01  0.12531668255E+02 -0.27381462360E+02  0.31454658994E+02  0.00000000000E+00 0.  1.
</event>
<event>
 5    1  0.1692171E-003  0.9118800E+02  0.7818608E-02  0.1130116E+00
         25   -1    0    0    0    0  0.00000000000E+00  0.00000000000E+00  0.99999998245E-14  0.12500000000E+03  0.12500000000E+03 0.  0.
        -11    1    3    3    0    0 -0.58456450437E+02 -0.18149557989E+02 -0.41996036766E+01  0.61353074285E+02  0.51100000000E-03 0. -1.
         23    2    1    0    0    0 -0.26925144962E+02 -0.80400397093E+01  0.65129906925E+01  0.96155161336E+02  0.91726715487E+02 0.  0.
         11    1    3    3    0    0  0.31531305474E+02  0.10109518280E+02  0.10712594369E+02  0.34802087052E+02  0.51100000000E-03 0.  1.
         22    1    1    0    0    0  0.26925144962E+02  0.80400397093E+01 -0.65129906925E+01  0.28844838664E+02  0.00000000000E+00 0. -1.
</event>
<event>
 5    1  0.1692171E-003  0.9118800E+02  0.7818608E-02  0.1130116E+00
         25   -1    0    0    0    0  0.00000000000E+00  0.00000000000E+00  0.99999998245E-14  0.12500000000E+03  0.12500000000E+03 0.  0.
        -11    1    3    3    0    0  0.12223011455E+02  0.55123031715E+02 -0.25181057344E+02  0.61822619515E+02  0.51100000000E-03 0. -1.
         23    2    1    0    0    0  0.69660692580E+01  0.28372491200E+02 -0.59501500405E+01  0.95185093270E+02  0.90395095649E+02 0.  0.
         11    1    3    3    0    0 -0.52569421968E+01 -0.26750540515E+02  0.19230907303E+02  0.33362473755E+02  0.51100000000E-03 0.  1.
         22    1    1    0    0    0 -0.69660692580E+01 -0.28372491200E+02  0.59501500405E+01  0.29814906730E+02  0.00000000000E+00 0. -1.
</event>
<event>
 5    1  0.1692171E-003  0.9118800E+02  0.7818608E-02  0.1130116E+00
         25   -1    0    0    0    0  0.00000000000E+00  0.00000000000E+00  0.99999998245E-14  0.12500000000E+03  0.12500000000E+03 0.  0.
        -11    1    3    3    0    0 -0.37376436514E+02 -0.19152111403E+02 -0.34360069419E+02  0.54262470902E+02  0.51100000000E-03 0.  1.
         23    2    1    0    0    0 -0.14093982329E+02 -0.64971681823E+01 -0.40641446251E+02  0.81496199182E+02  0.68913349907E+02 0.  0.
         11    1    3    3    0    0  0.23282454186E+02  0.12654943221E+02 -0.62813768321E+01  0.27233728279E+02  0.51100000000E-03 0. -1.
         22    1    1    0    0    0  0.14093982329E+02  0.64971681823E+01  0.40641446251E+02  0.43503800818E+02  0.00000000000E+00 0.  1.
</event>
<event>
 5    1  0.1692171E-003  0.9118800E+02  0.7818608E-02  0.1130116E+00
         25   -1    0    0    0    0  0.00000000000E+00  0.00000000000E+00  0.99999998245E-14  0.12500000000E+03  0.12500000000E+03 0.  0.
        -11    1    3    3    0    0  0.50719117018E+02 -0.10517490710E+02 -0.28058091334E+02  0.58909277126E+02  0.51100000000E-03 0. -1.
         23    2    1    0    0    0  0.12937141892E+02 -0.89461467515E+01 -0.23108347934E+02  0.97046486334E+02  0.92933425545E+02 0.  0.
         11    1    3    3    0    0 -0.37781975125E+02  0.15713439589E+01  0.49497433999E+01  0.38137209208E+02  0.51100000000E-03 0.  1.
         22    1    1    0    0    0 -0.12937141892E+02  0.89461467515E+01  0.23108347934E+02  0.27953513666E+02  0.00000000000E+00 0. -1.
</event>
<event>
 5    1  0.1692171E-003  0.9118800E+02  0.7818608E-02  0.1130116E+00
         25   -1    0    0    0    0  0.00000000000E+00  0.00000000000E+00  0.99999998245E-14  0.12500000000E+03  0.12500000000E+03 0.  0.
        -11    1    3    3    0    0  0.74747269910E+01 -0.26205361396E+02  0.18228626082E+02  0.32785291193E+02  0.51100000000E-03 0.  1.
         23    2    1    0    0    0  0.25597772344E+01  0.25838369939E+02 -0.15274735510E+02  0.94875402650E+02  0.89965830527E+02 0.  0.
         11    1    3    3    0    0 -0.49149497566E+01  0.52043731335E+02 -0.33503361593E+02  0.62090111457E+02  0.51100000000E-03 0. -1.
         22    1    1    0    0    0 -0.25597772344E+01 -0.25838369939E+02  0.15274735510E+02  0.30124597350E+02  0.00000000000E+00 0. -1.
</event>
<event>
 5    1  0.1692171E-003  0.9118800E+02  0.7818608E-02  0.1130116E+00
         25   -1    0    0    0    0  0.00000000000E+00  0.00000000000E+00  0.99999998245E-14  0.12500000000E+03  0.12500000000E+03 0.  0.
        -11    1    3    3    0    0  0.31575348278E+02 -0.65805113554E+01  0.24114934605E+02  0.40272022793E+02  0.51100000000E-03 0. -1.
         23    2    1    0    0    0  0.69088916209E+01 -0.53796533487E+01 -0.26770664617E+02  0.96833673693E+02  0.92646739949E+02 0.  0.
         11    1    3    3    0    0 -0.24666456658E+02  0.12008580067E+01 -0.50885599222E+02  0.56561650900E+02  0.51100000000E-03 0.  1.
         22    1    1    0    0    0 -0.69088916209E+01  0.53796533487E+01  0.26770664617E+02  0.28166326307E+02  0.00000000000E+00 0.  1.
</event>
<event>
 5    1  0.1692171E-003  0.9118800E+02  0.7818608E-02  0.1130116E+00
         25   -1    0    0    0    0  0.00000000000E+00  0.00000000000E+00  0.99999998245E-14  0.12500000000E+03  0.12500000000E+03 0.  0.
        -11    1    3    3    0    0 -0.27606596078E+02  0.24308782914E+01  0.10610014718E+02  0.29675001750E+02  0.51100000000E-03 0. -1.
         23    2    1    0    0    0  0.21899850226E+02  0.40088411116E+01 -0.25631394061E+02  0.91049409306E+02  0.84482852263E+02 0.  0.
         11    1    3    3    0    0  0.49506446304E+02  0.15779628202E+01 -0.36241408779E+02  0.61374407556E+02  0.51100000000E-03 0.  1.
         22    1    1    0    0    0 -0.21899850226E+02 -0.40088411116E+01  0.25631394061E+02  0.33950590694E+02  0.00000000000E+00 0.  1.
</event>
<event>
 5    1  0.1692171E-003  0.9118800E+02  0.7818608E-02  0.1130116E+00
         25   -1    0    0    0    0  0.00000000000E+00  0.00000000000E+00  0.99999998245E-14  0.12500000000E+03  0.12500000000E+03 0.  0.
        -11    1    3    3    0    0 -0.14795406929E+02 -0.39197296464E+02 -0.23888191251E+02  0.48228392030E+02  0.51100000000E-03 0. -1.
         23    2    1    0    0    0  0.47879942670E+01  0.21046965772E+01 -0.30181079635E+02  0.94369097226E+02  0.89259589437E+02 0.  0.
         11    1    3    3    0    0  0.19583401196E+02  0.41301993041E+02 -0.62928883846E+01  0.46140705197E+02  0.51100000000E-03 0.  1.
         22    1    1    0    0    0 -0.47879942670E+01 -0.21046965772E+01  0.30181079635E+02  0.30630902774E+02  0.00000000000E+00 0. -1.
</event>
<event>
 5    1  0.1692171E-003  0.9118800E+02  0.7818608E-02  0.1130116E+00
         25   -1    0    0    0    0  0.00000000000E+00  0.00000000000E+00  0.99999998245E-14  0.12500000000E+03  0.12500000000E+03 0.  0.
        -11    1    3    3    0    0  0.36856946115E+02  0.36651566825E+02  0.58010882203E+01  0.52301285381E+02  0.51100000000E-03 0. -1.
         23    2    1    0    0    0  0.30114022598E+02  0.35207849679E+01 -0.14131261263E+02  0.91549397185E+02  0.85219418540E+02 0.  0.
         11    1    3    3    0    0 -0.67429235172E+01 -0.33130781857E+02 -0.19932349483E+02  0.39248111805E+02  0.51100000000E-03 0.  1.
         22    1    1    0    0    0 -0.30114022598E+02 -0.35207849679E+01  0.14131261263E+02  0.33450602815E+02  0.00000000000E+00 0. -1.
</event>
<event>
 5    1  0.1692171E-003  0.9118800E+02  0.7818608E-02  0.1130116E+00
         25   -1    0    0    0    0  0.00000000000E+00  0.00000000000E+00  0.99999998245E-14  0.12500000000E+03  0.12500000000E+03 0.  0.
        -11    1    3    3    0    0  0.15056924184E+02 -0.58806120851E+02 -0.93700074574E+01  0.61422046982E+02  0.51100000000E-03 0.  1.
         23    2    1    0    0    0 -0.62291912972E+00 -0.30601815046E+02 -0.41320545122E+01  0.94114194411E+02  0.88901904382E+02 0.  0.
         11    1    3    3    0    0 -0.15679843313E+02  0.28204305805E+02  0.52379529452E+01  0.32692147430E+02  0.51100000000E-03 0. -1.
         22    1    1    0    0    0  0.62291912972E+00  0.30601815046E+02  0.41320545122E+01  0.30885805589E+02  0.00000000000E+00 0.  1.
</event>
<event>
 5    1  0.1692171E-003  0.9118800E+02  0.7818608E-02  0.1130116E+00
         25   -1    0    0    0    0  0.00000000000E+00  0.00000000000E+00  0.99999998245E-14  0.12500000000E+03  0.12500000000E+03 0.  0.
        -11    1    3    3    0    0 -0.31476706774E+02  0.21708640540E+02 -0.20290064651E+02  0.43286659230E+02  0.51100000000E-03 0.  1.
         23    2    1    0    0    0  0.20594980170E+02  0.49245713543E+01 -0.16550088653E+02  0.98124173582E+02  0.94371835818E+02 0.  0.
         11    1    3    3    0    0  0.52071686944E+02 -0.16784069186E+02  0.37399759981E+01  0.54837514353E+02  0.51100000000E-03 0. -1.
         22    1    1    0    0    0 -0.20594980170E+02 -0.49245713543E+01  0.16550088653E+02  0.26875826418E+02  0.00000000000E+00 0. -1.
</event>
<event>
 5    1  0.1692171E-003  0.9118800E+02  0.7818608E-02  0.1130116E+00
         25   -1    0    0    0    0  0.00000000000E+00  0.00000000000E+00  0.99999998245E-14  0.12500000000E+03  0.12500000000E+03 0.  0.
        -11    1    3    3    0    0  0.50007084764E+02  0.27077402745E+02  0.98339349504E+01  0.57711355407E+02  0.51100000000E-03 0. -1.
         23    2    1    0    0    0  0.28009154155E+02  0.11748152386E+01 -0.76677384637E+01  0.95936498483E+02  0.91428248483E+02 0.  0.
         11    1    3    3    0    0 -0.21997930609E+02 -0.25902587507E+02 -0.17501673414E+02  0.38225143076E+02  0.51100000000E-03 0.  1.
         22    1    1    0    0    0 -0.28009154155E+02 -0.11748152386E+01  0.76677384637E+01  0.29063501517E+02  0.00000000000E+00 0. -1.
</event>
<event>
 5    1  0.1692171E-003  0.9118800E+02  0.7818608E-02  0.1130116E+00
         25   -1    0    0    0    0  0.00000000000E+00  0.00000000000E+00  0.99999998245E-14  0.12500000000E+03  0.12500000000E+03 0.  0.
        -11    1    3    3    0    0  0.79646024645E+01  0.23361128530E+02 -0.45924785572E+02  0.52136965281E+02  0.51100000000E-03 0.  1.
         23    2    1    0    0    0 -0.20959124052E+02  0.14191065961E+02 -0.14456720053E+02  0.95850935027E+02  0.91311191848E+02 0.  0.
         11    1    3    3    0    0 -0.28923726517E+02 -0.91700625691E+01  0.31468065519E+02  0.43713969746E+02  0.51100000000E-03 0. -1.
         22    1    1    0    0    0  0.20959124052E+02 -0.14191065961E+02  0.14456720053E+02  0.29149064973E+02  0.00000000000E+00 0.  1.
</event>
<event>
 5    1  0.1692171E-003  0.9118800E+02  0.7818608E-02  0.1130116E+00
         25   -1    0    0    0    0  0.00000000000E+00  0.00000000000E+00  0.99999998245E-14  0.12500000000E+03  0.12500000000E+03 0.  0.
        -11    1    3    3    0    0  0.67506412217E+01 -0.30921226073E+02 -0.53647142412E+02  0.62287312255E+02  0.51100000000E-03 0. -1.
         23    2    1    0    0    0  0.32375459604E+01 -0.11207196678E+02 -0.26724069242E+02  0.95840801827E+02  0.91297319001E+02 0.  0.
         11    1    3    3    0    0 -0.35130952613E+01  0.19714029395E+02  0.26923073169E+02  0.33553489572E+02  0.51100000000E-03 0.  1.
         22    1    1    0    0    0 -0.32375459604E+01  0.11207196678E+02  0.26724069242E+02  0.29159198173E+02  0.00000000000E+00 0. -1.
</event>
<event>
 5    1  0.1692171E-003  0.9118800E+02  0.7818608E-02  0.1130116E+00
         25   -1    0    0    0    0  0.00000000000E+00  0.00000000000E+00  0.99999998245E-14  0.12500000000E+03  0.12500000000E+03 0.  0.
        -11    1    3    3    0    0 -0.24979001152E+02  0.25807094126E+02  0.65429524709E+01  0.36507079219E+02  0.51100000000E-03 0.  1.
         23    2    1    0    0    0  0.22437351698E+02 -0.95835012526E+01  0.15124999300E+02  0.96293836005E+02  0.91915499244E+02 0.  0.
         11    1    3    3    0    0  0.47416352851E+02 -0.35390595379E+02  0.85820468288E+01  0.59786756786E+02  0.51100000000E-03 0. -1.
         22    1    1    0    0    0 -0.22437351698E+02  0.95835012526E+01 -0.15124999300E+02  0.28706163995E+02  0.00000000000E+00 0. -1.
</event>
<event>
 5    1  0.1692171E-003  0.9118800E+02  0.7818608E-02  0.1130116E+00
         25   -1    0    0    0    0  0.00000000000E+00  0.00000000000E+00  0.99999998245E-14  0.12500000000E+03  0.12500000000E+03 0.  0.
        -11    1    3    3    0    0  0.68957705227E+01 -0.23729696465E+02 -0.23170374516E+02  0.33875011453E+02  0.51100000000E-03 0.  1.
         23    2    1    0    0    0 -0.12341326061E+02  0.18397104159E+02  0.18472616298E+02  0.96155601527E+02  0.91727315353E+02 0.  0.
         11    1    3    3    0    0 -0.19237096583E+02  0.42126800624E+02  0.41642990814E+02  0.62280590074E+02  0.51100000000E-03 0. -1.
         22    1    1    0    0    0  0.12341326061E+02 -0.18397104159E+02 -0.18472616298E+02  0.28844398473E+02  0.00000000000E+00 0. -1.
</event>
<event>
 5    1  0.1692171E-003  0.9118800E+02  0.7818608E-02  0.1130116E+00
         25   -1    0    0    0    0  0.00000000000E+00  0.00000000000E+00  0.99999998245E-14  0.12500000000E+03  0.12500000000E+03 0.  0.
        -11    1    3    3    0    0  0.31030575190E+02 -0.40972832761E+02 -0.13797381958E+02  0.53216889896E+02  0.51100000000E-03 0. -1.
         23    2    1    0    0    0 -0.49004806236E+01 -0.19963398094E+02 -0.21175225071E+02  0.95488271304E+02  0.90813368102E+02 0.  0.
         11    1    3    3    0    0 -0.35931055814E+02  0.21009434666E+02 -0.73778431137E+01  0.42271381408E+02  0.51100000000E-03 0.  1.
         22    1    1    0    0    0  0.49004806236E+01  0.19963398094E+02  0.21175225071E+02  0.29511728696E+02  0.00000000000E+00 0. -1.
</event>
<event>
 5    1  0.1692171E-003  0.9118800E+02  0.7818608E-02  0.1130116E+00
         25   -1    0    0    0    0  0.00000000000E+00  0.00000000000E+00  0.99999998245E-14  0.12500000000E+03  0.12500000000E+03 0.  0.
        -11    1    3    3    0    0  0.76564173661E+01 -0.59330077213E+02  0.82559298183E+01  0.60389064957E+02  0.51100000000E-03 0. -1.
         23    2    1    0    0    0 -0.78204155776E+01 -0.25792639257E+02  0.10131744256E+01  0.98028799395E+02  0.94245423490E+02 0.  0.
         11    1    3    3    0    0 -0.15476832944E+02  0.33537437956E+02 -0.72427553928E+01  0.37639734438E+02  0.51100000000E-03 0.  1.
         22    1    1    0    0    0  0.78204155776E+01  0.25792639257E+02 -0.10131744256E+01  0.26971200605E+02  0.00000000000E+00 0. -1.
</event>
<event>
 5    1  0.1692171E-003  0.9118800E+02  0.7818608E-02  0.1130116E+00
         25   -1    0    0    0    0  0.00000000000E+00  0.00000000000E+00  0.99999998245E-14  0.12500000000E+03  0.12500000000E+03 0.  0.
        -11    1    3    3    0    0  0.54139658567E+02  0.75627581543E+01 -0.24229244686E+02  0.59794265938E+02  0.51100000000E-03 0. -1.
         23    2    1    0    0    0  0.30797589715E+02 -0.87833254935E+01 -0.13545317987E+02  0.90227683736E+02  0.83258158363E+02 0.  0.
         11    1    3    3    0    0 -0.23342068852E+02 -0.16346083648E+02  0.10683926699E+02  0.30433417798E+02  0.51100000000E-03 0.  1.
         22    1    1    0    0    0 -0.30797589715E+02  0.87833254935E+01  0.13545317987E+02  0.34772316264E+02  0.00000000000E+00 0. -1.
</event>
<event>
 5    1  0.1692171E-003  0.9118800E+02  0.7818608E-02  0.1130116E+00
         25   -1    0    0    0    0  0.00000000000E+00  0.00000000000E+00  0.99999998245E-14  0.12500000000E+03  0.12500000000E+03 0.  0.
        -11    1    3    3    0    0  0.10038584435E+02  0.38309178508E+02  0.19994949492E+01  0.39653049261E+02  0.51100000000E-03 0.  1.
         23    2    1    0    0    0 -0.70012709728E+01 -0.70225459126E+01 -0.27093778090E+02  0.96148539768E+02  0.91717691543E+02 0.  0.
         11    1    3    3    0    0 -0.17039855408E+02 -0.45331724420E+02 -0.29093273039E+02  0.56495490507E+02  0.51100000000E-03 0. -1.
         22    1    1    0    0    0  0.70012709728E+01  0.70225459126E+01  0.27093778090E+02  0.28851460232E+02  0.00000000000E+00 0. -1.
</event>
<event>
 5    1  0.1692171E-003  0.9118800E+02  0.7818608E-02  0.1130116E+00
         25   -1    0    0    0    0  0.00000000000E+00  0.00000000000E+00  0.99999998245E-14  0.12500000000E+03  0.12500000000E+03 0.  0.
        -11    1    3    3    0    0 -0.41613908051E+01  0.19381250082E+02  0.33412211845E+02  0.38850044129E+02  0.51100000000E-03 0.  1.
         23    2    1    0    0    0 -0.26274909170E+02 -0.65549979940E+01 -0.11791956996E+02  0.95463766313E+02  0.90779631958E+02 0.  0.
         11    1    3    3    0    0 -0.22113518365E+02 -0.25936248076E+02 -0.45204168841E+02  0.56613722185E+02  0.51100000000E-03 0. -1.
         22    1    1    0    0    0  0.26274909170E+02  0.65549979940E+01  0.11791956996E+02  0.29536233687E+02  0.00000000000E+00 0. -1.
</event>
<event>
 5    1  0.1692171E-003  0.9118800E+02  0.7818608E-02  0.1130116E+00
         25   -1    0    0    0    0  0.00000000000E+00  0.00000000000E+00  0.99999998245E-14  0.12500000000E+03  0.12500000000E+03 0.  0.
        -11    1    3    3    0    0  0.14605218625E+02  0.20788886137E+02 -0.26251581576E+02  0.36532666662E+02  0.51100000000E-03 0.  1.
         23    2    1    0    0    0 -0.30219921114E+02 -0.21577373834E+01  0.26384827084E+01  0.94588471696E+02  0.89566276712E+02 0.  0.
         11    1    3    3    0    0 -0.44825139739E+02 -0.22946623521E+02  0.28890064284E+02  0.58055805035E+02  0.51100000000E-03 0. -1.
         22    1    1    0    0    0  0.30219921114E+02  0.21577373834E+01 -0.26384827084E+01  0.30411528304E+02  0.00000000000E+00 0. -1.
</event>
<event>
 5    1  0.1692171E-003  0.9118800E+02  0.7818608E-02  0.1130116E+00
         25   -1    0    0    0    0  0.00000000000E+00  0.00000000000E+00  0.99999998245E-14  0.12500000000E+03  0.12500000000E+03 0.  0.
        -11    1    3    3    0    0 -0.15257444877E+02  0.33092469218E+02  0.16296807961E+02  0.39918505647E+02  0.51100000000E-03 0. -1.
         23    2    1    0    0    0 -0.16568078268E+02 -0.22321291860E+02  0.87380113365E+01  0.95860780211E+02  0.91324668369E+02 0.  0.
         11    1    3    3    0    0 -0.13106333911E+01 -0.55413761078E+02 -0.75587966249E+01  0.55942274564E+02  0.51100000000E-03 0.  1.
         22    1    1    0    0    0  0.16568078268E+02  0.22321291860E+02 -0.87380113365E+01  0.29139219789E+02  0.00000000000E+00 0.  1.
</event>
<event>
 5    1  0.1692171E-003  0.9118800E+02  0.7818608E-02  0.1130116E+00
         25   -1    0    0    0    0  0.00000000000E+00  0.00000000000E+00  0.99999998245E-14  0.12500000000E+03  0.12500000000E+03 0.  0.
        -11    1    3    3    0    0  0.13798205062E+02  0.32094918455E+02  0.16540427394E+02  0.38653072222E+02  0.51100000000E-03 0.  1.
         23    2    1    0    0    0  0.15176269737E+02 -0.24076428139E+02  0.35935160009E+01  0.96313645887E+02  0.91942435641E+02 0.  0.
         11    1    3    3    0    0  0.13780646753E+01 -0.56171346594E+02 -0.12946911393E+02  0.57660573665E+02  0.51100000000E-03 0. -1.
         22    1    1    0    0    0 -0.15176269737E+02  0.24076428139E+02 -0.35935160009E+01  0.28686354113E+02  0.00000000000E+00 0. -1.
</event>
<event>
 5    1  0.1692171E-003  0.9118800E+02  0.7818608E-02  0.1130116E+00
         25   -1    0    0    0    0  0.00000000000E+00  0.00000000000E+00  0.99999998245E-14  0.12500000000E+03  0.12500000000E+03 0.  0.
        -11    1    3    3    0    0  0.27653940903E+02  0.26914537046E+02  0.15367830392E+02  0.41536766401E+02  0.51100000000E-03 0.  1.
         23    2    1    0    0    0 -0.33318911136E+01  0.93573598400E+01 -0.26615715526E+02  0.96591233843E+02  0.92319057950E+02 0.  0.
         11    1    3    3    0    0 -0.30985832017E+02 -0.17557177206E+02 -0.41983545918E+02  0.55054467442E+02  0.51100000000E-03 0. -1.
         22    1    1    0    0    0  0.33318911136E+01 -0.93573598400E+01  0.26615715526E+02  0.28408766157E+02  0.00000000000E+00 0. -1.
</event>
<event>
 5    1  0.1692171E-003  0.9118800E+02  0.7818608E-02  0.1130116E+00
         25   -1    0    0    0    0  0.00000000000E+00  0.00000000000E+00  0.99999998245E-14  0.12500000000E+03  0.12500000000E+03 0.  0.
        -11    1    3    3    0    0  0.82116786376E+01 -0.27432571820E+02 -0.27806996099E+02  0.39914993361E+02  0.51100000000E-03 0. -1.
         23    2    1    0    0    0 -0.29225253498E+02 -0.96143587439E+01  0.62921900081E+01  0.93597086263E+02  0.88171829774E+02 0.  0.
         11    1    3    3    0    0 -0.37436932136E+02  0.17818213076E+02  0.34099186107E+02  0.53682092902E+02  0.51100000000E-03 0.  1.
         22    1    1    0    0    0  0.29225253498E+02  0.96143587439E+01 -0.62921900081E+01  0.31402913737E+02  0.00000000000E+00 0.  1.
</event>
<event>
 5    1  0.1692171E-003  0.9118800E+02  0.7818608E-02  0.1130116E+00
         25   -1    0    0    0    0  0.00000000000E+00  0.00000000000E+00  0.99999998245E-14  0.12500000000E+03  0.12500000000E+03 0.  0.
        -11    1    3    3    0    0 -0.30248361135E+01 -0.21487698678E+02  0.48624502954E+02  0.53246719296E+02  0.51100000000E-03 0.  1.
         23    2    1    0    0    0  0.21446587701E+02 -0.16251454996E+02  0.18825881330E+02  0.92159784998E+02  0.86110082159E+02 0.  0.
         11    1    3    3    0    0  0.24471423815E+02  0.52362436821E+01 -0.29798621623E+02  0.38913065702E+02  0.51100000000E-03 0. -1.
         22    1    1    0    0    0 -0.21446587701E+02  0.16251454996E+02 -0.18825881330E+02  0.32840215002E+02  0.00000000000E+00 0. -1.
</event>
<event>
 5    1  0.1692171E-003  0.9118800E+02  0.7818608E-02  0.1130116E+00
         25   -1    0    0    0    0  0.00000000000E+00  0.00000000000E+00  0.99999998245E-14  0.12500000000E+03  0.12500000000E+03 0.  0.
        -11    1    3    3    0    0 -0.36437496553E+02  0.36900096045E+02  0.29888417315E+02  0.59855039329E+02  0.51100000000E-03 0.  1.
         23    2    1    0    0    0 -0.21511330956E+02  0.15817389515E+02  0.14704413259E+01  0.98258845046E+02  0.94550046333E+02 0.  0.
         11    1    3    3    0    0  0.14926165598E+02 -0.21082706529E+02 -0.28417975989E+02  0.38403805718E+02  0.51100000000E-03 0. -1.
         22    1    1    0    0    0  0.21511330956E+02 -0.15817389515E+02 -0.14704413259E+01  0.26741154954E+02  0.00000000000E+00 0.  1.
</event>
<event>
 5    1  0.1692171E-003  0.9118800E+02  0.7818608E-02  0.1130116E+00
         25   -1    0    0    0    0  0.00000000000E+00  0.00000000000E+00  0.99999998245E-14  0.12500000000E+03  0.12500000000E+03 0.  0.
        -11    1    3    3    0    0 -0.35667393051E+02 -0.18052023818E+02 -0.30096115774E+02  0.50038132219E+02  0.51100000000E-03 0. -1.
         23    2    1    0    0    0  0.35555842207E+01  0.71851631066E+01 -0.27059859317E+02  0.96777584542E+02  0.92571032918E+02 0.  0.
         11    1    3    3    0    0  0.39222977272E+02  0.25237186925E+02  0.30362564573E+01  0.46739452323E+02  0.51100000000E-03 0.  1.
         22    1    1    0    0    0 -0.35555842207E+01 -0.71851631066E+01  0.27059859317E+02  0.28222415458E+02  0.00000000000E+00 0. -1.
</event>
<event>
 5    1  0.1692171E-003  0.9118800E+02  0.7818608E-02  0.1130116E+00
         25   -1    0    0    0    0  0.00000000000E+00  0.00000000000E+00  0.99999998245E-14  0.12500000000E+03  0.12500000000E+03 0.  0.
        -11    1    3    3    0    0 -0.31929592496E+02 -0.31546404906E+02 -0.17741671337E+02  0.48264287434E+02  0.51100000000E-03 0. -1.
         23    2    1    0    0    0  0.13111148112E+02 -0.17616367582E+02 -0.19767623950E+02  0.95453467747E+02  0.90765450127E+02 0.  0.
         11    1    3    3    0    0  0.45040740607E+02  0.13930037325E+02 -0.20259526126E+01  0.47189180312E+02  0.51100000000E-03 0.  1.
         22    1    1    0    0    0 -0.13111148112E+02  0.17616367582E+02  0.19767623950E+02  0.29546532253E+02  0.00000000000E+00 0.  1.
</event>
<event>
 5    1  0.1692171E-003  0.9118800E+02  0.7818608E-02  0.1130116E+00
         25   -1    0    0    0    0  0.00000000000E+00  0.00000000000E+00  0.99999998245E-14  0.12500000000E+03  0.12500000000E+03 0.  0.
        -11    1    3    3    0    0 -0.83705288170E+01 -0.45724287060E+02  0.18930814981E+01  0.46522681970E+02  0.51100000000E-03 0.  1.
         23    2    1    0    0    0 -0.24521404309E+02  0.21706972492E+01  0.11262706953E+02  0.97928617255E+02  0.94112455678E+02 0.  0.
         11    1    3    3    0    0 -0.16150875492E+02  0.47894984309E+02  0.93696254549E+01  0.51405935285E+02  0.51100000000E-03 0. -1.
         22    1    1    0    0    0  0.24521404309E+02 -0.21706972492E+01 -0.11262706953E+02  0.27071382745E+02  0.00000000000E+00 0.  1.
</event>
<event>
 5    1  0.1692171E-003  0.9118800E+02  0.7818608E-02  0.1130116E+00
         25   -1    0    0    0    0  0.00000000000E+00  0.00000000000E+00  0.99999998245E-14  0.12500000000E+03  0.12500000000E+03 0.  0.
        -11    1    3    3    0    0 -0.41757477915E+02 -0.93149120172E+01 -0.20388057818E+02  0.47393327057E+02  0.51100000000E-03 0. -1.
         23    2    1    0    0    0 -0.92431952447E+01  0.25365765725E+02 -0.10986434953E+02  0.95852779170E+02  0.91313716343E+02 0.  0.
         11    1    3    3    0    0  0.32514282671E+02  0.34680677742E+02  0.94016228643E+01  0.48459452112E+02  0.51100000000E-03 0.  1.
         22    1    1    0    0    0  0.92431952447E+01 -0.25365765725E+02  0.10986434953E+02  0.29147220830E+02  0.00000000000E+00 0.  1.
</event>
<event>
 5    1  0.1692171E-003  0.9118800E+02  0.7818608E-02  0.1130116E+00
         25   -1    0    0    0    0  0.00000000000E+00  0.00000000000E+00  0.99999998245E-14  0.12500000000E+03  0.12500000000E+03 0.  0.
        -11    1    3    3    0    0 -0.52351284539E+02 -0.19996760568E+02  0.25671455147E+02  0.61640498341E+02  0.51100000000E-03 0. -1.
         23    2    1    0    0    0 -0.27540035067E+02 -0.88234522119E+01  0.53787675316E+01  0.95585072148E+02  0.90946511956E+02 0.  0.
         11    1    3    3    0    0  0.24811249473E+02  0.11173308356E+02 -0.20292687615E+02  0.33944573807E+02  0.51100000000E-03 0.  1.
         22    1    1    0    0    0  0.27540035067E+02  0.88234522119E+01 -0.53787675316E+01  0.29414927852E+02  0.00000000000E+00 0. -1.
</event>
<event>
 5    1  0.1692171E-003  0.9118800E+02  0.7818608E-02  0.1130116E+00
         25   -1    0    0    0    0  0.00000000000E+00  0.00000000000E+00  0.99999998245E-14  0.12500000000E+03  0.12500000000E+03 0.  0.
        -11    1    3    3    0    0  0.25458411794E+01 -0.58511429895E+02 -0.12990798741E+02  0.59990245773E+02  0.51100000000E-03 0.  1.
         23    2    1    0    0    0  0.91682456234E+00 -0.24428950111E+02 -0.18221254807E+02  0.94510193546E+02  0.89456963880E+02 0.  0.
         11    1    3    3    0    0 -0.16290166171E+01  0.34082479784E+02 -0.52304560661E+01  0.34519947773E+02  0.51100000000E-03 0. -1.
         22    1    1    0    0    0 -0.91682456234E+00  0.24428950111E+02  0.18221254807E+02  0.30489806454E+02  0.00000000000E+00 0.  1.
</event>
<event>
 5    1  0.1692171E-003  0.9118800E+02  0.7818608E-02  0.1130116E+00
         25   -1    0    0    0    0  0.00000000000E+00  0.00000000000E+00  0.99999998245E-14  0.12500000000E+03  0.12500000000E+03 0.  0.
        -11    1    3    3    0    0 -0.24720838057E+02  0.14441482648E+02 -0.19423451077E+01  0.28695800391E+02  0.51100000000E-03 0. -1.
         23    2    1    0    0    0  0.28143258345E+02 -0.18707275995E+02 -0.27087482250E+01  0.91098046040E+02  0.84554784074E+02 0.  0.
         11    1    3    3    0    0  0.52864096402E+02 -0.33148758643E+02 -0.76640311728E+00  0.62402245648E+02  0.51100000000E-03 0.  1.
         22    1    1    0    0    0 -0.28143258345E+02  0.18707275995E+02  0.27087482250E+01  0.33901953960E+02  0.00000000000E+00 0.  1.
</event>
<event>
 5    1  0.1692171E-003  0.9118800E+02  0.7818608E-02  0.1130116E+00
         25   -1    0    0    0    0  0.00000000000E+00  0.00000000000E+00  0.99999998245E-14  0.12500000000E+03  0.12500000000E+03 0.  0.
        -11    1    3    3    0    0  0.20660387809E+02  0.11595963182E+02 -0.26986482168E+02  0.35910836896E+02  0.51100000000E-03 0. -1.
         23    2    1    0    0    0 -0.15012958471E+02 -0.81955865573E+01  0.20360139033E+02  0.98408801785E+02  0.94748089407E+02 0.  0.
         11    1    3    3    0    0 -0.35673346279E+02 -0.19791549740E+02  0.47346621201E+02  0.62497964889E+02  0.51100000000E-03 0.  1.
         22    1    1    0    0    0  0.15012958471E+02  0.81955865573E+01 -0.20360139033E+02  0.26591198215E+02  0.00000000000E+00 0.  1.
</event>
<event>
 5    1  0.1692171E-003  0.9118800E+02  0.7818608E-02  0.1130116E+00
         25   -1    0    0    0    0  0.00000000000E+00  0.00000000000E+00  0.99999998245E-14  0.12500000000E+03  0.12500000000E+03 0.  0.
        -11    1    3    3    0    0 -0.48469795050E+02  0.15861681641E+02  0.11369133574E+02  0.52251039944E+02  0.51100000000E-03 0. -1.
         23    2    1    0    0    0 -0.22111498478E+02 -0.18301751352E+02  0.48188071760E+01  0.95895131505E+02  0.91371674365E+02 0.  0.
         11    1    3    3    0    0  0.26358296572E+02 -0.34163432993E+02 -0.65503263977E+01  0.43644091561E+02  0.51100000000E-03 0.  1.
         22    1    1    0    0    0  0.22111498478E+02  0.18301751352E+02 -0.48188071760E+01  0.29104868495E+02  0.00000000000E+00 0. -1.
</event>
<event>
 5    1  0.1692171E-003  0.9118800E+02  0.7818608E-02  0.1130116E+00
         25   -1    0    0    0    0  0.00000000000E+00  0.00000000000E+00  0.99999998245E-14  0.12500000000E+03  0.12500000000E+03 0.  0.
        -11    1    3    3    0    0 -0.13305556495E+02  0.40418749979E+02 -0.23627324886E+02  0.48672000832E+02  0.51100000000E-03 0.  1.
         23    2    1    0    0    0 -0.27111047156E+02  0.22903098541E+01  0.36574640201E+01  0.97547651464E+02  0.93605089957E+02 0.  0.
         11    1    3    3    0    0 -0.13805490661E+02 -0.38128440125E+02  0.27284788906E+02  0.48875650631E+02  0.51100000000E-03 0. -1.
         22    1    1    0    0    0  0.27111047156E+02 -0.22903098541E+01 -0.36574640201E+01  0.27452348536E+02  0.00000000000E+00 0. -1.
</event>
<event>
 5    1  0.1692171E-003  0.9118800E+02  0.7818608E-02  0.1130116E+00
         25   -1    0    0    0    0  0.00000000000E+00  0.00000000000E+00  0.99999998245E-14  0.12500000000E+03  0.12500000000E+03 0.  0.
        -11    1    3    3    0    0  0.33871863175E+02  0.20541259225E+02 -0.10365193924E+02  0.40947328250E+02  0.51100000000E-03 0. -1.
         23    2    1    0    0    0 -0.16167699204E+02  0.21167155061E+02  0.12030675188E+02  0.95773640384E+02  0.91205318354E+02 0.  0.
         11    1    3    3    0    0 -0.50039562379E+02  0.62589583588E+00  0.22395869112E+02  0.54826312134E+02  0.51100000000E-03 0.  1.
         22    1    1    0    0    0  0.16167699204E+02 -0.21167155061E+02 -0.12030675188E+02  0.29226359616E+02  0.00000000000E+00 0.  1.
</event>
<event>
 5    1  0.1692171E-003  0.9118800E+02  0.7818608E-02  0.1130116E+00
         25   -1    0    0    0    0  0.00000000000E+00  0.00000000000E+00  0.99999998245E-14  0.12500000000E+03  0.12500000000E+03 0.  0.
        -11    1    3    3    0    0  0.99694204968E+01  0.21621966315E+02  0.55341799875E+02  0.60246274458E+02  0.51100000000E-03 0.  1.
         23    2    1    0    0    0 -0.34626076687E+01 -0.36037694328E+01  0.94646065222E+01  0.11429693583E+03  0.11379470092E+03 0.  0.
         11    1    3    3    0    0 -0.13432028166E+02 -0.25225735748E+02 -0.45877193353E+02  0.54050661373E+02  0.51100000000E-03 0. -1.
         22    1    1    0    0    0  0.34626076687E+01  0.36037694328E+01 -0.94646065222E+01  0.10703064169E+02  0.00000000000E+00 0.  1.
</event>
<event>
 5    1  0.1692171E-003  0.9118800E+02  0.7818608E-02  0.1130116E+00
         25   -1    0    0    0    0  0.00000000000E+00  0.00000000000E+00  0.99999998245E-14  0.12500000000E+03  0.12500000000E+03 0.  0.
        -11    1    3    3    0    0  0.46974905980E+02  0.99176443093E+01 -0.32189446623E+02  0.57802784835E+02  0.51100000000E-03 0.  1.
         23    2    1    0    0    0  0.29156342028E+02 -0.26470611106E+01 -0.11929289753E+01  0.95699448938E+02  0.91103579702E+02 0.  0.
         11    1    3    3    0    0 -0.17818563952E+02 -0.12564705420E+02  0.30996517648E+02  0.37896664103E+02  0.51100000000E-03 0. -1.
         22    1    1    0    0    0 -0.29156342028E+02  0.26470611106E+01  0.11929289753E+01  0.29300551062E+02  0.00000000000E+00 0.  1.
</event>
<event>
 5    1  0.1692171E-003  0.9118800E+02  0.7818608E-02  0.1130116E+00
         25   -1    0    0    0    0  0.00000000000E+00  0.00000000000E+00  0.99999998245E-14  0.12500000000E+03  0.12500000000E+03 0.  0.
        -11    1    3    3    0    0  0.31828043784E+02  0.33696325243E+02  0.13647147757E+02  0.48318850857E+02  0.51100000000E-03 0.  1.
         23    2    1    0    0    0  0.27269708794E+02 -0.11811240571E+02  0.49911803567E+01  0.94866060614E+02  0.89952849614E+02 0.  0.
         11    1    3    3    0    0 -0.45583349902E+01 -0.45507565815E+02 -0.86559674002E+01  0.46547209757E+02  0.51100000000E-03 0. -1.
         22    1    1    0    0    0 -0.27269708794E+02  0.11811240571E+02 -0.49911803567E+01  0.30133939386E+02  0.00000000000E+00 0. -1.
</event>
<event>
 5    1  0.1692171E-003  0.9118800E+02  0.7818608E-02  0.1130116E+00
         25   -1    0    0    0    0  0.00000000000E+00  0.00000000000E+00  0.99999998245E-14  0.12500000000E+03  0.12500000000E+03 0.  0.
        -11    1    3    3    0    0 -0.50151630844E+01  0.54515123404E+01 -0.44269668290E+02  0.44885124243E+02  0.51100000000E-03 0.  1.
         23    2    1    0    0    0 -0.35802190239E+01 -0.30132864428E+02 -0.26628038555E+02  0.84628476321E+02  0.74378216436E+02 0.  0.
         11    1    3    3    0    0  0.14349440605E+01 -0.35584376768E+02  0.17641629734E+02  0.39743352078E+02  0.51100000000E-03 0. -1.
         22    1    1    0    0    0  0.35802190239E+01  0.30132864428E+02  0.26628038555E+02  0.40371523679E+02  0.00000000000E+00 0.  1.
</event>
<event>
 5    1  0.1692171E-003  0.9118800E+02  0.7818608E-02  0.1130116E+00
         25   -1    0    0    0    0  0.00000000000E+00  0.00000000000E+00  0.99999998245E-14  0.12500000000E+03  0.12500000000E+03 0.  0.
        -11    1    3    3    0    0  0.30508645234E+02  0.30933578227E+02  0.10063814294E+02  0.44597579019E+02  0.51100000000E-03 0.  1.
         23    2    1    0    0    0  0.12341990549E+02 -0.11323883294E+02  0.26675096316E+02  0.93502129801E+02  0.88037108371E+02 0.  0.
         11    1    3    3    0    0 -0.18166654685E+02 -0.42257461520E+02  0.16611282022E+02  0.48904550783E+02  0.51100000000E-03 0. -1.
         22    1    1    0    0    0 -0.12341990549E+02  0.11323883294E+02 -0.26675096316E+02  0.31497870199E+02  0.00000000000E+00 0.  1.
</event>
<event>
 5    1  0.1692171E-003  0.9118800E+02  0.7818608E-02  0.1130116E+00
         25   -1    0    0    0    0  0.00000000000E+00  0.00000000000E+00  0.99999998245E-14  0.12500000000E+03  0.12500000000E+03 0.  0.
        -11    1    3    3    0    0 -0.63875845511E+00 -0.82384659037E+01  0.36294842103E+02  0.37223593275E+02  0.51100000000E-03 0.  1.
         23    2    1    0    0    0 -0.11440180943E+02  0.26378578564E+02 -0.86509729030E+01  0.94974236408E+02  0.90103047130E+02 0.  0.
         11    1    3    3    0    0 -0.10801422488E+02  0.34617044468E+02 -0.44945815006E+02  0.57750643133E+02  0.51100000000E-03 0. -1.
         22    1    1    0    0    0  0.11440180943E+02 -0.26378578564E+02  0.86509729030E+01  0.30025763592E+02  0.00000000000E+00 0. -1.
</event>
<event>
 5    1  0.1692171E-003  0.9118800E+02  0.7818608E-02  0.1130116E+00
         25   -1    0    0    0    0  0.00000000000E+00  0.00000000000E+00  0.99999998245E-14  0.12500000000E+03  0.12500000000E+03 0.  0.
        -11    1    3    3    0    0 -0.40747253926E+02  0.25927279127E+02 -0.36374677654E+02  0.60462216963E+02  0.51100000000E-03 0.  1.
         23    2    1    0    0    0 -0.34447692818E+02  0.11985979171E+02 -0.18139401080E+02  0.84264940055E+02  0.73764727436E+02 0.  0.
         11    1    3    3    0    0  0.62995611081E+01 -0.13941299955E+02  0.18235276574E+02  0.23802723092E+02  0.51100000000E-03 0. -1.
         22    1    1    0    0    0  0.34447692818E+02 -0.11985979171E+02  0.18139401080E+02  0.40735059945E+02  0.00000000000E+00 0.  1.
</event>
<event>
 5    1  0.1692171E-003  0.9118800E+02  0.7818608E-02  0.1130116E+00
         25   -1    0    0    0    0  0.00000000000E+00  0.00000000000E+00  0.99999998245E-14  0.12500000000E+03  0.12500000000E+03 0.  0.
        -11    1    3    3    0    0 -0.17720782835E+02  0.34305375153E+02  0.73790655204E+01  0.39310755740E+02  0.51100000000E-03 0. -1.
         23    2    1    0    0    0  0.16176427481E+02  0.15700431946E+01 -0.24064318323E+02  0.95961521079E+02  0.91462452786E+02 0.  0.
         11    1    3    3    0    0  0.33897210316E+02 -0.32735331958E+02 -0.31443383844E+02  0.56650765339E+02  0.51100000000E-03 0.  1.
         22    1    1    0    0    0 -0.16176427481E+02 -0.15700431946E+01  0.24064318323E+02  0.29038478921E+02  0.00000000000E+00 0.  1.
</event>
<event>
 5    1  0.1692171E-003  0.9118800E+02  0.7818608E-02  0.1130116E+00
         25   -1    0    0    0    0  0.00000000000E+00  0.00000000000E+00  0.99999998245E-14  0.12500000000E+03  0.12500000000E+03 0.  0.
        -11    1    3    3    0    0  0.34003605695E+02  0.99019863638E+01 -0.24636797257E+02  0.43142395779E+02  0.51100000000E-03 0.  1.
         23    2    1    0    0    0 -0.16908711849E+02 -0.34962333058E+01 -0.23548818918E+02  0.95799399730E+02  0.91240615585E+02 0.  0.
         11    1    3    3    0    0 -0.50912317544E+02 -0.13398219670E+02  0.10879783390E+01  0.52657003951E+02  0.51100000000E-03 0. -1.
         22    1    1    0    0    0  0.16908711849E+02  0.34962333058E+01  0.23548818918E+02  0.29200600270E+02  0.00000000000E+00 0.  1.
</event>
<event>
 5    1  0.1692171E-003  0.9118800E+02  0.7818608E-02  0.1130116E+00
         25   -1    0    0    0    0  0.00000000000E+00  0.00000000000E+00  0.99999998245E-14  0.12500000000E+03  0.12500000000E+03 0.  0.
        -11    1    3    3    0    0 -0.28340424894E+02  0.61702164790E+01 -0.47488685115E+02  0.55645543117E+02  0.51100000000E-03 0.  1.
         23    2    1    0    0    0  0.63664967711E+01  0.42331377958E+00 -0.28840704562E+02  0.95461927698E+02  0.90777100220E+02 0.  0.
         11    1    3    3    0    0  0.34706921665E+02 -0.57469026994E+01  0.18647980553E+02  0.39816384580E+02  0.51100000000E-03 0. -1.
         22    1    1    0    0    0 -0.63664967711E+01 -0.42331377958E+00  0.28840704562E+02  0.29538072302E+02  0.00000000000E+00 0.  1.
</event>
<event>
 5    1  0.1692171E-003  0.9118800E+02  0.7818608E-02  0.1130116E+00
         25   -1    0    0    0    0  0.00000000000E+00  0.00000000000E+00  0.99999998245E-14  0.12500000000E+03  0.12500000000E+03 0.  0.
        -11    1    3    3    0    0  0.65119727078E+01 -0.24330983546E+02  0.27829296552E+02  0.37534947658E+02  0.51100000000E-03 0.  1.
         23    2    1    0    0    0  0.10500258465E+02  0.27604262711E+02  0.27732031063E+01  0.95336193718E+02  0.90603799200E+02 0.  0.
         11    1    3    3    0    0  0.39882857574E+01  0.51935246257E+02 -0.25056093445E+02  0.57801246060E+02  0.51100000000E-03 0. -1.
         22    1    1    0    0    0 -0.10500258465E+02 -0.27604262711E+02 -0.27732031063E+01  0.29663806282E+02  0.00000000000E+00 0. -1.
</event>
<event>
 5    1  0.1692171E-003  0.9118800E+02  0.7818608E-02  0.1130116E+00
         25   -1    0    0    0    0  0.00000000000E+00  0.00000000000E+00  0.99999998245E-14  0.12500000000E+03  0.12500000000E+03 0.  0.
        -11    1    3    3    0    0 -0.55969729382E+02  0.11438692719E+02 -0.23202802199E+02  0.61658935511E+02  0.51100000000E-03 0. -1.
         23    2    1    0    0    0 -0.26270488095E+02  0.10458005569E+02 -0.56689198033E+01  0.96161742824E+02  0.91735683929E+02 0.  0.
         11    1    3    3    0    0  0.29699241287E+02 -0.98068714960E+00  0.17533882396E+02  0.34502807313E+02  0.51100000000E-03 0.  1.
         22    1    1    0    0    0  0.26270488095E+02 -0.10458005569E+02  0.56689198033E+01  0.28838257176E+02  0.00000000000E+00 0. -1.
</event>
<event>
 5    1  0.1692171E-003  0.9118800E+02  0.7818608E-02  0.1130116E+00
         25   -1    0    0    0    0  0.00000000000E+00  0.00000000000E+00  0.99999998245E-14  0.12500000000E+03  0.12500000000E+03 0.  0.
        -11    1    3    3    0    0 -0.13529044796E+02  0.25327815617E+02 -0.13399756233E+02  0.31687328136E+02  0.51100000000E-03 0.  1.
         23    2    1    0    0    0 -0.16925156943E+02 -0.30962058374E+02  0.27055109983E+00  0.89712846612E+02  0.82481583720E+02 0.  0.
         11    1    3    3    0    0 -0.33961121477E+01 -0.56289873991E+02  0.13670307333E+02  0.58025518477E+02  0.51100000000E-03 0. -1.
         22    1    1    0    0    0  0.16925156943E+02  0.30962058374E+02 -0.27055109983E+00  0.35287153388E+02  0.00000000000E+00 0. -1.
</event>
<event>
 5    1  0.1692171E-003  0.9118800E+02  0.7818608E-02  0.1130116E+00
         25   -1    0    0    0    0  0.00000000000E+00  0.00000000000E+00  0.99999998245E-14  0.12500000000E+03  0.12500000000E+03 0.  0.
        -11    1    3    3    0    0  0.12550611948E+02 -0.18249278350E+02  0.35054828280E+02  0.41465588222E+02  0.51100000000E-03 0.  1.
         23    2    1    0    0    0  0.18653502288E+02 -0.13820170241E+02 -0.18355012871E+02  0.95405122899E+02  0.90698846326E+02 0.  0.
         11    1    3    3    0    0  0.61028903400E+01  0.44291081093E+01 -0.53409841151E+02  0.53939534678E+02  0.51100000000E-03 0. -1.
         22    1    1    0    0    0 -0.18653502288E+02  0.13820170241E+02  0.18355012871E+02  0.29594877101E+02  0.00000000000E+00 0.  1.
</event>
<event>
 5    1  0.1692171E-003  0.9118800E+02  0.7818608E-02  0.1130116E+00
         25   -1    0    0    0    0  0.00000000000E+00  0.00000000000E+00  0.99999998245E-14  0.12500000000E+03  0.12500000000E+03 0.  0.
        -11    1    3    3    0    0  0.21919718968E+02 -0.38931563690E+02  0.34998349113E+02  0.56754076258E+02  0.51100000000E-03 0. -1.
         23    2    1    0    0    0  0.24354239430E+02 -0.57140439598E+01  0.18251613977E+02  0.94033878361E+02  0.88788904657E+02 0.  0.
         11    1    3    3    0    0  0.24345204624E+01  0.33217519730E+02 -0.16746735136E+02  0.37279802103E+02  0.51100000000E-03 0.  1.
         22    1    1    0    0    0 -0.24354239430E+02  0.57140439598E+01 -0.18251613977E+02  0.30966121639E+02  0.00000000000E+00 0. -1.
</event>
<event>
 5    1  0.1692171E-003  0.9118800E+02  0.7818608E-02  0.1130116E+00
         25   -1    0    0    0    0  0.00000000000E+00  0.00000000000E+00  0.99999998245E-14  0.12500000000E+03  0.12500000000E+03 0.  0.
        -11    1    3    3    0    0  0.38359086880E+02  0.15427124511E+02  0.68348804146E+01  0.41906220392E+02  0.51100000000E-03 0. -1.
         23    2    1    0    0    0 -0.14595059902E+02  0.10887618581E+02 -0.16940066593E+02  0.10012990012E+03  0.96992139011E+02 0.  0.
         11    1    3    3    0    0 -0.52954146783E+02 -0.45395059308E+01 -0.23774947007E+02  0.58223679728E+02  0.51100000000E-03 0.  1.
         22    1    1    0    0    0  0.14595059902E+02 -0.10887618581E+02  0.16940066593E+02  0.24870099881E+02  0.00000000000E+00 0.  1.
</event>
<event>
 5    1  0.1692171E-003  0.9118800E+02  0.7818608E-02  0.1130116E+00
         25   -1    0    0    0    0  0.00000000000E+00  0.00000000000E+00  0.99999998245E-14  0.12500000000E+03  0.12500000000E+03 0.  0.
        -11    1    3    3    0    0 -0.14349574347E+02  0.32276784928E+02  0.18959235766E+02  0.40089322149E+02  0.51100000000E-03 0.  1.
         23    2    1    0    0    0 -0.23034262339E+02 -0.19360234219E+02  0.33748550418E+01  0.94721533112E+02  0.89751787047E+02 0.  0.
         11    1    3    3    0    0 -0.86846879917E+01 -0.51637019147E+02 -0.15584380724E+02  0.54632210963E+02  0.51100000000E-03 0. -1.
         22    1    1    0    0    0  0.23034262339E+02  0.19360234219E+02 -0.33748550418E+01  0.30278466888E+02  0.00000000000E+00 0. -1.
</event>
<event>
 5    1  0.1692171E-003  0.9118800E+02  0.7818608E-02  0.1130116E+00
         25   -1    0    0    0    0  0.00000000000E+00  0.00000000000E+00  0.99999998245E-14  0.12500000000E+03  0.12500000000E+03 0.  0.
        -11    1    3    3    0    0  0.88788279599E+01 -0.26879108445E+02 -0.32109811826E+02  0.42806075182E+02  0.51100000000E-03 0. -1.
         23    2    1    0    0    0 -0.19576807325E+02 -0.21043225469E+02  0.10521759208E+02  0.94393201082E+02  0.89293338332E+02 0.  0.
         11    1    3    3    0    0 -0.28455635284E+02  0.58358829756E+01  0.42631571034E+02  0.51587125900E+02  0.51100000000E-03 0.  1.
         22    1    1    0    0    0  0.19576807325E+02  0.21043225469E+02 -0.10521759208E+02  0.30606798918E+02  0.00000000000E+00 0.  1.
</event>
<event>
 5    1  0.1692171E-003  0.9118800E+02  0.7818608E-02  0.1130116E+00
         25   -1    0    0    0    0  0.00000000000E+00  0.00000000000E+00  0.99999998245E-14  0.12500000000E+03  0.12500000000E+03 0.  0.
        -11    1    3    3    0    0 -0.57211051589E+02 -0.17604172079E+02 -0.12118532101E+02  0.61072662616E+02  0.51100000000E-03 0. -1.
         23    2    1    0    0    0 -0.28741372226E+02 -0.66916273033E+01  0.34184346984E+01  0.95292592688E+02  0.90543625794E+02 0.  0.
         11    1    3    3    0    0  0.28469679363E+02  0.10912544775E+02  0.15536966800E+02  0.34219930071E+02  0.51100000000E-03 0.  1.
         22    1    1    0    0    0  0.28741372226E+02  0.66916273033E+01 -0.34184346984E+01  0.29707407312E+02  0.00000000000E+00 0. -1.
</event>
<event>
 5    1  0.1692171E-003  0.9118800E+02  0.7818608E-02  0.1130116E+00
         25   -1    0    0    0    0  0.00000000000E+00  0.00000000000E+00  0.99999998245E-14  0.12500000000E+03  0.12500000000E+03 0.  0.
        -11    1    3    3    0    0  0.21274856777E+02 -0.71845193164E+00 -0.28963286438E+02  0.35944508142E+02  0.51100000000E-03 0. -1.
         23    2    1    0    0    0  0.14002113684E+02 -0.34775602714E+02  0.79339348013E+01  0.86680957042E+02  0.77751136716E+02 0.  0.
         11    1    3    3    0    0 -0.72727430932E+01 -0.34057150783E+02  0.36897221239E+02  0.50736448900E+02  0.51100000000E-03 0.  1.
         22    1    1    0    0    0 -0.14002113684E+02  0.34775602714E+02 -0.79339348013E+01  0.38319042958E+02  0.00000000000E+00 0.  1.
</event>
<event>
 5    1  0.1692171E-003  0.9118800E+02  0.7818608E-02  0.1130116E+00
         25   -1    0    0    0    0  0.00000000000E+00  0.00000000000E+00  0.99999998245E-14  0.12500000000E+03  0.12500000000E+03 0.  0.
        -11    1    3    3    0    0 -0.85360735906E+01  0.29364396461E+02  0.30600432992E+02  0.43261054441E+02  0.51100000000E-03 0. -1.
         23    2    1    0    0    0 -0.10667065407E+02 -0.21443668083E+02  0.16101748508E+02  0.96140279103E+02  0.91706432575E+02 0.  0.
         11    1    3    3    0    0 -0.21309918165E+01 -0.50808064543E+02 -0.14498684483E+02  0.52879224661E+02  0.51100000000E-03 0.  1.
         22    1    1    0    0    0  0.10667065407E+02  0.21443668083E+02 -0.16101748508E+02  0.28859720897E+02  0.00000000000E+00 0. -1.
</event>
<event>
 5    1  0.1692171E-003  0.9118800E+02  0.7818608E-02  0.1130116E+00
         25   -1    0    0    0    0  0.00000000000E+00  0.00000000000E+00  0.99999998245E-14  0.12500000000E+03  0.12500000000E+03 0.  0.
        -11    1    3    3    0    0 -0.16767591844E+02  0.21213977614E+02  0.35708200992E+02  0.44791300503E+02  0.51100000000E-03 0.  1.
         23    2    1    0    0    0 -0.24006104232E+02 -0.18035741020E+02  0.64231563780E+01  0.94294333872E+02  0.89154828630E+02 0.  0.
         11    1    3    3    0    0 -0.72385123871E+01 -0.39249718634E+02 -0.29285044614E+02  0.49503033369E+02  0.51100000000E-03 0. -1.
         22    1    1    0    0    0  0.24006104232E+02  0.18035741020E+02 -0.64231563780E+01  0.30705666128E+02  0.00000000000E+00 0. -1.
</event>
<event>
 5    1  0.1692171E-003  0.9118800E+02  0.7818608E-02  0.1130116E+00
         25   -1    0    0    0    0  0.00000000000E+00  0.00000000000E+00  0.99999998245E-14  0.12500000000E+03  0.12500000000E+03 0.  0.
        -11    1    3    3    0    0  0.27677887513E+02  0.39850793569E+02  0.38990506030E+02  0.62244764969E+02  0.51100000000E-03 0.  1.
         23    2    1    0    0    0  0.94861891433E+01  0.20470253459E+02  0.19002602576E+02  0.95502237953E+02  0.90832590452E+02 0.  0.
         11    1    3    3    0    0 -0.18191698370E+02 -0.19380540110E+02 -0.19987903454E+02  0.33257472984E+02  0.51100000000E-03 0. -1.
         22    1    1    0    0    0 -0.94861891433E+01 -0.20470253459E+02 -0.19002602576E+02  0.29497762047E+02  0.00000000000E+00 0.  1.
</event>
<event>
 5    1  0.1692171E-003  0.9118800E+02  0.7818608E-02  0.1130116E+00
         25   -1    0    0    0    0  0.00000000000E+00  0.00000000000E+00  0.99999998245E-14  0.12500000000E+03  0.12500000000E+03 0.  0.
        -11    1    3    3    0    0 -0.29265821342E+02 -0.14069850575E+02 -0.14709093013E+02  0.35648371793E+02  0.51100000000E-03 0. -1.
         23    2    1    0    0    0  0.22489484866E+02  0.14021791565E+02 -0.15020582055E+02  0.94536818067E+02  0.89494159120E+02 0.  0.
         11    1    3    3    0    0  0.51755306208E+02  0.28091642140E+02 -0.31148904181E+00  0.58888446273E+02  0.51100000000E-03 0.  1.
         22    1    1    0    0    0 -0.22489484866E+02 -0.14021791565E+02  0.15020582055E+02  0.30463181933E+02  0.00000000000E+00 0.  1.
</event>
<event>
 5    1  0.1692171E-003  0.9118800E+02  0.7818608E-02  0.1130116E+00
         25   -1    0    0    0    0  0.00000000000E+00  0.00000000000E+00  0.99999998245E-14  0.12500000000E+03  0.12500000000E+03 0.  0.
        -11    1    3    3    0    0 -0.15565065339E+02 -0.23839290105E+02 -0.19843423548E+02  0.34703666522E+02  0.51100000000E-03 0. -1.
         23    2    1    0    0    0  0.28914834459E+02  0.10434277926E+02  0.17048737999E-02  0.94260094168E+02  0.89106809740E+02 0.  0.
         11    1    3    3    0    0  0.44479899798E+02  0.34273568031E+02  0.19845128422E+02  0.59556427646E+02  0.51100000000E-03 0.  1.
         22    1    1    0    0    0 -0.28914834459E+02 -0.10434277926E+02 -0.17048737999E-02  0.30739905832E+02  0.00000000000E+00 0.  1.
</event>
<event>
 5    1  0.1692171E-003  0.9118800E+02  0.7818608E-02  0.1130116E+00
         25   -1    0    0    0    0  0.00000000000E+00  0.00000000000E+00  0.99999998245E-14  0.12500000000E+03  0.12500000000E+03 0.  0.
        -11    1    3    3    0    0 -0.11143681315E+02  0.41437788335E+02  0.23777408818E+02  0.49057487764E+02  0.51100000000E-03 0.  1.
         23    2    1    0    0    0  0.78198408340E+01  0.21342120796E+02 -0.15794670075E+02  0.97321350583E+02  0.93302398929E+02 0.  0.
         11    1    3    3    0    0  0.18963522149E+02 -0.20095667539E+02 -0.39572078893E+02  0.48263862820E+02  0.51100000000E-03 0. -1.
         22    1    1    0    0    0 -0.78198408340E+01 -0.21342120796E+02  0.15794670075E+02  0.27678649417E+02  0.00000000000E+00 0.  1.
</event>
<event>
 5    1  0.1692171E-003  0.9118800E+02  0.7818608E-02  0.1130116E+00
         25   -1    0    0    0    0  0.00000000000E+00  0.00000000000E+00  0.99999998245E-14  0.12500000000E+03  0.12500000000E+03 0.  0.
        -11    1    3    3    0    0 -0.13917751588E+02  0.27016806138E+02  0.38900592289E+02  0.49364640218E+02  0.51100000000E-03 0.  1.
         23    2    1    0    0    0  0.20011580000E+02  0.19940237308E+02  0.84163533938E+01  0.95522696825E+02  0.90860740731E+02 0.  0.
         11    1    3    3    0    0  0.33929331589E+02 -0.70765688301E+01 -0.30484238895E+02  0.46158056607E+02  0.51100000000E-03 0. -1.
         22    1    1    0    0    0 -0.20011580000E+02 -0.19940237308E+02 -0.84163533938E+01  0.29477303175E+02  0.00000000000E+00 0.  1.
</event>
<event>
 5    1  0.1692171E-003  0.9118800E+02  0.7818608E-02  0.1130116E+00
         25   -1    0    0    0    0  0.00000000000E+00  0.00000000000E+00  0.99999998245E-14  0.12500000000E+03  0.12500000000E+03 0.  0.
        -11    1    3    3    0    0  0.32368052270E+02  0.35351744791E+02  0.24962375832E+02  0.54042176815E+02  0.51100000000E-03 0.  1.
         23    2    1    0    0    0  0.15417874458E+02 -0.48092358069E+01  0.21964889586E+02  0.97736545040E+02  0.93856998993E+02 0.  0.
         11    1    3    3    0    0 -0.16950177813E+02 -0.40160980598E+02 -0.29974862453E+01  0.43694368224E+02  0.51100000000E-03 0. -1.
         22    1    1    0    0    0 -0.15417874458E+02  0.48092358069E+01 -0.21964889586E+02  0.27263454960E+02  0.00000000000E+00 0. -1.
</event>
<event>
 5    1  0.1692171E-003  0.9118800E+02  0.7818608E-02  0.1130116E+00
         25   -1    0    0    0    0  0.00000000000E+00  0.00000000000E+00  0.99999998245E-14  0.12500000000E+03  0.12500000000E+03 0.  0.
        -11    1    3    3    0    0  0.80702642100E+01 -0.14850485942E+02  0.51025112947E+02  0.53751541826E+02  0.51100000000E-03 0.  1.
         23    2    1    0    0    0  0.24018135122E+02 -0.11640397886E+02  0.12586402680E+02  0.95490896148E+02  0.90816980995E+02 0.  0.
         11    1    3    3    0    0  0.15947870912E+02  0.32100880563E+01 -0.38438710267E+02  0.41739354322E+02  0.51100000000E-03 0. -1.
         22    1    1    0    0    0 -0.24018135122E+02  0.11640397886E+02 -0.12586402680E+02  0.29509103852E+02  0.00000000000E+00 0.  1.
</event>
<event>
 5    1  0.1692171E-003  0.9118800E+02  0.7818608E-02  0.1130116E+00
         25   -1    0    0    0    0  0.00000000000E+00  0.00000000000E+00  0.99999998245E-14  0.12500000000E+03  0.12500000000E+03 0.  0.
        -11    1    3    3    0    0 -0.55276253822E+02  0.14225758180E+02 -0.18483079804E+02  0.59995505429E+02  0.51100000000E-03 0.  1.
         23    2    1    0    0    0 -0.32329691009E+02  0.13754828793E+02  0.62560662175E+00  0.89860341216E+02  0.82704808227E+02 0.  0.
         11    1    3    3    0    0  0.22946562813E+02 -0.47092938701E+00  0.19108686425E+02  0.29864835787E+02  0.51100000000E-03 0. -1.
         22    1    1    0    0    0  0.32329691009E+02 -0.13754828793E+02 -0.62560662175E+00  0.35139658784E+02  0.00000000000E+00 0.  1.
</event>
<event>
 5    1  0.1692171E-003  0.9118800E+02  0.7818608E-02  0.1130116E+00
         25   -1    0    0    0    0  0.00000000000E+00  0.00000000000E+00  0.99999998245E-14  0.12500000000E+03  0.12500000000E+03 0.  0.
        -11    1    3    3    0    0 -0.35707373372E+02  0.13246136308E+02 -0.38128540996E+02  0.53891207807E+02  0.51100000000E-03 0.  1.
         23    2    1    0    0    0 -0.41917402007E+01  0.14312220528E+02 -0.36618607879E+02  0.85460996657E+02  0.75764432052E+02 0.  0.
         11    1    3    3    0    0  0.31515633171E+02  0.10660842205E+01  0.15099331165E+01  0.31569788850E+02  0.51100000000E-03 0. -1.
         22    1    1    0    0    0  0.41917402007E+01 -0.14312220528E+02  0.36618607879E+02  0.39539003343E+02  0.00000000000E+00 0.  1.
</event>
<event>
 5    1  0.1692171E-003  0.9118800E+02  0.7818608E-02  0.1130116E+00
         25   -1    0    0    0    0  0.00000000000E+00  0.00000000000E+00  0.99999998245E-14  0.12500000000E+03  0.12500000000E+03 0.  0.
        -11    1    3    3    0    0 -0.53149416627E+02 -0.14372046927E+02 -0.11988335901E+02  0.56348348854E+02  0.51100000000E-03 0. -1.
         23    2    1    0    0    0 -0.18725244893E+02 -0.21261505174E+02  0.63634487377E+01  0.95962440213E+02  0.91463708941E+02 0.  0.
         11    1    3    3    0    0  0.34424171734E+02 -0.68894582464E+01  0.18351784639E+02  0.39614091359E+02  0.51100000000E-03 0.  1.
         22    1    1    0    0    0  0.18725244893E+02  0.21261505174E+02 -0.63634487377E+01  0.29037559787E+02  0.00000000000E+00 0. -1.
</event>
<event>
 5    1  0.1692171E-003  0.9118800E+02  0.7818608E-02  0.1130116E+00
         25   -1    0    0    0    0  0.00000000000E+00  0.00000000000E+00  0.99999998245E-14  0.12500000000E+03  0.12500000000E+03 0.  0.
        -11    1    3    3    0    0  0.43667789852E+02 -0.95844607359E+01  0.24922829814E+02  0.51184814197E+02  0.51100000000E-03 0.  1.
         23    2    1    0    0    0  0.74707559241E+01  0.13289542774E+02  0.26933830607E+02  0.94050761360E+02  0.88812669930E+02 0.  0.
         11    1    3    3    0    0 -0.36197033928E+02  0.22874003510E+02  0.20110007930E+01  0.42865947163E+02  0.51100000000E-03 0. -1.
         22    1    1    0    0    0 -0.74707559241E+01 -0.13289542774E+02 -0.26933830607E+02  0.30949238640E+02  0.00000000000E+00 0.  1.
</event>
<event>
 5    1  0.1692171E-003  0.9118800E+02  0.7818608E-02  0.1130116E+00
         25   -1    0    0    0    0  0.00000000000E+00  0.00000000000E+00  0.99999998245E-14  0.12500000000E+03  0.12500000000E+03 0.  0.
        -11    1    3    3    0    0  0.49395980920E+02 -0.12531446852E+02 -0.18290436276E+02  0.54143699085E+02  0.51100000000E-03 0. -1.
         23    2    1    0    0    0  0.19300381228E+02  0.16207784505E+02 -0.14485023104E+02  0.95930894606E+02  0.91420586584E+02 0.  0.
         11    1    3    3    0    0 -0.30095599691E+02  0.28739231357E+02  0.38054131724E+01  0.41787195520E+02  0.51100000000E-03 0.  1.
         22    1    1    0    0    0 -0.19300381228E+02 -0.16207784505E+02  0.14485023104E+02  0.29069105394E+02  0.00000000000E+00 0. -1.
</event>
<event>
 5    1  0.1692171E-003  0.9118800E+02  0.7818608E-02  0.1130116E+00
         25   -1    0    0    0    0  0.00000000000E+00  0.00000000000E+00  0.99999998245E-14  0.12500000000E+03  0.12500000000E+03 0.  0.
        -11    1    3    3    0    0 -0.51800513899E+01  0.56779811579E+02  0.11035536629E+02  0.58073772086E+02  0.51100000000E-03 0.  1.
         23    2    1    0    0    0 -0.58179700115E+01  0.23931935371E+02 -0.11403186672E+02  0.97859274660E+02  0.94020309854E+02 0.  0.
         11    1    3    3    0    0 -0.63791862160E+00 -0.32847876207E+02 -0.22438723301E+02  0.39785502575E+02  0.51100000000E-03 0. -1.
         22    1    1    0    0    0  0.58179700115E+01 -0.23931935371E+02  0.11403186672E+02  0.27140725340E+02  0.00000000000E+00 0.  1.
</event>
<event>
 5    1  0.1692171E-003  0.9118800E+02  0.7818608E-02  0.1130116E+00
         25   -1    0    0    0    0  0.00000000000E+00  0.00000000000E+00  0.99999998245E-14  0.12500000000E+03  0.12500000000E+03 0.  0.
        -11    1    3    3    0    0 -0.21646642588E+02  0.25333408863E+02 -0.25096693670E+01  0.33416420822E+02  0.51100000000E-03 0. -1.
         23    2    1    0    0    0  0.21872286983E+02 -0.19298610688E+02  0.50811526771E+00  0.95826527573E+02  0.91277773270E+02 0.  0.
         11    1    3    3    0    0  0.43518929572E+02 -0.44632019551E+02  0.30177846347E+01  0.62410106750E+02  0.51100000000E-03 0.  1.
         22    1    1    0    0    0 -0.21872286983E+02  0.19298610688E+02 -0.50811526771E+00  0.29173472427E+02  0.00000000000E+00 0.  1.
</event>
<event>
 5    1  0.1692171E-003  0.9118800E+02  0.7818608E-02  0.1130116E+00
         25   -1    0    0    0    0  0.00000000000E+00  0.00000000000E+00  0.99999998245E-14  0.12500000000E+03  0.12500000000E+03 0.  0.
        -11    1    3    3    0    0 -0.23809258795E+02  0.13008440397E+02 -0.22855518823E+02  0.35474992133E+02  0.51100000000E-03 0.  1.
         23    2    1    0    0    0  0.30688376792E+01 -0.14827422139E+02  0.24234795581E+02  0.96423864347E+02  0.92092160832E+02 0.  0.
         11    1    3    3    0    0  0.26878096474E+02 -0.27835862536E+02  0.47090314404E+02  0.60948872214E+02  0.51100000000E-03 0. -1.
         22    1    1    0    0    0 -0.30688376792E+01  0.14827422139E+02 -0.24234795581E+02  0.28576135653E+02  0.00000000000E+00 0. -1.
</event>
<event>
 5    1  0.1692171E-003  0.9118800E+02  0.7818608E-02  0.1130116E+00
         25   -1    0    0    0    0  0.00000000000E+00  0.00000000000E+00  0.99999998245E-14  0.12500000000E+03  0.12500000000E+03 0.  0.
        -11    1    3    3    0    0 -0.29199349612E+02 -0.35012971261E+02 -0.60188203116E+01  0.45986262867E+02  0.51100000000E-03 0. -1.
         23    2    1    0    0    0  0.88191569546E+01 -0.14667207328E+02 -0.26287181137E+02  0.93632494643E+02  0.88222013470E+02 0.  0.
         11    1    3    3    0    0  0.38018506567E+02  0.20345763932E+02 -0.20268360826E+02  0.47646231775E+02  0.51100000000E-03 0.  1.
         22    1    1    0    0    0 -0.88191569546E+01  0.14667207328E+02  0.26287181137E+02  0.31367505357E+02  0.00000000000E+00 0. -1.
</event>
<event>
 5    1  0.1692171E-003  0.9118800E+02  0.7818608E-02  0.1130116E+00
         25   -1    0    0    0    0  0.00000000000E+00  0.00000000000E+00  0.99999998245E-14  0.12500000000E+03  0.12500000000E+03 0.  0.
        -11    1    3    3    0    0 -0.40986452653E+02 -0.25891178717E+01  0.29298647309E+02  0.50448028374E+02  0.51100000000E-03 0.  1.
         23    2    1    0    0    0  0.57095309173E+01 -0.59331707509E+01  0.26391524716E+02  0.97353773579E+02  0.93345826874E+02 0.  0.
         11    1    3    3    0    0  0.46695983570E+02 -0.33440528792E+01 -0.29071225924E+01  0.46905745205E+02  0.51100000000E-03 0. -1.
         22    1    1    0    0    0 -0.57095309173E+01  0.59331707509E+01 -0.26391524716E+02  0.27646226421E+02  0.00000000000E+00 0.  1.
</event>
<event>
 5    1  0.1692171E-003  0.9118800E+02  0.7818608E-02  0.1130116E+00
         25   -1    0    0    0    0  0.00000000000E+00  0.00000000000E+00  0.99999998245E-14  0.12500000000E+03  0.12500000000E+03 0.  0.
        -11    1    3    3    0    0 -0.49258743659E+02 -0.13701455933E+01 -0.20557092610E+02  0.53393774756E+02  0.51100000000E-03 0. -1.
         23    2    1    0    0    0 -0.17159090215E+02  0.19579283817E+02  0.36239377685E+01  0.98714725477E+02  0.95150834832E+02 0.  0.
         11    1    3    3    0    0  0.32099653444E+02  0.20949429411E+02  0.24181030379E+02  0.45320950721E+02  0.51100000000E-03 0.  1.
         22    1    1    0    0    0  0.17159090215E+02 -0.19579283817E+02 -0.36239377685E+01  0.26285274523E+02  0.00000000000E+00 0. -1.
</event>
<event>
 5    1  0.1692171E-003  0.9118800E+02  0.7818608E-02  0.1130116E+00
         25   -1    0    0    0    0  0.00000000000E+00  0.00000000000E+00  0.99999998245E-14  0.12500000000E+03  0.12500000000E+03 0.  0.
        -11    1    3    3    0    0  0.39924452351E+02  0.23007540212E+01 -0.10156097338E+02  0.41260170600E+02  0.51100000000E-03 0. -1.
         23    2    1    0    0    0 -0.13135579230E+02 -0.17850277516E+02 -0.15022278919E+02  0.98226044128E+02  0.94506671892E+02 0.  0.
         11    1    3    3    0    0 -0.53060031581E+02 -0.20151031537E+02 -0.48661815813E+01  0.56965873528E+02  0.51100000000E-03 0.  1.
         22    1    1    0    0    0  0.13135579230E+02  0.17850277516E+02  0.15022278919E+02  0.26773955872E+02  0.00000000000E+00 0.  1.
</event>
<event>
 5    1  0.1692171E-003  0.9118800E+02  0.7818608E-02  0.1130116E+00
         25   -1    0    0    0    0  0.00000000000E+00  0.00000000000E+00  0.99999998245E-14  0.12500000000E+03  0.12500000000E+03 0.  0.
        -11    1    3    3    0    0 -0.50660619180E+02  0.31801200849E+02 -0.10109411277E+02  0.60663126426E+02  0.51100000000E-03 0.  1.
         23    2    1    0    0    0 -0.27830287448E+02  0.16523581738E+02  0.53652342845E+01  0.92192388203E+02  0.86157396959E+02 0.  0.
         11    1    3    3    0    0  0.22830331732E+02 -0.15277619112E+02  0.15474645561E+02  0.31529261777E+02  0.51100000000E-03 0. -1.
         22    1    1    0    0    0  0.27830287448E+02 -0.16523581738E+02 -0.53652342845E+01  0.32807611797E+02  0.00000000000E+00 0.  1.
</event>
<event>
 5    1  0.1692171E-003  0.9118800E+02  0.7818608E-02  0.1130116E+00
         25   -1    0    0    0    0  0.00000000000E+00  0.00000000000E+00  0.99999998245E-14  0.12500000000E+03  0.12500000000E+03 0.  0.
        -11    1    3    3    0    0 -0.48145212062E+01  0.19911106391E+02  0.28936158228E+02  0.35453251268E+02  0.51100000000E-03 0. -1.
         23    2    1    0    0    0  0.17640153095E+02 -0.84230268603E+00 -0.23169248294E+02  0.95867568904E+02  0.91333959873E+02 0.  0.
         11    1    3    3    0    0  0.22454674302E+02 -0.20753409077E+02 -0.52105406523E+02  0.60414317636E+02  0.51100000000E-03 0.  1.
         22    1    1    0    0    0 -0.17640153095E+02  0.84230268603E+00  0.23169248294E+02  0.29132431096E+02  0.00000000000E+00 0.  1.
</event>
<event>
 5    1  0.1692171E-003  0.9118800E+02  0.7818608E-02  0.1130116E+00
         25   -1    0    0    0    0  0.00000000000E+00  0.00000000000E+00  0.99999998245E-14  0.12500000000E+03  0.12500000000E+03 0.  0.
        -11    1    3    3    0    0  0.30770203559E+02  0.11042080071E+02 -0.40015243750E+02  0.51671584958E+02  0.51100000000E-03 0.  1.
         23    2    1    0    0    0  0.30865725831E+02 -0.13797081741E+02 -0.11971867787E+02  0.89133886272E+02  0.81599458135E+02 0.  0.
         11    1    3    3    0    0  0.95522271943E-01 -0.24839161813E+02  0.28043375963E+02  0.37462301314E+02  0.51100000000E-03 0. -1.
         22    1    1    0    0    0 -0.30865725831E+02  0.13797081741E+02  0.11971867787E+02  0.35866113728E+02  0.00000000000E+00 0.  1.
</event>
<event>
 5    1  0.1692171E-003  0.9118800E+02  0.7818608E-02  0.1130116E+00
         25   -1    0    0    0    0  0.00000000000E+00  0.00000000000E+00  0.99999998245E-14  0.12500000000E+03  0.12500000000E+03 0.  0.
        -11    1    3    3    0    0  0.23096425463E+01  0.36212127910E+02 -0.24686234367E+02  0.43886932268E+02  0.51100000000E-03 0.  1.
         23    2    1    0    0    0 -0.28831488819E+02  0.12144601437E+01 -0.16377428057E+01  0.96096507781E+02  0.91646750872E+02 0.  0.
         11    1    3    3    0    0 -0.31141131365E+02 -0.34997667766E+02  0.23048491561E+02  0.52209575513E+02  0.51100000000E-03 0. -1.
         22    1    1    0    0    0  0.28831488819E+02 -0.12144601437E+01  0.16377428057E+01  0.28903492219E+02  0.00000000000E+00 0. -1.
</event>
<event>
 5    1  0.1692171E-003  0.9118800E+02  0.7818608E-02  0.1130116E+00
         25   -1    0    0    0    0  0.00000000000E+00  0.00000000000E+00  0.99999998245E-14  0.12500000000E+03  0.12500000000E+03 0.  0.
        -11    1    3    3    0    0 -0.32629409614E+02 -0.30712047769E+02 -0.17512561790E+02  0.48110269908E+02  0.51100000000E-03 0.  1.
         23    2    1    0    0    0  0.93309455168E+01 -0.15218730579E+02 -0.25825177220E+02  0.93605476861E+02  0.88183724209E+02 0.  0.
         11    1    3    3    0    0  0.41960355130E+02  0.15493317190E+02 -0.83126154293E+01  0.45495206953E+02  0.51100000000E-03 0. -1.
         22    1    1    0    0    0 -0.93309455168E+01  0.15218730579E+02  0.25825177220E+02  0.31394523139E+02  0.00000000000E+00 0.  1.
</event>
<event>
 5    1  0.1692171E-003  0.9118800E+02  0.7818608E-02  0.1130116E+00
         25   -1    0    0    0    0  0.00000000000E+00  0.00000000000E+00  0.99999998245E-14  0.12500000000E+03  0.12500000000E+03 0.  0.
        -11    1    3    3    0    0  0.14584199791E+02  0.18794478001E+02  0.39732316517E+02  0.46309699448E+02  0.51100000000E-03 0. -1.
         23    2    1    0    0    0 -0.90195809747E+00  0.27437990303E+02 -0.73155004752E+01  0.96589202977E+02  0.92316308116E+02 0.  0.
         11    1    3    3    0    0 -0.15486157889E+02  0.86435123025E+01 -0.47047816992E+02  0.50279503529E+02  0.51100000000E-03 0.  1.
         22    1    1    0    0    0  0.90195809747E+00 -0.27437990303E+02  0.73155004752E+01  0.28410797023E+02  0.00000000000E+00 0.  1.
</event>
<event>
 5    1  0.1692171E-003  0.9118800E+02  0.7818608E-02  0.1130116E+00
         25   -1    0    0    0    0  0.00000000000E+00  0.00000000000E+00  0.99999998245E-14  0.12500000000E+03  0.12500000000E+03 0.  0.
        -11    1    3    3    0    0  0.21537023884E+02  0.19537497459E+01 -0.57185249285E+02  0.61137658378E+02  0.51100000000E-03 0. -1.
         23    2    1    0    0    0  0.18360823348E+02  0.39859367144E+01 -0.24078114001E+02  0.94458829437E+02  0.89385162971E+02 0.  0.
         11    1    3    3    0    0 -0.31762005360E+01  0.20321869685E+01  0.33107135285E+02  0.33321171059E+02  0.51100000000E-03 0.  1.
         22    1    1    0    0    0 -0.18360823348E+02 -0.39859367144E+01  0.24078114001E+02  0.30541170563E+02  0.00000000000E+00 0. -1.
</event>
<event>
 5    1  0.1692171E-003  0.9118800E+02  0.7818608E-02  0.1130116E+00
         25   -1    0    0    0    0  0.00000000000E+00  0.00000000000E+00  0.99999998245E-14  0.12500000000E+03  0.12500000000E+03 0.  0.
        -11    1    3    3    0    0  0.24666997411E+02 -0.24891989315E+02 -0.46194071082E+02  0.57982446454E+02  0.51100000000E-03 0. -1.
         23    2    1    0    0    0  0.19162505186E+01 -0.24680983633E+02 -0.17115248900E+02  0.94904240929E+02  0.90005889987E+02 0.  0.
         11    1    3    3    0    0 -0.22750746892E+02  0.21100568248E+00  0.29078822182E+02  0.36921794476E+02  0.51100000000E-03 0.  1.
         22    1    1    0    0    0 -0.19162505186E+01  0.24680983633E+02  0.17115248900E+02  0.30095759071E+02  0.00000000000E+00 0. -1.
</event>
<event>
 5    1  0.1692171E-003  0.9118800E+02  0.7818608E-02  0.1130116E+00
         25   -1    0    0    0    0  0.00000000000E+00  0.00000000000E+00  0.99999998245E-14  0.12500000000E+03  0.12500000000E+03 0.  0.
        -11    1    3    3    0    0 -0.49194287016E+02 -0.27580043330E+01 -0.35385719839E+02  0.60661632287E+02  0.51100000000E-03 0.  1.
         23    2    1    0    0    0 -0.20518399650E+02  0.92330943593E+01 -0.17255982147E+02  0.96644688761E+02  0.92391407556E+02 0.  0.
         11    1    3    3    0    0  0.28675887367E+02  0.11991098692E+02  0.18129737693E+02  0.35983056473E+02  0.51100000000E-03 0. -1.
         22    1    1    0    0    0  0.20518399650E+02 -0.92330943593E+01  0.17255982147E+02  0.28355311239E+02  0.00000000000E+00 0.  1.
</event>
<event>
 5    1  0.1692171E-003  0.9118800E+02  0.7818608E-02  0.1130116E+00
         25   -1    0    0    0    0  0.00000000000E+00  0.00000000000E+00  0.99999998245E-14  0.12500000000E+03  0.12500000000E+03 0.  0.
        -11    1    3    3    0    0  0.49281915140E+01 -0.25142705315E+02  0.43451900598E+02  0.50443139950E+02  0.51100000000E-03 0. -1.
         23    2    1    0    0    0  0.11677020283E+02 -0.30033184634E+02  0.20108768389E+01  0.92713956457E+02  0.86910811263E+02 0.  0.
         11    1    3    3    0    0  0.67488287693E+01 -0.48904793194E+01 -0.41441023759E+02  0.42270816508E+02  0.51100000000E-03 0.  1.
         22    1    1    0    0    0 -0.11677020283E+02  0.30033184634E+02 -0.20108768389E+01  0.32286043543E+02  0.00000000000E+00 0. -1.
</event>
<event>
 5    1  0.1692171E-003  0.9118800E+02  0.7818608E-02  0.1130116E+00
         25   -1    0    0    0    0  0.00000000000E+00  0.00000000000E+00  0.99999998245E-14  0.12500000000E+03  0.12500000000E+03 0.  0.
        -11    1    3    3    0    0 -0.48237720937E+02 -0.18130697912E+02 -0.72173836801E+00  0.51537567216E+02  0.51100000000E-03 0.  1.
         23    2    1    0    0    0 -0.18939708859E+02  0.18433093519E+02  0.21803885313E+01  0.98481221700E+02  0.94843583995E+02 0.  0.
         11    1    3    3    0    0  0.29298012078E+02  0.36563791432E+02  0.29021268993E+01  0.46943654484E+02  0.51100000000E-03 0. -1.
         22    1    1    0    0    0  0.18939708859E+02 -0.18433093519E+02 -0.21803885313E+01  0.26518778300E+02  0.00000000000E+00 0.  1.
</event>
<event>
 5    1  0.1692171E-003  0.9118800E+02  0.7818608E-02  0.1130116E+00
         25   -1    0    0    0    0  0.00000000000E+00  0.00000000000E+00  0.99999998245E-14  0.12500000000E+03  0.12500000000E+03 0.  0.
        -11    1    3    3    0    0  0.44299355131E+02 -0.12069066413E+01 -0.19662168209E+02  0.48481855860E+02  0.51100000000E-03 0.  1.
         23    2    1    0    0    0  0.56820898400E+01  0.25117743196E+02 -0.14350706596E+02  0.95518990045E+02  0.90855641053E+02 0.  0.
         11    1    3    3    0    0 -0.38617265291E+02  0.26324649837E+02  0.53114616137E+01  0.47037134185E+02  0.51100000000E-03 0. -1.
         22    1    1    0    0    0 -0.56820898400E+01 -0.25117743196E+02  0.14350706596E+02  0.29481009955E+02  0.00000000000E+00 0.  1.
</event>
<event>
 5    1  0.1692171E-003  0.9118800E+02  0.7818608E-02  0.1130116E+00
         25   -1    0    0    0    0  0.00000000000E+00  0.00000000000E+00  0.99999998245E-14  0.12500000000E+03  0.12500000000E+03 0.  0.
        -11    1    3    3    0    0 -0.13897498773E+01 -0.10729081860E+02  0.38858778098E+02  0.40336698400E+02  0.51100000000E-03 0. -1.
         23    2    1    0    0    0 -0.26548184028E+02 -0.27464038181E+01 -0.10507593512E+02  0.96316235768E+02  0.91945956637E+02 0.  0.
         11    1    3    3    0    0 -0.25158434150E+02  0.79826780422E+01 -0.49366371611E+02  0.55979537368E+02  0.51100000000E-03 0.  1.
         22    1    1    0    0    0  0.26548184028E+02  0.27464038181E+01  0.10507593512E+02  0.28683764232E+02  0.00000000000E+00 0.  1.
</event>
<event>
 5    1  0.1692171E-003  0.9118800E+02  0.7818608E-02  0.1130116E+00
         25   -1    0    0    0    0  0.00000000000E+00  0.00000000000E+00  0.99999998245E-14  0.12500000000E+03  0.12500000000E+03 0.  0.
        -11    1    3    3    0    0  0.30498243283E+02 -0.48645411746E+02  0.92247224985E+01  0.58151650301E+02  0.51100000000E-03 0. -1.
         23    2    1    0    0    0  0.23335869588E+02 -0.15905282720E+02 -0.77436548860E+01  0.95716813377E+02  0.91127401720E+02 0.  0.
         11    1    3    3    0    0 -0.71623736956E+01  0.32740129026E+02 -0.16968377385E+02  0.37565163076E+02  0.51100000000E-03 0.  1.
         22    1    1    0    0    0 -0.23335869588E+02  0.15905282720E+02  0.77436548860E+01  0.29283186623E+02  0.00000000000E+00 0. -1.
</event>
<event>
 5    1  0.1692171E-003  0.9118800E+02  0.7818608E-02  0.1130116E+00
         25   -1    0    0    0    0  0.00000000000E+00  0.00000000000E+00  0.99999998245E-14  0.12500000000E+03  0.12500000000E+03 0.  0.
        -11    1    3    3    0    0  0.22211007556E+02  0.17069609020E+02  0.45674827523E+02  0.53580689416E+02  0.51100000000E-03 0. -1.
         23    2    1    0    0    0  0.72757332492E+01  0.28783731415E+02  0.10575501886E+02  0.93483643475E+02  0.88010856539E+02 0.  0.
         11    1    3    3    0    0 -0.14935274307E+02  0.11714122396E+02 -0.35099325638E+02  0.39902954059E+02  0.51100000000E-03 0.  1.
         22    1    1    0    0    0 -0.72757332492E+01 -0.28783731415E+02 -0.10575501886E+02  0.31516356525E+02  0.00000000000E+00 0. -1.
</event>
<event>
 5    1  0.1692171E-003  0.9118800E+02  0.7818608E-02  0.1130116E+00
         25   -1    0    0    0    0  0.00000000000E+00  0.00000000000E+00  0.99999998245E-14  0.12500000000E+03  0.12500000000E+03 0.  0.
        -11    1    3    3    0    0  0.25271092152E+02 -0.11992322108E+02  0.37086551280E+02  0.46452730535E+02  0.51100000000E-03 0.  1.
         23    2    1    0    0    0 -0.74599835999E+01  0.20432615023E+02  0.19561532854E+02  0.95745997204E+02  0.91167424561E+02 0.  0.
         11    1    3    3    0    0 -0.32731075752E+02  0.32424937131E+02 -0.17525018426E+02  0.49293266669E+02  0.51100000000E-03 0. -1.
         22    1    1    0    0    0  0.74599835999E+01 -0.20432615023E+02 -0.19561532854E+02  0.29254002796E+02  0.00000000000E+00 0. -1.
</event>
<event>
 5    1  0.1692171E-003  0.9118800E+02  0.7818608E-02  0.1130116E+00
         25   -1    0    0    0    0  0.00000000000E+00  0.00000000000E+00  0.99999998245E-14  0.12500000000E+03  0.12500000000E+03 0.  0.
        -11    1    3    3    0    0  0.22534334323E+02 -0.33515479434E+02  0.46256604090E+02  0.61406489944E+02  0.51100000000E-03 0. -1.
         23    2    1    0    0    0  0.17248397470E+02 -0.10918936307E+02  0.22599544212E+02  0.94545611417E+02  0.89506440295E+02 0.  0.
         11    1    3    3    0    0 -0.52859368524E+01  0.22596543127E+02 -0.23657059878E+02  0.33139121473E+02  0.51100000000E-03 0.  1.
         22    1    1    0    0    0 -0.17248397470E+02  0.10918936307E+02 -0.22599544212E+02  0.30454388583E+02  0.00000000000E+00 0. -1.
</event>
<event>
 5    1  0.1692171E-003  0.9118800E+02  0.7818608E-02  0.1130116E+00
         25   -1    0    0    0    0  0.00000000000E+00  0.00000000000E+00  0.99999998245E-14  0.12500000000E+03  0.12500000000E+03 0.  0.
        -11    1    3    3    0    0  0.10665532545E+02 -0.65882605778E+01 -0.52649525841E+02  0.54121449847E+02  0.51100000000E-03 0.  1.
         23    2    1    0    0    0  0.18998069049E+02  0.13805649333E+02 -0.17078402975E+02  0.95962189662E+02  0.91463366522E+02 0.  0.
         11    1    3    3    0    0  0.83325365034E+01  0.20393909910E+02  0.35571122867E+02  0.41840739815E+02  0.51100000000E-03 0. -1.
         22    1    1    0    0    0 -0.18998069049E+02 -0.13805649333E+02  0.17078402975E+02  0.29037810338E+02  0.00000000000E+00 0.  1.
</event>
<event>
 5    1  0.1692171E-003  0.9118800E+02  0.7818608E-02  0.1130116E+00
         25   -1    0    0    0    0  0.00000000000E+00  0.00000000000E+00  0.99999998245E-14  0.12500000000E+03  0.12500000000E+03 0.  0.
        -11    1    3    3    0    0  0.31913142069E+02  0.26093621093E+01  0.17282703704E+02  0.36386113490E+02  0.51100000000E-03 0.  1.
         23    2    1    0    0    0 -0.25848862193E+02  0.11111825005E+02  0.17081573610E+01  0.96812163383E+02  0.92617713455E+02 0.  0.
         11    1    3    3    0    0 -0.57762004262E+02  0.85024628959E+01 -0.15574546343E+02  0.60426049893E+02  0.51100000000E-03 0. -1.
         22    1    1    0    0    0  0.25848862193E+02 -0.11111825005E+02 -0.17081573610E+01  0.28187836617E+02  0.00000000000E+00 0. -1.
</event>
<event>
 5    1  0.1692171E-003  0.9118800E+02  0.7818608E-02  0.1130116E+00
         25   -1    0    0    0    0  0.00000000000E+00  0.00000000000E+00  0.99999998245E-14  0.12500000000E+03  0.12500000000E+03 0.  0.
        -11    1    3    3    0    0 -0.45327935200E+02  0.21940255960E+02 -0.72558794178E+00  0.50363905917E+02  0.51100000000E-03 0.  1.
         23    2    1    0    0    0 -0.23194857682E+01  0.28351536893E+02 -0.10039881644E+02  0.94833978024E+02  0.89908256050E+02 0.  0.
         11    1    3    3    0    0  0.43008449432E+02  0.64112809337E+01 -0.93142937019E+01  0.44470072107E+02  0.51100000000E-03 0. -1.
         22    1    1    0    0    0  0.23194857682E+01 -0.28351536893E+02  0.10039881644E+02  0.30166021976E+02  0.00000000000E+00 0.  1.
</event>
<event>
 5    1  0.1692171E-003  0.9118800E+02  0.7818608E-02  0.1130116E+00
         25   -1    0    0    0    0  0.00000000000E+00  0.00000000000E+00  0.99999998245E-14  0.12500000000E+03  0.12500000000E+03 0.  0.
        -11    1    3    3    0    0  0.24485059224E+02 -0.40098176820E+02 -0.25801131428E+02  0.53601122122E+02  0.51100000000E-03 0. -1.
         23    2    1    0    0    0  0.17539346534E+01 -0.39265553821E+02 -0.28418696460E+02  0.76497605089E+02  0.59155737441E+02 0.  0.
         11    1    3    3    0    0 -0.22731124570E+02  0.83262299852E+00 -0.26175650313E+01  0.22896482967E+02  0.51100000000E-03 0.  1.
         22    1    1    0    0    0 -0.17539346534E+01  0.39265553821E+02  0.28418696460E+02  0.48502394911E+02  0.00000000000E+00 0. -1.
</event>
<event>
 5    1  0.1692171E-003  0.9118800E+02  0.7818608E-02  0.1130116E+00
         25   -1    0    0    0    0  0.00000000000E+00  0.00000000000E+00  0.99999998245E-14  0.12500000000E+03  0.12500000000E+03 0.  0.
        -11    1    3    3    0    0  0.11111545480E+02 -0.36400597881E+02  0.15497167042E+02  0.41092969662E+02  0.51100000000E-03 0. -1.
         23    2    1    0    0    0 -0.54372222899E+01  0.18865470569E+02  0.17329450069E+02  0.98812613614E+02  0.95279344054E+02 0.  0.
         11    1    3    3    0    0 -0.16548767770E+02  0.55266068450E+02  0.18322830277E+01  0.57719643952E+02  0.51100000000E-03 0.  1.
         22    1    1    0    0    0  0.54372222899E+01 -0.18865470569E+02 -0.17329450069E+02  0.26187386386E+02  0.00000000000E+00 0.  1.
</event>
<event>
 5    1  0.1692171E-003  0.9118800E+02  0.7818608E-02  0.1130116E+00
         25   -1    0    0    0    0  0.00000000000E+00  0.00000000000E+00  0.99999998245E-14  0.12500000000E+03  0.12500000000E+03 0.  0.
        -11    1    3    3    0    0  0.26861178852E+02  0.18544557589E+02  0.38169947508E+02  0.50223186264E+02  0.51100000000E-03 0. -1.
         23    2    1    0    0    0  0.39031322100E+02  0.81837065746E+01  0.80580788655E+01  0.84314009866E+02  0.73847833188E+02 0.  0.
         11    1    3    3    0    0  0.12170143248E+02 -0.10360851015E+02 -0.30111868643E+02  0.34090823602E+02  0.51100000000E-03 0.  1.
         22    1    1    0    0    0 -0.39031322100E+02 -0.81837065746E+01 -0.80580788655E+01  0.40685990134E+02  0.00000000000E+00 0. -1.
</event>
<event>
 5    1  0.1692171E-003  0.9118800E+02  0.7818608E-02  0.1130116E+00
         25   -1    0    0    0    0  0.00000000000E+00  0.00000000000E+00  0.99999998245E-14  0.12500000000E+03  0.12500000000E+03 0.  0.
        -11    1    3    3    0    0 -0.13468237044E+02 -0.57604086017E+02  0.19180913101E+02  0.62189481125E+02  0.51100000000E-03 0.  1.
         23    2    1    0    0    0 -0.30244879197E+01 -0.29678391615E+02  0.11912692220E+02  0.92877318108E+02  0.87145450409E+02 0.  0.
         11    1    3    3    0    0  0.10443749124E+02  0.27925694403E+02 -0.72682208817E+01  0.30687836983E+02  0.51100000000E-03 0. -1.
         22    1    1    0    0    0  0.30244879197E+01  0.29678391615E+02 -0.11912692220E+02  0.32122681892E+02  0.00000000000E+00 0.  1.
</event>
<event>
 5    1  0.1692171E-003  0.9118800E+02  0.7818608E-02  0.1130116E+00
         25   -1    0    0    0    0  0.00000000000E+00  0.00000000000E+00  0.99999998245E-14  0.12500000000E+03  0.12500000000E+03 0.  0.
        -11    1    3    3    0    0  0.37673725069E+02  0.85757630423E+01  0.19560997966E+02  0.43306880678E+02  0.51100000000E-03 0.  1.
         23    2    1    0    0    0 -0.91607856680E+01  0.26142195329E+02 -0.73820463299E+00  0.97289364556E+02  0.93259536450E+02 0.  0.
         11    1    3    3    0    0 -0.46834510737E+02  0.17566432286E+02 -0.20299202599E+02  0.53982483878E+02  0.51100000000E-03 0. -1.
         22    1    1    0    0    0  0.91607856680E+01 -0.26142195329E+02  0.73820463299E+00  0.27710635444E+02  0.00000000000E+00 0. -1.
</event>
<event>
 5    1  0.1692171E-003  0.9118800E+02  0.7818608E-02  0.1130116E+00
         25   -1    0    0    0    0  0.00000000000E+00  0.00000000000E+00  0.99999998245E-14  0.12500000000E+03  0.12500000000E+03 0.  0.
        -11    1    3    3    0    0 -0.29731815658E+02  0.13780819729E+02 -0.29141652339E+02  0.43853480547E+02  0.51100000000E-03 0.  1.
         23    2    1    0    0    0 -0.17652750962E+02 -0.21474216526E+02  0.75942889972E+01  0.96182734042E+02  0.91764282324E+02 0.  0.
         11    1    3    3    0    0  0.12079064696E+02 -0.35255036255E+02  0.36735941336E+02  0.52329253496E+02  0.51100000000E-03 0. -1.
         22    1    1    0    0    0  0.17652750962E+02  0.21474216526E+02 -0.75942889972E+01  0.28817265958E+02  0.00000000000E+00 0. -1.
</event>
<event>
 5    1  0.1692171E-003  0.9118800E+02  0.7818608E-02  0.1130116E+00
         25   -1    0    0    0    0  0.00000000000E+00  0.00000000000E+00  0.99999998245E-14  0.12500000000E+03  0.12500000000E+03 0.  0.
        -11    1    3    3    0    0  0.27709574873E+02 -0.50569248773E+02  0.30770552113E+01  0.57745456359E+02  0.51100000000E-03 0. -1.
         23    2    1    0    0    0  0.25420286438E+02 -0.12903124147E+02 -0.42248698889E+01  0.96181063501E+02  0.91762006709E+02 0.  0.
         11    1    3    3    0    0 -0.22892884344E+01  0.37666124626E+02 -0.73019251001E+01  0.38435607141E+02  0.51100000000E-03 0.  1.
         22    1    1    0    0    0 -0.25420286438E+02  0.12903124147E+02  0.42248698889E+01  0.28818936499E+02  0.00000000000E+00 0. -1.
</event>
<event>
 5    1  0.1692171E-003  0.9118800E+02  0.7818608E-02  0.1130116E+00
         25   -1    0    0    0    0  0.00000000000E+00  0.00000000000E+00  0.99999998245E-14  0.12500000000E+03  0.12500000000E+03 0.  0.
        -11    1    3    3    0    0  0.72566538948E+01 -0.42877434780E+02 -0.31409124076E+02  0.53643886087E+02  0.51100000000E-03 0.  1.
         23    2    1    0    0    0  0.22905655136E+02 -0.56485201915E+01 -0.13473945612E+02  0.97831598724E+02  0.93983507494E+02 0.  0.
         11    1    3    3    0    0  0.15649001241E+02  0.37228914589E+02  0.17935178463E+02  0.44187712637E+02  0.51100000000E-03 0. -1.
         22    1    1    0    0    0 -0.22905655136E+02  0.56485201915E+01  0.13473945612E+02  0.27168401276E+02  0.00000000000E+00 0.  1.
</event>
<event>
 5    1  0.1692171E-003  0.9118800E+02  0.7818608E-02  0.1130116E+00
         25   -1    0    0    0    0  0.00000000000E+00  0.00000000000E+00  0.99999998245E-14  0.12500000000E+03  0.12500000000E+03 0.  0.
        -11    1    3    3    0    0  0.89988973973E+01 -0.26937561698E+02  0.19944139035E+02  0.34704193792E+02  0.51100000000E-03 0.  1.
         23    2    1    0    0    0 -0.11226396372E+02  0.54842750425E+01 -0.27008387769E+02  0.95241601889E+02  0.90473203062E+02 0.  0.
         11    1    3    3    0    0 -0.20225293770E+02  0.32421836741E+02 -0.46952526804E+02  0.60537408098E+02  0.51100000000E-03 0. -1.
         22    1    1    0    0    0  0.11226396372E+02 -0.54842750425E+01  0.27008387769E+02  0.29758398111E+02  0.00000000000E+00 0. -1.
</event>
<event>
 5    1  0.1692171E-003  0.9118800E+02  0.7818608E-02  0.1130116E+00
         25   -1    0    0    0    0  0.00000000000E+00  0.00000000000E+00  0.99999998245E-14  0.12500000000E+03  0.12500000000E+03 0.  0.
        -11    1    3    3    0    0 -0.18869644850E+02 -0.30354578094E+02  0.50575334962E+02  0.61930028377E+02  0.51100000000E-03 0. -1.
         23    2    1    0    0    0 -0.30660894982E+01 -0.14232387470E+02  0.25218576647E+02  0.95880618722E+02  0.91351818157E+02 0.  0.
         11    1    3    3    0    0  0.15803555352E+02  0.16122190625E+02 -0.25356758315E+02  0.33950590345E+02  0.51100000000E-03 0.  1.
         22    1    1    0    0    0  0.30660894982E+01  0.14232387470E+02 -0.25218576647E+02  0.29119381278E+02  0.00000000000E+00 0. -1.
</event>
<event>
 5    1  0.1692171E-003  0.9118800E+02  0.7818608E-02  0.1130116E+00
         25   -1    0    0    0    0  0.00000000000E+00  0.00000000000E+00  0.99999998245E-14  0.12500000000E+03  0.12500000000E+03 0.  0.
        -11    1    3    3    0    0  0.50614341804E+02  0.12401461661E+01 -0.25737397363E+02  0.56795802503E+02  0.51100000000E-03 0. -1.
         23    2    1    0    0    0  0.15286259212E+02 -0.10508498215E+02 -0.24789711873E+02  0.94038280568E+02  0.88795102016E+02 0.  0.
         11    1    3    3    0    0 -0.35328082591E+02 -0.11748644381E+02  0.94768549005E+00  0.37242478065E+02  0.51100000000E-03 0.  1.
         22    1    1    0    0    0 -0.15286259212E+02  0.10508498215E+02  0.24789711873E+02  0.30961719432E+02  0.00000000000E+00 0. -1.
</event>
<event>
 5    1  0.1692171E-003  0.9118800E+02  0.7818608E-02  0.1130116E+00
         25   -1    0    0    0    0  0.00000000000E+00  0.00000000000E+00  0.99999998245E-14  0.12500000000E+03  0.12500000000E+03 0.  0.
        -11    1    3    3    0    0 -0.15798642174E+01  0.44498343546E+02 -0.17523951883E+02  0.47850678565E+02  0.51100000000E-03 0. -1.
         23    2    1    0    0    0  0.22714267386E+02  0.53576086184E+01 -0.20393701058E+02  0.94007340291E+02  0.88751535608E+02 0.  0.
         11    1    3    3    0    0  0.24294131604E+02 -0.39140734928E+02 -0.28697491748E+01  0.46156661725E+02  0.51100000000E-03 0.  1.
         22    1    1    0    0    0 -0.22714267386E+02 -0.53576086184E+01  0.20393701058E+02  0.30992659709E+02  0.00000000000E+00 0. -1.
</event>
<event>
 5    1  0.1692171E-003  0.9118800E+02  0.7818608E-02  0.1130116E+00
         25   -1    0    0    0    0  0.00000000000E+00  0.00000000000E+00  0.99999998245E-14  0.12500000000E+03  0.12500000000E+03 0.  0.
        -11    1    3    3    0    0  0.54395035218E+01 -0.36523781061E+02  0.18392687110E+02  0.41253675242E+02  0.51100000000E-03 0. -1.
         23    2    1    0    0    0  0.22755418326E+02  0.15019721517E+02  0.46103971162E+01  0.97347570465E+02  0.93337519874E+02 0.  0.
         11    1    3    3    0    0  0.17315914804E+02  0.51543502578E+02 -0.13782289994E+02  0.56093895223E+02  0.51100000000E-03 0.  1.
         22    1    1    0    0    0 -0.22755418326E+02 -0.15019721517E+02 -0.46103971162E+01  0.27652429535E+02  0.00000000000E+00 0.  1.
</event>
<event>
 5    1  0.1692171E-003  0.9118800E+02  0.7818608E-02  0.1130116E+00
         25   -1    0    0    0    0  0.00000000000E+00  0.00000000000E+00  0.99999998245E-14  0.12500000000E+03  0.12500000000E+03 0.  0.
        -11    1    3    3    0    0 -0.15707306169E+02  0.14421096496E+02  0.55824053544E+02  0.59757948807E+02  0.51100000000E-03 0. -1.
         23    2    1    0    0    0 -0.14483787534E+02 -0.42191773134E+01  0.24737998824E+02  0.96025008294E+02  0.91549178443E+02 0.  0.
         11    1    3    3    0    0  0.12235186347E+01 -0.18640273809E+02 -0.31086054720E+02  0.36267059487E+02  0.51100000000E-03 0.  1.
         22    1    1    0    0    0  0.14483787534E+02  0.42191773134E+01 -0.24737998824E+02  0.28974991706E+02  0.00000000000E+00 0. -1.
</event>
<event>
 5    1  0.1692171E-003  0.9118800E+02  0.7818608E-02  0.1130116E+00
         25   -1    0    0    0    0  0.00000000000E+00  0.00000000000E+00  0.99999998245E-14  0.12500000000E+03  0.12500000000E+03 0.  0.
        -11    1    3    3    0    0  0.10005835949E+02  0.27950696327E+02  0.40917934785E+02  0.50553294310E+02  0.51100000000E-03 0.  1.
         23    2    1    0    0    0 -0.75263988568E+01 -0.10282739726E+02  0.27479851945E+02  0.94709346674E+02  0.89734813024E+02 0.  0.
         11    1    3    3    0    0 -0.17532234806E+02 -0.38233436053E+02 -0.13438082841E+02  0.44156052364E+02  0.51100000000E-03 0. -1.
         22    1    1    0    0    0  0.75263988568E+01  0.10282739726E+02 -0.27479851945E+02  0.30290653326E+02  0.00000000000E+00 0.  1.
</event>
<event>
 5    1  0.1692171E-003  0.9118800E+02  0.7818608E-02  0.1130116E+00
         25   -1    0    0    0    0  0.00000000000E+00  0.00000000000E+00  0.99999998245E-14  0.12500000000E+03  0.12500000000E+03 0.  0.
        -11    1    3    3    0    0 -0.82356058641E+01  0.28247782680E+02  0.11199157216E+01  0.29445146319E+02  0.51100000000E-03 0. -1.
         23    2    1    0    0    0 -0.21573616055E+02 -0.28378830275E+02  0.92107078337E+01  0.88181308331E+02  0.80126943550E+02 0.  0.
         11    1    3    3    0    0 -0.13338010191E+02 -0.56626612955E+02  0.80907921121E+01  0.58736162011E+02  0.51100000000E-03 0.  1.
         22    1    1    0    0    0  0.21573616055E+02  0.28378830275E+02 -0.92107078337E+01  0.36818691669E+02  0.00000000000E+00 0.  1.
</event>
<event>
 5    1  0.1692171E-003  0.9118800E+02  0.7818608E-02  0.1130116E+00
         25   -1    0    0    0    0  0.00000000000E+00  0.00000000000E+00  0.99999998245E-14  0.12500000000E+03  0.12500000000E+03 0.  0.
        -11    1    3    3    0    0 -0.42881279262E+02 -0.22034022855E+02  0.60567996463E+01  0.48589989674E+02  0.51100000000E-03 0.  1.
         23    2    1    0    0    0 -0.13192200312E+02 -0.25054154383E+01 -0.25542217457E+02  0.96143178827E+02  0.91710384945E+02 0.  0.
         11    1    3    3    0    0  0.29689078950E+02  0.19528607416E+02 -0.31599017103E+02  0.47553189153E+02  0.51100000000E-03 0. -1.
         22    1    1    0    0    0  0.13192200312E+02  0.25054154383E+01  0.25542217457E+02  0.28856821173E+02  0.00000000000E+00 0.  1.
</event>
<event>
 5    1  0.1692171E-003  0.9118800E+02  0.7818608E-02  0.1130116E+00
         25   -1    0    0    0    0  0.00000000000E+00  0.00000000000E+00  0.99999998245E-14  0.12500000000E+03  0.12500000000E+03 0.  0.
        -11    1    3    3    0    0  0.26729313734E+02 -0.43591922470E+02  0.34486806758E+02  0.61676995370E+02  0.51100000000E-03 0.  1.
         23    2    1    0    0    0  0.10312373081E+02 -0.19730390894E+02  0.23431290590E+02  0.92678818986E+02  0.86860259881E+02 0.  0.
         11    1    3    3    0    0 -0.16416940653E+02  0.23861531576E+02 -0.11055516168E+02  0.31001823616E+02  0.51100000000E-03 0. -1.
         22    1    1    0    0    0 -0.10312373081E+02  0.19730390894E+02 -0.23431290590E+02  0.32321181014E+02  0.00000000000E+00 0.  1.
</event>
<event>
 5    1  0.1692171E-003  0.9118800E+02  0.7818608E-02  0.1130116E+00
         25   -1    0    0    0    0  0.00000000000E+00  0.00000000000E+00  0.99999998245E-14  0.12500000000E+03  0.12500000000E+03 0.  0.
        -11    1    3    3    0    0  0.54658670021E+02  0.68304719804E+01 -0.97580978552E+01  0.55941451804E+02  0.51100000000E-03 0.  1.
         23    2    1    0    0    0  0.16834624159E+02  0.20279886838E+02  0.39233187631E+01  0.98352846102E+02  0.94674238975E+02 0.  0.
         11    1    3    3    0    0 -0.37824045862E+02  0.13449414858E+02  0.13681416618E+02  0.42411394298E+02  0.51100000000E-03 0. -1.
         22    1    1    0    0    0 -0.16834624159E+02 -0.20279886838E+02 -0.39233187631E+01  0.26647153898E+02  0.00000000000E+00 0.  1.
</event>
<event>
 5    1  0.1692171E-003  0.9118800E+02  0.7818608E-02  0.1130116E+00
         25   -1    0    0    0    0  0.00000000000E+00  0.00000000000E+00  0.99999998245E-14  0.12500000000E+03  0.12500000000E+03 0.  0.
        -11    1    3    3    0    0 -0.22768676185E+01 -0.26208632465E+02  0.32097982131E+02  0.41501289124E+02  0.51100000000E-03 0.  1.
         23    2    1    0    0    0 -0.22436847793E+02 -0.13994910891E+02 -0.15308782030E+02  0.94444665327E+02  0.89365353083E+02 0.  0.
         11    1    3    3    0    0 -0.20159980175E+02  0.12213721574E+02 -0.47406764160E+02  0.52943376203E+02  0.51100000000E-03 0. -1.
         22    1    1    0    0    0  0.22436847793E+02  0.13994910891E+02  0.15308782030E+02  0.30555334673E+02  0.00000000000E+00 0. -1.
</event>
<event>
 5    1  0.1692171E-003  0.9118800E+02  0.7818608E-02  0.1130116E+00
         25   -1    0    0    0    0  0.00000000000E+00  0.00000000000E+00  0.99999998245E-14  0.12500000000E+03  0.12500000000E+03 0.  0.
        -11    1    3    3    0    0 -0.23809882908E+02 -0.54266119152E+01  0.37426526816E+02  0.44688964530E+02  0.51100000000E-03 0. -1.
         23    2    1    0    0    0 -0.10900591867E+02  0.26907966764E+02 -0.22013399302E+00  0.95967086998E+02  0.91470059306E+02 0.  0.
         11    1    3    3    0    0  0.12909291041E+02  0.32334578679E+02 -0.37646660809E+02  0.51278122468E+02  0.51100000000E-03 0.  1.
         22    1    1    0    0    0  0.10900591867E+02 -0.26907966764E+02  0.22013399302E+00  0.29032913002E+02  0.00000000000E+00 0.  1.
</event>
<event>
 5    1  0.1692171E-003  0.9118800E+02  0.7818608E-02  0.1130116E+00
         25   -1    0    0    0    0  0.00000000000E+00  0.00000000000E+00  0.99999998245E-14  0.12500000000E+03  0.12500000000E+03 0.  0.
        -11    1    3    3    0    0  0.40066916325E+01  0.25269236973E+02  0.54410787136E+02  0.60125881882E+02  0.51100000000E-03 0. -1.
         23    2    1    0    0    0  0.23700362055E+01  0.23101106810E+02  0.20866483783E+02  0.93780000753E+02  0.88430764943E+02 0.  0.
         11    1    3    3    0    0 -0.16366554270E+01 -0.21681301631E+01 -0.33544303352E+02  0.33654118872E+02  0.51100000000E-03 0.  1.
         22    1    1    0    0    0 -0.23700362055E+01 -0.23101106810E+02 -0.20866483783E+02  0.31219999247E+02  0.00000000000E+00 0. -1.
</event>
<event>
 5    1  0.1692171E-003  0.9118800E+02  0.7818608E-02  0.1130116E+00
         25   -1    0    0    0    0  0.00000000000E+00  0.00000000000E+00  0.99999998245E-14  0.12500000000E+03  0.12500000000E+03 0.  0.
        -11    1    3    3    0    0  0.29644216078E+01  0.93539148683E+01  0.54763013787E+02  0.55635161526E+02  0.51100000000E-03 0.  1.
         23    2    1    0    0    0 -0.10428979377E+02 -0.12746159491E+02  0.25142487007E+02  0.94943838477E+02  0.90060866192E+02 0.  0.
         11    1    3    3    0    0 -0.13393400985E+02 -0.22100074359E+02 -0.29620526779E+02  0.39308676950E+02  0.51100000000E-03 0. -1.
         22    1    1    0    0    0  0.10428979377E+02  0.12746159491E+02 -0.25142487007E+02  0.30056161523E+02  0.00000000000E+00 0.  1.
</event>
<event>
 5    1  0.1692171E-003  0.9118800E+02  0.7818608E-02  0.1130116E+00
         25   -1    0    0    0    0  0.00000000000E+00  0.00000000000E+00  0.99999998245E-14  0.12500000000E+03  0.12500000000E+03 0.  0.
        -11    1    3    3    0    0 -0.19987614276E+02 -0.13572422742E+02 -0.35106623281E+02  0.42616785214E+02  0.51100000000E-03 0. -1.
         23    2    1    0    0    0 -0.66029220221E+01 -0.25771498388E+02  0.13986410816E+02  0.94943579789E+02  0.90060507145E+02 0.  0.
         11    1    3    3    0    0  0.13384692254E+02 -0.12199075646E+02  0.49093034097E+02  0.52326794575E+02  0.51100000000E-03 0.  1.
         22    1    1    0    0    0  0.66029220221E+01  0.25771498388E+02 -0.13986410816E+02  0.30056420211E+02  0.00000000000E+00 0. -1.
</event>
<event>
 5    1  0.1692171E-003  0.9118800E+02  0.7818608E-02  0.1130116E+00
         25   -1    0    0    0    0  0.00000000000E+00  0.00000000000E+00  0.99999998245E-14  0.12500000000E+03  0.12500000000E+03 0.  0.
        -11    1    3    3    0    0 -0.43653564680E+02  0.29135784626E+02 -0.16553473961E+02  0.55032219249E+02  0.51100000000E-03 0. -1.
         23    2    1    0    0    0 -0.17317440282E+02  0.14904014945E+02  0.14319754142E+02  0.98035602027E+02  0.94254445554E+02 0.  0.
         11    1    3    3    0    0  0.26336124398E+02 -0.14231769681E+02  0.30873228103E+02  0.43003382778E+02  0.51100000000E-03 0.  1.
         22    1    1    0    0    0  0.17317440282E+02 -0.14904014945E+02 -0.14319754142E+02  0.26964397973E+02  0.00000000000E+00 0. -1.
</event>
