<event>
 5    1  0.1044283E-009  0.9118800E+02  0.7815553E-02  0.1125453E+00
         25   -1    0    0    0    0  0.00000000000E+00  0.00000000000E+00  0.99999998245E-14  0.12509000000E+03  0.12509000000E+03 0.  0.
        -11    1    3    3    0    0 -0.19844705160E+02 -0.27409660985E+02 -0.54478005651E+01  0.34275069212E+02  0.51100000000E-03 0.  1.
         23    2    1    0    0    0  0.18671135908E+02  0.21322143221E+02  0.10505941828E+01  0.96728955312E+02  0.92477791604E+02 0.  0.
         11    1    3    3    0    0  0.38515841069E+02  0.48731804206E+02  0.64983947478E+01  0.62453886100E+02  0.51100000000E-03 0. -1.
         22    1    1    0    0    0 -0.18671135908E+02 -0.21322143221E+02 -0.10505941828E+01  0.28361044688E+02  0.00000000000E+00 0. -1.
</event>
<event>
 5    1  0.1044283E-009  0.9118800E+02  0.7815553E-02  0.1125453E+00
         25   -1    0    0    0    0  0.00000000000E+00  0.00000000000E+00  0.99999998245E-14  0.12509000000E+03  0.12509000000E+03 0.  0.
        -11    1    3    3    0    0 -0.63698325974E+01  0.42237574166E+02  0.32432691481E+01  0.42838139943E+02  0.51100000000E-03 0.  1.
         23    2    1    0    0    0 -0.25749329176E+02 -0.45570283368E+01 -0.12811779990E+02  0.95970656485E+02  0.91446327096E+02 0.  0.
         11    1    3    3    0    0 -0.19379496578E+02 -0.46794602503E+02 -0.16055049138E+02  0.53132516542E+02  0.51100000000E-03 0. -1.
         22    1    1    0    0    0  0.25749329176E+02  0.45570283368E+01  0.12811779990E+02  0.29119343515E+02  0.00000000000E+00 0. -1.
</event>
<event>
 5    1  0.1044283E-009  0.9118800E+02  0.7815553E-02  0.1125453E+00
         25   -1    0    0    0    0  0.00000000000E+00  0.00000000000E+00  0.99999998245E-14  0.12509000000E+03  0.12509000000E+03 0.  0.
        -11    1    3    3    0    0 -0.26879014931E+02  0.25930511987E+02  0.46636646943E+02  0.59748219504E+02  0.51100000000E-03 0.  1.
         23    2    1    0    0    0 -0.23122157599E+01  0.78291792046E+01  0.28933445099E+02  0.95026955675E+02  0.90146190551E+02 0.  0.
         11    1    3    3    0    0  0.24566799171E+02 -0.18101332783E+02 -0.17703201844E+02  0.35278736171E+02  0.51100000000E-03 0. -1.
         22    1    1    0    0    0  0.23122157599E+01 -0.78291792046E+01 -0.28933445099E+02  0.30063044325E+02  0.00000000000E+00 0.  1.
</event>
<event>
 5    1  0.1044283E-009  0.9118800E+02  0.7815553E-02  0.1125453E+00
         25   -1    0    0    0    0  0.00000000000E+00  0.00000000000E+00  0.99999998245E-14  0.12509000000E+03  0.12509000000E+03 0.  0.
        -11    1    3    3    0    0  0.33877203839E+02 -0.40261987607E+02  0.31184663461E+02  0.61165152019E+02  0.51100000000E-03 0. -1.
         23    2    1    0    0    0  0.69430400137E+01 -0.21922319127E+02  0.15727241613E+02  0.97230710539E+02  0.93154017962E+02 0.  0.
         11    1    3    3    0    0 -0.26934163825E+02  0.18339668480E+02 -0.15457421847E+02  0.36065558520E+02  0.51100000000E-03 0.  1.
         22    1    1    0    0    0 -0.69430400137E+01  0.21922319127E+02 -0.15727241613E+02  0.27859289461E+02  0.00000000000E+00 0. -1.
</event>
<event>
 5    1  0.1044283E-009  0.9118800E+02  0.7815553E-02  0.1125453E+00
         25   -1    0    0    0    0  0.00000000000E+00  0.00000000000E+00  0.99999998245E-14  0.12509000000E+03  0.12509000000E+03 0.  0.
        -11    1    3    3    0    0 -0.37732935546E+01 -0.90860803117E+01  0.49852888581E+02  0.50814418228E+02  0.51100000000E-03 0. -1.
         23    2    1    0    0    0 -0.39508961061E+01 -0.26787363001E+02  0.70848005699E+01  0.97101309503E+02  0.92980092017E+02 0.  0.
         11    1    3    3    0    0 -0.17760255144E+00 -0.17701282690E+02 -0.42768088011E+02  0.46286891275E+02  0.51100000000E-03 0.  1.
         22    1    1    0    0    0  0.39508961061E+01  0.26787363001E+02 -0.70848005699E+01  0.27988690497E+02  0.00000000000E+00 0. -1.
</event>
<event>
 5    1  0.1044283E-009  0.9118800E+02  0.7815553E-02  0.1125453E+00
         25   -1    0    0    0    0  0.00000000000E+00  0.00000000000E+00  0.99999998245E-14  0.12509000000E+03  0.12509000000E+03 0.  0.
        -11    1    3    3    0    0 -0.68937688305E+01  0.14931619975E+02  0.55556439509E+02  0.57939583144E+02  0.51100000000E-03 0.  1.
         23    2    1    0    0    0 -0.18813344027E+02  0.40810024079E+00  0.25215671594E+02  0.93626711023E+02  0.88181758112E+02 0.  0.
         11    1    3    3    0    0 -0.11919575197E+02 -0.14523519734E+02 -0.30340767915E+02  0.35687127879E+02  0.51100000000E-03 0. -1.
         22    1    1    0    0    0  0.18813344027E+02 -0.40810024079E+00 -0.25215671594E+02  0.31463288977E+02  0.00000000000E+00 0.  1.
</event>
<event>
 5    1  0.1044283E-009  0.9118800E+02  0.7815553E-02  0.1125453E+00
         25   -1    0    0    0    0  0.00000000000E+00  0.00000000000E+00  0.99999998245E-14  0.12509000000E+03  0.12509000000E+03 0.  0.
        -11    1    3    3    0    0 -0.40598619078E+02  0.42761115878E+02  0.20567086700E+02  0.62448106119E+02  0.51100000000E-03 0.  1.
         23    2    1    0    0    0 -0.21092612756E+02  0.19011138894E+02  0.11028086580E+02  0.94627885685E+02  0.89590715706E+02 0.  0.
         11    1    3    3    0    0  0.19506006323E+02 -0.23749976984E+02 -0.95390001199E+01  0.32179779567E+02  0.51100000000E-03 0. -1.
         22    1    1    0    0    0  0.21092612756E+02 -0.19011138894E+02 -0.11028086580E+02  0.30462114315E+02  0.00000000000E+00 0.  1.
</event>
<event>
 5    1  0.1044283E-009  0.9118800E+02  0.7815553E-02  0.1125453E+00
         25   -1    0    0    0    0  0.00000000000E+00  0.00000000000E+00  0.99999998245E-14  0.12509000000E+03  0.12509000000E+03 0.  0.
        -11    1    3    3    0    0 -0.43268834399E+02  0.65404798598E+01  0.34202813260E+02  0.55540996950E+02  0.51100000000E-03 0. -1.
         23    2    1    0    0    0 -0.30620395118E+02 -0.51716311897E+01 -0.21588296215E+00  0.94035194063E+02  0.88759319233E+02 0.  0.
         11    1    3    3    0    0  0.12648439281E+02 -0.11712111050E+02 -0.34418696222E+02  0.38494197113E+02  0.51100000000E-03 0.  1.
         22    1    1    0    0    0  0.30620395118E+02  0.51716311897E+01  0.21588296215E+00  0.31054805937E+02  0.00000000000E+00 0. -1.
</event>
<event>
 5    1  0.1044283E-009  0.9118800E+02  0.7815553E-02  0.1125453E+00
         25   -1    0    0    0    0  0.00000000000E+00  0.00000000000E+00  0.99999998245E-14  0.12509000000E+03  0.12509000000E+03 0.  0.
        -11    1    3    3    0    0  0.92181317397E+01 -0.52522623656E+02 -0.22006470641E+02  0.57687821061E+02  0.51100000000E-03 0.  1.
         23    2    1    0    0    0  0.19875903444E+02 -0.17761269062E+02 -0.14250400851E+02  0.94864379397E+02  0.89920311040E+02 0.  0.
         11    1    3    3    0    0  0.10657771704E+02  0.34761354593E+02  0.77560697900E+01  0.37176558336E+02  0.51100000000E-03 0. -1.
         22    1    1    0    0    0 -0.19875903444E+02  0.17761269062E+02  0.14250400851E+02  0.30225620603E+02  0.00000000000E+00 0.  1.
</event>
<event>
 5    1  0.1044283E-009  0.9118800E+02  0.7815553E-02  0.1125453E+00
         25   -1    0    0    0    0  0.00000000000E+00  0.00000000000E+00  0.99999998245E-14  0.12509000000E+03  0.12509000000E+03 0.  0.
        -11    1    3    3    0    0 -0.39232128967E+01 -0.11461672358E+02 -0.40443496231E+02  0.42218928460E+02  0.51100000000E-03 0. -1.
         23    2    1    0    0    0 -0.16290986309E+02  0.24564669731E+02 -0.32850994086E+01  0.95431761481E+02  0.90706173921E+02 0.  0.
         11    1    3    3    0    0 -0.12367773412E+02  0.36026342090E+02  0.37158396822E+02  0.53212833021E+02  0.51100000000E-03 0.  1.
         22    1    1    0    0    0  0.16290986309E+02 -0.24564669731E+02  0.32850994086E+01  0.29658238519E+02  0.00000000000E+00 0.  1.
</event>
<event>
 5    1  0.1044283E-009  0.9118800E+02  0.7815553E-02  0.1125453E+00
         25   -1    0    0    0    0  0.00000000000E+00  0.00000000000E+00  0.99999998245E-14  0.12509000000E+03  0.12509000000E+03 0.  0.
        -11    1    3    3    0    0  0.43677616156E+02 -0.26274286264E+02 -0.23648610059E+02  0.56190115054E+02  0.51100000000E-03 0. -1.
         23    2    1    0    0    0  0.69833697038E+01 -0.82752124713E+01 -0.25792039726E+02  0.97117229185E+02  0.93001506963E+02 0.  0.
         11    1    3    3    0    0 -0.36694246452E+02  0.17999073793E+02 -0.21434296663E+01  0.40927114131E+02  0.51100000000E-03 0.  1.
         22    1    1    0    0    0 -0.69833697038E+01  0.82752124713E+01  0.25792039726E+02  0.27972770815E+02  0.00000000000E+00 0. -1.
</event>
<event>
 5    1  0.1044283E-009  0.9118800E+02  0.7815553E-02  0.1125453E+00
         25   -1    0    0    0    0  0.00000000000E+00  0.00000000000E+00  0.99999998245E-14  0.12509000000E+03  0.12509000000E+03 0.  0.
        -11    1    3    3    0    0 -0.46143324566E+02  0.76612599722E+01 -0.13620607331E+02  0.48717781668E+02  0.51100000000E-03 0. -1.
         23    2    1    0    0    0 -0.10745767612E+02 -0.19855246642E+02 -0.21119272920E+02  0.94175181071E+02  0.88956386506E+02 0.  0.
         11    1    3    3    0    0  0.35397556954E+02 -0.27516506614E+02 -0.74986655886E+01  0.45457399402E+02  0.51100000000E-03 0.  1.
         22    1    1    0    0    0  0.10745767612E+02  0.19855246642E+02  0.21119272920E+02  0.30914818929E+02  0.00000000000E+00 0. -1.
</event>
<event>
 5    1  0.1044283E-009  0.9118800E+02  0.7815553E-02  0.1125453E+00
         25   -1    0    0    0    0  0.00000000000E+00  0.00000000000E+00  0.99999998245E-14  0.12509000000E+03  0.12509000000E+03 0.  0.
        -11    1    3    3    0    0  0.52657189851E+02  0.18780176456E+02  0.20901043746E+02  0.59685243575E+02  0.51100000000E-03 0. -1.
         23    2    1    0    0    0  0.26196831584E+02 -0.40557960617E+01  0.13204289075E+02  0.95474518969E+02  0.90765120259E+02 0.  0.
         11    1    3    3    0    0 -0.26460358267E+02 -0.22835972518E+02 -0.76967546715E+01  0.35789275393E+02  0.51100000000E-03 0.  1.
         22    1    1    0    0    0 -0.26196831584E+02  0.40557960617E+01 -0.13204289075E+02  0.29615481031E+02  0.00000000000E+00 0. -1.
</event>
<event>
 5    1  0.1044283E-009  0.9118800E+02  0.7815553E-02  0.1125453E+00
         25   -1    0    0    0    0  0.00000000000E+00  0.00000000000E+00  0.99999998245E-14  0.12509000000E+03  0.12509000000E+03 0.  0.
        -11    1    3    3    0    0 -0.19935990775E+02  0.14938439299E+02  0.23593790213E+02  0.34311333896E+02  0.51100000000E-03 0. -1.
         23    2    1    0    0    0  0.88978396483E+01  0.49999370949E+00 -0.28306533200E+02  0.95413723854E+02  0.90681295391E+02 0.  0.
         11    1    3    3    0    0  0.28833830423E+02 -0.14438445590E+02 -0.51900323413E+02  0.61102389958E+02  0.51100000000E-03 0.  1.
         22    1    1    0    0    0 -0.88978396483E+01 -0.49999370949E+00  0.28306533200E+02  0.29676276146E+02  0.00000000000E+00 0.  1.
</event>
<event>
 5    1  0.1044283E-009  0.9118800E+02  0.7815553E-02  0.1125453E+00
         25   -1    0    0    0    0  0.00000000000E+00  0.00000000000E+00  0.99999998245E-14  0.12509000000E+03  0.12509000000E+03 0.  0.
        -11    1    3    3    0    0  0.28219166962E+02  0.11099960075E+02  0.20592666193E+02  0.36654991459E+02  0.51100000000E-03 0.  1.
         23    2    1    0    0    0 -0.28465751806E+02  0.21213820037E+01  0.51924574628E+01  0.96076883966E+02  0.91591521063E+02 0.  0.
         11    1    3    3    0    0 -0.56684918768E+02 -0.89785780708E+01 -0.15400208730E+02  0.59421892507E+02  0.51100000000E-03 0. -1.
         22    1    1    0    0    0  0.28465751806E+02 -0.21213820037E+01 -0.51924574628E+01  0.29013116034E+02  0.00000000000E+00 0. -1.
</event>
<event>
 5    1  0.1044283E-009  0.9118800E+02  0.7815553E-02  0.1125453E+00
         25   -1    0    0    0    0  0.00000000000E+00  0.00000000000E+00  0.99999998245E-14  0.12509000000E+03  0.12509000000E+03 0.  0.
        -11    1    3    3    0    0  0.94715062327E+00  0.60655369598E+02 -0.25083165644E+01  0.60714599625E+02  0.51100000000E-03 0. -1.
         23    2    1    0    0    0  0.25221179243E+01  0.29189065118E+02  0.92863220657E+01  0.94355680765E+02  0.89209843144E+02 0.  0.
         11    1    3    3    0    0  0.15749673010E+01 -0.31466304480E+02  0.11794638630E+02  0.33641081140E+02  0.51100000000E-03 0.  1.
         22    1    1    0    0    0 -0.25221179243E+01 -0.29189065118E+02 -0.92863220657E+01  0.30734319235E+02  0.00000000000E+00 0. -1.
</event>
<event>
 5    1  0.1044283E-009  0.9118800E+02  0.7815553E-02  0.1125453E+00
         25   -1    0    0    0    0  0.00000000000E+00  0.00000000000E+00  0.99999998245E-14  0.12509000000E+03  0.12509000000E+03 0.  0.
        -11    1    3    3    0    0 -0.33411720717E+02 -0.27191890246E+02  0.24614187112E+02  0.49614515859E+02  0.51100000000E-03 0.  1.
         23    2    1    0    0    0 -0.25109338584E+02  0.14193320913E+02  0.66372559053E+01  0.95493000006E+02  0.90790586745E+02 0.  0.
         11    1    3    3    0    0  0.83023821329E+01  0.41385211159E+02 -0.17976931207E+02  0.45878484147E+02  0.51100000000E-03 0. -1.
         22    1    1    0    0    0  0.25109338584E+02 -0.14193320913E+02 -0.66372559053E+01  0.29596999994E+02  0.00000000000E+00 0.  1.
</event>
<event>
 5    1  0.1044283E-009  0.9118800E+02  0.7815553E-02  0.1125453E+00
         25   -1    0    0    0    0  0.00000000000E+00  0.00000000000E+00  0.99999998245E-14  0.12509000000E+03  0.12509000000E+03 0.  0.
        -11    1    3    3    0    0  0.19400827017E+02 -0.67755823922E+01 -0.28022632030E+02  0.34750086501E+02  0.51100000000E-03 0.  1.
         23    2    1    0    0    0 -0.19089920304E+02 -0.10304424732E+02  0.19440224297E+02  0.95960486668E+02  0.91432414682E+02 0.  0.
         11    1    3    3    0    0 -0.38490747321E+02 -0.35288423397E+01  0.47462856326E+02  0.61210400166E+02  0.51100000000E-03 0. -1.
         22    1    1    0    0    0  0.19089920304E+02  0.10304424732E+02 -0.19440224297E+02  0.29129513332E+02  0.00000000000E+00 0. -1.
</event>
<event>
 5    1  0.1044283E-009  0.9118800E+02  0.7815553E-02  0.1125453E+00
         25   -1    0    0    0    0  0.00000000000E+00  0.00000000000E+00  0.99999998245E-14  0.12509000000E+03  0.12509000000E+03 0.  0.
        -11    1    3    3    0    0 -0.27082748814E+02  0.18985377372E+02  0.13783998390E+02  0.35831807785E+02  0.51100000000E-03 0. -1.
         23    2    1    0    0    0  0.29396485270E+02  0.75425632846E+01  0.77063401183E+01  0.93778160623E+02  0.88396335471E+02 0.  0.
         11    1    3    3    0    0  0.56479234084E+02 -0.11442814088E+02 -0.60776582720E+01  0.57946352838E+02  0.51100000000E-03 0.  1.
         22    1    1    0    0    0 -0.29396485270E+02 -0.75425632846E+01 -0.77063401183E+01  0.31311839377E+02  0.00000000000E+00 0.  1.
</event>
<event>
 5    1  0.1044283E-009  0.9118800E+02  0.7815553E-02  0.1125453E+00
         25   -1    0    0    0    0  0.00000000000E+00  0.00000000000E+00  0.99999998245E-14  0.12509000000E+03  0.12509000000E+03 0.  0.
        -11    1    3    3    0    0 -0.25894957667E+02 -0.21158639534E+02 -0.50803239921E+01  0.33823757207E+02  0.51100000000E-03 0. -1.
         23    2    1    0    0    0  0.25562731023E+02  0.10991781217E+02  0.84887728392E+01  0.95998218756E+02  0.91484021929E+02 0.  0.
         11    1    3    3    0    0  0.51457688690E+02  0.32150420750E+02  0.13569096831E+02  0.62174461548E+02  0.51100000000E-03 0.  1.
         22    1    1    0    0    0 -0.25562731023E+02 -0.10991781217E+02 -0.84887728392E+01  0.29091781244E+02  0.00000000000E+00 0.  1.
</event>
<event>
 5    1  0.1044283E-009  0.9118800E+02  0.7815553E-02  0.1125453E+00
         25   -1    0    0    0    0  0.00000000000E+00  0.00000000000E+00  0.99999998245E-14  0.12509000000E+03  0.12509000000E+03 0.  0.
        -11    1    3    3    0    0 -0.64310737880E+00 -0.40969055624E+02  0.46800934206E+02  0.62202930386E+02  0.51100000000E-03 0. -1.
         23    2    1    0    0    0 -0.45617840397E+01 -0.13920451335E+02  0.15293638038E+02  0.10391255437E+03  0.10173168018E+03 0.  0.
         11    1    3    3    0    0 -0.39186766609E+01  0.27048604289E+02 -0.31507296168E+02  0.41709623983E+02  0.51100000000E-03 0.  1.
         22    1    1    0    0    0  0.45617840397E+01  0.13920451335E+02 -0.15293638038E+02  0.21177445630E+02  0.00000000000E+00 0. -1.
</event>
<event>
 5    1  0.1044283E-009  0.9118800E+02  0.7815553E-02  0.1125453E+00
         25   -1    0    0    0    0  0.00000000000E+00  0.00000000000E+00  0.99999998245E-14  0.12509000000E+03  0.12509000000E+03 0.  0.
        -11    1    3    3    0    0  0.65963603676E+01 -0.17459953018E+02  0.29885937036E+02  0.35235368059E+02  0.51100000000E-03 0. -1.
         23    2    1    0    0    0  0.45931873735E+01  0.94016116396E+01 -0.25884810346E+02  0.97170274386E+02  0.93072827109E+02 0.  0.
         11    1    3    3    0    0 -0.20031729941E+01  0.26861564658E+02 -0.55770747382E+02  0.61934906327E+02  0.51100000000E-03 0.  1.
         22    1    1    0    0    0 -0.45931873735E+01 -0.94016116396E+01  0.25884810346E+02  0.27919725614E+02  0.00000000000E+00 0.  1.
</event>
<event>
 5    1  0.1044283E-009  0.9118800E+02  0.7815553E-02  0.1125453E+00
         25   -1    0    0    0    0  0.00000000000E+00  0.00000000000E+00  0.99999998245E-14  0.12509000000E+03  0.12509000000E+03 0.  0.
        -11    1    3    3    0    0 -0.20690727394E+02 -0.14515963553E+02 -0.32497964225E+02  0.41169613515E+02  0.51100000000E-03 0.  1.
         23    2    1    0    0    0  0.11152101180E+02  0.24536836985E+02 -0.12459419553E+02  0.95397191686E+02  0.90658487281E+02 0.  0.
         11    1    3    3    0    0  0.31842828574E+02  0.39052800538E+02  0.20038544671E+02  0.54227578171E+02  0.51100000000E-03 0. -1.
         22    1    1    0    0    0 -0.11152101180E+02 -0.24536836985E+02  0.12459419553E+02  0.29692808314E+02  0.00000000000E+00 0. -1.
</event>
<event>
 5    1  0.1044283E-009  0.9118800E+02  0.7815553E-02  0.1125453E+00
         25   -1    0    0    0    0  0.00000000000E+00  0.00000000000E+00  0.99999998245E-14  0.12509000000E+03  0.12509000000E+03 0.  0.
        -11    1    3    3    0    0 -0.52825640637E+01 -0.58759560664E+02  0.18052736030E+02  0.61696780556E+02  0.51100000000E-03 0.  1.
         23    2    1    0    0    0  0.33574136483E+01 -0.29047170469E+02  0.43910604088E+01  0.95521575115E+02  0.90829948598E+02 0.  0.
         11    1    3    3    0    0  0.86399777120E+01  0.29712390195E+02 -0.13661675621E+02  0.33824794559E+02  0.51100000000E-03 0. -1.
         22    1    1    0    0    0 -0.33574136483E+01  0.29047170469E+02 -0.43910604088E+01  0.29568424885E+02  0.00000000000E+00 0.  1.
</event>
<event>
 5    1  0.1044283E-009  0.9118800E+02  0.7815553E-02  0.1125453E+00
         25   -1    0    0    0    0  0.00000000000E+00  0.00000000000E+00  0.99999998245E-14  0.12509000000E+03  0.12509000000E+03 0.  0.
        -11    1    3    3    0    0 -0.38677172728E+02  0.63079292199E+01  0.44402309601E+02  0.59222282626E+02  0.51100000000E-03 0. -1.
         23    2    1    0    0    0 -0.55471704612E+01  0.23710469537E+01  0.28089652688E+02  0.96359849427E+02  0.91977165806E+02 0.  0.
         11    1    3    3    0    0  0.33130002266E+02 -0.39368822662E+01 -0.16312656912E+02  0.37137566802E+02  0.51100000000E-03 0.  1.
         22    1    1    0    0    0  0.55471704612E+01 -0.23710469537E+01 -0.28089652688E+02  0.28730150573E+02  0.00000000000E+00 0. -1.
</event>
<event>
 5    1  0.1044283E-009  0.9118800E+02  0.7815553E-02  0.1125453E+00
         25   -1    0    0    0    0  0.00000000000E+00  0.00000000000E+00  0.99999998245E-14  0.12509000000E+03  0.12509000000E+03 0.  0.
        -11    1    3    3    0    0  0.14164663670E+02 -0.36698869290E+02  0.46942442410E+02  0.61245714982E+02  0.51100000000E-03 0.  1.
         23    2    1    0    0    0  0.11913119389E+01 -0.22189863836E+02  0.16363366027E+02  0.97493459838E+02  0.93506179915E+02 0.  0.
         11    1    3    3    0    0 -0.12973351731E+02  0.14509005454E+02 -0.30579076383E+02  0.36247744856E+02  0.51100000000E-03 0. -1.
         22    1    1    0    0    0 -0.11913119389E+01  0.22189863836E+02 -0.16363366027E+02  0.27596540162E+02  0.00000000000E+00 0.  1.
</event>
<event>
 5    1  0.1044283E-009  0.9118800E+02  0.7815553E-02  0.1125453E+00
         25   -1    0    0    0    0  0.00000000000E+00  0.00000000000E+00  0.99999998245E-14  0.12509000000E+03  0.12509000000E+03 0.  0.
        -11    1    3    3    0    0  0.16390660162E+02 -0.52542167678E+02 -0.52380385707E+01  0.55288065377E+02  0.51100000000E-03 0.  1.
         23    2    1    0    0    0  0.87715919312E+01 -0.16771941357E+02 -0.22464749846E+02  0.95714775277E+02  0.91095633149E+02 0.  0.
         11    1    3    3    0    0 -0.76190682313E+01  0.35770226320E+02 -0.17226711275E+02  0.40426709900E+02  0.51100000000E-03 0. -1.
         22    1    1    0    0    0 -0.87715919312E+01  0.16771941357E+02  0.22464749846E+02  0.29375224723E+02  0.00000000000E+00 0. -1.
</event>
<event>
 5    1  0.1044283E-009  0.9118800E+02  0.7815553E-02  0.1125453E+00
         25   -1    0    0    0    0  0.00000000000E+00  0.00000000000E+00  0.99999998245E-14  0.12509000000E+03  0.12509000000E+03 0.  0.
        -11    1    3    3    0    0  0.11645705169E+02  0.59031591228E+02 -0.92019142734E+01  0.60868928349E+02  0.51100000000E-03 0.  1.
         23    2    1    0    0    0  0.93120816088E+01  0.24492466058E+02 -0.13258436846E+02  0.95723660339E+02  0.91107833052E+02 0.  0.
         11    1    3    3    0    0 -0.23336235603E+01 -0.34539125170E+02 -0.40565225726E+01  0.34854731989E+02  0.51100000000E-03 0. -1.
         22    1    1    0    0    0 -0.93120816088E+01 -0.24492466058E+02  0.13258436846E+02  0.29366339661E+02  0.00000000000E+00 0.  1.
</event>
<event>
 5    1  0.1044283E-009  0.9118800E+02  0.7815553E-02  0.1125453E+00
         25   -1    0    0    0    0  0.00000000000E+00  0.00000000000E+00  0.99999998245E-14  0.12509000000E+03  0.12509000000E+03 0.  0.
        -11    1    3    3    0    0 -0.21482692643E+02  0.47488895400E+01  0.32442863508E+02  0.39199456985E+02  0.51100000000E-03 0.  1.
         23    2    1    0    0    0  0.12513926049E+02  0.15073690151E+02 -0.16360304372E+02  0.99566010519E+02  0.96238850843E+02 0.  0.
         11    1    3    3    0    0  0.33996618692E+02  0.10324800610E+02 -0.48803167880E+02  0.60366553533E+02  0.51100000000E-03 0. -1.
         22    1    1    0    0    0 -0.12513926049E+02 -0.15073690151E+02  0.16360304372E+02  0.25523989481E+02  0.00000000000E+00 0. -1.
</event>
<event>
 5    1  0.1044283E-009  0.9118800E+02  0.7815553E-02  0.1125453E+00
         25   -1    0    0    0    0  0.00000000000E+00  0.00000000000E+00  0.99999998245E-14  0.12509000000E+03  0.12509000000E+03 0.  0.
        -11    1    3    3    0    0  0.37842012455E+02 -0.34986389347E+02 -0.10756505113E+02  0.52647580653E+02  0.51100000000E-03 0.  1.
         23    2    1    0    0    0  0.10154901711E+02 -0.20091178728E+02  0.18771108182E+02  0.95779046521E+02  0.91183845930E+02 0.  0.
         11    1    3    3    0    0 -0.27687110744E+02  0.14895210618E+02  0.29527613296E+02  0.43131465868E+02  0.51100000000E-03 0. -1.
         22    1    1    0    0    0 -0.10154901711E+02  0.20091178728E+02 -0.18771108182E+02  0.29310953479E+02  0.00000000000E+00 0.  1.
</event>
<event>
 5    1  0.1044283E-009  0.9118800E+02  0.7815553E-02  0.1125453E+00
         25   -1    0    0    0    0  0.00000000000E+00  0.00000000000E+00  0.99999998245E-14  0.12509000000E+03  0.12509000000E+03 0.  0.
        -11    1    3    3    0    0  0.73020860676E+00  0.24062130396E+02 -0.19551345683E+02  0.31012488486E+02  0.51100000000E-03 0. -1.
         23    2    1    0    0    0 -0.23199901217E+02 -0.12276691115E+02  0.21748361295E+02  0.91002703536E+02  0.84377415643E+02 0.  0.
         11    1    3    3    0    0 -0.23930109824E+02 -0.36338821511E+02  0.41299706978E+02  0.59990215050E+02  0.51100000000E-03 0.  1.
         22    1    1    0    0    0  0.23199901217E+02  0.12276691115E+02 -0.21748361295E+02  0.34087296464E+02  0.00000000000E+00 0.  1.
</event>
<event>
 5    1  0.1044283E-009  0.9118800E+02  0.7815553E-02  0.1125453E+00
         25   -1    0    0    0    0  0.00000000000E+00  0.00000000000E+00  0.99999998245E-14  0.12509000000E+03  0.12509000000E+03 0.  0.
        -11    1    3    3    0    0  0.28966025198E+02  0.18314521687E+02  0.11845057779E+02  0.36259587897E+02  0.51100000000E-03 0.  1.
         23    2    1    0    0    0 -0.23006331378E+02  0.89438927909E+01 -0.15714520674E+02  0.95828580661E+02  0.91251773734E+02 0.  0.
         11    1    3    3    0    0 -0.51972356576E+02 -0.93706288965E+01 -0.27559578454E+02  0.59568992763E+02  0.51100000000E-03 0. -1.
         22    1    1    0    0    0  0.23006331378E+02 -0.89438927909E+01  0.15714520674E+02  0.29261419339E+02  0.00000000000E+00 0. -1.
</event>
<event>
 5    1  0.1044283E-009  0.9118800E+02  0.7815553E-02  0.1125453E+00
         25   -1    0    0    0    0  0.00000000000E+00  0.00000000000E+00  0.99999998245E-14  0.12509000000E+03  0.12509000000E+03 0.  0.
        -11    1    3    3    0    0  0.50927892842E+02  0.12947139025E+02  0.26053842387E+02  0.58652206963E+02  0.51100000000E-03 0. -1.
         23    2    1    0    0    0  0.13843281829E+02  0.14964884325E+02  0.20454601331E+02  0.96211375894E+02  0.91775017957E+02 0.  0.
         11    1    3    3    0    0 -0.37084611013E+02  0.20177452995E+01 -0.55992410560E+01  0.37559168930E+02  0.51100000000E-03 0.  1.
         22    1    1    0    0    0 -0.13843281829E+02 -0.14964884325E+02 -0.20454601331E+02  0.28878624106E+02  0.00000000000E+00 0. -1.
</event>
<event>
 5    1  0.1044283E-009  0.9118800E+02  0.7815553E-02  0.1125453E+00
         25   -1    0    0    0    0  0.00000000000E+00  0.00000000000E+00  0.99999998245E-14  0.12509000000E+03  0.12509000000E+03 0.  0.
        -11    1    3    3    0    0 -0.19981860150E+02 -0.42139767177E+02  0.10475600206E+02  0.47799298245E+02  0.51100000000E-03 0.  1.
         23    2    1    0    0    0 -0.19757848345E+02 -0.42625570020E+01 -0.20180079262E+02  0.96528179987E+02  0.92205813099E+02 0.  0.
         11    1    3    3    0    0  0.22401180524E+00  0.37877210175E+02 -0.30655679468E+02  0.48728881742E+02  0.51100000000E-03 0. -1.
         22    1    1    0    0    0  0.19757848345E+02  0.42625570020E+01  0.20180079262E+02  0.28561820013E+02  0.00000000000E+00 0.  1.
</event>
<event>
 5    1  0.1044283E-009  0.9118800E+02  0.7815553E-02  0.1125453E+00
         25   -1    0    0    0    0  0.00000000000E+00  0.00000000000E+00  0.99999998245E-14  0.12509000000E+03  0.12509000000E+03 0.  0.
        -11    1    3    3    0    0  0.23538615363E+02  0.47568862938E+02 -0.26171723497E+02  0.59176196612E+02  0.51100000000E-03 0. -1.
         23    2    1    0    0    0 -0.16228379921E+01  0.29210977829E+02 -0.14499323925E+02  0.92438120680E+02  0.86479251452E+02 0.  0.
         11    1    3    3    0    0 -0.25161453355E+02 -0.18357885109E+02  0.11672399572E+02  0.33261924067E+02  0.51100000000E-03 0.  1.
         22    1    1    0    0    0  0.16228379921E+01 -0.29210977829E+02  0.14499323925E+02  0.32651879320E+02  0.00000000000E+00 0. -1.
</event>
<event>
 5    1  0.1044283E-009  0.9118800E+02  0.7815553E-02  0.1125453E+00
         25   -1    0    0    0    0  0.00000000000E+00  0.00000000000E+00  0.99999998245E-14  0.12509000000E+03  0.12509000000E+03 0.  0.
        -11    1    3    3    0    0  0.31528241825E+02 -0.65876987882E+01 -0.29880339440E+02  0.43934752681E+02  0.51100000000E-03 0. -1.
         23    2    1    0    0    0 -0.15076005089E+02  0.14920889154E+02 -0.19448425241E+02  0.96312228944E+02  0.91912378586E+02 0.  0.
         11    1    3    3    0    0 -0.46604246913E+02  0.21508587942E+02  0.10431914199E+02  0.52377476263E+02  0.51100000000E-03 0.  1.
         22    1    1    0    0    0  0.15076005089E+02 -0.14920889154E+02  0.19448425241E+02  0.28777771056E+02  0.00000000000E+00 0.  1.
</event>
<event>
 5    1  0.1044283E-009  0.9118800E+02  0.7815553E-02  0.1125453E+00
         25   -1    0    0    0    0  0.00000000000E+00  0.00000000000E+00  0.99999998245E-14  0.12509000000E+03  0.12509000000E+03 0.  0.
        -11    1    3    3    0    0 -0.45168905704E+02  0.54172738923E+01  0.24629879022E+02  0.51732077474E+02  0.51100000000E-03 0.  1.
         23    2    1    0    0    0  0.38181584718E+01  0.83799115190E+01  0.22413292660E+02  0.10085867855E+03  0.97904627574E+02 0.  0.
         11    1    3    3    0    0  0.48987064176E+02  0.29626376268E+01 -0.22165863617E+01  0.49126601079E+02  0.51100000000E-03 0. -1.
         22    1    1    0    0    0 -0.38181584718E+01 -0.83799115190E+01 -0.22413292660E+02  0.24231321447E+02  0.00000000000E+00 0.  1.
</event>
<event>
 5    1  0.1044283E-009  0.9118800E+02  0.7815553E-02  0.1125453E+00
         25   -1    0    0    0    0  0.00000000000E+00  0.00000000000E+00  0.99999998245E-14  0.12509000000E+03  0.12509000000E+03 0.  0.
        -11    1    3    3    0    0 -0.14806799630E+02  0.22317244098E+02  0.35724200994E+02  0.44648843617E+02  0.51100000000E-03 0. -1.
         23    2    1    0    0    0  0.21342611198E+02 -0.86165034606E+01  0.19520481371E+02  0.94910530528E+02  0.89984489927E+02 0.  0.
         11    1    3    3    0    0  0.36149410828E+02 -0.30933747558E+02 -0.16203719623E+02  0.50261686911E+02  0.51100000000E-03 0.  1.
         22    1    1    0    0    0 -0.21342611198E+02  0.86165034606E+01 -0.19520481371E+02  0.30179469472E+02  0.00000000000E+00 0.  1.
</event>
<event>
 5    1  0.1044283E-009  0.9118800E+02  0.7815553E-02  0.1125453E+00
         25   -1    0    0    0    0  0.00000000000E+00  0.00000000000E+00  0.99999998245E-14  0.12509000000E+03  0.12509000000E+03 0.  0.
        -11    1    3    3    0    0  0.41841650769E+02  0.35408276590E+02  0.16415900776E+02  0.57218454966E+02  0.51100000000E-03 0. -1.
         23    2    1    0    0    0  0.73394197596E+01  0.28848002602E+02  0.17696512548E+01  0.95270442624E+02  0.90483430724E+02 0.  0.
         11    1    3    3    0    0 -0.34502231009E+02 -0.65602739882E+01 -0.14646249521E+02  0.38051987658E+02  0.51100000000E-03 0.  1.
         22    1    1    0    0    0 -0.73394197596E+01 -0.28848002602E+02 -0.17696512548E+01  0.29819557376E+02  0.00000000000E+00 0. -1.
</event>
<event>
 5    1  0.1044283E-009  0.9118800E+02  0.7815553E-02  0.1125453E+00
         25   -1    0    0    0    0  0.00000000000E+00  0.00000000000E+00  0.99999998245E-14  0.12509000000E+03  0.12509000000E+03 0.  0.
        -11    1    3    3    0    0 -0.27505288450E+02  0.30500717680E+02 -0.53377201415E+01  0.41416493433E+02  0.51100000000E-03 0. -1.
         23    2    1    0    0    0 -0.20041766252E+02 -0.20941675863E+02  0.78793685176E+01  0.95051514175E+02  0.90180262343E+02 0.  0.
         11    1    3    3    0    0  0.74635221981E+01 -0.51442393543E+02  0.13217088659E+02  0.53635020742E+02  0.51100000000E-03 0.  1.
         22    1    1    0    0    0  0.20041766252E+02  0.20941675863E+02 -0.78793685176E+01  0.30038485825E+02  0.00000000000E+00 0.  1.
</event>
<event>
 5    1  0.1044283E-009  0.9118800E+02  0.7815553E-02  0.1125453E+00
         25   -1    0    0    0    0  0.00000000000E+00  0.00000000000E+00  0.99999998245E-14  0.12509000000E+03  0.12509000000E+03 0.  0.
        -11    1    3    3    0    0 -0.74755470164E+00  0.25225605941E+01 -0.56273106459E+02  0.56334577844E+02  0.51100000000E-03 0.  1.
         23    2    1    0    0    0 -0.28302376686E+01 -0.18327320898E+02 -0.27057595854E+02  0.92287341115E+02  0.86260876996E+02 0.  0.
         11    1    3    3    0    0 -0.20826829669E+01 -0.20849881493E+02  0.29215510606E+02  0.35952763271E+02  0.51100000000E-03 0. -1.
         22    1    1    0    0    0  0.28302376686E+01  0.18327320898E+02  0.27057595854E+02  0.32802658885E+02  0.00000000000E+00 0.  1.
</event>
<event>
 5    1  0.1044283E-009  0.9118800E+02  0.7815553E-02  0.1125453E+00
         25   -1    0    0    0    0  0.00000000000E+00  0.00000000000E+00  0.99999998245E-14  0.12509000000E+03  0.12509000000E+03 0.  0.
        -11    1    3    3    0    0 -0.50458113159E+02  0.35732098594E+02 -0.62408562154E+01  0.62142999123E+02  0.51100000000E-03 0.  1.
         23    2    1    0    0    0 -0.25178554479E+02  0.13482247038E+02 -0.64034384816E+01  0.95819970700E+02  0.91239970242E+02 0.  0.
         11    1    3    3    0    0  0.25279558680E+02 -0.22249851556E+02 -0.16258226624E+00  0.33676971576E+02  0.51100000000E-03 0. -1.
         22    1    1    0    0    0  0.25178554479E+02 -0.13482247038E+02  0.64034384816E+01  0.29270029300E+02  0.00000000000E+00 0.  1.
</event>
<event>
 5    1  0.1044283E-009  0.9118800E+02  0.7815553E-02  0.1125453E+00
         25   -1    0    0    0    0  0.00000000000E+00  0.00000000000E+00  0.99999998245E-14  0.12509000000E+03  0.12509000000E+03 0.  0.
        -11    1    3    3    0    0  0.52532890482E+02  0.25771782561E+02 -0.22346190608E+01  0.58556663851E+02  0.51100000000E-03 0.  1.
         23    2    1    0    0    0  0.11969376240E+02  0.22434457243E+02 -0.42612483204E+01  0.99307659598E+02  0.95902461794E+02 0.  0.
         11    1    3    3    0    0 -0.40563514242E+02 -0.33373253186E+01 -0.20266292596E+01  0.40750995747E+02  0.51100000000E-03 0. -1.
         22    1    1    0    0    0 -0.11969376240E+02 -0.22434457243E+02  0.42612483204E+01  0.25782340402E+02  0.00000000000E+00 0.  1.
</event>
<event>
 5    1  0.1044283E-009  0.9118800E+02  0.7815553E-02  0.1125453E+00
         25   -1    0    0    0    0  0.00000000000E+00  0.00000000000E+00  0.99999998245E-14  0.12509000000E+03  0.12509000000E+03 0.  0.
        -11    1    3    3    0    0  0.43191942609E+01 -0.58887450809E+02 -0.16593218736E+02  0.61332880334E+02  0.51100000000E-03 0.  1.
         23    2    1    0    0    0  0.10456184083E+02 -0.26333302985E+02 -0.94548407267E+01  0.95220807764E+02  0.90414786326E+02 0.  0.
         11    1    3    3    0    0  0.61369898220E+01  0.32554147824E+02  0.71383780097E+01  0.33887927430E+02  0.51100000000E-03 0. -1.
         22    1    1    0    0    0 -0.10456184083E+02  0.26333302985E+02  0.94548407267E+01  0.29869192236E+02  0.00000000000E+00 0.  1.
</event>
<event>
 5    1  0.1044283E-009  0.9118800E+02  0.7815553E-02  0.1125453E+00
         25   -1    0    0    0    0  0.00000000000E+00  0.00000000000E+00  0.99999998245E-14  0.12509000000E+03  0.12509000000E+03 0.  0.
        -11    1    3    3    0    0 -0.34485511841E+02  0.13585605949E+02  0.13058492538E+02  0.39298135370E+02  0.51100000000E-03 0.  1.
         23    2    1    0    0    0 -0.23210373827E+02 -0.30601937380E+02  0.11766209222E+02  0.84919815733E+02  0.74817988479E+02 0.  0.
         11    1    3    3    0    0  0.11275138014E+02 -0.44187543329E+02 -0.12922833159E+01  0.45621680363E+02  0.51100000000E-03 0. -1.
         22    1    1    0    0    0  0.23210373827E+02  0.30601937380E+02 -0.11766209222E+02  0.40170184267E+02  0.00000000000E+00 0. -1.
</event>
<event>
 5    1  0.1044283E-009  0.9118800E+02  0.7815553E-02  0.1125453E+00
         25   -1    0    0    0    0  0.00000000000E+00  0.00000000000E+00  0.99999998245E-14  0.12509000000E+03  0.12509000000E+03 0.  0.
        -11    1    3    3    0    0 -0.32121496415E+02 -0.14234225041E+02  0.15991898657E+01  0.35170457816E+02  0.51100000000E-03 0.  1.
         23    2    1    0    0    0  0.16041889083E+02  0.21706678108E+02  0.10899384364E+02  0.95981261460E+02  0.91460832558E+02 0.  0.
         11    1    3    3    0    0  0.48163385499E+02  0.35940903150E+02  0.93001944988E+01  0.60810803644E+02  0.51100000000E-03 0. -1.
         22    1    1    0    0    0 -0.16041889083E+02 -0.21706678108E+02 -0.10899384364E+02  0.29108738540E+02  0.00000000000E+00 0. -1.
</event>
<event>
 5    1  0.1044283E-009  0.9118800E+02  0.7815553E-02  0.1125453E+00
         25   -1    0    0    0    0  0.00000000000E+00  0.00000000000E+00  0.99999998245E-14  0.12509000000E+03  0.12509000000E+03 0.  0.
        -11    1    3    3    0    0 -0.27925299712E+01  0.25385480615E+02  0.44068765363E+02  0.50934044907E+02  0.51100000000E-03 0. -1.
         23    2    1    0    0    0  0.22296459129E+02 -0.44300095199E+00  0.24668001878E+02  0.91835847535E+02  0.85603646162E+02 0.  0.
         11    1    3    3    0    0  0.25088989100E+02 -0.25828481567E+02 -0.19400763486E+02  0.40901802628E+02  0.51100000000E-03 0.  1.
         22    1    1    0    0    0 -0.22296459129E+02  0.44300095199E+00 -0.24668001878E+02  0.33254152465E+02  0.00000000000E+00 0. -1.
</event>
<event>
 5    1  0.1044283E-009  0.9118800E+02  0.7815553E-02  0.1125453E+00
         25   -1    0    0    0    0  0.00000000000E+00  0.00000000000E+00  0.99999998245E-14  0.12509000000E+03  0.12509000000E+03 0.  0.
        -11    1    3    3    0    0  0.36647492724E+02  0.23094572066E+02  0.41201126530E+02  0.59782362026E+02  0.51100000000E-03 0. -1.
         23    2    1    0    0    0  0.22423765351E+02  0.17707712854E+02  0.94383017547E+01  0.94998973313E+02  0.90107352883E+02 0.  0.
         11    1    3    3    0    0 -0.14223727373E+02 -0.53868592115E+01 -0.31762824776E+02  0.35216611287E+02  0.51100000000E-03 0.  1.
         22    1    1    0    0    0 -0.22423765351E+02 -0.17707712854E+02 -0.94383017547E+01  0.30091026687E+02  0.00000000000E+00 0. -1.
</event>
<event>
 5    1  0.1044283E-009  0.9118800E+02  0.7815553E-02  0.1125453E+00
         25   -1    0    0    0    0  0.00000000000E+00  0.00000000000E+00  0.99999998245E-14  0.12509000000E+03  0.12509000000E+03 0.  0.
        -11    1    3    3    0    0  0.40776178011E+02 -0.36471637055E+01  0.16413564756E+02  0.44106729697E+02  0.51100000000E-03 0. -1.
         23    2    1    0    0    0  0.26880212232E+01 -0.28249000845E+02 -0.80042349361E+01  0.95606118238E+02  0.90946305922E+02 0.  0.
         11    1    3    3    0    0 -0.38088156788E+02 -0.24601837139E+02 -0.24417799692E+02  0.51499388542E+02  0.51100000000E-03 0.  1.
         22    1    1    0    0    0 -0.26880212232E+01  0.28249000845E+02  0.80042349361E+01  0.29483881762E+02  0.00000000000E+00 0.  1.
</event>
<event>
 5    1  0.1044283E-009  0.9118800E+02  0.7815553E-02  0.1125453E+00
         25   -1    0    0    0    0  0.00000000000E+00  0.00000000000E+00  0.99999998245E-14  0.12509000000E+03  0.12509000000E+03 0.  0.
        -11    1    3    3    0    0  0.11500763071E+02  0.25378936079E+02 -0.36756244769E+02  0.46123524123E+02  0.51100000000E-03 0. -1.
         23    2    1    0    0    0  0.15622170410E+02  0.14399108354E+02  0.14929519145E+02  0.99123154376E+02  0.95661500416E+02 0.  0.
         11    1    3    3    0    0  0.41214073392E+01 -0.10979827725E+02  0.51685763914E+02  0.52999630253E+02  0.51100000000E-03 0.  1.
         22    1    1    0    0    0 -0.15622170410E+02 -0.14399108354E+02 -0.14929519145E+02  0.25966845624E+02  0.00000000000E+00 0.  1.
</event>
<event>
 5    1  0.1044283E-009  0.9118800E+02  0.7815553E-02  0.1125453E+00
         25   -1    0    0    0    0  0.00000000000E+00  0.00000000000E+00  0.99999998245E-14  0.12509000000E+03  0.12509000000E+03 0.  0.
        -11    1    3    3    0    0 -0.43609310454E+01  0.48782565303E+02  0.28523068400E+02  0.56677348459E+02  0.51100000000E-03 0.  1.
         23    2    1    0    0    0 -0.94709890297E+01  0.10975018783E+02  0.26502133288E+02  0.94882157653E+02  0.89945039338E+02 0.  0.
         11    1    3    3    0    0 -0.51100579843E+01 -0.37807546521E+02 -0.20209351124E+01  0.38204809194E+02  0.51100000000E-03 0. -1.
         22    1    1    0    0    0  0.94709890297E+01 -0.10975018783E+02 -0.26502133288E+02  0.30207842347E+02  0.00000000000E+00 0.  1.
</event>
<event>
 5    1  0.1044283E-009  0.9118800E+02  0.7815553E-02  0.1125453E+00
         25   -1    0    0    0    0  0.00000000000E+00  0.00000000000E+00  0.99999998245E-14  0.12509000000E+03  0.12509000000E+03 0.  0.
        -11    1    3    3    0    0 -0.27012724181E+02  0.16675431261E+02 -0.16271409082E+02  0.35672342636E+02  0.51100000000E-03 0.  1.
         23    2    1    0    0    0  0.19690458690E+02 -0.19992365684E+02 -0.96412848754E+01  0.95419084559E+02  0.90688689895E+02 0.  0.
         11    1    3    3    0    0  0.46703182871E+02 -0.36667796945E+02  0.66301242062E+01  0.59746741922E+02  0.51100000000E-03 0. -1.
         22    1    1    0    0    0 -0.19690458690E+02  0.19992365684E+02  0.96412848754E+01  0.29670915441E+02  0.00000000000E+00 0. -1.
</event>
<event>
 5    1  0.1044283E-009  0.9118800E+02  0.7815553E-02  0.1125453E+00
         25   -1    0    0    0    0  0.00000000000E+00  0.00000000000E+00  0.99999998245E-14  0.12509000000E+03  0.12509000000E+03 0.  0.
        -11    1    3    3    0    0  0.12909989110E+02 -0.48091666222E+02 -0.36431261229E+02  0.61698565411E+02  0.51100000000E-03 0. -1.
         23    2    1    0    0    0  0.24354072081E+01 -0.18278064114E+02 -0.21845593385E+02  0.96502436508E+02  0.92170881875E+02 0.  0.
         11    1    3    3    0    0 -0.10474581901E+02  0.29813602108E+02  0.14585667843E+02  0.34803871097E+02  0.51100000000E-03 0.  1.
         22    1    1    0    0    0 -0.24354072081E+01  0.18278064114E+02  0.21845593385E+02  0.28587563492E+02  0.00000000000E+00 0. -1.
</event>
<event>
 5    1  0.1044283E-009  0.9118800E+02  0.7815553E-02  0.1125453E+00
         25   -1    0    0    0    0  0.00000000000E+00  0.00000000000E+00  0.99999998245E-14  0.12509000000E+03  0.12509000000E+03 0.  0.
        -11    1    3    3    0    0 -0.36583633902E+02  0.21194815342E+02  0.19775485411E+02  0.46676035504E+02  0.51100000000E-03 0.  1.
         23    2    1    0    0    0  0.12704108187E+02  0.13348795787E+02  0.21699629970E+02  0.96621444458E+02  0.92332252624E+02 0.  0.
         11    1    3    3    0    0  0.49287742089E+02 -0.78460195550E+01  0.19241445592E+01  0.49945408955E+02  0.51100000000E-03 0. -1.
         22    1    1    0    0    0 -0.12704108187E+02 -0.13348795787E+02 -0.21699629970E+02  0.28468555542E+02  0.00000000000E+00 0. -1.
</event>
<event>
 5    1  0.1044283E-009  0.9118800E+02  0.7815553E-02  0.1125453E+00
         25   -1    0    0    0    0  0.00000000000E+00  0.00000000000E+00  0.99999998245E-14  0.12509000000E+03  0.12509000000E+03 0.  0.
        -11    1    3    3    0    0 -0.38561342700E+02  0.13558484171E+02  0.87250635302E+01  0.41796367997E+02  0.51100000000E-03 0.  1.
         23    2    1    0    0    0  0.13127760075E+02  0.13408168143E+02 -0.17210862013E+02  0.99627658616E+02  0.96318946903E+02 0.  0.
         11    1    3    3    0    0  0.51689102775E+02 -0.15031602797E+00 -0.25935925543E+02  0.57831290619E+02  0.51100000000E-03 0. -1.
         22    1    1    0    0    0 -0.13127760075E+02 -0.13408168143E+02  0.17210862013E+02  0.25462341384E+02  0.00000000000E+00 0. -1.
</event>
<event>
 5    1  0.1044283E-009  0.9118800E+02  0.7815553E-02  0.1125453E+00
         25   -1    0    0    0    0  0.00000000000E+00  0.00000000000E+00  0.99999998245E-14  0.12509000000E+03  0.12509000000E+03 0.  0.
        -11    1    3    3    0    0 -0.42329678464E+02 -0.35524210993E+02 -0.13535188162E+02  0.56894398357E+02  0.51100000000E-03 0.  1.
         23    2    1    0    0    0 -0.18375583340E+02 -0.23135036489E+02 -0.25181392263E+02  0.86269973046E+02  0.77042285510E+02 0.  0.
         11    1    3    3    0    0  0.23954095124E+02  0.12389174504E+02 -0.11646204101E+02  0.29375574689E+02  0.51100000000E-03 0. -1.
         22    1    1    0    0    0  0.18375583340E+02  0.23135036489E+02  0.25181392263E+02  0.38820026954E+02  0.00000000000E+00 0.  1.
</event>
<event>
 5    1  0.1044283E-009  0.9118800E+02  0.7815553E-02  0.1125453E+00
         25   -1    0    0    0    0  0.00000000000E+00  0.00000000000E+00  0.99999998245E-14  0.12509000000E+03  0.12509000000E+03 0.  0.
        -11    1    3    3    0    0  0.37051121864E+02  0.10103364943E+02 -0.40590162556E+02  0.55878662396E+02  0.51100000000E-03 0. -1.
         23    2    1    0    0    0  0.17631086373E+02 -0.15795902591E+02 -0.16333807986E+02  0.96329627459E+02  0.91936054395E+02 0.  0.
         11    1    3    3    0    0 -0.19420035491E+02 -0.25899267534E+02  0.24256354570E+02  0.40450965063E+02  0.51100000000E-03 0.  1.
         22    1    1    0    0    0 -0.17631086373E+02  0.15795902591E+02  0.16333807986E+02  0.28760372541E+02  0.00000000000E+00 0. -1.
</event>
<event>
 5    1  0.1044283E-009  0.9118800E+02  0.7815553E-02  0.1125453E+00
         25   -1    0    0    0    0  0.00000000000E+00  0.00000000000E+00  0.99999998245E-14  0.12509000000E+03  0.12509000000E+03 0.  0.
        -11    1    3    3    0    0  0.44175989520E+02  0.38653553316E+02  0.26065057237E+00  0.58699941849E+02  0.51100000000E-03 0. -1.
         23    2    1    0    0    0  0.11316924492E+02  0.29040443204E+02  0.58167844034E+01  0.93384241813E+02  0.87837130627E+02 0.  0.
         11    1    3    3    0    0 -0.32859065028E+02 -0.96131101127E+01  0.55561338310E+01  0.34684299964E+02  0.51100000000E-03 0.  1.
         22    1    1    0    0    0 -0.11316924492E+02 -0.29040443204E+02 -0.58167844034E+01  0.31705758187E+02  0.00000000000E+00 0. -1.
</event>
<event>
 5    1  0.1044283E-009  0.9118800E+02  0.7815553E-02  0.1125453E+00
         25   -1    0    0    0    0  0.00000000000E+00  0.00000000000E+00  0.99999998245E-14  0.12509000000E+03  0.12509000000E+03 0.  0.
        -11    1    3    3    0    0 -0.20402828505E+02 -0.54269651087E+01 -0.56862639051E+02  0.60655478577E+02  0.51100000000E-03 0.  1.
         23    2    1    0    0    0 -0.19656817170E+02 -0.85287812433E+00 -0.23048721762E+02  0.94785521169E+02  0.89810542733E+02 0.  0.
         11    1    3    3    0    0  0.74601133485E+00  0.45740869844E+01  0.33813917289E+02  0.34130042592E+02  0.51100000000E-03 0. -1.
         22    1    1    0    0    0  0.19656817170E+02  0.85287812433E+00  0.23048721762E+02  0.30304478831E+02  0.00000000000E+00 0.  1.
</event>
<event>
 5    1  0.1044283E-009  0.9118800E+02  0.7815553E-02  0.1125453E+00
         25   -1    0    0    0    0  0.00000000000E+00  0.00000000000E+00  0.99999998245E-14  0.12509000000E+03  0.12509000000E+03 0.  0.
        -11    1    3    3    0    0 -0.34387328471E+02  0.47912766489E+02  0.18519588785E+02  0.61815020189E+02  0.51100000000E-03 0.  1.
         23    2    1    0    0    0 -0.29717053321E+02  0.30941091121E+02  0.13301759618E+02  0.80174621935E+02  0.66412188758E+02 0.  0.
         11    1    3    3    0    0  0.46702751505E+01 -0.16971675368E+02 -0.52178291665E+01  0.18359601745E+02  0.51100000000E-03 0. -1.
         22    1    1    0    0    0  0.29717053321E+02 -0.30941091121E+02 -0.13301759618E+02  0.44915378065E+02  0.00000000000E+00 0.  1.
</event>
<event>
 5    1  0.1044283E-009  0.9118800E+02  0.7815553E-02  0.1125453E+00
         25   -1    0    0    0    0  0.00000000000E+00  0.00000000000E+00  0.99999998245E-14  0.12509000000E+03  0.12509000000E+03 0.  0.
        -11    1    3    3    0    0  0.41057048424E+02 -0.13797043998E+02  0.17774992434E+01  0.43349730705E+02  0.51100000000E-03 0. -1.
         23    2    1    0    0    0 -0.52440350177E+01 -0.14737971810E+02 -0.24068537233E+02  0.96384561476E+02  0.92010768337E+02 0.  0.
         11    1    3    3    0    0 -0.46301083442E+02 -0.94092781142E+00 -0.25846036477E+02  0.53034830770E+02  0.51100000000E-03 0.  1.
         22    1    1    0    0    0  0.52440350177E+01  0.14737971810E+02  0.24068537233E+02  0.28705438524E+02  0.00000000000E+00 0.  1.
</event>
<event>
 5    1  0.1044283E-009  0.9118800E+02  0.7815553E-02  0.1125453E+00
         25   -1    0    0    0    0  0.00000000000E+00  0.00000000000E+00  0.99999998245E-14  0.12509000000E+03  0.12509000000E+03 0.  0.
        -11    1    3    3    0    0  0.43647258480E+02  0.70629436652E+00  0.14629044037E+02  0.46039015566E+02  0.51100000000E-03 0.  1.
         23    2    1    0    0    0 -0.17102763334E+01 -0.15684232831E+02  0.25149519430E+02  0.95401306324E+02  0.90664164454E+02 0.  0.
         11    1    3    3    0    0 -0.45357534813E+02 -0.16390527197E+02  0.10520475393E+02  0.49362290758E+02  0.51100000000E-03 0. -1.
         22    1    1    0    0    0  0.17102763334E+01  0.15684232831E+02 -0.25149519430E+02  0.29688693676E+02  0.00000000000E+00 0. -1.
</event>
<event>
 5    1  0.1044283E-009  0.9118800E+02  0.7815553E-02  0.1125453E+00
         25   -1    0    0    0    0  0.00000000000E+00  0.00000000000E+00  0.99999998245E-14  0.12509000000E+03  0.12509000000E+03 0.  0.
        -11    1    3    3    0    0 -0.28909979132E+01 -0.89723453668E+01 -0.61737627043E+02  0.62453145986E+02  0.51100000000E-03 0.  1.
         23    2    1    0    0    0 -0.27266069384E+01 -0.23071455401E+01 -0.29615323512E+02  0.95260070522E+02  0.90469090540E+02 0.  0.
         11    1    3    3    0    0  0.16439097478E+00  0.66651998267E+01  0.32122303531E+02  0.32806924536E+02  0.51100000000E-03 0. -1.
         22    1    1    0    0    0  0.27266069384E+01  0.23071455401E+01  0.29615323512E+02  0.29829929478E+02  0.00000000000E+00 0.  1.
</event>
<event>
 5    1  0.1044283E-009  0.9118800E+02  0.7815553E-02  0.1125453E+00
         25   -1    0    0    0    0  0.00000000000E+00  0.00000000000E+00  0.99999998245E-14  0.12509000000E+03  0.12509000000E+03 0.  0.
        -11    1    3    3    0    0  0.42365523202E+01 -0.29910208767E+02 -0.25551373296E+02  0.39565662406E+02  0.51100000000E-03 0.  1.
         23    2    1    0    0    0 -0.29664834392E+02 -0.49128797095E+01  0.86259704752E+01  0.93808277650E+02  0.88438943925E+02 0.  0.
         11    1    3    3    0    0 -0.33901386712E+02  0.24997329057E+02  0.34177343772E+02  0.54242615244E+02  0.51100000000E-03 0. -1.
         22    1    1    0    0    0  0.29664834392E+02  0.49128797095E+01 -0.86259704752E+01  0.31281722350E+02  0.00000000000E+00 0. -1.
</event>
<event>
 5    1  0.1044283E-009  0.9118800E+02  0.7815553E-02  0.1125453E+00
         25   -1    0    0    0    0  0.00000000000E+00  0.00000000000E+00  0.99999998245E-14  0.12509000000E+03  0.12509000000E+03 0.  0.
        -11    1    3    3    0    0  0.22550844324E+02  0.16276133649E+02  0.23149701464E+02  0.36185104455E+02  0.51100000000E-03 0. -1.
         23    2    1    0    0    0 -0.27264140911E+02  0.98082842328E+01 -0.76676029187E+01  0.95117880393E+02  0.90272272690E+02 0.  0.
         11    1    3    3    0    0 -0.49814985235E+02 -0.64678494166E+01 -0.30817304383E+02  0.58932775938E+02  0.51100000000E-03 0.  1.
         22    1    1    0    0    0  0.27264140911E+02 -0.98082842328E+01  0.76676029187E+01  0.29972119607E+02  0.00000000000E+00 0.  1.
</event>
<event>
 5    1  0.1044283E-009  0.9118800E+02  0.7815553E-02  0.1125453E+00
         25   -1    0    0    0    0  0.00000000000E+00  0.00000000000E+00  0.99999998245E-14  0.12509000000E+03  0.12509000000E+03 0.  0.
        -11    1    3    3    0    0 -0.67676579090E+01  0.50635408257E+02 -0.26189192245E+02  0.57407486913E+02  0.51100000000E-03 0.  1.
         23    2    1    0    0    0 -0.11550248843E+02  0.15292813090E+02 -0.25643586329E+02  0.93076379456E+02  0.87397600152E+02 0.  0.
         11    1    3    3    0    0 -0.47825909338E+01 -0.35342595167E+02  0.54560591609E+00  0.35668892543E+02  0.51100000000E-03 0. -1.
         22    1    1    0    0    0  0.11550248843E+02 -0.15292813090E+02  0.25643586329E+02  0.32013620544E+02  0.00000000000E+00 0.  1.
</event>
<event>
 5    1  0.1044283E-009  0.9118800E+02  0.7815553E-02  0.1125453E+00
         25   -1    0    0    0    0  0.00000000000E+00  0.00000000000E+00  0.99999998245E-14  0.12509000000E+03  0.12509000000E+03 0.  0.
        -11    1    3    3    0    0 -0.79526165617E+01  0.31732261042E+02  0.43965898433E+02  0.54801283985E+02  0.51100000000E-03 0. -1.
         23    2    1    0    0    0  0.20696782934E+01  0.29570899718E+02  0.50818391336E+01  0.95014316012E+02  0.90128649606E+02 0.  0.
         11    1    3    3    0    0  0.10022294855E+02 -0.21613613243E+01 -0.38884059300E+02  0.40213032027E+02  0.51100000000E-03 0.  1.
         22    1    1    0    0    0 -0.20696782934E+01 -0.29570899718E+02 -0.50818391336E+01  0.30075683988E+02  0.00000000000E+00 0. -1.
</event>
<event>
 5    1  0.1044283E-009  0.9118800E+02  0.7815553E-02  0.1125453E+00
         25   -1    0    0    0    0  0.00000000000E+00  0.00000000000E+00  0.99999998245E-14  0.12509000000E+03  0.12509000000E+03 0.  0.
        -11    1    3    3    0    0  0.55289099894E+02 -0.20578113261E+02  0.99622361230E+00  0.59002845476E+02  0.51100000000E-03 0.  1.
         23    2    1    0    0    0  0.23644451307E+02 -0.13175763612E+02  0.14717740875E+02  0.94279730270E+02  0.89103281752E+02 0.  0.
         11    1    3    3    0    0 -0.31644648587E+02  0.74023496494E+01  0.13721517262E+02  0.35276884794E+02  0.51100000000E-03 0. -1.
         22    1    1    0    0    0 -0.23644451307E+02  0.13175763612E+02 -0.14717740875E+02  0.30810269730E+02  0.00000000000E+00 0.  1.
</event>
<event>
 5    1  0.1044283E-009  0.9118800E+02  0.7815553E-02  0.1125453E+00
         25   -1    0    0    0    0  0.00000000000E+00  0.00000000000E+00  0.99999998245E-14  0.12509000000E+03  0.12509000000E+03 0.  0.
        -11    1    3    3    0    0 -0.28554922281E+02  0.21985657137E+02 -0.13502307773E+02  0.38484607594E+02  0.51100000000E-03 0.  1.
         23    2    1    0    0    0 -0.11291235843E+02 -0.16264102303E+02  0.23449417963E+02  0.94399802324E+02  0.89271688936E+02 0.  0.
         11    1    3    3    0    0  0.17263686438E+02 -0.38249759440E+02  0.36951725736E+02  0.55915194730E+02  0.51100000000E-03 0. -1.
         22    1    1    0    0    0  0.11291235843E+02  0.16264102303E+02 -0.23449417963E+02  0.30690197676E+02  0.00000000000E+00 0. -1.
</event>
<event>
 5    1  0.1044283E-009  0.9118800E+02  0.7815553E-02  0.1125453E+00
         25   -1    0    0    0    0  0.00000000000E+00  0.00000000000E+00  0.99999998245E-14  0.12509000000E+03  0.12509000000E+03 0.  0.
        -11    1    3    3    0    0  0.39373241777E+02  0.10794554809E+02  0.11038266706E+02  0.42292054971E+02  0.51100000000E-03 0. -1.
         23    2    1    0    0    0 -0.93209253812E+01 -0.16215147966E+01  0.28161735898E+02  0.95381544486E+02  0.90636894804E+02 0.  0.
         11    1    3    3    0    0 -0.48694167158E+02 -0.12416069605E+02  0.17123469192E+02  0.53089489516E+02  0.51100000000E-03 0.  1.
         22    1    1    0    0    0  0.93209253812E+01  0.16215147966E+01 -0.28161735898E+02  0.29708455514E+02  0.00000000000E+00 0. -1.
</event>
<event>
 5    1  0.1044283E-009  0.9118800E+02  0.7815553E-02  0.1125453E+00
         25   -1    0    0    0    0  0.00000000000E+00  0.00000000000E+00  0.99999998245E-14  0.12509000000E+03  0.12509000000E+03 0.  0.
        -11    1    3    3    0    0  0.37468471088E+02 -0.21386133092E+00  0.19293618668E+02  0.42144700544E+02  0.51100000000E-03 0.  1.
         23    2    1    0    0    0 -0.85642369888E+01 -0.26164004725E+02  0.10005800755E+02  0.95798066858E+02  0.91209935131E+02 0.  0.
         11    1    3    3    0    0 -0.46032708077E+02 -0.25950143394E+02 -0.92878179133E+01  0.53653366315E+02  0.51100000000E-03 0. -1.
         22    1    1    0    0    0  0.85642369888E+01  0.26164004725E+02 -0.10005800755E+02  0.29291933142E+02  0.00000000000E+00 0. -1.
</event>
<event>
 5    1  0.1044283E-009  0.9118800E+02  0.7815553E-02  0.1125453E+00
         25   -1    0    0    0    0  0.00000000000E+00  0.00000000000E+00  0.99999998245E-14  0.12509000000E+03  0.12509000000E+03 0.  0.
        -11    1    3    3    0    0  0.20188376541E+02  0.11772716644E+02 -0.49671173065E+02  0.54894378934E+02  0.51100000000E-03 0.  1.
         23    2    1    0    0    0  0.22843153389E+02  0.62736700686E+01 -0.38866896604E+01  0.10108427257E+03  0.98192439688E+02 0.  0.
         11    1    3    3    0    0  0.26547768474E+01 -0.54990465757E+01  0.45784483405E+02  0.46189893638E+02  0.51100000000E-03 0. -1.
         22    1    1    0    0    0 -0.22843153389E+02 -0.62736700686E+01  0.38866896604E+01  0.24005727429E+02  0.00000000000E+00 0.  1.
</event>
<event>
 5    1  0.1044283E-009  0.9118800E+02  0.7815553E-02  0.1125453E+00
         25   -1    0    0    0    0  0.00000000000E+00  0.00000000000E+00  0.99999998245E-14  0.12509000000E+03  0.12509000000E+03 0.  0.
        -11    1    3    3    0    0 -0.43419170230E+02 -0.35118407392E+02  0.26919361674E+02  0.61993377988E+02  0.51100000000E-03 0.  1.
         23    2    1    0    0    0 -0.24065611999E+02 -0.14710624930E+02  0.84311468782E+01  0.95651243158E+02  0.91008350789E+02 0.  0.
         11    1    3    3    0    0  0.19353558231E+02  0.20407782462E+02 -0.18488214796E+02  0.33657865170E+02  0.51100000000E-03 0. -1.
         22    1    1    0    0    0  0.24065611999E+02  0.14710624930E+02 -0.84311468782E+01  0.29438756842E+02  0.00000000000E+00 0.  1.
</event>
<event>
 5    1  0.1044283E-009  0.9118800E+02  0.7815553E-02  0.1125453E+00
         25   -1    0    0    0    0  0.00000000000E+00  0.00000000000E+00  0.99999998245E-14  0.12509000000E+03  0.12509000000E+03 0.  0.
        -11    1    3    3    0    0 -0.14939061354E+02 -0.33996231683E+02  0.58030835613E+01  0.37584506141E+02  0.51100000000E-03 0.  1.
         23    2    1    0    0    0  0.20435536569E+02  0.88381617094E+01  0.20259002174E+02  0.94987650817E+02  0.90091633249E+02 0.  0.
         11    1    3    3    0    0  0.35374597923E+02  0.42834393392E+02  0.14455918613E+02  0.57403144676E+02  0.51100000000E-03 0. -1.
         22    1    1    0    0    0 -0.20435536569E+02 -0.88381617094E+01 -0.20259002174E+02  0.30102349183E+02  0.00000000000E+00 0. -1.
</event>
<event>
 5    1  0.1044283E-009  0.9118800E+02  0.7815553E-02  0.1125453E+00
         25   -1    0    0    0    0  0.00000000000E+00  0.00000000000E+00  0.99999998245E-14  0.12509000000E+03  0.12509000000E+03 0.  0.
        -11    1    3    3    0    0 -0.54788985091E+02 -0.11659963612E+02 -0.94395582636E+00  0.56023911784E+02  0.51100000000E-03 0.  1.
         23    2    1    0    0    0 -0.20099834312E+02  0.13779337157E+02  0.69262507171E+01  0.99755311906E+02  0.96484588575E+02 0.  0.
         11    1    3    3    0    0  0.34689150779E+02  0.25439300768E+02  0.78702065435E+01  0.43731400122E+02  0.51100000000E-03 0. -1.
         22    1    1    0    0    0  0.20099834312E+02 -0.13779337157E+02 -0.69262507171E+01  0.25334688094E+02  0.00000000000E+00 0.  1.
</event>
<event>
 5    1  0.1044283E-009  0.9118800E+02  0.7815553E-02  0.1125453E+00
         25   -1    0    0    0    0  0.00000000000E+00  0.00000000000E+00  0.99999998245E-14  0.12509000000E+03  0.12509000000E+03 0.  0.
        -11    1    3    3    0    0  0.38293597812E+02  0.24745341636E+02  0.26578225115E+02  0.52774365147E+02  0.51100000000E-03 0. -1.
         23    2    1    0    0    0 -0.72191690132E+01  0.68603745877E+01  0.20817111695E+02  0.10201331740E+03  0.99368926964E+02 0.  0.
         11    1    3    3    0    0 -0.45512766825E+02 -0.17884967048E+02 -0.57611134202E+01  0.49238952248E+02  0.51100000000E-03 0.  1.
         22    1    1    0    0    0  0.72191690132E+01 -0.68603745877E+01 -0.20817111695E+02  0.23076682605E+02  0.00000000000E+00 0.  1.
</event>
<event>
 5    1  0.1044283E-009  0.9118800E+02  0.7815553E-02  0.1125453E+00
         25   -1    0    0    0    0  0.00000000000E+00  0.00000000000E+00  0.99999998245E-14  0.12509000000E+03  0.12509000000E+03 0.  0.
        -11    1    3    3    0    0 -0.16787598751E+02  0.48634748146E+02  0.35186949690E+02  0.62332043347E+02  0.51100000000E-03 0. -1.
         23    2    1    0    0    0 -0.48042856763E+01  0.24978362690E+02  0.16576236017E+02  0.94729312194E+02  0.89732219547E+02 0.  0.
         11    1    3    3    0    0  0.11983313075E+02 -0.23656385456E+02 -0.18610713673E+02  0.32397268847E+02  0.51100000000E-03 0.  1.
         22    1    1    0    0    0  0.48042856763E+01 -0.24978362690E+02 -0.16576236017E+02  0.30360687806E+02  0.00000000000E+00 0. -1.
</event>
<event>
 5    1  0.1044283E-009  0.9118800E+02  0.7815553E-02  0.1125453E+00
         25   -1    0    0    0    0  0.00000000000E+00  0.00000000000E+00  0.99999998245E-14  0.12509000000E+03  0.12509000000E+03 0.  0.
        -11    1    3    3    0    0  0.27244045129E+02  0.31420183952E+00  0.20851710473E+02  0.34309336159E+02  0.51100000000E-03 0. -1.
         23    2    1    0    0    0 -0.27800706782E+02  0.85900409068E+01 -0.48002980618E+01  0.95599137655E+02  0.90936704133E+02 0.  0.
         11    1    3    3    0    0 -0.55044751911E+02  0.82758390673E+01 -0.25652008535E+02  0.61289801496E+02  0.51100000000E-03 0.  1.
         22    1    1    0    0    0  0.27800706782E+02 -0.85900409068E+01  0.48002980618E+01  0.29490862345E+02  0.00000000000E+00 0.  1.
</event>
<event>
 5    1  0.1044283E-009  0.9118800E+02  0.7815553E-02  0.1125453E+00
         25   -1    0    0    0    0  0.00000000000E+00  0.00000000000E+00  0.99999998245E-14  0.12509000000E+03  0.12509000000E+03 0.  0.
        -11    1    3    3    0    0 -0.45264154983E+02 -0.17441501791E+02  0.14582440839E+02  0.50652712584E+02  0.51100000000E-03 0.  1.
         23    2    1    0    0    0 -0.86223756714E+01 -0.28072721674E+02 -0.75600832112E+01  0.94765456763E+02  0.89782592260E+02 0.  0.
         11    1    3    3    0    0  0.36641779312E+02 -0.10631219883E+02 -0.22142524050E+02  0.44112744178E+02  0.51100000000E-03 0. -1.
         22    1    1    0    0    0  0.86223756714E+01  0.28072721674E+02  0.75600832112E+01  0.30324543237E+02  0.00000000000E+00 0. -1.
</event>
<event>
 5    1  0.1044283E-009  0.9118800E+02  0.7815553E-02  0.1125453E+00
         25   -1    0    0    0    0  0.00000000000E+00  0.00000000000E+00  0.99999998245E-14  0.12509000000E+03  0.12509000000E+03 0.  0.
        -11    1    3    3    0    0 -0.26824816622E+02 -0.29600181128E+02 -0.49494894364E+01  0.40252191935E+02  0.51100000000E-03 0.  1.
         23    2    1    0    0    0  0.25128458294E+02 -0.83340241669E+01 -0.10384121288E+02  0.96651903194E+02  0.92373508329E+02 0.  0.
         11    1    3    3    0    0  0.51953274916E+02  0.21266156961E+02 -0.54346318520E+01  0.56399711258E+02  0.51100000000E-03 0. -1.
         22    1    1    0    0    0 -0.25128458294E+02  0.83340241669E+01  0.10384121288E+02  0.28438096806E+02  0.00000000000E+00 0. -1.
</event>
<event>
 5    1  0.1044283E-009  0.9118800E+02  0.7815553E-02  0.1125453E+00
         25   -1    0    0    0    0  0.00000000000E+00  0.00000000000E+00  0.99999998245E-14  0.12509000000E+03  0.12509000000E+03 0.  0.
        -11    1    3    3    0    0 -0.24860982538E+02 -0.29896021794E+01  0.23454752176E+02  0.34309351114E+02  0.51100000000E-03 0.  1.
         23    2    1    0    0    0  0.15485146180E+02  0.22581773910E+02 -0.13365918114E+02  0.94620769091E+02  0.89580778693E+02 0.  0.
         11    1    3    3    0    0  0.40346128718E+02  0.25571376089E+02 -0.36820670290E+02  0.60311417978E+02  0.51100000000E-03 0. -1.
         22    1    1    0    0    0 -0.15485146180E+02 -0.22581773910E+02  0.13365918114E+02  0.30469230909E+02  0.00000000000E+00 0. -1.
</event>
<event>
 5    1  0.1044283E-009  0.9118800E+02  0.7815553E-02  0.1125453E+00
         25   -1    0    0    0    0  0.00000000000E+00  0.00000000000E+00  0.99999998245E-14  0.12509000000E+03  0.12509000000E+03 0.  0.
        -11    1    3    3    0    0 -0.43823838653E+02  0.10760691704E+02  0.14390029544E+02  0.47364483221E+02  0.51100000000E-03 0. -1.
         23    2    1    0    0    0 -0.81845817942E+01 -0.23514606969E+02  0.13386756448E+02  0.96821123683E+02  0.92602379143E+02 0.  0.
         11    1    3    3    0    0  0.35639256859E+02 -0.34275298673E+02 -0.10032730960E+01  0.49456640462E+02  0.51100000000E-03 0.  1.
         22    1    1    0    0    0  0.81845817942E+01  0.23514606969E+02 -0.13386756448E+02  0.28268876317E+02  0.00000000000E+00 0. -1.
</event>
<event>
 5    1  0.1044283E-009  0.9118800E+02  0.7815553E-02  0.1125453E+00
         25   -1    0    0    0    0  0.00000000000E+00  0.00000000000E+00  0.99999998245E-14  0.12509000000E+03  0.12509000000E+03 0.  0.
        -11    1    3    3    0    0  0.30174854429E+02  0.11302471221E+02 -0.23727911088E+02  0.40016015049E+02  0.51100000000E-03 0.  1.
         23    2    1    0    0    0 -0.23182816861E+02  0.15945032819E+02 -0.84436587923E+01  0.95713437182E+02  0.91093795695E+02 0.  0.
         11    1    3    3    0    0 -0.53357671291E+02  0.46425615979E+01  0.15284252295E+02  0.55697422133E+02  0.51100000000E-03 0. -1.
         22    1    1    0    0    0  0.23182816861E+02 -0.15945032819E+02  0.84436587923E+01  0.29376562818E+02  0.00000000000E+00 0. -1.
</event>
<event>
 5    1  0.1044283E-009  0.9118800E+02  0.7815553E-02  0.1125453E+00
         25   -1    0    0    0    0  0.00000000000E+00  0.00000000000E+00  0.99999998245E-14  0.12509000000E+03  0.12509000000E+03 0.  0.
        -11    1    3    3    0    0 -0.44067213728E+02  0.34333286204E+02 -0.26771716379E+01  0.55927284178E+02  0.51100000000E-03 0.  1.
         23    2    1    0    0    0 -0.78228138242E+01  0.25340591257E+02 -0.14198830501E+02  0.95007633588E+02  0.90119374559E+02 0.  0.
         11    1    3    3    0    0  0.36244399903E+02 -0.89926949475E+01 -0.11521658863E+02  0.39080349410E+02  0.51100000000E-03 0. -1.
         22    1    1    0    0    0  0.78228138242E+01 -0.25340591257E+02  0.14198830501E+02  0.30082366412E+02  0.00000000000E+00 0.  1.
</event>
<event>
 5    1  0.1044283E-009  0.9118800E+02  0.7815553E-02  0.1125453E+00
         25   -1    0    0    0    0  0.00000000000E+00  0.00000000000E+00  0.99999998245E-14  0.12509000000E+03  0.12509000000E+03 0.  0.
        -11    1    3    3    0    0 -0.28931014249E+02 -0.10560211320E+02 -0.31586606078E+02  0.44116157271E+02  0.51100000000E-03 0.  1.
         23    2    1    0    0    0 -0.14364071875E+02 -0.20462149722E+02  0.16371171740E+02  0.95206201778E+02  0.90394576501E+02 0.  0.
         11    1    3    3    0    0  0.14566942374E+02 -0.99019384012E+01  0.47957777818E+02  0.51090044507E+02  0.51100000000E-03 0. -1.
         22    1    1    0    0    0  0.14364071875E+02  0.20462149722E+02 -0.16371171740E+02  0.29883798222E+02  0.00000000000E+00 0. -1.
</event>
<event>
 5    1  0.1044283E-009  0.9118800E+02  0.7815553E-02  0.1125453E+00
         25   -1    0    0    0    0  0.00000000000E+00  0.00000000000E+00  0.99999998245E-14  0.12509000000E+03  0.12509000000E+03 0.  0.
        -11    1    3    3    0    0  0.40417552972E+02 -0.28788004882E+02 -0.35655212334E+02  0.61103371266E+02  0.51100000000E-03 0. -1.
         23    2    1    0    0    0  0.15388786096E+02 -0.22082042616E+02 -0.14739746276E+02  0.94403008230E+02  0.89276181029E+02 0.  0.
         11    1    3    3    0    0 -0.25028766876E+02  0.67059622655E+01  0.20915466058E+02  0.33299636964E+02  0.51100000000E-03 0.  1.
         22    1    1    0    0    0 -0.15388786096E+02  0.22082042616E+02  0.14739746276E+02  0.30686991770E+02  0.00000000000E+00 0. -1.
</event>
<event>
 5    1  0.1044283E-009  0.9118800E+02  0.7815553E-02  0.1125453E+00
         25   -1    0    0    0    0  0.00000000000E+00  0.00000000000E+00  0.99999998245E-14  0.12509000000E+03  0.12509000000E+03 0.  0.
        -11    1    3    3    0    0 -0.61811664867E+01  0.35089177229E+02  0.27569735260E+02  0.45050499224E+02  0.51100000000E-03 0.  1.
         23    2    1    0    0    0  0.25145636490E+02  0.15799583823E+02 -0.59295733827E+01  0.94806510703E+02  0.89839772639E+02 0.  0.
         11    1    3    3    0    0  0.31326802977E+02 -0.19289593406E+02 -0.33499308643E+02  0.49756011479E+02  0.51100000000E-03 0. -1.
         22    1    1    0    0    0 -0.25145636490E+02 -0.15799583823E+02  0.59295733827E+01  0.30283489297E+02  0.00000000000E+00 0. -1.
</event>
<event>
 5    1  0.1044283E-009  0.9118800E+02  0.7815553E-02  0.1125453E+00
         25   -1    0    0    0    0  0.00000000000E+00  0.00000000000E+00  0.99999998245E-14  0.12509000000E+03  0.12509000000E+03 0.  0.
        -11    1    3    3    0    0 -0.17845685750E+02  0.21286094470E+02 -0.23390854464E+02  0.36313887020E+02  0.51100000000E-03 0.  1.
         23    2    1    0    0    0  0.31055994595E+02  0.77010312443E+01  0.19342023759E+01  0.93035018775E+02  0.87338381581E+02 0.  0.
         11    1    3    3    0    0  0.48901680345E+02 -0.13585063226E+02  0.25325056840E+02  0.56721131755E+02  0.51100000000E-03 0. -1.
         22    1    1    0    0    0 -0.31055994595E+02 -0.77010312443E+01 -0.19342023759E+01  0.32054981225E+02  0.00000000000E+00 0. -1.
</event>
<event>
 5    1  0.1044283E-009  0.9118800E+02  0.7815553E-02  0.1125453E+00
         25   -1    0    0    0    0  0.00000000000E+00  0.00000000000E+00  0.99999998245E-14  0.12509000000E+03  0.12509000000E+03 0.  0.
        -11    1    3    3    0    0  0.16125888861E+02  0.25813531021E+02 -0.43805158020E+02  0.53341114956E+02  0.51100000000E-03 0.  1.
         23    2    1    0    0    0  0.13246552100E+02  0.25364952182E+02 -0.78109429786E+00  0.96463752429E+02  0.92118366695E+02 0.  0.
         11    1    3    3    0    0 -0.28793367614E+01 -0.44857883898E+00  0.43024063722E+02  0.43122637473E+02  0.51100000000E-03 0. -1.
         22    1    1    0    0    0 -0.13246552100E+02 -0.25364952182E+02  0.78109429786E+00  0.28626247571E+02  0.00000000000E+00 0.  1.
</event>
<event>
 5    1  0.1044283E-009  0.9118800E+02  0.7815553E-02  0.1125453E+00
         25   -1    0    0    0    0  0.00000000000E+00  0.00000000000E+00  0.99999998245E-14  0.12509000000E+03  0.12509000000E+03 0.  0.
        -11    1    3    3    0    0 -0.31848189933E+02 -0.50036318871E+02 -0.48543652182E+01  0.59510547554E+02  0.51100000000E-03 0. -1.
         23    2    1    0    0    0 -0.75895490964E+01 -0.28369172089E+02  0.82641440807E+01  0.94582504890E+02  0.89527330874E+02 0.  0.
         11    1    3    3    0    0  0.24258640836E+02  0.21667146782E+02  0.13118509299E+02  0.35071957336E+02  0.51100000000E-03 0.  1.
         22    1    1    0    0    0  0.75895490964E+01  0.28369172089E+02 -0.82641440807E+01  0.30507495110E+02  0.00000000000E+00 0. -1.
</event>
<event>
 5    1  0.1044283E-009  0.9118800E+02  0.7815553E-02  0.1125453E+00
         25   -1    0    0    0    0  0.00000000000E+00  0.00000000000E+00  0.99999998245E-14  0.12509000000E+03  0.12509000000E+03 0.  0.
        -11    1    3    3    0    0 -0.44530482167E+02  0.41173909032E+02 -0.12846041584E+01  0.60662219174E+02  0.51100000000E-03 0.  1.
         23    2    1    0    0    0 -0.13688115751E+02  0.26975348334E+02 -0.32112882719E+01  0.94670494696E+02  0.89650188305E+02 0.  0.
         11    1    3    3    0    0  0.30842366416E+02 -0.14198560698E+02 -0.19266841135E+01  0.34008275522E+02  0.51100000000E-03 0. -1.
         22    1    1    0    0    0  0.13688115751E+02 -0.26975348334E+02  0.32112882719E+01  0.30419505304E+02  0.00000000000E+00 0.  1.
</event>
<event>
 5    1  0.1044283E-009  0.9118800E+02  0.7815553E-02  0.1125453E+00
         25   -1    0    0    0    0  0.00000000000E+00  0.00000000000E+00  0.99999998245E-14  0.12509000000E+03  0.12509000000E+03 0.  0.
        -11    1    3    3    0    0  0.21071576925E+02 -0.29379086216E+02 -0.23194656687E+01  0.36228745249E+02  0.51100000000E-03 0.  1.
         23    2    1    0    0    0 -0.14278744526E+02  0.70873041692E+01  0.26159103809E+02  0.94456503012E+02  0.89351104210E+02 0.  0.
         11    1    3    3    0    0 -0.35350321451E+02  0.36466390386E+02  0.28478569477E+02  0.58227757764E+02  0.51100000000E-03 0. -1.
         22    1    1    0    0    0  0.14278744526E+02 -0.70873041692E+01 -0.26159103809E+02  0.30633496988E+02  0.00000000000E+00 0. -1.
</event>
<event>
 5    1  0.1044283E-009  0.9118800E+02  0.7815553E-02  0.1125453E+00
         25   -1    0    0    0    0  0.00000000000E+00  0.00000000000E+00  0.99999998245E-14  0.12509000000E+03  0.12509000000E+03 0.  0.
        -11    1    3    3    0    0 -0.39020199731E+02  0.76670488163E+01 -0.66020874114E+01  0.40310633623E+02  0.51100000000E-03 0.  1.
         23    2    1    0    0    0 -0.20770965736E+01 -0.18190857111E+02  0.24070734895E+02  0.94847283670E+02  0.89896525676E+02 0.  0.
         11    1    3    3    0    0  0.36943103158E+02 -0.25857905928E+02  0.30672822307E+02  0.54536650047E+02  0.51100000000E-03 0. -1.
         22    1    1    0    0    0  0.20770965736E+01  0.18190857111E+02 -0.24070734895E+02  0.30242716330E+02  0.00000000000E+00 0. -1.
</event>
<event>
 5    1  0.1044283E-009  0.9118800E+02  0.7815553E-02  0.1125453E+00
         25   -1    0    0    0    0  0.00000000000E+00  0.00000000000E+00  0.99999998245E-14  0.12509000000E+03  0.12509000000E+03 0.  0.
        -11    1    3    3    0    0  0.23085155962E+02  0.37727516527E+01 -0.24533331407E+02  0.33897528391E+02  0.51100000000E-03 0.  1.
         23    2    1    0    0    0 -0.31003536247E+02 -0.45942999422E+00  0.14428612544E+01  0.94049507343E+02  0.88779488888E+02 0.  0.
         11    1    3    3    0    0 -0.54088692210E+02 -0.42321816469E+01  0.25976192662E+02  0.60151978952E+02  0.51100000000E-03 0. -1.
         22    1    1    0    0    0  0.31003536247E+02  0.45942999422E+00 -0.14428612544E+01  0.31040492657E+02  0.00000000000E+00 0. -1.
</event>
<event>
 5    1  0.1044283E-009  0.9118800E+02  0.7815553E-02  0.1125453E+00
         25   -1    0    0    0    0  0.00000000000E+00  0.00000000000E+00  0.99999998245E-14  0.12509000000E+03  0.12509000000E+03 0.  0.
        -11    1    3    3    0    0  0.43858467511E+02 -0.29490006993E+02  0.17609971058E+02  0.55707600611E+02  0.51100000000E-03 0. -1.
         23    2    1    0    0    0  0.69790493444E+01 -0.28161534675E+02  0.13195868883E+01  0.96046576053E+02  0.91550119043E+02 0.  0.
         11    1    3    3    0    0 -0.36879418167E+02  0.13284723180E+01 -0.16290384170E+02  0.40338975442E+02  0.51100000000E-03 0.  1.
         22    1    1    0    0    0 -0.69790493444E+01  0.28161534675E+02 -0.13195868883E+01  0.29043423947E+02  0.00000000000E+00 0. -1.
</event>
<event>
 5    1  0.1044283E-009  0.9118800E+02  0.7815553E-02  0.1125453E+00
         25   -1    0    0    0    0  0.00000000000E+00  0.00000000000E+00  0.99999998245E-14  0.12509000000E+03  0.12509000000E+03 0.  0.
        -11    1    3    3    0    0 -0.20054566666E+02 -0.24956892935E+02  0.33430476985E+02  0.46288540060E+02  0.51100000000E-03 0. -1.
         23    2    1    0    0    0 -0.13278463360E+02  0.20733190107E+02  0.16348021867E+02  0.95535971846E+02  0.90849773452E+02 0.  0.
         11    1    3    3    0    0  0.67761033060E+01  0.45690083042E+02 -0.17082455118E+02  0.49247431786E+02  0.51100000000E-03 0.  1.
         22    1    1    0    0    0  0.13278463360E+02 -0.20733190107E+02 -0.16348021867E+02  0.29554028154E+02  0.00000000000E+00 0. -1.
</event>
<event>
 5    1  0.1044283E-009  0.9118800E+02  0.7815553E-02  0.1125453E+00
         25   -1    0    0    0    0  0.00000000000E+00  0.00000000000E+00  0.99999998245E-14  0.12509000000E+03  0.12509000000E+03 0.  0.
        -11    1    3    3    0    0  0.18652099559E+02  0.97080126758E+01 -0.44337433032E+02  0.49070910896E+02  0.51100000000E-03 0.  1.
         23    2    1    0    0    0  0.10132632554E+02  0.28250810342E+02 -0.33074258924E+01  0.94895338328E+02  0.89963368339E+02 0.  0.
         11    1    3    3    0    0 -0.85194670045E+01  0.18542797666E+02  0.41030007140E+02  0.45824427432E+02  0.51100000000E-03 0. -1.
         22    1    1    0    0    0 -0.10132632554E+02 -0.28250810342E+02  0.33074258924E+01  0.30194661672E+02  0.00000000000E+00 0.  1.
</event>
<event>
 5    1  0.1044283E-009  0.9118800E+02  0.7815553E-02  0.1125453E+00
         25   -1    0    0    0    0  0.00000000000E+00  0.00000000000E+00  0.99999998245E-14  0.12509000000E+03  0.12509000000E+03 0.  0.
        -11    1    3    3    0    0  0.39756380513E+02  0.14571969001E+02  0.31030539481E+02  0.52495775571E+02  0.51100000000E-03 0. -1.
         23    2    1    0    0    0  0.24327928737E+02  0.17074717425E+02 -0.78064311620E+01  0.94359974630E+02  0.89215863796E+02 0.  0.
         11    1    3    3    0    0 -0.15428451777E+02  0.25027484240E+01 -0.38836970643E+02  0.41864199059E+02  0.51100000000E-03 0.  1.
         22    1    1    0    0    0 -0.24327928737E+02 -0.17074717425E+02  0.78064311620E+01  0.30730025370E+02  0.00000000000E+00 0. -1.
</event>
<event>
 5    1  0.1044283E-009  0.9118800E+02  0.7815553E-02  0.1125453E+00
         25   -1    0    0    0    0  0.00000000000E+00  0.00000000000E+00  0.99999998245E-14  0.12509000000E+03  0.12509000000E+03 0.  0.
        -11    1    3    3    0    0 -0.34179687558E+02 -0.22827256747E+02 -0.13868917526E+02  0.43378353654E+02  0.51100000000E-03 0. -1.
         23    2    1    0    0    0  0.69223935288E+01 -0.23939714380E+02  0.17111409246E+02  0.94860382352E+02  0.89914750496E+02 0.  0.
         11    1    3    3    0    0  0.41102081086E+02 -0.11124576332E+01  0.30980326772E+02  0.51482028697E+02  0.51100000000E-03 0.  1.
         22    1    1    0    0    0 -0.69223935288E+01  0.23939714380E+02 -0.17111409246E+02  0.30229617648E+02  0.00000000000E+00 0.  1.
</event>
<event>
 5    1  0.1044283E-009  0.9118800E+02  0.7815553E-02  0.1125453E+00
         25   -1    0    0    0    0  0.00000000000E+00  0.00000000000E+00  0.99999998245E-14  0.12509000000E+03  0.12509000000E+03 0.  0.
        -11    1    3    3    0    0 -0.35067277301E+02  0.66004353742E+01  0.11423230557E+02  0.37466917154E+02  0.51100000000E-03 0.  1.
         23    2    1    0    0    0  0.22845094201E+02  0.81328211424E+01  0.16710526433E+02  0.95640334425E+02  0.90993355617E+02 0.  0.
         11    1    3    3    0    0  0.57912371502E+02  0.15323857682E+01  0.52872958762E+01  0.58173417271E+02  0.51100000000E-03 0. -1.
         22    1    1    0    0    0 -0.22845094201E+02 -0.81328211424E+01 -0.16710526433E+02  0.29449665575E+02  0.00000000000E+00 0. -1.
</event>
<event>
 5    1  0.1044283E-009  0.9118800E+02  0.7815553E-02  0.1125453E+00
         25   -1    0    0    0    0  0.00000000000E+00  0.00000000000E+00  0.99999998245E-14  0.12509000000E+03  0.12509000000E+03 0.  0.
        -11    1    3    3    0    0  0.27382798063E+02  0.33584970183E+02 -0.10396327174E+02  0.44562893431E+02  0.51100000000E-03 0.  1.
         23    2    1    0    0    0 -0.17504684206E+02  0.11066214615E+02 -0.20678912836E+02  0.95824106692E+02  0.91245640510E+02 0.  0.
         11    1    3    3    0    0 -0.44887482269E+02 -0.22518755568E+02 -0.10282585662E+02  0.51261213261E+02  0.51100000000E-03 0. -1.
         22    1    1    0    0    0  0.17504684206E+02 -0.11066214615E+02  0.20678912836E+02  0.29265893308E+02  0.00000000000E+00 0.  1.
</event>
<event>
 5    1  0.1044283E-009  0.9118800E+02  0.7815553E-02  0.1125453E+00
         25   -1    0    0    0    0  0.00000000000E+00  0.00000000000E+00  0.99999998245E-14  0.12509000000E+03  0.12509000000E+03 0.  0.
        -11    1    3    3    0    0  0.41209609852E+02 -0.21374082552E+01  0.35469887082E+02  0.54414275223E+02  0.51100000000E-03 0.  1.
         23    2    1    0    0    0  0.10907813330E+02  0.20471144038E+02  0.15724431805E+02  0.97066690319E+02  0.92933505713E+02 0.  0.
         11    1    3    3    0    0 -0.30301796522E+02  0.22608552293E+02 -0.19745455276E+02  0.42652415096E+02  0.51100000000E-03 0. -1.
         22    1    1    0    0    0 -0.10907813330E+02 -0.20471144038E+02 -0.15724431805E+02  0.28023309681E+02  0.00000000000E+00 0.  1.
</event>
<event>
 5    1  0.1044283E-009  0.9118800E+02  0.7815553E-02  0.1125453E+00
         25   -1    0    0    0    0  0.00000000000E+00  0.00000000000E+00  0.99999998245E-14  0.12509000000E+03  0.12509000000E+03 0.  0.
        -11    1    3    3    0    0 -0.16749269830E+02  0.26665683356E+02  0.13577703333E+02  0.34292138118E+02  0.51100000000E-03 0.  1.
         23    2    1    0    0    0  0.20768691236E+02 -0.13644590358E+02 -0.14722100989E+02  0.96206550773E+02  0.91768441048E+02 0.  0.
         11    1    3    3    0    0  0.37517961066E+02 -0.40310273714E+02 -0.28299804322E+02  0.61914412655E+02  0.51100000000E-03 0. -1.
         22    1    1    0    0    0 -0.20768691236E+02  0.13644590358E+02  0.14722100989E+02  0.28883449227E+02  0.00000000000E+00 0. -1.
</event>
<event>
 5    1  0.1044283E-009  0.9118800E+02  0.7815553E-02  0.1125453E+00
         25   -1    0    0    0    0  0.00000000000E+00  0.00000000000E+00  0.99999998245E-14  0.12509000000E+03  0.12509000000E+03 0.  0.
        -11    1    3    3    0    0 -0.26786355537E+02  0.27132631536E+02  0.35645208647E+02  0.52194534548E+02  0.51100000000E-03 0. -1.
         23    2    1    0    0    0 -0.28460437938E+02 -0.39224681874E+01  0.48643286016E+01  0.95951640797E+02  0.91420311718E+02 0.  0.
         11    1    3    3    0    0 -0.16740824009E+01 -0.31055099723E+02 -0.30780880045E+02  0.43757106249E+02  0.51100000000E-03 0.  1.
         22    1    1    0    0    0  0.28460437938E+02  0.39224681874E+01 -0.48643286016E+01  0.29138359203E+02  0.00000000000E+00 0. -1.
</event>
<event>
 5    1  0.1044283E-009  0.9118800E+02  0.7815553E-02  0.1125453E+00
         25   -1    0    0    0    0  0.00000000000E+00  0.00000000000E+00  0.99999998245E-14  0.12509000000E+03  0.12509000000E+03 0.  0.
        -11    1    3    3    0    0  0.24288728930E+02 -0.51550345447E+02  0.21278974219E+02  0.60829065526E+02  0.51100000000E-03 0. -1.
         23    2    1    0    0    0  0.12680266807E+02 -0.27672458201E+02  0.32977943064E+00  0.94648862313E+02  0.89619999294E+02 0.  0.
         11    1    3    3    0    0 -0.11608462123E+02  0.23877887246E+02 -0.20949194788E+02  0.33819796787E+02  0.51100000000E-03 0.  1.
         22    1    1    0    0    0 -0.12680266807E+02  0.27672458201E+02 -0.32977943064E+00  0.30441137687E+02  0.00000000000E+00 0. -1.
</event>
<event>
 5    1  0.1044283E-009  0.9118800E+02  0.7815553E-02  0.1125453E+00
         25   -1    0    0    0    0  0.00000000000E+00  0.00000000000E+00  0.99999998245E-14  0.12509000000E+03  0.12509000000E+03 0.  0.
        -11    1    3    3    0    0  0.70126543077E+01  0.28358191557E+02  0.15545212446E+02  0.33091055877E+02  0.51100000000E-03 0. -1.
         23    2    1    0    0    0 -0.10740460034E+02 -0.19346067088E+02 -0.20071578277E+02  0.95215327650E+02  0.90407204201E+02 0.  0.
         11    1    3    3    0    0 -0.17753114342E+02 -0.47704258645E+02 -0.35616790723E+02  0.62124271773E+02  0.51100000000E-03 0.  1.
         22    1    1    0    0    0  0.10740460034E+02  0.19346067088E+02  0.20071578277E+02  0.29874672350E+02  0.00000000000E+00 0.  1.
</event>
<event>
 5    1  0.1044283E-009  0.9118800E+02  0.7815553E-02  0.1125453E+00
         25   -1    0    0    0    0  0.00000000000E+00  0.00000000000E+00  0.99999998245E-14  0.12509000000E+03  0.12509000000E+03 0.  0.
        -11    1    3    3    0    0 -0.44285774021E+02 -0.11348275662E+01 -0.41777670825E+02  0.60892457612E+02  0.51100000000E-03 0.  1.
         23    2    1    0    0    0 -0.26460830275E+02 -0.63804855376E+01 -0.13555255930E+02  0.94682252667E+02  0.89666592844E+02 0.  0.
         11    1    3    3    0    0  0.17824943745E+02 -0.52456579714E+01  0.28222414895E+02  0.33789795055E+02  0.51100000000E-03 0. -1.
         22    1    1    0    0    0  0.26460830275E+02  0.63804855376E+01  0.13555255930E+02  0.30407747333E+02  0.00000000000E+00 0.  1.
</event>
<event>
 5    1  0.1044283E-009  0.9118800E+02  0.7815553E-02  0.1125453E+00
         25   -1    0    0    0    0  0.00000000000E+00  0.00000000000E+00  0.99999998245E-14  0.12509000000E+03  0.12509000000E+03 0.  0.
        -11    1    3    3    0    0 -0.40493791442E+02  0.34537174626E+02  0.87885533217E+01  0.53942582866E+02  0.51100000000E-03 0.  1.
         23    2    1    0    0    0 -0.43132212246E+00  0.20346947508E+02  0.18552784114E+02  0.97551116398E+02  0.93583279492E+02 0.  0.
         11    1    3    3    0    0  0.40062469319E+02 -0.14190227118E+02  0.97642307920E+01  0.43608533532E+02  0.51100000000E-03 0. -1.
         22    1    1    0    0    0  0.43132212246E+00 -0.20346947508E+02 -0.18552784114E+02  0.27538883602E+02  0.00000000000E+00 0.  1.
</event>
<event>
 5    1  0.1044283E-009  0.9118800E+02  0.7815553E-02  0.1125453E+00
         25   -1    0    0    0    0  0.00000000000E+00  0.00000000000E+00  0.99999998245E-14  0.12509000000E+03  0.12509000000E+03 0.  0.
        -11    1    3    3    0    0 -0.30687711388E+02  0.18380204850E+02 -0.46753454537E+02  0.58868098933E+02  0.51100000000E-03 0.  1.
         23    2    1    0    0    0 -0.10739921787E+02 -0.52516406394E+01 -0.26994077141E+02  0.95567028434E+02  0.90892524850E+02 0.  0.
         11    1    3    3    0    0  0.19947789601E+02 -0.23631845489E+02  0.19759377396E+02  0.36698929501E+02  0.51100000000E-03 0. -1.
         22    1    1    0    0    0  0.10739921787E+02  0.52516406394E+01  0.26994077141E+02  0.29522971566E+02  0.00000000000E+00 0.  1.
</event>
<event>
 5    1  0.1044283E-009  0.9118800E+02  0.7815553E-02  0.1125453E+00
         25   -1    0    0    0    0  0.00000000000E+00  0.00000000000E+00  0.99999998245E-14  0.12509000000E+03  0.12509000000E+03 0.  0.
        -11    1    3    3    0    0 -0.23909684802E+02 -0.25349298440E+02  0.36497352231E+02  0.50461041199E+02  0.51100000000E-03 0.  1.
         23    2    1    0    0    0 -0.11876229598E+01  0.10063158083E+02  0.30486568510E+02  0.92963555154E+02  0.87235968089E+02 0.  0.
         11    1    3    3    0    0  0.22722061843E+02  0.35412456523E+02 -0.60107837202E+01  0.42502513956E+02  0.51100000000E-03 0. -1.
         22    1    1    0    0    0  0.11876229598E+01 -0.10063158083E+02 -0.30486568510E+02  0.32126444846E+02  0.00000000000E+00 0.  1.
</event>
<event>
 5    1  0.1044283E-009  0.9118800E+02  0.7815553E-02  0.1125453E+00
         25   -1    0    0    0    0  0.00000000000E+00  0.00000000000E+00  0.99999998245E-14  0.12509000000E+03  0.12509000000E+03 0.  0.
        -11    1    3    3    0    0 -0.34009075562E+02 -0.22348554648E+01  0.50820363604E+02  0.61190858440E+02  0.51100000000E-03 0.  1.
         23    2    1    0    0    0 -0.18340764082E+02  0.76746568927E+01  0.22225606502E+02  0.95269510904E+02  0.90482142647E+02 0.  0.
         11    1    3    3    0    0  0.15668311481E+02  0.99095123574E+01 -0.28594757102E+02  0.34078652464E+02  0.51100000000E-03 0. -1.
         22    1    1    0    0    0  0.18340764082E+02 -0.76746568927E+01 -0.22225606502E+02  0.29820489096E+02  0.00000000000E+00 0.  1.
</event>
<event>
 5    1  0.1044283E-009  0.9118800E+02  0.7815553E-02  0.1125453E+00
         25   -1    0    0    0    0  0.00000000000E+00  0.00000000000E+00  0.99999998245E-14  0.12509000000E+03  0.12509000000E+03 0.  0.
        -11    1    3    3    0    0 -0.13351500836E+02 -0.43850326191E+02 -0.40723529212E+02  0.61314920806E+02  0.51100000000E-03 0. -1.
         23    2    1    0    0    0 -0.34168787417E+01 -0.14869767899E+02 -0.25129503553E+02  0.95691411488E+02  0.91063544990E+02 0.  0.
         11    1    3    3    0    0  0.99346220939E+01  0.28980558292E+02  0.15594025660E+02  0.34376490682E+02  0.51100000000E-03 0.  1.
         22    1    1    0    0    0  0.34168787417E+01  0.14869767899E+02  0.25129503553E+02  0.29398588512E+02  0.00000000000E+00 0. -1.
</event>
<event>
 5    1  0.1044283E-009  0.9118800E+02  0.7815553E-02  0.1125453E+00
         25   -1    0    0    0    0  0.00000000000E+00  0.00000000000E+00  0.99999998245E-14  0.12509000000E+03  0.12509000000E+03 0.  0.
        -11    1    3    3    0    0 -0.24010082053E+02 -0.26241599470E+02 -0.21190501413E+02  0.41402209281E+02  0.51100000000E-03 0.  1.
         23    2    1    0    0    0  0.10381666154E+02 -0.20496786770E+02  0.19475689308E+02  0.94970243459E+02  0.90067460321E+02 0.  0.
         11    1    3    3    0    0  0.34391748208E+02  0.57448126993E+01  0.40666190721E+02  0.53568034179E+02  0.51100000000E-03 0. -1.
         22    1    1    0    0    0 -0.10381666154E+02  0.20496786770E+02 -0.19475689308E+02  0.30119756541E+02  0.00000000000E+00 0. -1.
</event>
<event>
 5    1  0.1044283E-009  0.9118800E+02  0.7815553E-02  0.1125453E+00
         25   -1    0    0    0    0  0.00000000000E+00  0.00000000000E+00  0.99999998245E-14  0.12509000000E+03  0.12509000000E+03 0.  0.
        -11    1    3    3    0    0 -0.14675524037E+02 -0.16114554217E+02  0.42066609944E+02  0.47377732490E+02  0.51100000000E-03 0. -1.
         23    2    1    0    0    0  0.72044623532E+01  0.20343705666E+02  0.21559625833E+02  0.94584457813E+02  0.89530059509E+02 0.  0.
         11    1    3    3    0    0  0.21879986390E+02  0.36458259884E+02 -0.20506984111E+02  0.47206725324E+02  0.51100000000E-03 0.  1.
         22    1    1    0    0    0 -0.72044623532E+01 -0.20343705666E+02 -0.21559625833E+02  0.30505542187E+02  0.00000000000E+00 0. -1.
</event>
<event>
 5    1  0.1044283E-009  0.9118800E+02  0.7815553E-02  0.1125453E+00
         25   -1    0    0    0    0  0.00000000000E+00  0.00000000000E+00  0.99999998245E-14  0.12509000000E+03  0.12509000000E+03 0.  0.
        -11    1    3    3    0    0 -0.22058471878E+02 -0.43224230087E+01 -0.40901469512E+02  0.46671080240E+02  0.51100000000E-03 0. -1.
         23    2    1    0    0    0  0.21834985201E+02 -0.62997479735E+00 -0.20184288866E+02  0.95348295879E+02  0.90590996037E+02 0.  0.
         11    1    3    3    0    0  0.43893457079E+02  0.36924482114E+01  0.20717180646E+02  0.48677215639E+02  0.51100000000E-03 0.  1.
         22    1    1    0    0    0 -0.21834985201E+02  0.62997479735E+00  0.20184288866E+02  0.29741704121E+02  0.00000000000E+00 0. -1.
</event>
<event>
 5    1  0.1044283E-009  0.9118800E+02  0.7815553E-02  0.1125453E+00
         25   -1    0    0    0    0  0.00000000000E+00  0.00000000000E+00  0.99999998245E-14  0.12509000000E+03  0.12509000000E+03 0.  0.
        -11    1    3    3    0    0  0.20622744079E+02 -0.28904313843E+02 -0.10505665751E+02  0.37028717845E+02  0.51100000000E-03 0. -1.
         23    2    1    0    0    0 -0.21124342753E+02  0.18160836690E+01  0.18956560922E+02  0.96649057353E+02  0.92369654480E+02 0.  0.
         11    1    3    3    0    0 -0.41747086832E+02  0.30720397512E+02  0.29462226673E+02  0.59620339508E+02  0.51100000000E-03 0.  1.
         22    1    1    0    0    0  0.21124342753E+02 -0.18160836690E+01 -0.18956560922E+02  0.28440942647E+02  0.00000000000E+00 0.  1.
</event>
<event>
 5    1  0.1044283E-009  0.9118800E+02  0.7815553E-02  0.1125453E+00
         25   -1    0    0    0    0  0.00000000000E+00  0.00000000000E+00  0.99999998245E-14  0.12509000000E+03  0.12509000000E+03 0.  0.
        -11    1    3    3    0    0 -0.34893037197E+02  0.44539890562E+02 -0.17535581211E+02  0.59235314676E+02  0.51100000000E-03 0.  1.
         23    2    1    0    0    0 -0.12603526971E+02  0.16833029131E+02 -0.21500732627E+02  0.95015404984E+02  0.90130160983E+02 0.  0.
         11    1    3    3    0    0  0.22289510225E+02 -0.27706861431E+02 -0.39651514169E+01  0.35780090308E+02  0.51100000000E-03 0. -1.
         22    1    1    0    0    0  0.12603526971E+02 -0.16833029131E+02  0.21500732627E+02  0.30074595016E+02  0.00000000000E+00 0.  1.
</event>
<event>
 5    1  0.1044283E-009  0.9118800E+02  0.7815553E-02  0.1125453E+00
         25   -1    0    0    0    0  0.00000000000E+00  0.00000000000E+00  0.99999998245E-14  0.12509000000E+03  0.12509000000E+03 0.  0.
        -11    1    3    3    0    0 -0.15382294405E+02  0.98835641528E+01 -0.43709008851E+02  0.47379080579E+02  0.51100000000E-03 0. -1.
         23    2    1    0    0    0  0.19788569147E+02 -0.11692849979E+02 -0.16178145216E+02  0.96982303685E+02  0.92819850441E+02 0.  0.
         11    1    3    3    0    0  0.35170863552E+02 -0.21576414131E+02  0.27530863635E+02  0.49603223106E+02  0.51100000000E-03 0.  1.
         22    1    1    0    0    0 -0.19788569147E+02  0.11692849979E+02  0.16178145216E+02  0.28107696315E+02  0.00000000000E+00 0.  1.
</event>
<event>
 5    1  0.1044283E-009  0.9118800E+02  0.7815553E-02  0.1125453E+00
         25   -1    0    0    0    0  0.00000000000E+00  0.00000000000E+00  0.99999998245E-14  0.12509000000E+03  0.12509000000E+03 0.  0.
        -11    1    3    3    0    0 -0.31630003279E+02 -0.15760434065E+02  0.32955328434E+02  0.48320824308E+02  0.51100000000E-03 0. -1.
         23    2    1    0    0    0  0.12599796234E+02 -0.20593151406E+02  0.16894096618E+02  0.95624032334E+02  0.90970942115E+02 0.  0.
         11    1    3    3    0    0  0.44229799513E+02 -0.48327173410E+01 -0.16061231816E+02  0.47303208026E+02  0.51100000000E-03 0.  1.
         22    1    1    0    0    0 -0.12599796234E+02  0.20593151406E+02 -0.16894096618E+02  0.29465967666E+02  0.00000000000E+00 0. -1.
</event>
<event>
 5    1  0.1044283E-009  0.9118800E+02  0.7815553E-02  0.1125453E+00
         25   -1    0    0    0    0  0.00000000000E+00  0.00000000000E+00  0.99999998245E-14  0.12509000000E+03  0.12509000000E+03 0.  0.
        -11    1    3    3    0    0  0.10979589052E+02 -0.29017151532E+02 -0.19022914015E+02  0.36392550291E+02  0.51100000000E-03 0. -1.
         23    2    1    0    0    0  0.76631743407E+01 -0.30859904527E+01  0.31093596143E+02  0.92917662517E+02  0.87170136563E+02 0.  0.
         11    1    3    3    0    0 -0.33164147112E+01  0.25931161079E+02  0.50116510158E+02  0.56525112226E+02  0.51100000000E-03 0.  1.
         22    1    1    0    0    0 -0.76631743407E+01  0.30859904527E+01 -0.31093596143E+02  0.32172337483E+02  0.00000000000E+00 0.  1.
</event>
<event>
 5    1  0.1044283E-009  0.9118800E+02  0.7815553E-02  0.1125453E+00
         25   -1    0    0    0    0  0.00000000000E+00  0.00000000000E+00  0.99999998245E-14  0.12509000000E+03  0.12509000000E+03 0.  0.
        -11    1    3    3    0    0  0.22057795816E+02  0.26377111444E+02  0.17150468101E+02  0.38424431301E+02  0.51100000000E-03 0.  1.
         23    2    1    0    0    0 -0.78388131823E+01  0.72645332899E+01 -0.27575108499E+02  0.95516243987E+02  0.90822606330E+02 0.  0.
         11    1    3    3    0    0 -0.29896608999E+02 -0.19112578154E+02 -0.44725576600E+02  0.57091812686E+02  0.51100000000E-03 0. -1.
         22    1    1    0    0    0  0.78388131823E+01 -0.72645332899E+01  0.27575108499E+02  0.29573756013E+02  0.00000000000E+00 0. -1.
</event>
<event>
 5    1  0.1044283E-009  0.9118800E+02  0.7815553E-02  0.1125453E+00
         25   -1    0    0    0    0  0.00000000000E+00  0.00000000000E+00  0.99999998245E-14  0.12509000000E+03  0.12509000000E+03 0.  0.
        -11    1    3    3    0    0  0.19361234352E+02 -0.41212241571E+02 -0.40252435791E+02  0.60774705580E+02  0.51100000000E-03 0.  1.
         23    2    1    0    0    0  0.99096584810E+01 -0.11808936870E+02 -0.26165890997E+02  0.94720505883E+02  0.89719942387E+02 0.  0.
         11    1    3    3    0    0 -0.94515758707E+01  0.29403304701E+02  0.14086544793E+02  0.33945800304E+02  0.51100000000E-03 0. -1.
         22    1    1    0    0    0 -0.99096584810E+01  0.11808936870E+02  0.26165890997E+02  0.30369494117E+02  0.00000000000E+00 0.  1.
</event>
<event>
 5    1  0.1044283E-009  0.9118800E+02  0.7815553E-02  0.1125453E+00
         25   -1    0    0    0    0  0.00000000000E+00  0.00000000000E+00  0.99999998245E-14  0.12509000000E+03  0.12509000000E+03 0.  0.
        -11    1    3    3    0    0 -0.33689583447E+02  0.12922646750E+02  0.29493515405E+02  0.46603114521E+02  0.51100000000E-03 0. -1.
         23    2    1    0    0    0 -0.86920455681E+01  0.23050346931E+02 -0.13229734185E+02  0.97127596376E+02  0.93015450122E+02 0.  0.
         11    1    3    3    0    0  0.24997537879E+02  0.10127700181E+02 -0.42723249590E+02  0.50524481855E+02  0.51100000000E-03 0.  1.
         22    1    1    0    0    0  0.86920455681E+01 -0.23050346931E+02  0.13229734185E+02  0.27962403624E+02  0.00000000000E+00 0.  1.
</event>
<event>
 5    1  0.1044283E-009  0.9118800E+02  0.7815553E-02  0.1125453E+00
         25   -1    0    0    0    0  0.00000000000E+00  0.00000000000E+00  0.99999998245E-14  0.12509000000E+03  0.12509000000E+03 0.  0.
        -11    1    3    3    0    0  0.23117960155E+02 -0.18980341258E+02  0.14218103958E+02  0.33118694365E+02  0.51100000000E-03 0.  1.
         23    2    1    0    0    0 -0.16847089754E+02  0.70393356626E+01 -0.24492068586E+02  0.94541053973E+02  0.89469395790E+02 0.  0.
         11    1    3    3    0    0 -0.39965049908E+02  0.26019676921E+02 -0.38710172544E+02  0.61422359608E+02  0.51100000000E-03 0. -1.
         22    1    1    0    0    0  0.16847089754E+02 -0.70393356626E+01  0.24492068586E+02  0.30548946027E+02  0.00000000000E+00 0. -1.
</event>
<event>
 5    1  0.1044283E-009  0.9118800E+02  0.7815553E-02  0.1125453E+00
         25   -1    0    0    0    0  0.00000000000E+00  0.00000000000E+00  0.99999998245E-14  0.12509000000E+03  0.12509000000E+03 0.  0.
        -11    1    3    3    0    0  0.43051555379E+02 -0.78520392653E+01 -0.39281870183E+02  0.58806090386E+02  0.51100000000E-03 0. -1.
         23    2    1    0    0    0  0.15621514231E+02  0.10156682666E+02 -0.23156686932E+02  0.95367583219E+02  0.90617624498E+02 0.  0.
         11    1    3    3    0    0 -0.27430041148E+02  0.18008721932E+02  0.16125183251E+02  0.36561492832E+02  0.51100000000E-03 0.  1.
         22    1    1    0    0    0 -0.15621514231E+02 -0.10156682666E+02  0.23156686932E+02  0.29722416781E+02  0.00000000000E+00 0. -1.
</event>
<event>
 5    1  0.1044283E-009  0.9118800E+02  0.7815553E-02  0.1125453E+00
         25   -1    0    0    0    0  0.00000000000E+00  0.00000000000E+00  0.99999998245E-14  0.12509000000E+03  0.12509000000E+03 0.  0.
        -11    1    3    3    0    0  0.26417541608E+02 -0.14482579671E+02 -0.12752802412E+02  0.32714913849E+02  0.51100000000E-03 0.  1.
         23    2    1    0    0    0 -0.46156419480E+01 -0.40636203961E+02 -0.27401125892E+02  0.75861685758E+02  0.57719740496E+02 0.  0.
         11    1    3    3    0    0 -0.31033183556E+02 -0.26153624290E+02 -0.14648323480E+02  0.43146771909E+02  0.51100000000E-03 0. -1.
         22    1    1    0    0    0  0.46156419480E+01  0.40636203961E+02  0.27401125892E+02  0.49228314242E+02  0.00000000000E+00 0. -1.
</event>
<event>
 5    1  0.1044283E-009  0.9118800E+02  0.7815553E-02  0.1125453E+00
         25   -1    0    0    0    0  0.00000000000E+00  0.00000000000E+00  0.99999998245E-14  0.12509000000E+03  0.12509000000E+03 0.  0.
        -11    1    3    3    0    0  0.20503026457E+02  0.13293905963E+02  0.37954503795E+02  0.45140296723E+02  0.51100000000E-03 0.  1.
         23    2    1    0    0    0 -0.22850569845E+02 -0.33675732905E+01  0.18507970045E+02  0.95492127656E+02  0.90789384826E+02 0.  0.
         11    1    3    3    0    0 -0.43353596301E+02 -0.16661479253E+02 -0.19446533750E+02  0.50351830933E+02  0.51100000000E-03 0. -1.
         22    1    1    0    0    0  0.22850569845E+02  0.33675732905E+01 -0.18507970045E+02  0.29597872344E+02  0.00000000000E+00 0. -1.
</event>
<event>
 5    1  0.1044283E-009  0.9118800E+02  0.7815553E-02  0.1125453E+00
         25   -1    0    0    0    0  0.00000000000E+00  0.00000000000E+00  0.99999998245E-14  0.12509000000E+03  0.12509000000E+03 0.  0.
        -11    1    3    3    0    0 -0.35115640255E+02  0.45421408031E+01 -0.19615646937E+01  0.35462472698E+02  0.51100000000E-03 0. -1.
         23    2    1    0    0    0  0.16606159743E+02 -0.21869281128E+02  0.11890328272E+02  0.95166599376E+02  0.90339757206E+02 0.  0.
         11    1    3    3    0    0  0.51721799998E+02 -0.26411421931E+02  0.13851892966E+02  0.59704126678E+02  0.51100000000E-03 0.  1.
         22    1    1    0    0    0 -0.16606159743E+02  0.21869281128E+02 -0.11890328272E+02  0.29923400624E+02  0.00000000000E+00 0.  1.
</event>
<event>
 5    1  0.1044283E-009  0.9118800E+02  0.7815553E-02  0.1125453E+00
         25   -1    0    0    0    0  0.00000000000E+00  0.00000000000E+00  0.99999998245E-14  0.12509000000E+03  0.12509000000E+03 0.  0.
        -11    1    3    3    0    0  0.44073854012E+02  0.68941499329E+01  0.28755512030E+02  0.53074602054E+02  0.51100000000E-03 0.  1.
         23    2    1    0    0    0  0.17937205015E+02  0.10747637415E+01 -0.13162888030E+02  0.10281534934E+03  0.10037348254E+03 0.  0.
         11    1    3    3    0    0 -0.26136648997E+02 -0.58193861914E+01 -0.41918400060E+02  0.49740747284E+02  0.51100000000E-03 0. -1.
         22    1    1    0    0    0 -0.17937205015E+02 -0.10747637415E+01  0.13162888030E+02  0.22274650663E+02  0.00000000000E+00 0. -1.
</event>
<event>
 5    1  0.1044283E-009  0.9118800E+02  0.7815553E-02  0.1125453E+00
         25   -1    0    0    0    0  0.00000000000E+00  0.00000000000E+00  0.99999998245E-14  0.12509000000E+03  0.12509000000E+03 0.  0.
        -11    1    3    3    0    0 -0.21313767253E+02  0.18613686706E+02 -0.55263688943E+02  0.62087207404E+02  0.51100000000E-03 0. -1.
         23    2    1    0    0    0 -0.13292158416E+02  0.11326730991E+02 -0.22429610192E+02  0.96663538319E+02  0.92389262995E+02 0.  0.
         11    1    3    3    0    0  0.80216088376E+01 -0.72869557143E+01  0.32834078751E+02  0.34576330916E+02  0.51100000000E-03 0.  1.
         22    1    1    0    0    0  0.13292158416E+02 -0.11326730991E+02  0.22429610192E+02  0.28426461681E+02  0.00000000000E+00 0. -1.
</event>
<event>
 5    1  0.1044283E-009  0.9118800E+02  0.7815553E-02  0.1125453E+00
         25   -1    0    0    0    0  0.00000000000E+00  0.00000000000E+00  0.99999998245E-14  0.12509000000E+03  0.12509000000E+03 0.  0.
        -11    1    3    3    0    0  0.56364757123E+01 -0.34269669047E+02  0.13327283512E+02  0.37199416140E+02  0.51100000000E-03 0. -1.
         23    2    1    0    0    0  0.80993625169E+01  0.24979522709E+02 -0.28748318898E+01  0.98673321815E+02  0.95071465496E+02 0.  0.
         11    1    3    3    0    0  0.24628868046E+01  0.59249191756E+02 -0.16202115401E+02  0.61473905675E+02  0.51100000000E-03 0.  1.
         22    1    1    0    0    0 -0.80993625169E+01 -0.24979522709E+02  0.28748318898E+01  0.26416678185E+02  0.00000000000E+00 0.  1.
</event>
<event>
 5    1  0.1044283E-009  0.9118800E+02  0.7815553E-02  0.1125453E+00
         25   -1    0    0    0    0  0.00000000000E+00  0.00000000000E+00  0.99999998245E-14  0.12509000000E+03  0.12509000000E+03 0.  0.
        -11    1    3    3    0    0  0.20421872544E+02 -0.26835589556E+02  0.52669154432E+02  0.62539919842E+02  0.51100000000E-03 0. -1.
         23    2    1    0    0    0  0.10280390613E+02 -0.14294784293E+02  0.28047336267E+02  0.91973835355E+02  0.85805046641E+02 0.  0.
         11    1    3    3    0    0 -0.10141481931E+02  0.12540805263E+02 -0.24621818165E+02  0.29433915513E+02  0.51100000000E-03 0.  1.
         22    1    1    0    0    0 -0.10280390613E+02  0.14294784293E+02 -0.28047336267E+02  0.33116164645E+02  0.00000000000E+00 0. -1.
</event>
<event>
 5    1  0.1044283E-009  0.9118800E+02  0.7815553E-02  0.1125453E+00
         25   -1    0    0    0    0  0.00000000000E+00  0.00000000000E+00  0.99999998245E-14  0.12509000000E+03  0.12509000000E+03 0.  0.
        -11    1    3    3    0    0  0.83378334850E+00  0.48760545436E+01 -0.50331011780E+02  0.50573529139E+02  0.51100000000E-03 0.  1.
         23    2    1    0    0    0  0.24097805576E+02 -0.57825718646E+01 -0.99386771747E+01  0.98389444296E+02  0.94697217878E+02 0.  0.
         11    1    3    3    0    0  0.23264022227E+02 -0.10658626408E+02  0.40392334605E+02  0.47815915156E+02  0.51100000000E-03 0. -1.
         22    1    1    0    0    0 -0.24097805576E+02  0.57825718646E+01  0.99386771747E+01  0.26700555704E+02  0.00000000000E+00 0. -1.
</event>
<event>
 5    1  0.1044283E-009  0.9118800E+02  0.7815553E-02  0.1125453E+00
         25   -1    0    0    0    0  0.00000000000E+00  0.00000000000E+00  0.99999998245E-14  0.12509000000E+03  0.12509000000E+03 0.  0.
        -11    1    3    3    0    0  0.95964470416E+01 -0.40947580193E+02 -0.76513734957E+01  0.42747393326E+02  0.51100000000E-03 0.  1.
         23    2    1    0    0    0 -0.17905927357E+02 -0.10318518502E+02  0.23073816492E+02  0.94114282638E+02  0.88870710194E+02 0.  0.
         11    1    3    3    0    0 -0.27502374399E+02  0.30629061691E+02  0.30725189987E+02  0.51366889313E+02  0.51100000000E-03 0. -1.
         22    1    1    0    0    0  0.17905927357E+02  0.10318518502E+02 -0.23073816492E+02  0.30975717362E+02  0.00000000000E+00 0. -1.
</event>
<event>
 5    1  0.1044283E-009  0.9118800E+02  0.7815553E-02  0.1125453E+00
         25   -1    0    0    0    0  0.00000000000E+00  0.00000000000E+00  0.99999998245E-14  0.12509000000E+03  0.12509000000E+03 0.  0.
        -11    1    3    3    0    0  0.46382656210E+02  0.27869181536E+02 -0.16926704183E+02  0.56697049230E+02  0.51100000000E-03 0. -1.
         23    2    1    0    0    0  0.11309896041E+02  0.83905778008E+01 -0.23834425603E+02  0.97406152938E+02  0.93389310106E+02 0.  0.
         11    1    3    3    0    0 -0.35072760168E+02 -0.19478603736E+02 -0.69077214200E+01  0.40709103709E+02  0.51100000000E-03 0.  1.
         22    1    1    0    0    0 -0.11309896041E+02 -0.83905778008E+01  0.23834425603E+02  0.27683847062E+02  0.00000000000E+00 0. -1.
</event>
<event>
 5    1  0.1044283E-009  0.9118800E+02  0.7815553E-02  0.1125453E+00
         25   -1    0    0    0    0  0.00000000000E+00  0.00000000000E+00  0.99999998245E-14  0.12509000000E+03  0.12509000000E+03 0.  0.
        -11    1    3    3    0    0 -0.28902735676E+02  0.44094884621E+02  0.75549195283E+01  0.53261654017E+02  0.51100000000E-03 0.  1.
         23    2    1    0    0    0 -0.31099717947E+02  0.65354268551E+01 -0.49899647128E+01  0.92921630312E+02  0.87175830202E+02 0.  0.
         11    1    3    3    0    0 -0.21969822708E+01 -0.37559457766E+02 -0.12544884241E+02  0.39659976294E+02  0.51100000000E-03 0. -1.
         22    1    1    0    0    0  0.31099717947E+02 -0.65354268551E+01  0.49899647128E+01  0.32168369688E+02  0.00000000000E+00 0.  1.
</event>
<event>
 5    1  0.1044283E-009  0.9118800E+02  0.7815553E-02  0.1125453E+00
         25   -1    0    0    0    0  0.00000000000E+00  0.00000000000E+00  0.99999998245E-14  0.12509000000E+03  0.12509000000E+03 0.  0.
        -11    1    3    3    0    0  0.26422021067E+02 -0.41881435581E+01 -0.39787814528E+02  0.47945113713E+02  0.51100000000E-03 0.  1.
         23    2    1    0    0    0 -0.17852118289E+02 -0.54766286469E+00 -0.24176078648E+02  0.95032041972E+02  0.90153248198E+02 0.  0.
         11    1    3    3    0    0 -0.44274139357E+02  0.36404806935E+01  0.15611735880E+02  0.47086928259E+02  0.51100000000E-03 0. -1.
         22    1    1    0    0    0  0.17852118289E+02  0.54766286469E+00  0.24176078648E+02  0.30057958028E+02  0.00000000000E+00 0. -1.
</event>
<event>
 5    1  0.1044283E-009  0.9118800E+02  0.7815553E-02  0.1125453E+00
         25   -1    0    0    0    0  0.00000000000E+00  0.00000000000E+00  0.99999998245E-14  0.12509000000E+03  0.12509000000E+03 0.  0.
        -11    1    3    3    0    0 -0.38436621325E+02 -0.22277256810E+02 -0.31383440308E+02  0.54392741756E+02  0.51100000000E-03 0. -1.
         23    2    1    0    0    0 -0.92240545189E+01 -0.27062728798E+02 -0.14947714991E+01  0.96459442660E+02  0.92112514159E+02 0.  0.
         11    1    3    3    0    0  0.29212566806E+02 -0.47854719874E+01  0.29888668809E+02  0.42066700904E+02  0.51100000000E-03 0.  1.
         22    1    1    0    0    0  0.92240545189E+01  0.27062728798E+02  0.14947714991E+01  0.28630557340E+02  0.00000000000E+00 0.  1.
</event>
<event>
 5    1  0.1044283E-009  0.9118800E+02  0.7815553E-02  0.1125453E+00
         25   -1    0    0    0    0  0.00000000000E+00  0.00000000000E+00  0.99999998245E-14  0.12509000000E+03  0.12509000000E+03 0.  0.
        -11    1    3    3    0    0  0.21303422388E+02 -0.35779049053E+02 -0.68351263615E+01  0.42198283249E+02  0.51100000000E-03 0. -1.
         23    2    1    0    0    0  0.10517692404E+02  0.47622782989E+01  0.26761238011E+02  0.95944417008E+02  0.91410426905E+02 0.  0.
         11    1    3    3    0    0 -0.10785729984E+02  0.40541327352E+02  0.33596364372E+02  0.53746133759E+02  0.51100000000E-03 0.  1.
         22    1    1    0    0    0 -0.10517692404E+02 -0.47622782989E+01 -0.26761238011E+02  0.29145582992E+02  0.00000000000E+00 0.  1.
</event>
<event>
 5    1  0.1044283E-009  0.9118800E+02  0.7815553E-02  0.1125453E+00
         25   -1    0    0    0    0  0.00000000000E+00  0.00000000000E+00  0.99999998245E-14  0.12509000000E+03  0.12509000000E+03 0.  0.
        -11    1    3    3    0    0  0.11960374394E+02  0.45544496170E+02  0.40074760232E+02  0.61833147218E+02  0.51100000000E-03 0.  1.
         23    2    1    0    0    0  0.35349647595E+01  0.25215538935E+02  0.13721746315E+02  0.96165862994E+02  0.91712962572E+02 0.  0.
         11    1    3    3    0    0 -0.84254096343E+01 -0.20328957235E+02 -0.26353013916E+02  0.34332715775E+02  0.51100000000E-03 0. -1.
         22    1    1    0    0    0 -0.35349647595E+01 -0.25215538935E+02 -0.13721746315E+02  0.28924137006E+02  0.00000000000E+00 0.  1.
</event>
<event>
 5    1  0.1044283E-009  0.9118800E+02  0.7815553E-02  0.1125453E+00
         25   -1    0    0    0    0  0.00000000000E+00  0.00000000000E+00  0.99999998245E-14  0.12509000000E+03  0.12509000000E+03 0.  0.
        -11    1    3    3    0    0  0.39445361919E+02  0.21072771755E+02  0.24174084818E+02  0.50836843562E+02  0.51100000000E-03 0. -1.
         23    2    1    0    0    0  0.10135462406E+02  0.18771875450E+02 -0.14410243519E+02  0.99345757452E+02  0.95952141713E+02 0.  0.
         11    1    3    3    0    0 -0.29309899512E+02 -0.23008963047E+01 -0.38584328337E+02  0.48508913890E+02  0.51100000000E-03 0.  1.
         22    1    1    0    0    0 -0.10135462406E+02 -0.18771875450E+02  0.14410243519E+02  0.25744242548E+02  0.00000000000E+00 0.  1.
</event>
<event>
 5    1  0.1044283E-009  0.9118800E+02  0.7815553E-02  0.1125453E+00
         25   -1    0    0    0    0  0.00000000000E+00  0.00000000000E+00  0.99999998245E-14  0.12509000000E+03  0.12509000000E+03 0.  0.
        -11    1    3    3    0    0  0.35778984857E+02  0.15692121168E+02  0.44156107689E+02  0.58958801469E+02  0.51100000000E-03 0. -1.
         23    2    1    0    0    0  0.19034827532E+02 -0.75036279931E+01  0.21075537763E+02  0.95716416898E+02  0.91097887350E+02 0.  0.
         11    1    3    3    0    0 -0.16744157325E+02 -0.23195749161E+02 -0.23080569926E+02  0.36757615429E+02  0.51100000000E-03 0.  1.
         22    1    1    0    0    0 -0.19034827532E+02  0.75036279931E+01 -0.21075537763E+02  0.29373583102E+02  0.00000000000E+00 0. -1.
</event>
<event>
 5    1  0.1044283E-009  0.9118800E+02  0.7815553E-02  0.1125453E+00
         25   -1    0    0    0    0  0.00000000000E+00  0.00000000000E+00  0.99999998245E-14  0.12509000000E+03  0.12509000000E+03 0.  0.
        -11    1    3    3    0    0  0.19198649212E+02 -0.33583446122E+02 -0.30860288037E+02  0.49485284307E+02  0.51100000000E-03 0.  1.
         23    2    1    0    0    0 -0.18160592311E+02 -0.23223904540E+02 -0.78000057171E+01  0.94594148735E+02  0.89543598490E+02 0.  0.
         11    1    3    3    0    0 -0.37359241523E+02  0.10359541582E+02  0.23060282320E+02  0.45108864427E+02  0.51100000000E-03 0. -1.
         22    1    1    0    0    0  0.18160592311E+02  0.23223904540E+02  0.78000057171E+01  0.30495851265E+02  0.00000000000E+00 0. -1.
</event>
<event>
 5    1  0.1044283E-009  0.9118800E+02  0.7815553E-02  0.1125453E+00
         25   -1    0    0    0    0  0.00000000000E+00  0.00000000000E+00  0.99999998245E-14  0.12509000000E+03  0.12509000000E+03 0.  0.
        -11    1    3    3    0    0  0.40646525505E+02 -0.35744066020E+02 -0.96332913332E+01  0.54977982806E+02  0.51100000000E-03 0. -1.
         23    2    1    0    0    0  0.31108673021E+01 -0.23978878690E+02 -0.17688906171E+02  0.95130668897E+02  0.90289991941E+02 0.  0.
         11    1    3    3    0    0 -0.37535658203E+02  0.11765187330E+02 -0.80556148380E+01  0.40152686091E+02  0.51100000000E-03 0.  1.
         22    1    1    0    0    0 -0.31108673021E+01  0.23978878690E+02  0.17688906171E+02  0.29959331103E+02  0.00000000000E+00 0. -1.
</event>
<event>
 5    1  0.1044283E-009  0.9118800E+02  0.7815553E-02  0.1125453E+00
         25   -1    0    0    0    0  0.00000000000E+00  0.00000000000E+00  0.99999998245E-14  0.12509000000E+03  0.12509000000E+03 0.  0.
        -11    1    3    3    0    0  0.42293646392E+02  0.64659593400E+01  0.35808769575E+02  0.55792733704E+02  0.51100000000E-03 0.  1.
         23    2    1    0    0    0  0.28251824026E+02 -0.39475840576E+01 -0.10044999741E+01  0.96546033897E+02  0.92230031228E+02 0.  0.
         11    1    3    3    0    0 -0.14041822366E+02 -0.10413543398E+02 -0.36813269549E+02  0.40753300193E+02  0.51100000000E-03 0. -1.
         22    1    1    0    0    0 -0.28251824026E+02  0.39475840576E+01  0.10044999741E+01  0.28543966103E+02  0.00000000000E+00 0.  1.
</event>
<event>
 5    1  0.1044283E-009  0.9118800E+02  0.7815553E-02  0.1125453E+00
         25   -1    0    0    0    0  0.00000000000E+00  0.00000000000E+00  0.99999998245E-14  0.12509000000E+03  0.12509000000E+03 0.  0.
        -11    1    3    3    0    0  0.35202977696E+02  0.36232288708E+01 -0.20050998890E+02  0.40674561865E+02  0.51100000000E-03 0.  1.
         23    2    1    0    0    0  0.89406634631E+00 -0.29762176155E+02  0.53032452856E+01  0.94845812217E+02  0.89894478142E+02 0.  0.
         11    1    3    3    0    0 -0.34308911350E+02 -0.33385405026E+02  0.25354244176E+02  0.54171250352E+02  0.51100000000E-03 0. -1.
         22    1    1    0    0    0 -0.89406634631E+00  0.29762176155E+02 -0.53032452856E+01  0.30244187783E+02  0.00000000000E+00 0. -1.
</event>
<event>
 5    1  0.1044283E-009  0.9118800E+02  0.7815553E-02  0.1125453E+00
         25   -1    0    0    0    0  0.00000000000E+00  0.00000000000E+00  0.99999998245E-14  0.12509000000E+03  0.12509000000E+03 0.  0.
        -11    1    3    3    0    0 -0.57724340169E+01 -0.47097174591E+01 -0.46703500283E+02  0.47293967606E+02  0.51100000000E-03 0. -1.
         23    2    1    0    0    0 -0.11035814942E+02 -0.27050991338E+02 -0.42338177185E+01  0.95569319854E+02  0.90895678341E+02 0.  0.
         11    1    3    3    0    0 -0.52633809251E+01 -0.22341273879E+02  0.42469682564E+02  0.48275352248E+02  0.51100000000E-03 0.  1.
         22    1    1    0    0    0  0.11035814942E+02  0.27050991338E+02  0.42338177185E+01  0.29520680146E+02  0.00000000000E+00 0. -1.
</event>
<event>
 5    1  0.1044283E-009  0.9118800E+02  0.7815553E-02  0.1125453E+00
         25   -1    0    0    0    0  0.00000000000E+00  0.00000000000E+00  0.99999998245E-14  0.12509000000E+03  0.12509000000E+03 0.  0.
        -11    1    3    3    0    0 -0.12609271318E+02 -0.32610979691E+02 -0.29326611173E+00  0.34965064347E+02  0.51100000000E-03 0. -1.
         23    2    1    0    0    0  0.22520387549E+02 -0.10196291935E+02  0.29803154232E+02  0.86368426855E+02  0.77201974914E+02 0.  0.
         11    1    3    3    0    0  0.35129658867E+02  0.22414687756E+02  0.30096420344E+02  0.51403362508E+02  0.51100000000E-03 0.  1.
         22    1    1    0    0    0 -0.22520387549E+02  0.10196291935E+02 -0.29803154232E+02  0.38721573145E+02  0.00000000000E+00 0. -1.
</event>
<event>
 5    1  0.1044283E-009  0.9118800E+02  0.7815553E-02  0.1125453E+00
         25   -1    0    0    0    0  0.00000000000E+00  0.00000000000E+00  0.99999998245E-14  0.12509000000E+03  0.12509000000E+03 0.  0.
        -11    1    3    3    0    0 -0.15848105890E+02  0.55057074508E+02  0.20950645676E+02  0.61003061137E+02  0.51100000000E-03 0.  1.
         23    2    1    0    0    0 -0.10663675987E+02  0.26167693126E+02  0.40567070965E+00  0.96830015608E+02  0.92614389837E+02 0.  0.
         11    1    3    3    0    0  0.51844299037E+01 -0.28889381382E+02 -0.20544974966E+02  0.35826954471E+02  0.51100000000E-03 0. -1.
         22    1    1    0    0    0  0.10663675987E+02 -0.26167693126E+02 -0.40567070965E+00  0.28259984392E+02  0.00000000000E+00 0.  1.
</event>
<event>
 5    1  0.1044283E-009  0.9118800E+02  0.7815553E-02  0.1125453E+00
         25   -1    0    0    0    0  0.00000000000E+00  0.00000000000E+00  0.99999998245E-14  0.12509000000E+03  0.12509000000E+03 0.  0.
        -11    1    3    3    0    0  0.28290925133E+02  0.27970917074E+02  0.73584996392E+01  0.40458573431E+02  0.51100000000E-03 0.  1.
         23    2    1    0    0    0 -0.10277489428E+01  0.21720324747E+01 -0.30290439122E+02  0.94704399872E+02  0.89697484134E+02 0.  0.
         11    1    3    3    0    0 -0.29318674076E+02 -0.25798884600E+02 -0.37648938761E+02  0.54245826441E+02  0.51100000000E-03 0. -1.
         22    1    1    0    0    0  0.10277489428E+01 -0.21720324747E+01  0.30290439122E+02  0.30385600128E+02  0.00000000000E+00 0.  1.
</event>
<event>
 5    1  0.1044283E-009  0.9118800E+02  0.7815553E-02  0.1125453E+00
         25   -1    0    0    0    0  0.00000000000E+00  0.00000000000E+00  0.99999998245E-14  0.12509000000E+03  0.12509000000E+03 0.  0.
        -11    1    3    3    0    0 -0.29885326461E+02  0.19911559674E+01 -0.64090928392E+01  0.30629624729E+02  0.51100000000E-03 0. -1.
         23    2    1    0    0    0  0.18516796803E+02 -0.25525123577E+02  0.14859067194E+02  0.90230344590E+02  0.83224512671E+02 0.  0.
         11    1    3    3    0    0  0.48402123264E+02 -0.27516279544E+02  0.21268160033E+02  0.59600719861E+02  0.51100000000E-03 0.  1.
         22    1    1    0    0    0 -0.18516796803E+02  0.25525123577E+02 -0.14859067194E+02  0.34859655410E+02  0.00000000000E+00 0.  1.
</event>
<event>
 5    1  0.1044283E-009  0.9118800E+02  0.7815553E-02  0.1125453E+00
         25   -1    0    0    0    0  0.00000000000E+00  0.00000000000E+00  0.99999998245E-14  0.12509000000E+03  0.12509000000E+03 0.  0.
        -11    1    3    3    0    0 -0.42276063010E+01 -0.51682280426E+02 -0.15850214917E+02  0.54223242970E+02  0.51100000000E-03 0.  1.
         23    2    1    0    0    0 -0.94039314333E+01 -0.26271152794E+02  0.14088169155E+02  0.93831658623E+02  0.88472008309E+02 0.  0.
         11    1    3    3    0    0 -0.51763251323E+01  0.25411127632E+02  0.29938384072E+02  0.39608415652E+02  0.51100000000E-03 0. -1.
         22    1    1    0    0    0  0.94039314333E+01  0.26271152794E+02 -0.14088169155E+02  0.31258341377E+02  0.00000000000E+00 0.  1.
</event>
<event>
 5    1  0.1044283E-009  0.9118800E+02  0.7815553E-02  0.1125453E+00
         25   -1    0    0    0    0  0.00000000000E+00  0.00000000000E+00  0.99999998245E-14  0.12509000000E+03  0.12509000000E+03 0.  0.
        -11    1    3    3    0    0  0.56927244830E+01 -0.20254793765E+02  0.29391668642E+02  0.36146009023E+02  0.51100000000E-03 0.  1.
         23    2    1    0    0    0  0.11403215547E+01 -0.11440363845E+02 -0.28226422983E+02  0.94611922426E+02  0.89568424417E+02 0.  0.
         11    1    3    3    0    0 -0.45524029283E+01  0.88144299200E+01 -0.57618091625E+02  0.58465913403E+02  0.51100000000E-03 0. -1.
         22    1    1    0    0    0 -0.11403215547E+01  0.11440363845E+02  0.28226422983E+02  0.30478077574E+02  0.00000000000E+00 0. -1.
</event>
<event>
 5    1  0.1044283E-009  0.9118800E+02  0.7815553E-02  0.1125453E+00
         25   -1    0    0    0    0  0.00000000000E+00  0.00000000000E+00  0.99999998245E-14  0.12509000000E+03  0.12509000000E+03 0.  0.
        -11    1    3    3    0    0  0.30999070957E+02 -0.28944647573E+02  0.14217840550E+02  0.44731219673E+02  0.51100000000E-03 0. -1.
         23    2    1    0    0    0  0.21150774606E+02  0.19000690716E+02 -0.27265354165E+01  0.96527515698E+02  0.92204911893E+02 0.  0.
         11    1    3    3    0    0 -0.98482963504E+01  0.47945338289E+02 -0.16944375966E+02  0.51796296024E+02  0.51100000000E-03 0.  1.
         22    1    1    0    0    0 -0.21150774606E+02 -0.19000690716E+02  0.27265354165E+01  0.28562484302E+02  0.00000000000E+00 0.  1.
</event>
<event>
 5    1  0.1044283E-009  0.9118800E+02  0.7815553E-02  0.1125453E+00
         25   -1    0    0    0    0  0.00000000000E+00  0.00000000000E+00  0.99999998245E-14  0.12509000000E+03  0.12509000000E+03 0.  0.
        -11    1    3    3    0    0 -0.35107215750E+01  0.32079624574E+02 -0.11643045826E+02  0.34307258637E+02  0.51100000000E-03 0. -1.
         23    2    1    0    0    0  0.19579579316E+02 -0.17464339757E+02  0.14734014637E+02  0.94999232701E+02  0.90107712972E+02 0.  0.
         11    1    3    3    0    0  0.23090300892E+02 -0.49543964331E+02  0.26377060463E+02  0.60691974064E+02  0.51100000000E-03 0.  1.
         22    1    1    0    0    0 -0.19579579316E+02  0.17464339757E+02 -0.14734014637E+02  0.30090767299E+02  0.00000000000E+00 0.  1.
</event>
<event>
 5    1  0.1044283E-009  0.9118800E+02  0.7815553E-02  0.1125453E+00
         25   -1    0    0    0    0  0.00000000000E+00  0.00000000000E+00  0.99999998245E-14  0.12509000000E+03  0.12509000000E+03 0.  0.
        -11    1    3    3    0    0  0.14612579917E+02  0.57824571713E+02 -0.50392299680E+01  0.59854844621E+02  0.51100000000E-03 0.  1.
         23    2    1    0    0    0  0.14401545265E+02  0.19403700197E+02 -0.10648486650E+02  0.98683592534E+02  0.95084978204E+02 0.  0.
         11    1    3    3    0    0 -0.21103465219E+00 -0.38420871516E+02 -0.56092566819E+01  0.38828747913E+02  0.51100000000E-03 0. -1.
         22    1    1    0    0    0 -0.14401545265E+02 -0.19403700197E+02  0.10648486650E+02  0.26406407466E+02  0.00000000000E+00 0.  1.
</event>
<event>
 5    1  0.1044283E-009  0.9118800E+02  0.7815553E-02  0.1125453E+00
         25   -1    0    0    0    0  0.00000000000E+00  0.00000000000E+00  0.99999998245E-14  0.12509000000E+03  0.12509000000E+03 0.  0.
        -11    1    3    3    0    0 -0.29178510767E+02  0.27344621683E+02 -0.31513299535E+02  0.50913670791E+02  0.51100000000E-03 0.  1.
         23    2    1    0    0    0 -0.33114710904E+01  0.29205713416E+02  0.45639672007E+01  0.95344927576E+02  0.90586344892E+02 0.  0.
         11    1    3    3    0    0  0.25867039676E+02  0.18610917325E+01  0.36077266736E+02  0.44431256785E+02  0.51100000000E-03 0. -1.
         22    1    1    0    0    0  0.33114710904E+01 -0.29205713416E+02 -0.45639672007E+01  0.29745072424E+02  0.00000000000E+00 0.  1.
</event>
<event>
 5    1  0.1044283E-009  0.9118800E+02  0.7815553E-02  0.1125453E+00
         25   -1    0    0    0    0  0.00000000000E+00  0.00000000000E+00  0.99999998245E-14  0.12509000000E+03  0.12509000000E+03 0.  0.
        -11    1    3    3    0    0  0.26902639182E+02  0.55681295270E+00 -0.21887897283E+02  0.34686338569E+02  0.51100000000E-03 0.  1.
         23    2    1    0    0    0 -0.25468131109E+02 -0.99610790868E+01  0.88888830278E+01  0.96334808464E+02  0.91943103502E+02 0.  0.
         11    1    3    3    0    0 -0.52370770291E+02 -0.10517892039E+02  0.30776780311E+02  0.61648469895E+02  0.51100000000E-03 0. -1.
         22    1    1    0    0    0  0.25468131109E+02  0.99610790868E+01 -0.88888830278E+01  0.28755191536E+02  0.00000000000E+00 0. -1.
</event>
<event>
 5    1  0.1044283E-009  0.9118800E+02  0.7815553E-02  0.1125453E+00
         25   -1    0    0    0    0  0.00000000000E+00  0.00000000000E+00  0.99999998245E-14  0.12509000000E+03  0.12509000000E+03 0.  0.
        -11    1    3    3    0    0  0.23878841972E+02  0.22998739782E+01  0.42420046697E+02  0.48733447202E+02  0.51100000000E-03 0. -1.
         23    2    1    0    0    0  0.18032800794E+02 -0.22016887207E+02  0.16249678259E+01  0.96584461114E+02  0.92282134682E+02 0.  0.
         11    1    3    3    0    0 -0.58460411781E+01 -0.24316761185E+02 -0.40795078871E+02  0.47851013911E+02  0.51100000000E-03 0.  1.
         22    1    1    0    0    0 -0.18032800794E+02  0.22016887207E+02 -0.16249678259E+01  0.28505538886E+02  0.00000000000E+00 0. -1.
</event>
<event>
 5    1  0.1044283E-009  0.9118800E+02  0.7815553E-02  0.1125453E+00
         25   -1    0    0    0    0  0.00000000000E+00  0.00000000000E+00  0.99999998245E-14  0.12509000000E+03  0.12509000000E+03 0.  0.
        -11    1    3    3    0    0  0.17110701858E+02 -0.44271225257E+02  0.15469966658E+01  0.47488005883E+02  0.51100000000E-03 0. -1.
         23    2    1    0    0    0 -0.23221464704E+02 -0.18286713226E+02 -0.78003677464E+00  0.95522302068E+02  0.90830949744E+02 0.  0.
         11    1    3    3    0    0 -0.40332166562E+02  0.25984512031E+02 -0.23270334404E+01  0.48034296185E+02  0.51100000000E-03 0.  1.
         22    1    1    0    0    0  0.23221464704E+02  0.18286713226E+02  0.78003677464E+00  0.29567697932E+02  0.00000000000E+00 0.  1.
</event>
<event>
 5    1  0.1044283E-009  0.9118800E+02  0.7815553E-02  0.1125453E+00
         25   -1    0    0    0    0  0.00000000000E+00  0.00000000000E+00  0.99999998245E-14  0.12509000000E+03  0.12509000000E+03 0.  0.
        -11    1    3    3    0    0 -0.44063981646E+02  0.37991031879E+02  0.96719733665E+01  0.58978810185E+02  0.51100000000E-03 0. -1.
         23    2    1    0    0    0 -0.30515931017E+02  0.13743272777E+02 -0.63216228353E+01  0.91030309636E+02  0.84418331923E+02 0.  0.
         11    1    3    3    0    0  0.13548050629E+02 -0.24247759102E+02 -0.15993596202E+02  0.32051499451E+02  0.51100000000E-03 0.  1.
         22    1    1    0    0    0  0.30515931017E+02 -0.13743272777E+02  0.63216228353E+01  0.34059690364E+02  0.00000000000E+00 0. -1.
</event>
<event>
 5    1  0.1044283E-009  0.9118800E+02  0.7815553E-02  0.1125453E+00
         25   -1    0    0    0    0  0.00000000000E+00  0.00000000000E+00  0.99999998245E-14  0.12509000000E+03  0.12509000000E+03 0.  0.
        -11    1    3    3    0    0  0.51787779024E+02  0.92720235013E+01  0.26437469398E+02  0.58880253604E+02  0.51100000000E-03 0. -1.
         23    2    1    0    0    0  0.17128519778E+02  0.46912927600E+01  0.25702701959E+02  0.93848628302E+02  0.88495998377E+02 0.  0.
         11    1    3    3    0    0 -0.34659259246E+02 -0.45807307413E+01 -0.73476743844E+00  0.34968374698E+02  0.51100000000E-03 0.  1.
         22    1    1    0    0    0 -0.17128519778E+02 -0.46912927600E+01 -0.25702701959E+02  0.31241371698E+02  0.00000000000E+00 0. -1.
</event>
<event>
 5    1  0.1044283E-009  0.9118800E+02  0.7815553E-02  0.1125453E+00
         25   -1    0    0    0    0  0.00000000000E+00  0.00000000000E+00  0.99999998245E-14  0.12509000000E+03  0.12509000000E+03 0.  0.
        -11    1    3    3    0    0  0.25126006627E+02 -0.37999517157E+00  0.55958894285E+02  0.61342142571E+02  0.51100000000E-03 0.  1.
         23    2    1    0    0    0  0.17327179838E+02  0.55870686511E+01  0.22863991661E+02  0.95863152549E+02  0.91299153363E+02 0.  0.
         11    1    3    3    0    0 -0.77988267887E+01  0.59670638227E+01 -0.33094902624E+02  0.34521009978E+02  0.51100000000E-03 0. -1.
         22    1    1    0    0    0 -0.17327179838E+02 -0.55870686511E+01 -0.22863991661E+02  0.29226847451E+02  0.00000000000E+00 0.  1.
</event>
<event>
 5    1  0.1044283E-009  0.9118800E+02  0.7815553E-02  0.1125453E+00
         25   -1    0    0    0    0  0.00000000000E+00  0.00000000000E+00  0.99999998245E-14  0.12509000000E+03  0.12509000000E+03 0.  0.
        -11    1    3    3    0    0 -0.12773612520E+02 -0.16081150659E+02  0.28087157876E+02  0.34794496995E+02  0.51100000000E-03 0. -1.
         23    2    1    0    0    0 -0.84821898768E+01  0.16840409111E+02 -0.22768159633E+02  0.95527591147E+02  0.90838233433E+02 0.  0.
         11    1    3    3    0    0  0.42914226428E+01  0.32921559771E+02 -0.50855317509E+02  0.60733094152E+02  0.51100000000E-03 0.  1.
         22    1    1    0    0    0  0.84821898768E+01 -0.16840409111E+02  0.22768159633E+02  0.29562408853E+02  0.00000000000E+00 0.  1.
</event>
<event>
 5    1  0.1044283E-009  0.9118800E+02  0.7815553E-02  0.1125453E+00
         25   -1    0    0    0    0  0.00000000000E+00  0.00000000000E+00  0.99999998245E-14  0.12509000000E+03  0.12509000000E+03 0.  0.
        -11    1    3    3    0    0  0.18481960708E+02  0.33688307052E+02  0.13768572972E+02  0.40817379945E+02  0.51100000000E-03 0.  1.
         23    2    1    0    0    0  0.16867384725E+02 -0.97718401915E+01 -0.20955571899E+02  0.96469491237E+02  0.92126159248E+02 0.  0.
         11    1    3    3    0    0 -0.16145759822E+01 -0.43460147244E+02 -0.34724144871E+02  0.55652111292E+02  0.51100000000E-03 0. -1.
         22    1    1    0    0    0 -0.16867384725E+02  0.97718401915E+01  0.20955571899E+02  0.28620508763E+02  0.00000000000E+00 0. -1.
</event>
<event>
 5    1  0.1044283E-009  0.9118800E+02  0.7815553E-02  0.1125453E+00
         25   -1    0    0    0    0  0.00000000000E+00  0.00000000000E+00  0.99999998245E-14  0.12509000000E+03  0.12509000000E+03 0.  0.
        -11    1    3    3    0    0  0.24428300659E+02 -0.33672873032E+02 -0.28152465525E+02  0.50231121495E+02  0.51100000000E-03 0.  1.
         23    2    1    0    0    0  0.27645316892E+02  0.63376238991E+01 -0.59208627403E+01  0.96116121449E+02  0.91645093508E+02 0.  0.
         11    1    3    3    0    0  0.32170162328E+01  0.40010496931E+02  0.22231602785E+02  0.45884999953E+02  0.51100000000E-03 0. -1.
         22    1    1    0    0    0 -0.27645316892E+02 -0.63376238991E+01  0.59208627403E+01  0.28973878551E+02  0.00000000000E+00 0. -1.
</event>
<event>
 5    1  0.1044283E-009  0.9118800E+02  0.7815553E-02  0.1125453E+00
         25   -1    0    0    0    0  0.00000000000E+00  0.00000000000E+00  0.99999998245E-14  0.12509000000E+03  0.12509000000E+03 0.  0.
        -11    1    3    3    0    0  0.31199799768E+02  0.18030921942E+02 -0.50114868327E+02  0.61725535067E+02  0.51100000000E-03 0. -1.
         23    2    1    0    0    0  0.11502235846E+02  0.30189925286E+01 -0.26934026734E+02  0.95647555444E+02  0.91003281924E+02 0.  0.
         11    1    3    3    0    0 -0.19697563922E+02 -0.15011929413E+02  0.23180841593E+02  0.33922020376E+02  0.51100000000E-03 0.  1.
         22    1    1    0    0    0 -0.11502235846E+02 -0.30189925286E+01  0.26934026734E+02  0.29442444556E+02  0.00000000000E+00 0. -1.
</event>
<event>
 5    1  0.1044283E-009  0.9118800E+02  0.7815553E-02  0.1125453E+00
         25   -1    0    0    0    0  0.00000000000E+00  0.00000000000E+00  0.99999998245E-14  0.12509000000E+03  0.12509000000E+03 0.  0.
        -11    1    3    3    0    0 -0.94784203181E+01  0.38201467983E+02 -0.36773824520E+02  0.53865636336E+02  0.51100000000E-03 0. -1.
         23    2    1    0    0    0 -0.23922839621E+02  0.16362971986E+02 -0.39729513381E+01  0.95835368742E+02  0.91261078516E+02 0.  0.
         11    1    3    3    0    0 -0.14444419302E+02 -0.21838495997E+02  0.32800873182E+02  0.41969732405E+02  0.51100000000E-03 0.  1.
         22    1    1    0    0    0  0.23922839621E+02 -0.16362971986E+02  0.39729513381E+01  0.29254631258E+02  0.00000000000E+00 0. -1.
</event>
<event>
 5    1  0.1044283E-009  0.9118800E+02  0.7815553E-02  0.1125453E+00
         25   -1    0    0    0    0  0.00000000000E+00  0.00000000000E+00  0.99999998245E-14  0.12509000000E+03  0.12509000000E+03 0.  0.
        -11    1    3    3    0    0  0.34829424413E+00 -0.33671323509E+02  0.29743048727E+02  0.44928034495E+02  0.51100000000E-03 0.  1.
         23    2    1    0    0    0  0.20975563424E+02 -0.15184152284E+02 -0.13196502570E+02  0.96026613728E+02  0.91522839349E+02 0.  0.
         11    1    3    3    0    0  0.20627269179E+02  0.18487171225E+02 -0.42939551297E+02  0.51098579233E+02  0.51100000000E-03 0. -1.
         22    1    1    0    0    0 -0.20975563424E+02  0.15184152284E+02  0.13196502570E+02  0.29063386272E+02  0.00000000000E+00 0.  1.
</event>
<event>
 5    1  0.1044283E-009  0.9118800E+02  0.7815553E-02  0.1125453E+00
         25   -1    0    0    0    0  0.00000000000E+00  0.00000000000E+00  0.99999998245E-14  0.12509000000E+03  0.12509000000E+03 0.  0.
        -11    1    3    3    0    0  0.15610808716E+02 -0.28299626597E+02 -0.18526586269E+02  0.37253196015E+02  0.51100000000E-03 0.  1.
         23    2    1    0    0    0 -0.30235064263E+02  0.19933063383E+01 -0.16168594369E+01  0.94746193126E+02  0.89755749099E+02 0.  0.
         11    1    3    3    0    0 -0.45845872979E+02  0.30292932935E+02  0.16909726832E+02  0.57492997111E+02  0.51100000000E-03 0. -1.
         22    1    1    0    0    0  0.30235064263E+02 -0.19933063383E+01  0.16168594369E+01  0.30343806874E+02  0.00000000000E+00 0. -1.
</event>
<event>
 5    1  0.1044283E-009  0.9118800E+02  0.7815553E-02  0.1125453E+00
         25   -1    0    0    0    0  0.00000000000E+00  0.00000000000E+00  0.99999998245E-14  0.12509000000E+03  0.12509000000E+03 0.  0.
        -11    1    3    3    0    0  0.17203684729E+02  0.12678961923E+02  0.52758255171E+02  0.56922371109E+02  0.51100000000E-03 0. -1.
         23    2    1    0    0    0 -0.42340469148E+01 -0.78471554453E+01  0.28416198033E+02  0.95307701356E+02  0.90534924893E+02 0.  0.
         11    1    3    3    0    0 -0.21437731644E+02 -0.20526117368E+02 -0.24342057138E+02  0.38385330248E+02  0.51100000000E-03 0.  1.
         22    1    1    0    0    0  0.42340469148E+01  0.78471554453E+01 -0.28416198033E+02  0.29782298644E+02  0.00000000000E+00 0. -1.
</event>
<event>
 5    1  0.1044283E-009  0.9118800E+02  0.7815553E-02  0.1125453E+00
         25   -1    0    0    0    0  0.00000000000E+00  0.00000000000E+00  0.99999998245E-14  0.12509000000E+03  0.12509000000E+03 0.  0.
        -11    1    3    3    0    0 -0.47712015392E+02  0.32090008229E+02 -0.11383527705E+02  0.58615610073E+02  0.51100000000E-03 0.  1.
         23    2    1    0    0    0 -0.23251045925E+02  0.14347157826E+02  0.10388513867E+02  0.95860335366E+02  0.91295293426E+02 0.  0.
         11    1    3    3    0    0  0.24460969468E+02 -0.17742850402E+02  0.21772041571E+02  0.37244725293E+02  0.51100000000E-03 0. -1.
         22    1    1    0    0    0  0.23251045925E+02 -0.14347157826E+02 -0.10388513867E+02  0.29229664634E+02  0.00000000000E+00 0.  1.
</event>
<event>
 5    1  0.1044283E-009  0.9118800E+02  0.7815553E-02  0.1125453E+00
         25   -1    0    0    0    0  0.00000000000E+00  0.00000000000E+00  0.99999998245E-14  0.12509000000E+03  0.12509000000E+03 0.  0.
        -11    1    3    3    0    0  0.23023775808E+02 -0.42214890651E+02 -0.35867878858E+02  0.59989132176E+02  0.51100000000E-03 0.  1.
         23    2    1    0    0    0  0.19594331012E+02 -0.19449343849E+02 -0.75827865767E+01  0.96459361932E+02  0.92112404529E+02 0.  0.
         11    1    3    3    0    0 -0.34294447967E+01  0.22765546802E+02  0.28285092282E+02  0.36470229756E+02  0.51100000000E-03 0. -1.
         22    1    1    0    0    0 -0.19594331012E+02  0.19449343849E+02  0.75827865767E+01  0.28630638068E+02  0.00000000000E+00 0.  1.
</event>
<event>
 5    1  0.1044283E-009  0.9118800E+02  0.7815553E-02  0.1125453E+00
         25   -1    0    0    0    0  0.00000000000E+00  0.00000000000E+00  0.99999998245E-14  0.12509000000E+03  0.12509000000E+03 0.  0.
        -11    1    3    3    0    0 -0.18965024712E+02 -0.10750210393E+01  0.28944636152E+02  0.34621088874E+02  0.51100000000E-03 0.  1.
         23    2    1    0    0    0  0.16688957305E+02  0.15880227441E+02 -0.17923550926E+02  0.95901704447E+02  0.91351958482E+02 0.  0.
         11    1    3    3    0    0  0.35653982017E+02  0.16955248481E+02 -0.46868187078E+02  0.61280615573E+02  0.51100000000E-03 0. -1.
         22    1    1    0    0    0 -0.16688957305E+02 -0.15880227441E+02  0.17923550926E+02  0.29188295553E+02  0.00000000000E+00 0. -1.
</event>
<event>
 5    1  0.1044283E-009  0.9118800E+02  0.7815553E-02  0.1125453E+00
         25   -1    0    0    0    0  0.00000000000E+00  0.00000000000E+00  0.99999998245E-14  0.12509000000E+03  0.12509000000E+03 0.  0.
        -11    1    3    3    0    0  0.17908225463E+02 -0.25499000807E+02  0.18878017452E+02  0.36431897076E+02  0.51100000000E-03 0.  1.
         23    2    1    0    0    0  0.12220510994E+02  0.27476033362E+02 -0.46254647112E+01  0.94665203828E+02  0.89642805588E+02 0.  0.
         11    1    3    3    0    0 -0.56877144686E+01  0.52975034170E+02 -0.23503482163E+02  0.58233306752E+02  0.51100000000E-03 0. -1.
         22    1    1    0    0    0 -0.12220510994E+02 -0.27476033362E+02  0.46254647112E+01  0.30424796172E+02  0.00000000000E+00 0. -1.
</event>
<event>
 5    1  0.1044283E-009  0.9118800E+02  0.7815553E-02  0.1125453E+00
         25   -1    0    0    0    0  0.00000000000E+00  0.00000000000E+00  0.99999998245E-14  0.12509000000E+03  0.12509000000E+03 0.  0.
        -11    1    3    3    0    0 -0.38482158916E+02 -0.26473657381E+02  0.18831090013E+02  0.50362099254E+02  0.51100000000E-03 0. -1.
         23    2    1    0    0    0  0.23855222719E+01 -0.28215991821E+02 -0.28018548452E+01  0.96635065428E+02  0.92350704213E+02 0.  0.
         11    1    3    3    0    0  0.40867681188E+02 -0.17423344394E+01 -0.21632944858E+02  0.46272966173E+02  0.51100000000E-03 0.  1.
         22    1    1    0    0    0 -0.23855222719E+01  0.28215991821E+02  0.28018548452E+01  0.28454934572E+02  0.00000000000E+00 0. -1.
</event>
<event>
 5    1  0.1044283E-009  0.9118800E+02  0.7815553E-02  0.1125453E+00
         25   -1    0    0    0    0  0.00000000000E+00  0.00000000000E+00  0.99999998245E-14  0.12509000000E+03  0.12509000000E+03 0.  0.
        -11    1    3    3    0    0  0.38433836101E+02 -0.35290672478E+02  0.26666474190E+01  0.52246553284E+02  0.51100000000E-03 0.  1.
         23    2    1    0    0    0 -0.19188593458E+01 -0.28928461596E+02  0.11253603952E+02  0.93990457987E+02  0.88696249522E+02 0.  0.
         11    1    3    3    0    0 -0.40352695447E+02  0.63622108819E+01  0.85869565332E+01  0.41743904703E+02  0.51100000000E-03 0. -1.
         22    1    1    0    0    0  0.19188593458E+01  0.28928461596E+02 -0.11253603952E+02  0.31099542013E+02  0.00000000000E+00 0.  1.
</event>
<event>
 5    1  0.1044283E-009  0.9118800E+02  0.7815553E-02  0.1125453E+00
         25   -1    0    0    0    0  0.00000000000E+00  0.00000000000E+00  0.99999998245E-14  0.12509000000E+03  0.12509000000E+03 0.  0.
        -11    1    3    3    0    0 -0.23354825276E+02  0.20510131346E+02 -0.24067394671E+02  0.39310976051E+02  0.51100000000E-03 0. -1.
         23    2    1    0    0    0 -0.13838580177E+02 -0.26087128273E+02  0.51299587069E+01  0.95117328461E+02  0.90271507877E+02 0.  0.
         11    1    3    3    0    0  0.95162450997E+01 -0.46597259619E+02  0.29197353378E+02  0.55806352411E+02  0.51100000000E-03 0.  1.
         22    1    1    0    0    0  0.13838580177E+02  0.26087128273E+02 -0.51299587069E+01  0.29972671539E+02  0.00000000000E+00 0.  1.
</event>
<event>
 5    1  0.1044283E-009  0.9118800E+02  0.7815553E-02  0.1125453E+00
         25   -1    0    0    0    0  0.00000000000E+00  0.00000000000E+00  0.99999998245E-14  0.12509000000E+03  0.12509000000E+03 0.  0.
        -11    1    3    3    0    0  0.57923500170E+01  0.39169553641E+02  0.14946837720E+01  0.39623721822E+02  0.51100000000E-03 0. -1.
         23    2    1    0    0    0  0.21379164923E+02 -0.11077311858E+02 -0.17247652778E+02  0.95471474427E+02  0.90760924257E+02 0.  0.
         11    1    3    3    0    0  0.15586814906E+02 -0.50246865499E+02 -0.18742336550E+02  0.55847752605E+02  0.51100000000E-03 0.  1.
         22    1    1    0    0    0 -0.21379164923E+02  0.11077311858E+02  0.17247652778E+02  0.29618525573E+02  0.00000000000E+00 0.  1.
</event>
<event>
 5    1  0.1044283E-009  0.9118800E+02  0.7815553E-02  0.1125453E+00
         25   -1    0    0    0    0  0.00000000000E+00  0.00000000000E+00  0.99999998245E-14  0.12509000000E+03  0.12509000000E+03 0.  0.
        -11    1    3    3    0    0  0.54177960414E+01  0.16586375925E+02  0.56868808807E+02  0.59485475501E+02  0.51100000000E-03 0.  1.
         23    2    1    0    0    0  0.12615907067E+02 -0.18362121728E+01  0.25726989462E+02  0.96377445724E+02  0.92001093859E+02 0.  0.
         11    1    3    3    0    0  0.71981110256E+01 -0.18422588098E+02 -0.31141819344E+02  0.36891970223E+02  0.51100000000E-03 0. -1.
         22    1    1    0    0    0 -0.12615907067E+02  0.18362121728E+01 -0.25726989462E+02  0.28712554276E+02  0.00000000000E+00 0.  1.
</event>
<event>
 5    1  0.1044283E-009  0.9118800E+02  0.7815553E-02  0.1125453E+00
         25   -1    0    0    0    0  0.00000000000E+00  0.00000000000E+00  0.99999998245E-14  0.12509000000E+03  0.12509000000E+03 0.  0.
        -11    1    3    3    0    0  0.28370302399E+02 -0.13353887328E+02  0.41050046521E+02  0.51655654915E+02  0.51100000000E-03 0. -1.
         23    2    1    0    0    0 -0.11770849096E+02 -0.16850564122E+02  0.15156396811E+02  0.99551582587E+02  0.96220095778E+02 0.  0.
         11    1    3    3    0    0 -0.40141151496E+02 -0.34966767936E+01 -0.25893649710E+02  0.47895927672E+02  0.51100000000E-03 0.  1.
         22    1    1    0    0    0  0.11770849096E+02  0.16850564122E+02 -0.15156396811E+02  0.25538417413E+02  0.00000000000E+00 0.  1.
</event>
<event>
 5    1  0.1044283E-009  0.9118800E+02  0.7815553E-02  0.1125453E+00
         25   -1    0    0    0    0  0.00000000000E+00  0.00000000000E+00  0.99999998245E-14  0.12509000000E+03  0.12509000000E+03 0.  0.
        -11    1    3    3    0    0 -0.21458828624E+02  0.13852293111E+02  0.53759094237E+02  0.59518128027E+02  0.51100000000E-03 0.  1.
         23    2    1    0    0    0 -0.21359850350E+02  0.10616925389E+02  0.18556965860E+02  0.94868760885E+02  0.89926406012E+02 0.  0.
         11    1    3    3    0    0  0.98978274083E-01 -0.32353677223E+01 -0.35202128376E+02  0.35350632858E+02  0.51100000000E-03 0. -1.
         22    1    1    0    0    0  0.21359850350E+02 -0.10616925389E+02 -0.18556965860E+02  0.30221239115E+02  0.00000000000E+00 0.  1.
</event>
<event>
 5    1  0.1044283E-009  0.9118800E+02  0.7815553E-02  0.1125453E+00
         25   -1    0    0    0    0  0.00000000000E+00  0.00000000000E+00  0.99999998245E-14  0.12509000000E+03  0.12509000000E+03 0.  0.
        -11    1    3    3    0    0 -0.38637659208E+02 -0.28985957221E+01  0.43641841899E+02  0.58359925727E+02  0.51100000000E-03 0. -1.
         23    2    1    0    0    0 -0.76669341496E+01 -0.12688317461E+02  0.25578578137E+02  0.95525850447E+02  0.90835836347E+02 0.  0.
         11    1    3    3    0    0  0.30970725058E+02 -0.97897217393E+01 -0.18063263762E+02  0.37165924721E+02  0.51100000000E-03 0.  1.
         22    1    1    0    0    0  0.76669341496E+01  0.12688317461E+02 -0.25578578137E+02  0.29564149553E+02  0.00000000000E+00 0. -1.
</event>
<event>
 5    1  0.1044283E-009  0.9118800E+02  0.7815553E-02  0.1125453E+00
         25   -1    0    0    0    0  0.00000000000E+00  0.00000000000E+00  0.99999998245E-14  0.12509000000E+03  0.12509000000E+03 0.  0.
        -11    1    3    3    0    0  0.10377333435E+02  0.27717599594E+00 -0.31541771567E+02  0.33206162524E+02  0.51100000000E-03 0. -1.
         23    2    1    0    0    0  0.85287704319E-01  0.13130820572E+02  0.27561466157E+02  0.94560340002E+02  0.89496356136E+02 0.  0.
         11    1    3    3    0    0 -0.10292045731E+02  0.12853644576E+02  0.59103237724E+02  0.61354177477E+02  0.51100000000E-03 0.  1.
         22    1    1    0    0    0 -0.85287704319E-01 -0.13130820572E+02 -0.27561466157E+02  0.30529659998E+02  0.00000000000E+00 0.  1.
</event>
<event>
 5    1  0.1044283E-009  0.9118800E+02  0.7815553E-02  0.1125453E+00
         25   -1    0    0    0    0  0.00000000000E+00  0.00000000000E+00  0.99999998245E-14  0.12509000000E+03  0.12509000000E+03 0.  0.
        -11    1    3    3    0    0 -0.50425956195E+02  0.32390685911E+02 -0.23922803559E+01  0.59980468467E+02  0.51100000000E-03 0.  1.
         23    2    1    0    0    0 -0.26600043940E+02  0.89089560266E+01  0.94830089865E+01  0.95478189948E+02  0.90770179361E+02 0.  0.
         11    1    3    3    0    0  0.23825912254E+02 -0.23481729885E+02  0.11875289342E+02  0.35497721481E+02  0.51100000000E-03 0. -1.
         22    1    1    0    0    0  0.26600043940E+02 -0.89089560266E+01 -0.94830089865E+01  0.29611810052E+02  0.00000000000E+00 0.  1.
</event>
<event>
 5    1  0.1044283E-009  0.9118800E+02  0.7815553E-02  0.1125453E+00
         25   -1    0    0    0    0  0.00000000000E+00  0.00000000000E+00  0.99999998245E-14  0.12509000000E+03  0.12509000000E+03 0.  0.
        -11    1    3    3    0    0  0.28057953074E+02  0.18900958288E+02  0.37984921210E+02  0.50865992515E+02  0.51100000000E-03 0.  1.
         23    2    1    0    0    0 -0.57183881990E+01 -0.88157760390E+01  0.27287400673E+02  0.95849273158E+02  0.91280135071E+02 0.  0.
         11    1    3    3    0    0 -0.33776341273E+02 -0.27716734327E+02 -0.10697520537E+02  0.44983280643E+02  0.51100000000E-03 0. -1.
         22    1    1    0    0    0  0.57183881990E+01  0.88157760390E+01 -0.27287400673E+02  0.29240726842E+02  0.00000000000E+00 0.  1.
</event>
<event>
 5    1  0.1044283E-009  0.9118800E+02  0.7815553E-02  0.1125453E+00
         25   -1    0    0    0    0  0.00000000000E+00  0.00000000000E+00  0.99999998245E-14  0.12509000000E+03  0.12509000000E+03 0.  0.
        -11    1    3    3    0    0  0.49714392660E+02 -0.15935298595E+02  0.23038458575E+02  0.57063343336E+02  0.51100000000E-03 0. -1.
         23    2    1    0    0    0  0.12454643244E+02 -0.20002482811E+02  0.19113838630E+02  0.94749329537E+02  0.89760120118E+02 0.  0.
         11    1    3    3    0    0 -0.37259749416E+02 -0.40671842168E+01 -0.39246199450E+01  0.37685986201E+02  0.51100000000E-03 0.  1.
         22    1    1    0    0    0 -0.12454643244E+02  0.20002482811E+02 -0.19113838630E+02  0.30340670463E+02  0.00000000000E+00 0. -1.
</event>
<event>
 5    1  0.1044283E-009  0.9118800E+02  0.7815553E-02  0.1125453E+00
         25   -1    0    0    0    0  0.00000000000E+00  0.00000000000E+00  0.99999998245E-14  0.12509000000E+03  0.12509000000E+03 0.  0.
        -11    1    3    3    0    0  0.33344352882E+02 -0.25304640965E+01 -0.12302070138E+02  0.35631307128E+02  0.51100000000E-03 0. -1.
         23    2    1    0    0    0 -0.10628381432E+02  0.29623047911E+02 -0.15111567484E+02  0.90178011640E+02  0.83145816804E+02 0.  0.
         11    1    3    3    0    0 -0.43972734315E+02  0.32153512008E+02 -0.28094973466E+01  0.54546704512E+02  0.51100000000E-03 0.  1.
         22    1    1    0    0    0  0.10628381432E+02 -0.29623047911E+02  0.15111567484E+02  0.34911988360E+02  0.00000000000E+00 0.  1.
</event>
<event>
 5    1  0.1044283E-009  0.9118800E+02  0.7815553E-02  0.1125453E+00
         25   -1    0    0    0    0  0.00000000000E+00  0.00000000000E+00  0.99999998245E-14  0.12509000000E+03  0.12509000000E+03 0.  0.
        -11    1    3    3    0    0 -0.19781578082E+02 -0.21075714288E+02  0.22821109917E+02  0.36827973366E+02  0.51100000000E-03 0.  1.
         23    2    1    0    0    0 -0.72129280623E+01  0.28833499267E+02 -0.43891726861E+01  0.95045668620E+02  0.90172153547E+02 0.  0.
         11    1    3    3    0    0  0.12568650019E+02  0.49909213555E+02 -0.27210282603E+02  0.58217695254E+02  0.51100000000E-03 0. -1.
         22    1    1    0    0    0  0.72129280623E+01 -0.28833499267E+02  0.43891726861E+01  0.30044331380E+02  0.00000000000E+00 0. -1.
</event>
<event>
 5    1  0.1044283E-009  0.9118800E+02  0.7815553E-02  0.1125453E+00
         25   -1    0    0    0    0  0.00000000000E+00  0.00000000000E+00  0.99999998245E-14  0.12509000000E+03  0.12509000000E+03 0.  0.
        -11    1    3    3    0    0  0.31121537960E+02  0.38192566171E+02 -0.45140484950E+01  0.49473213660E+02  0.51100000000E-03 0.  1.
         23    2    1    0    0    0  0.27705241832E+02 -0.81311958113E+01 -0.41145952023E+01  0.95924495307E+02  0.91383161118E+02 0.  0.
         11    1    3    3    0    0 -0.34162961279E+01 -0.46323761983E+02  0.39945329271E+00  0.46451281647E+02  0.51100000000E-03 0. -1.
         22    1    1    0    0    0 -0.27705241832E+02  0.81311958113E+01  0.41145952023E+01  0.29165504693E+02  0.00000000000E+00 0. -1.
</event>
<event>
 5    1  0.1044283E-009  0.9118800E+02  0.7815553E-02  0.1125453E+00
         25   -1    0    0    0    0  0.00000000000E+00  0.00000000000E+00  0.99999998245E-14  0.12509000000E+03  0.12509000000E+03 0.  0.
        -11    1    3    3    0    0  0.29308825324E+01 -0.86281129812E+01 -0.34003731866E+02  0.35203525209E+02  0.51100000000E-03 0. -1.
         23    2    1    0    0    0 -0.11937898904E+02  0.25233228247E+02  0.12403179781E+02  0.94543836466E+02  0.89473285996E+02 0.  0.
         11    1    3    3    0    0 -0.14868781437E+02  0.33861341228E+02  0.46406911647E+02  0.59340311257E+02  0.51100000000E-03 0.  1.
         22    1    1    0    0    0  0.11937898904E+02 -0.25233228247E+02 -0.12403179781E+02  0.30546163534E+02  0.00000000000E+00 0.  1.
</event>
<event>
 5    1  0.1044283E-009  0.9118800E+02  0.7815553E-02  0.1125453E+00
         25   -1    0    0    0    0  0.00000000000E+00  0.00000000000E+00  0.99999998245E-14  0.12509000000E+03  0.12509000000E+03 0.  0.
        -11    1    3    3    0    0  0.13594161960E+02 -0.26098893746E+02 -0.21312859312E+02  0.36334439124E+02  0.51100000000E-03 0.  1.
         23    2    1    0    0    0  0.27551303746E+01  0.28795396954E+02 -0.13353334411E+00  0.96162790313E+02  0.91708771557E+02 0.  0.
         11    1    3    3    0    0 -0.10839031586E+02  0.54894290700E+02  0.21179325968E+02  0.59828351188E+02  0.51100000000E-03 0. -1.
         22    1    1    0    0    0 -0.27551303746E+01 -0.28795396954E+02  0.13353334411E+00  0.28927209687E+02  0.00000000000E+00 0. -1.
</event>
<event>
 5    1  0.1044283E-009  0.9118800E+02  0.7815553E-02  0.1125453E+00
         25   -1    0    0    0    0  0.00000000000E+00  0.00000000000E+00  0.99999998245E-14  0.12509000000E+03  0.12509000000E+03 0.  0.
        -11    1    3    3    0    0  0.19768372636E+02 -0.35648995781E+02  0.53011750818E+01  0.41106470468E+02  0.51100000000E-03 0. -1.
         23    2    1    0    0    0 -0.14608159200E+02 -0.43032843661E+01 -0.24419019212E+02  0.96311447729E+02  0.91911315368E+02 0.  0.
         11    1    3    3    0    0 -0.34376531836E+02  0.31345711415E+02 -0.29720194294E+02  0.55204977260E+02  0.51100000000E-03 0.  1.
         22    1    1    0    0    0  0.14608159200E+02  0.43032843661E+01  0.24419019212E+02  0.28778552271E+02  0.00000000000E+00 0.  1.
</event>
<event>
 5    1  0.1044283E-009  0.9118800E+02  0.7815553E-02  0.1125453E+00
         25   -1    0    0    0    0  0.00000000000E+00  0.00000000000E+00  0.99999998245E-14  0.12509000000E+03  0.12509000000E+03 0.  0.
        -11    1    3    3    0    0  0.20737181884E+02  0.21188553095E+02  0.26658869370E+02  0.39870801485E+02  0.51100000000E-03 0. -1.
         23    2    1    0    0    0  0.20249976247E+02 -0.23253705371E+02 -0.41886371741E+01  0.93971821505E+02  0.88669962242E+02 0.  0.
         11    1    3    3    0    0 -0.48720563699E+00 -0.44442258466E+02 -0.30847506544E+02  0.54101020019E+02  0.51100000000E-03 0.  1.
         22    1    1    0    0    0 -0.20249976247E+02  0.23253705371E+02  0.41886371741E+01  0.31118178495E+02  0.00000000000E+00 0.  1.
</event>
<event>
 5    1  0.1044283E-009  0.9118800E+02  0.7815553E-02  0.1125453E+00
         25   -1    0    0    0    0  0.00000000000E+00  0.00000000000E+00  0.99999998245E-14  0.12509000000E+03  0.12509000000E+03 0.  0.
        -11    1    3    3    0    0  0.34905057010E+02  0.14317588463E+02  0.33835899692E+01  0.37878820278E+02  0.51100000000E-03 0. -1.
         23    2    1    0    0    0 -0.16413891607E+02  0.89956093791E+01  0.25034783295E+02  0.93831765878E+02  0.88472159956E+02 0.  0.
         11    1    3    3    0    0 -0.51318948618E+02 -0.53219790835E+01  0.21651193326E+02  0.55952945600E+02  0.51100000000E-03 0.  1.
         22    1    1    0    0    0  0.16413891607E+02 -0.89956093791E+01 -0.25034783295E+02  0.31258234122E+02  0.00000000000E+00 0.  1.
</event>
<event>
 5    1  0.1044283E-009  0.9118800E+02  0.7815553E-02  0.1125453E+00
         25   -1    0    0    0    0  0.00000000000E+00  0.00000000000E+00  0.99999998245E-14  0.12509000000E+03  0.12509000000E+03 0.  0.
        -11    1    3    3    0    0 -0.12278170636E+02  0.19993612317E+02 -0.20478806528E+02  0.31142888831E+02  0.51100000000E-03 0. -1.
         23    2    1    0    0    0  0.17530819739E+02  0.98199121711E+01  0.29007478442E+02  0.89802691781E+02  0.82579230620E+02 0.  0.
         11    1    3    3    0    0  0.29808990375E+02 -0.10173700146E+02  0.49486284970E+02  0.58659802951E+02  0.51100000000E-03 0.  1.
         22    1    1    0    0    0 -0.17530819739E+02 -0.98199121711E+01 -0.29007478442E+02  0.35287308219E+02  0.00000000000E+00 0.  1.
</event>
<event>
 5    1  0.1044283E-009  0.9118800E+02  0.7815553E-02  0.1125453E+00
         25   -1    0    0    0    0  0.00000000000E+00  0.00000000000E+00  0.99999998245E-14  0.12509000000E+03  0.12509000000E+03 0.  0.
        -11    1    3    3    0    0 -0.26102933432E+01  0.33349328752E+02  0.12707649990E+02  0.35783735524E+02  0.51100000000E-03 0.  1.
         23    2    1    0    0    0 -0.18405827426E+01 -0.27396948046E+02  0.66599696358E+01  0.96835164969E+02  0.92621344581E+02 0.  0.
         11    1    3    3    0    0  0.76971060059E+00 -0.60746276798E+02 -0.60476803545E+01  0.61051429444E+02  0.51100000000E-03 0. -1.
         22    1    1    0    0    0  0.18405827426E+01  0.27396948046E+02 -0.66599696358E+01  0.28254835031E+02  0.00000000000E+00 0. -1.
</event>
<event>
 5    1  0.1044283E-009  0.9118800E+02  0.7815553E-02  0.1125453E+00
         25   -1    0    0    0    0  0.00000000000E+00  0.00000000000E+00  0.99999998245E-14  0.12509000000E+03  0.12509000000E+03 0.  0.
        -11    1    3    3    0    0 -0.13212000605E+02  0.19930104332E+02  0.25684448877E+02  0.35092120669E+02  0.51100000000E-03 0. -1.
         23    2    1    0    0    0 -0.10958563481E+01 -0.23832624509E+02 -0.15699592382E+02  0.96530026382E+02  0.92208317956E+02 0.  0.
         11    1    3    3    0    0  0.12116144257E+02 -0.43762728840E+02 -0.41384041259E+02  0.61437905713E+02  0.51100000000E-03 0.  1.
         22    1    1    0    0    0  0.10958563481E+01  0.23832624509E+02  0.15699592382E+02  0.28559973618E+02  0.00000000000E+00 0.  1.
</event>
<event>
 5    1  0.1044283E-009  0.9118800E+02  0.7815553E-02  0.1125453E+00
         25   -1    0    0    0    0  0.00000000000E+00  0.00000000000E+00  0.99999998245E-14  0.12509000000E+03  0.12509000000E+03 0.  0.
        -11    1    3    3    0    0  0.37099384808E+01 -0.39041653995E+01  0.54089906478E+02  0.54357374238E+02  0.51100000000E-03 0. -1.
         23    2    1    0    0    0  0.21422319840E+02 -0.10460643314E+02  0.17559979461E+02  0.95480985755E+02  0.90774032169E+02 0.  0.
         11    1    3    3    0    0  0.17712381359E+02 -0.65564779142E+01 -0.36529927017E+02  0.41123611517E+02  0.51100000000E-03 0.  1.
         22    1    1    0    0    0 -0.21422319840E+02  0.10460643314E+02 -0.17559979461E+02  0.29609014245E+02  0.00000000000E+00 0. -1.
</event>
<event>
 5    1  0.1044283E-009  0.9118800E+02  0.7815553E-02  0.1125453E+00
         25   -1    0    0    0    0  0.00000000000E+00  0.00000000000E+00  0.99999998245E-14  0.12509000000E+03  0.12509000000E+03 0.  0.
        -11    1    3    3    0    0  0.49394306796E+02  0.15498940540E+02 -0.21713832779E+02  0.56138268908E+02  0.51100000000E-03 0.  1.
         23    2    1    0    0    0  0.11336271065E+02  0.19564746290E+02 -0.20712127398E+02  0.94425972861E+02  0.89308352299E+02 0.  0.
         11    1    3    3    0    0 -0.38058035731E+02  0.40658057500E+01  0.10017053814E+01  0.38287703953E+02  0.51100000000E-03 0. -1.
         22    1    1    0    0    0 -0.11336271065E+02 -0.19564746290E+02  0.20712127398E+02  0.30664027139E+02  0.00000000000E+00 0.  1.
</event>
<event>
 5    1  0.1044283E-009  0.9118800E+02  0.7815553E-02  0.1125453E+00
         25   -1    0    0    0    0  0.00000000000E+00  0.00000000000E+00  0.99999998245E-14  0.12509000000E+03  0.12509000000E+03 0.  0.
        -11    1    3    3    0    0 -0.95133468954E+01 -0.16833845683E+02  0.28201579905E+02  0.34193730990E+02  0.51100000000E-03 0. -1.
         23    2    1    0    0    0 -0.29627411138E+02  0.24697793348E+02  0.39707591568E+01  0.86314602964E+02  0.77114715000E+02 0.  0.
         11    1    3    3    0    0 -0.20114064243E+02  0.41531639030E+02 -0.24230820749E+02  0.52120871974E+02  0.51100000000E-03 0.  1.
         22    1    1    0    0    0  0.29627411138E+02 -0.24697793348E+02 -0.39707591568E+01  0.38775397036E+02  0.00000000000E+00 0.  1.
</event>
<event>
 5    1  0.1044283E-009  0.9118800E+02  0.7815553E-02  0.1125453E+00
         25   -1    0    0    0    0  0.00000000000E+00  0.00000000000E+00  0.99999998245E-14  0.12509000000E+03  0.12509000000E+03 0.  0.
        -11    1    3    3    0    0 -0.14529884332E+02 -0.19986402422E+01  0.27888679529E+02  0.31510165783E+02  0.51100000000E-03 0. -1.
         23    2    1    0    0    0  0.10607869755E+02  0.21639748352E+01 -0.29157104884E+02  0.93987806299E+02  0.88692509717E+02 0.  0.
         11    1    3    3    0    0  0.25137754087E+02  0.41626150774E+01 -0.57045784413E+02  0.62477640516E+02  0.51100000000E-03 0.  1.
         22    1    1    0    0    0 -0.10607869755E+02 -0.21639748352E+01  0.29157104884E+02  0.31102193701E+02  0.00000000000E+00 0.  1.
</event>
<event>
 5    1  0.1044283E-009  0.9118800E+02  0.7815553E-02  0.1125453E+00
         25   -1    0    0    0    0  0.00000000000E+00  0.00000000000E+00  0.99999998245E-14  0.12509000000E+03  0.12509000000E+03 0.  0.
        -11    1    3    3    0    0 -0.22742226834E+02 -0.36814586579E+02  0.41536121815E+02  0.59981431144E+02  0.51100000000E-03 0.  1.
         23    2    1    0    0    0 -0.19078221654E+02 -0.96776207788E+01  0.25838936390E+02  0.91544724339E+02  0.85177174378E+02 0.  0.
         11    1    3    3    0    0  0.36640051798E+01  0.27136965800E+02 -0.15697185424E+02  0.31563293195E+02  0.51100000000E-03 0. -1.
         22    1    1    0    0    0  0.19078221654E+02  0.96776207788E+01 -0.25838936390E+02  0.33545275661E+02  0.00000000000E+00 0.  1.
</event>
<event>
 5    1  0.1044283E-009  0.9118800E+02  0.7815553E-02  0.1125453E+00
         25   -1    0    0    0    0  0.00000000000E+00  0.00000000000E+00  0.99999998245E-14  0.12509000000E+03  0.12509000000E+03 0.  0.
        -11    1    3    3    0    0  0.42349609986E+02  0.84739173995E+01 -0.14120534482E+02  0.45438818607E+02  0.51100000000E-03 0.  1.
         23    2    1    0    0    0  0.10860794619E+02 -0.21023648354E+02 -0.25742905015E+02  0.90123618882E+02  0.83063944476E+02 0.  0.
         11    1    3    3    0    0 -0.31488815367E+02 -0.29497565753E+02 -0.11622370533E+02  0.44684800275E+02  0.51100000000E-03 0. -1.
         22    1    1    0    0    0 -0.10860794619E+02  0.21023648354E+02  0.25742905015E+02  0.34966381118E+02  0.00000000000E+00 0. -1.
</event>
<event>
 5    1  0.1044283E-009  0.9118800E+02  0.7815553E-02  0.1125453E+00
         25   -1    0    0    0    0  0.00000000000E+00  0.00000000000E+00  0.99999998245E-14  0.12509000000E+03  0.12509000000E+03 0.  0.
        -11    1    3    3    0    0 -0.84763981182E+01 -0.31277131611E+02 -0.20515927917E+02  0.38353768855E+02  0.51100000000E-03 0.  1.
         23    2    1    0    0    0  0.75593876451E+00  0.26038670509E+02 -0.89225671694E+01  0.97554640729E+02  0.93587990242E+02 0.  0.
         11    1    3    3    0    0  0.92323368827E+01  0.57315802119E+02  0.11593360748E+02  0.59200871874E+02  0.51100000000E-03 0. -1.
         22    1    1    0    0    0 -0.75593876451E+00 -0.26038670509E+02  0.89225671694E+01  0.27535359271E+02  0.00000000000E+00 0. -1.
</event>
<event>
 5    1  0.1044283E-009  0.9118800E+02  0.7815553E-02  0.1125453E+00
         25   -1    0    0    0    0  0.00000000000E+00  0.00000000000E+00  0.99999998245E-14  0.12509000000E+03  0.12509000000E+03 0.  0.
        -11    1    3    3    0    0  0.33915042420E+02  0.15477876294E+02  0.45594708883E+02  0.58895434758E+02  0.51100000000E-03 0. -1.
         23    2    1    0    0    0  0.12609107355E+02  0.21732839344E+02  0.18717905432E+02  0.93758452352E+02  0.88368441818E+02 0.  0.
         11    1    3    3    0    0 -0.21305935064E+02  0.62549630506E+01 -0.26876803452E+02  0.34863017594E+02  0.51100000000E-03 0.  1.
         22    1    1    0    0    0 -0.12609107355E+02 -0.21732839344E+02 -0.18717905432E+02  0.31331547648E+02  0.00000000000E+00 0. -1.
</event>
<event>
 5    1  0.1044283E-009  0.9118800E+02  0.7815553E-02  0.1125453E+00
         25   -1    0    0    0    0  0.00000000000E+00  0.00000000000E+00  0.99999998245E-14  0.12509000000E+03  0.12509000000E+03 0.  0.
        -11    1    3    3    0    0  0.61935441569E+02  0.24514989653E+01  0.43034371075E+01  0.62133150095E+02  0.51100000000E-03 0.  1.
         23    2    1    0    0    0  0.29108549649E+02  0.37344400190E+01 -0.23386739897E+01  0.95649838639E+02  0.91006420272E+02 0.  0.
         11    1    3    3    0    0 -0.32826891920E+02  0.12829410537E+01 -0.66421110972E+01  0.33516688544E+02  0.51100000000E-03 0. -1.
         22    1    1    0    0    0 -0.29108549649E+02 -0.37344400190E+01  0.23386739897E+01  0.29440161361E+02  0.00000000000E+00 0.  1.
</event>
<event>
 5    1  0.1044283E-009  0.9118800E+02  0.7815553E-02  0.1125453E+00
         25   -1    0    0    0    0  0.00000000000E+00  0.00000000000E+00  0.99999998245E-14  0.12509000000E+03  0.12509000000E+03 0.  0.
        -11    1    3    3    0    0 -0.39627829997E+02  0.26096407074E+02 -0.10330081406E+02  0.48560250767E+02  0.51100000000E-03 0. -1.
         23    2    1    0    0    0 -0.27082941807E+02 -0.14497804358E+02  0.54627781967E+01  0.93888813905E+02  0.88552782919E+02 0.  0.
         11    1    3    3    0    0  0.12544888190E+02 -0.40594211432E+02  0.15792859603E+02  0.45328563138E+02  0.51100000000E-03 0.  1.
         22    1    1    0    0    0  0.27082941807E+02  0.14497804358E+02 -0.54627781967E+01  0.31201186095E+02  0.00000000000E+00 0.  1.
</event>
<event>
 5    1  0.1044283E-009  0.9118800E+02  0.7815553E-02  0.1125453E+00
         25   -1    0    0    0    0  0.00000000000E+00  0.00000000000E+00  0.99999998245E-14  0.12509000000E+03  0.12509000000E+03 0.  0.
        -11    1    3    3    0    0  0.38275415434E+02  0.13130334056E+02 -0.16037347672E+02  0.43527113616E+02  0.51100000000E-03 0.  1.
         23    2    1    0    0    0  0.11417389981E+02 -0.26917681142E+02  0.36749185619E+01  0.95620975950E+02  0.90966739323E+02 0.  0.
         11    1    3    3    0    0 -0.26858025453E+02 -0.40048015198E+02  0.19712266234E+02  0.52093862334E+02  0.51100000000E-03 0. -1.
         22    1    1    0    0    0 -0.11417389981E+02  0.26917681142E+02 -0.36749185619E+01  0.29469024050E+02  0.00000000000E+00 0. -1.
</event>
<event>
 5    1  0.1044283E-009  0.9118800E+02  0.7815553E-02  0.1125453E+00
         25   -1    0    0    0    0  0.00000000000E+00  0.00000000000E+00  0.99999998245E-14  0.12509000000E+03  0.12509000000E+03 0.  0.
        -11    1    3    3    0    0 -0.12933316671E+02  0.36883949764E+02  0.15573892567E+02  0.42074250561E+02  0.51100000000E-03 0. -1.
         23    2    1    0    0    0 -0.29416642518E+02 -0.37346383339E+01 -0.11146035881E+02  0.93411608368E+02  0.87876095051E+02 0.  0.
         11    1    3    3    0    0 -0.16483325848E+02 -0.40618588098E+02 -0.26719928449E+02  0.51337357807E+02  0.51100000000E-03 0.  1.
         22    1    1    0    0    0  0.29416642518E+02  0.37346383339E+01  0.11146035881E+02  0.31678391632E+02  0.00000000000E+00 0. -1.
</event>
<event>
 5    1  0.1044283E-009  0.9118800E+02  0.7815553E-02  0.1125453E+00
         25   -1    0    0    0    0  0.00000000000E+00  0.00000000000E+00  0.99999998245E-14  0.12509000000E+03  0.12509000000E+03 0.  0.
        -11    1    3    3    0    0  0.90358187202E+01  0.16858119369E+02  0.26949981651E+02  0.33047597792E+02  0.51100000000E-03 0.  1.
         23    2    1    0    0    0  0.16406426097E+01 -0.29608909512E+02 -0.10963779592E+02  0.93473806465E+02  0.87964588338E+02 0.  0.
         11    1    3    3    0    0 -0.73951761105E+01 -0.46467028881E+02 -0.37913761243E+02  0.60426208673E+02  0.51100000000E-03 0. -1.
         22    1    1    0    0    0 -0.16406426097E+01  0.29608909512E+02  0.10963779592E+02  0.31616193535E+02  0.00000000000E+00 0. -1.
</event>
<event>
 5    1  0.1044283E-009  0.9118800E+02  0.7815553E-02  0.1125453E+00
         25   -1    0    0    0    0  0.00000000000E+00  0.00000000000E+00  0.99999998245E-14  0.12509000000E+03  0.12509000000E+03 0.  0.
        -11    1    3    3    0    0  0.33936183094E+02  0.29868879218E+02  0.19135547547E+02  0.49091584299E+02  0.51100000000E-03 0. -1.
         23    2    1    0    0    0  0.11854125054E+02  0.16349055284E+02 -0.20421959833E+02  0.96369478889E+02  0.91990261052E+02 0.  0.
         11    1    3    3    0    0 -0.22082058040E+02 -0.13519823934E+02 -0.39557507380E+02  0.47277894591E+02  0.51100000000E-03 0.  1.
         22    1    1    0    0    0 -0.11854125054E+02 -0.16349055284E+02  0.20421959833E+02  0.28720521111E+02  0.00000000000E+00 0.  1.
</event>
<event>
 5    1  0.1044283E-009  0.9118800E+02  0.7815553E-02  0.1125453E+00
         25   -1    0    0    0    0  0.00000000000E+00  0.00000000000E+00  0.99999998245E-14  0.12509000000E+03  0.12509000000E+03 0.  0.
        -11    1    3    3    0    0  0.30992840499E+01  0.54146934707E+01  0.61312434702E+02  0.61629044422E+02  0.51100000000E-03 0.  1.
         23    2    1    0    0    0 -0.19474706776E+01  0.89270721325E+01  0.24700278919E+02  0.98753921371E+02  0.95177455044E+02 0.  0.
         11    1    3    3    0    0 -0.50467547275E+01  0.35123786618E+01 -0.36612155783E+02  0.37124876949E+02  0.51100000000E-03 0. -1.
         22    1    1    0    0    0  0.19474706776E+01 -0.89270721325E+01 -0.24700278919E+02  0.26336078629E+02  0.00000000000E+00 0.  1.
</event>
<event>
 5    1  0.1044283E-009  0.9118800E+02  0.7815553E-02  0.1125453E+00
         25   -1    0    0    0    0  0.00000000000E+00  0.00000000000E+00  0.99999998245E-14  0.12509000000E+03  0.12509000000E+03 0.  0.
        -11    1    3    3    0    0 -0.18331642609E+02 -0.56428765600E+02  0.15803634374E+02  0.61400403643E+02  0.51100000000E-03 0. -1.
         23    2    1    0    0    0 -0.46336090085E+00 -0.27850378439E+02  0.92802502845E+01  0.95730481477E+02  0.91117197916E+02 0.  0.
         11    1    3    3    0    0  0.17868281708E+02  0.28578387160E+02 -0.65233840893E+01  0.34330077835E+02  0.51100000000E-03 0.  1.
         22    1    1    0    0    0  0.46336090085E+00  0.27850378439E+02 -0.92802502845E+01  0.29359518523E+02  0.00000000000E+00 0. -1.
</event>
<event>
 5    1  0.1044283E-009  0.9118800E+02  0.7815553E-02  0.1125453E+00
         25   -1    0    0    0    0  0.00000000000E+00  0.00000000000E+00  0.99999998245E-14  0.12509000000E+03  0.12509000000E+03 0.  0.
        -11    1    3    3    0    0 -0.30598108992E+02  0.37311834249E+02  0.28017418432E+02  0.55797786558E+02  0.51100000000E-03 0. -1.
         23    2    1    0    0    0 -0.27734630949E+01  0.13289500799E+02  0.29530172670E+02  0.92588707304E+02  0.86696797480E+02 0.  0.
         11    1    3    3    0    0  0.27824645897E+02 -0.24022333450E+02  0.15127542376E+01  0.36790920746E+02  0.51100000000E-03 0.  1.
         22    1    1    0    0    0  0.27734630949E+01 -0.13289500799E+02 -0.29530172670E+02  0.32501292696E+02  0.00000000000E+00 0. -1.
</event>
<event>
 5    1  0.1044283E-009  0.9118800E+02  0.7815553E-02  0.1125453E+00
         25   -1    0    0    0    0  0.00000000000E+00  0.00000000000E+00  0.99999998245E-14  0.12509000000E+03  0.12509000000E+03 0.  0.
        -11    1    3    3    0    0 -0.74280730729E+01  0.14594905725E+02 -0.49559539559E+02  0.52195167441E+02  0.51100000000E-03 0.  1.
         23    2    1    0    0    0  0.21702191968E+02  0.64328152135E+01 -0.16041414432E+02  0.97346654406E+02  0.93309580962E+02 0.  0.
         11    1    3    3    0    0  0.29130265041E+02 -0.81620905112E+01  0.33518125127E+02  0.45151486965E+02  0.51100000000E-03 0. -1.
         22    1    1    0    0    0 -0.21702191968E+02 -0.64328152135E+01  0.16041414432E+02  0.27743345594E+02  0.00000000000E+00 0.  1.
</event>
<event>
 5    1  0.1044283E-009  0.9118800E+02  0.7815553E-02  0.1125453E+00
         25   -1    0    0    0    0  0.00000000000E+00  0.00000000000E+00  0.99999998245E-14  0.12509000000E+03  0.12509000000E+03 0.  0.
        -11    1    3    3    0    0  0.63933468990E+01  0.33405376546E+02  0.20483621404E+02  0.39703561715E+02  0.51100000000E-03 0. -1.
         23    2    1    0    0    0  0.10377447496E+02 -0.22325557616E+02  0.15939085147E+02  0.95761236393E+02  0.91159409941E+02 0.  0.
         11    1    3    3    0    0  0.39841005970E+01 -0.55730934163E+02 -0.45445362577E+01  0.56057674678E+02  0.51100000000E-03 0.  1.
         22    1    1    0    0    0 -0.10377447496E+02  0.22325557616E+02 -0.15939085147E+02  0.29328763607E+02  0.00000000000E+00 0.  1.
</event>
<event>
 5    1  0.1044283E-009  0.9118800E+02  0.7815553E-02  0.1125453E+00
         25   -1    0    0    0    0  0.00000000000E+00  0.00000000000E+00  0.99999998245E-14  0.12509000000E+03  0.12509000000E+03 0.  0.
        -11    1    3    3    0    0 -0.22589599844E+02 -0.43028620804E+02 -0.32883138874E+01  0.48708985186E+02  0.51100000000E-03 0.  1.
         23    2    1    0    0    0  0.62485110689E+01 -0.15475994617E+02 -0.25690361024E+02  0.94454319014E+02  0.89348046598E+02 0.  0.
         11    1    3    3    0    0  0.28838110912E+02  0.27552626187E+02 -0.22402047136E+02  0.45745333827E+02  0.51100000000E-03 0. -1.
         22    1    1    0    0    0 -0.62485110689E+01  0.15475994617E+02  0.25690361024E+02  0.30635680986E+02  0.00000000000E+00 0.  1.
</event>
<event>
 5    1  0.1044283E-009  0.9118800E+02  0.7815553E-02  0.1125453E+00
         25   -1    0    0    0    0  0.00000000000E+00  0.00000000000E+00  0.99999998245E-14  0.12509000000E+03  0.12509000000E+03 0.  0.
        -11    1    3    3    0    0 -0.32770775164E+02 -0.45646134090E+02  0.18582715292E+01  0.56222294826E+02  0.51100000000E-03 0.  1.
         23    2    1    0    0    0 -0.12539304065E+02 -0.20198062729E+02 -0.18834667247E+02  0.94759477835E+02  0.89774261706E+02 0.  0.
         11    1    3    3    0    0  0.20231471099E+02  0.25448071360E+02 -0.20692938777E+02  0.38537183009E+02  0.51100000000E-03 0. -1.
         22    1    1    0    0    0  0.12539304065E+02  0.20198062729E+02  0.18834667247E+02  0.30330522165E+02  0.00000000000E+00 0.  1.
</event>
<event>
 5    1  0.1044283E-009  0.9118800E+02  0.7815553E-02  0.1125453E+00
         25   -1    0    0    0    0  0.00000000000E+00  0.00000000000E+00  0.99999998245E-14  0.12509000000E+03  0.12509000000E+03 0.  0.
        -11    1    3    3    0    0  0.20302717781E+02 -0.89236961313E+01  0.42741811300E+02  0.48152831022E+02  0.51100000000E-03 0.  1.
         23    2    1    0    0    0 -0.13445943518E+02  0.15432678278E+02  0.23259229860E+02  0.94106896063E+02  0.88860312609E+02 0.  0.
         11    1    3    3    0    0 -0.33748661300E+02  0.24356374409E+02 -0.19482581440E+02  0.45954065040E+02  0.51100000000E-03 0. -1.
         22    1    1    0    0    0  0.13445943518E+02 -0.15432678278E+02 -0.23259229860E+02  0.30983103937E+02  0.00000000000E+00 0.  1.
</event>
<event>
 5    1  0.1044283E-009  0.9118800E+02  0.7815553E-02  0.1125453E+00
         25   -1    0    0    0    0  0.00000000000E+00  0.00000000000E+00  0.99999998245E-14  0.12509000000E+03  0.12509000000E+03 0.  0.
        -11    1    3    3    0    0  0.21157162285E+02  0.28324607069E+02 -0.98312755609E+00  0.35367717223E+02  0.51100000000E-03 0.  1.
         23    2    1    0    0    0 -0.17834588615E+02 -0.15564694923E+02 -0.16673115594E+02  0.96136156339E+02  0.91672435840E+02 0.  0.
         11    1    3    3    0    0 -0.38991750900E+02 -0.43889301992E+02 -0.15689988038E+02  0.60768439115E+02  0.51100000000E-03 0. -1.
         22    1    1    0    0    0  0.17834588615E+02  0.15564694923E+02  0.16673115594E+02  0.28953843661E+02  0.00000000000E+00 0. -1.
</event>
<event>
 5    1  0.1044283E-009  0.9118800E+02  0.7815553E-02  0.1125453E+00
         25   -1    0    0    0    0  0.00000000000E+00  0.00000000000E+00  0.99999998245E-14  0.12509000000E+03  0.12509000000E+03 0.  0.
        -11    1    3    3    0    0 -0.54733902662E+02  0.15432776323E+01 -0.27833699321E+02  0.61423909226E+02  0.51100000000E-03 0.  1.
         23    2    1    0    0    0 -0.29298300931E+02 -0.73900674085E+01 -0.12977810318E+02  0.92204941168E+02  0.86141302993E+02 0.  0.
         11    1    3    3    0    0  0.25435601731E+02 -0.89333450407E+01  0.14855889003E+02  0.30781031941E+02  0.51100000000E-03 0. -1.
         22    1    1    0    0    0  0.29298300931E+02  0.73900674085E+01  0.12977810318E+02  0.32885058832E+02  0.00000000000E+00 0.  1.
</event>
<event>
 5    1  0.1044283E-009  0.9118800E+02  0.7815553E-02  0.1125453E+00
         25   -1    0    0    0    0  0.00000000000E+00  0.00000000000E+00  0.99999998245E-14  0.12509000000E+03  0.12509000000E+03 0.  0.
        -11    1    3    3    0    0 -0.39789487327E+02  0.33222826589E+02  0.30314041891E+02  0.60049151903E+02  0.51100000000E-03 0. -1.
         23    2    1    0    0    0 -0.24471930720E+02  0.17115793531E+02  0.32812239729E+01  0.95046827529E+02  0.90173761212E+02 0.  0.
         11    1    3    3    0    0  0.15317556606E+02 -0.16107033058E+02 -0.27032817918E+02  0.34997675625E+02  0.51100000000E-03 0.  1.
         22    1    1    0    0    0  0.24471930720E+02 -0.17115793531E+02 -0.32812239729E+01  0.30043172471E+02  0.00000000000E+00 0. -1.
</event>
<event>
 5    1  0.1044283E-009  0.9118800E+02  0.7815553E-02  0.1125453E+00
         25   -1    0    0    0    0  0.00000000000E+00  0.00000000000E+00  0.99999998245E-14  0.12509000000E+03  0.12509000000E+03 0.  0.
        -11    1    3    3    0    0 -0.42225599186E+02 -0.50212246661E+01 -0.55378179946E+01  0.42882179890E+02  0.51100000000E-03 0.  1.
         23    2    1    0    0    0 -0.18508902805E+02  0.25138462182E+02  0.19112870380E+02  0.88486399384E+02  0.80560656017E+02 0.  0.
         11    1    3    3    0    0  0.23716696381E+02  0.30159686848E+02  0.24650688374E+02  0.45604219493E+02  0.51100000000E-03 0. -1.
         22    1    1    0    0    0  0.18508902805E+02 -0.25138462182E+02 -0.19112870380E+02  0.36603600616E+02  0.00000000000E+00 0.  1.
</event>
<event>
 5    1  0.1044283E-009  0.9118800E+02  0.7815553E-02  0.1125453E+00
         25   -1    0    0    0    0  0.00000000000E+00  0.00000000000E+00  0.99999998245E-14  0.12509000000E+03  0.12509000000E+03 0.  0.
        -11    1    3    3    0    0 -0.42756139234E+02 -0.95317348158E+01  0.20016529815E+02  0.48162255729E+02  0.51100000000E-03 0. -1.
         23    2    1    0    0    0 -0.72219219915E+01  0.22106241960E+02  0.17821687636E+02  0.95790603401E+02  0.91199698787E+02 0.  0.
         11    1    3    3    0    0  0.35534217243E+02  0.31637976776E+02 -0.21948421787E+01  0.47628347672E+02  0.51100000000E-03 0.  1.
         22    1    1    0    0    0  0.72219219915E+01 -0.22106241960E+02 -0.17821687636E+02  0.29299396599E+02  0.00000000000E+00 0.  1.
</event>
<event>
 5    1  0.1044283E-009  0.9118800E+02  0.7815553E-02  0.1125453E+00
         25   -1    0    0    0    0  0.00000000000E+00  0.00000000000E+00  0.99999998245E-14  0.12509000000E+03  0.12509000000E+03 0.  0.
        -11    1    3    3    0    0 -0.23094599868E+02 -0.14012582682E+02 -0.13356787744E+02  0.30134976283E+02  0.51100000000E-03 0. -1.
         23    2    1    0    0    0 -0.21874433121E+02  0.36130319554E+02  0.26114465039E+01  0.82773212925E+02  0.71138557124E+02 0.  0.
         11    1    3    3    0    0  0.12201667464E+01  0.50142902236E+02  0.15968234248E+02  0.52638236643E+02  0.51100000000E-03 0.  1.
         22    1    1    0    0    0  0.21874433121E+02 -0.36130319554E+02 -0.26114465039E+01  0.42316787075E+02  0.00000000000E+00 0.  1.
</event>
<event>
 5    1  0.1044283E-009  0.9118800E+02  0.7815553E-02  0.1125453E+00
         25   -1    0    0    0    0  0.00000000000E+00  0.00000000000E+00  0.99999998245E-14  0.12509000000E+03  0.12509000000E+03 0.  0.
        -11    1    3    3    0    0 -0.32942837328E+02 -0.17202287903E+01 -0.23972942974E+02  0.40778569291E+02  0.51100000000E-03 0.  1.
         23    2    1    0    0    0  0.17717294720E+02  0.18981085143E+02 -0.54126438129E+01  0.98566786800E+02  0.94931188878E+02 0.  0.
         11    1    3    3    0    0  0.50660132048E+02  0.20701313933E+02  0.18560299161E+02  0.57788217509E+02  0.51100000000E-03 0. -1.
         22    1    1    0    0    0 -0.17717294720E+02 -0.18981085143E+02  0.54126438129E+01  0.26523213200E+02  0.00000000000E+00 0. -1.
</event>
<event>
 5    1  0.1044283E-009  0.9118800E+02  0.7815553E-02  0.1125453E+00
         25   -1    0    0    0    0  0.00000000000E+00  0.00000000000E+00  0.99999998245E-14  0.12509000000E+03  0.12509000000E+03 0.  0.
        -11    1    3    3    0    0 -0.44352820290E+01 -0.18140751354E+02 -0.57994063195E+02  0.60926758920E+02  0.51100000000E-03 0.  1.
         23    2    1    0    0    0 -0.12027556780E+02 -0.86006939122E+01 -0.25784859286E+02  0.95366389414E+02  0.90615976536E+02 0.  0.
         11    1    3    3    0    0 -0.75922747511E+01  0.95400574418E+01  0.32209203909E+02  0.34439630494E+02  0.51100000000E-03 0. -1.
         22    1    1    0    0    0  0.12027556780E+02  0.86006939122E+01  0.25784859286E+02  0.29723610586E+02  0.00000000000E+00 0.  1.
</event>
<event>
 5    1  0.1044283E-009  0.9118800E+02  0.7815553E-02  0.1125453E+00
         25   -1    0    0    0    0  0.00000000000E+00  0.00000000000E+00  0.99999998245E-14  0.12509000000E+03  0.12509000000E+03 0.  0.
        -11    1    3    3    0    0  0.28946836473E+02  0.10283135457E+01 -0.10731287074E+02  0.30889112857E+02  0.51100000000E-03 0. -1.
         23    2    1    0    0    0 -0.34298106131E+01  0.19477229820E+02  0.31928621620E+02  0.87532537880E+02  0.79065682991E+02 0.  0.
         11    1    3    3    0    0 -0.32376647087E+02  0.18448916275E+02  0.42659908694E+02  0.56643425023E+02  0.51100000000E-03 0.  1.
         22    1    1    0    0    0  0.34298106131E+01 -0.19477229820E+02 -0.31928621620E+02  0.37557462120E+02  0.00000000000E+00 0.  1.
</event>
<event>
 5    1  0.1044283E-009  0.9118800E+02  0.7815553E-02  0.1125453E+00
         25   -1    0    0    0    0  0.00000000000E+00  0.00000000000E+00  0.99999998245E-14  0.12509000000E+03  0.12509000000E+03 0.  0.
        -11    1    3    3    0    0  0.31442028569E+02 -0.15423291216E+02 -0.32977296368E+02  0.48103857938E+02  0.51100000000E-03 0.  1.
         23    2    1    0    0    0  0.14722831274E+01 -0.29205488587E+02  0.14859091392E+01  0.95809697625E+02  0.91225884769E+02 0.  0.
         11    1    3    3    0    0 -0.29969745442E+02 -0.13782197370E+02  0.34463205507E+02  0.47705839688E+02  0.51100000000E-03 0. -1.
         22    1    1    0    0    0 -0.14722831274E+01  0.29205488587E+02 -0.14859091392E+01  0.29280302375E+02  0.00000000000E+00 0. -1.
</event>
<event>
 5    1  0.1044283E-009  0.9118800E+02  0.7815553E-02  0.1125453E+00
         25   -1    0    0    0    0  0.00000000000E+00  0.00000000000E+00  0.99999998245E-14  0.12509000000E+03  0.12509000000E+03 0.  0.
        -11    1    3    3    0    0 -0.27348178970E+01  0.29955278472E+02 -0.16689668113E+02  0.34399752314E+02  0.51100000000E-03 0. -1.
         23    2    1    0    0    0  0.33042595554E+02 -0.60568213825E+01  0.75586839973E+01  0.90656993887E+02  0.83863333053E+02 0.  0.
         11    1    3    3    0    0  0.35777413451E+02 -0.36012099855E+02  0.24248352110E+02  0.56257241574E+02  0.51100000000E-03 0.  1.
         22    1    1    0    0    0 -0.33042595554E+02  0.60568213825E+01 -0.75586839973E+01  0.34433006113E+02  0.00000000000E+00 0.  1.
</event>
<event>
 5    1  0.1044283E-009  0.9118800E+02  0.7815553E-02  0.1125453E+00
         25   -1    0    0    0    0  0.00000000000E+00  0.00000000000E+00  0.99999998245E-14  0.12509000000E+03  0.12509000000E+03 0.  0.
        -11    1    3    3    0    0  0.56215898432E+02  0.21615811499E+02  0.10690236761E+02  0.61169859453E+02  0.51100000000E-03 0.  1.
         23    2    1    0    0    0  0.25947822839E+02  0.23864384422E+00  0.50906481501E+01  0.98646453348E+02  0.95036106815E+02 0.  0.
         11    1    3    3    0    0 -0.30268075593E+02 -0.21377167655E+02 -0.55995886108E+01  0.37476593895E+02  0.51100000000E-03 0. -1.
         22    1    1    0    0    0 -0.25947822839E+02 -0.23864384422E+00 -0.50906481501E+01  0.26443546652E+02  0.00000000000E+00 0.  1.
</event>
<event>
 5    1  0.1044283E-009  0.9118800E+02  0.7815553E-02  0.1125453E+00
         25   -1    0    0    0    0  0.00000000000E+00  0.00000000000E+00  0.99999998245E-14  0.12509000000E+03  0.12509000000E+03 0.  0.
        -11    1    3    3    0    0  0.26372115100E+02  0.20008499775E+02 -0.43774418446E+02  0.54881948113E+02  0.51100000000E-03 0.  1.
         23    2    1    0    0    0  0.26182975911E+02  0.13994128847E+02 -0.39711697991E+01  0.95137469901E+02  0.90299413729E+02 0.  0.
         11    1    3    3    0    0 -0.18913918855E+00 -0.60143709282E+01  0.39803248647E+02  0.40255521788E+02  0.51100000000E-03 0. -1.
         22    1    1    0    0    0 -0.26182975911E+02 -0.13994128847E+02  0.39711697991E+01  0.29952530099E+02  0.00000000000E+00 0. -1.
</event>
<event>
 5    1  0.1044283E-009  0.9118800E+02  0.7815553E-02  0.1125453E+00
         25   -1    0    0    0    0  0.00000000000E+00  0.00000000000E+00  0.99999998245E-14  0.12509000000E+03  0.12509000000E+03 0.  0.
        -11    1    3    3    0    0  0.29564754742E+02  0.28021967213E+02  0.27385635102E+01  0.40826524464E+02  0.51100000000E-03 0.  1.
         23    2    1    0    0    0 -0.22999870491E+02  0.15103249250E+02 -0.88583239227E+01  0.96183736263E+02  0.91737337209E+02 0.  0.
         11    1    3    3    0    0 -0.52564625233E+02 -0.12918717963E+02 -0.11596887433E+02  0.55357211799E+02  0.51100000000E-03 0. -1.
         22    1    1    0    0    0  0.22999870491E+02 -0.15103249250E+02  0.88583239227E+01  0.28906263737E+02  0.00000000000E+00 0. -1.
</event>
<event>
 5    1  0.1044283E-009  0.9118800E+02  0.7815553E-02  0.1125453E+00
         25   -1    0    0    0    0  0.00000000000E+00  0.00000000000E+00  0.99999998245E-14  0.12509000000E+03  0.12509000000E+03 0.  0.
        -11    1    3    3    0    0  0.29011518155E+02  0.36134821164E+02  0.17722387028E+02  0.49613269277E+02  0.51100000000E-03 0. -1.
         23    2    1    0    0    0  0.98642549436E+00  0.21368600988E+02 -0.17838306182E+02  0.97236897643E+02  0.93162325821E+02 0.  0.
         11    1    3    3    0    0 -0.28025092660E+02 -0.14766220176E+02 -0.35560693210E+02  0.47623628366E+02  0.51100000000E-03 0.  1.
         22    1    1    0    0    0 -0.98642549436E+00 -0.21368600988E+02  0.17838306182E+02  0.27853102357E+02  0.00000000000E+00 0. -1.
</event>
<event>
 5    1  0.1044283E-009  0.9118800E+02  0.7815553E-02  0.1125453E+00
         25   -1    0    0    0    0  0.00000000000E+00  0.00000000000E+00  0.99999998245E-14  0.12509000000E+03  0.12509000000E+03 0.  0.
        -11    1    3    3    0    0  0.27414330880E+02  0.52613213101E+02  0.79752883743E+01  0.59860679543E+02  0.51100000000E-03 0. -1.
         23    2    1    0    0    0  0.11857103819E+01  0.29736398860E+02  0.12796588107E+01  0.95302471520E+02  0.90527698661E+02 0.  0.
         11    1    3    3    0    0 -0.26228620499E+02 -0.22876814241E+02 -0.66956295635E+01  0.35441791977E+02  0.51100000000E-03 0.  1.
         22    1    1    0    0    0 -0.11857103819E+01 -0.29736398860E+02 -0.12796588107E+01  0.29787528480E+02  0.00000000000E+00 0. -1.
</event>
<event>
 5    1  0.1044283E-009  0.9118800E+02  0.7815553E-02  0.1125453E+00
         25   -1    0    0    0    0  0.00000000000E+00  0.00000000000E+00  0.99999998245E-14  0.12509000000E+03  0.12509000000E+03 0.  0.
        -11    1    3    3    0    0 -0.25457137845E+02 -0.11081363694E+02  0.38252794022E+02  0.47266676838E+02  0.51100000000E-03 0.  1.
         23    2    1    0    0    0 -0.23607483205E+02  0.19125280095E+02  0.17863138543E+01  0.94655143023E+02  0.89628765369E+02 0.  0.
         11    1    3    3    0    0  0.18496546401E+01  0.30206643789E+02 -0.36466480167E+02  0.47388466185E+02  0.51100000000E-03 0. -1.
         22    1    1    0    0    0  0.23607483205E+02 -0.19125280095E+02 -0.17863138543E+01  0.30434856977E+02  0.00000000000E+00 0. -1.
</event>
<event>
 5    1  0.1044283E-009  0.9118800E+02  0.7815553E-02  0.1125453E+00
         25   -1    0    0    0    0  0.00000000000E+00  0.00000000000E+00  0.99999998245E-14  0.12509000000E+03  0.12509000000E+03 0.  0.
        -11    1    3    3    0    0  0.44062743793E+02 -0.28131733895E+02 -0.28733717137E+02  0.59653552646E+02  0.51100000000E-03 0.  1.
         23    2    1    0    0    0  0.18631041546E+02 -0.22969580004E+02 -0.44733203877E+01  0.95177997226E+02  0.90355537993E+02 0.  0.
         11    1    3    3    0    0 -0.25431702248E+02  0.51621538902E+01  0.24260396750E+02  0.35524444580E+02  0.51100000000E-03 0. -1.
         22    1    1    0    0    0 -0.18631041546E+02  0.22969580004E+02  0.44733203877E+01  0.29912002774E+02  0.00000000000E+00 0.  1.
</event>
<event>
 5    1  0.1044283E-009  0.9118800E+02  0.7815553E-02  0.1125453E+00
         25   -1    0    0    0    0  0.00000000000E+00  0.00000000000E+00  0.99999998245E-14  0.12509000000E+03  0.12509000000E+03 0.  0.
        -11    1    3    3    0    0 -0.25771156656E+02 -0.10441985203E+02  0.32129511372E+02  0.42491094027E+02  0.51100000000E-03 0.  1.
         23    2    1    0    0    0  0.24135318863E+02  0.67025238482E+00  0.16085117974E+02  0.96078039103E+02  0.91593098664E+02 0.  0.
         11    1    3    3    0    0  0.49906475518E+02  0.11112237588E+02 -0.16044393398E+02  0.53586945076E+02  0.51100000000E-03 0. -1.
         22    1    1    0    0    0 -0.24135318863E+02 -0.67025238482E+00 -0.16085117974E+02  0.29011960897E+02  0.00000000000E+00 0.  1.
</event>
<event>
 5    1  0.1044283E-009  0.9118800E+02  0.7815553E-02  0.1125453E+00
         25   -1    0    0    0    0  0.00000000000E+00  0.00000000000E+00  0.99999998245E-14  0.12509000000E+03  0.12509000000E+03 0.  0.
        -11    1    3    3    0    0  0.28476888699E+02 -0.36528884136E+02  0.17355199136E+02  0.49462061254E+02  0.51100000000E-03 0.  1.
         23    2    1    0    0    0  0.26640104096E+02  0.84595475748E+01  0.11494441918E+02  0.94867801430E+02  0.89925071374E+02 0.  0.
         11    1    3    3    0    0 -0.18367846032E+01  0.44988431711E+02 -0.58607572187E+01  0.45405740176E+02  0.51100000000E-03 0. -1.
         22    1    1    0    0    0 -0.26640104096E+02 -0.84595475748E+01 -0.11494441918E+02  0.30222198570E+02  0.00000000000E+00 0.  1.
</event>
<event>
 5    1  0.1044283E-009  0.9118800E+02  0.7815553E-02  0.1125453E+00
         25   -1    0    0    0    0  0.00000000000E+00  0.00000000000E+00  0.99999998245E-14  0.12509000000E+03  0.12509000000E+03 0.  0.
        -11    1    3    3    0    0  0.32046390657E+01  0.29104528242E+02 -0.22051235061E+02  0.36655153031E+02  0.51100000000E-03 0.  1.
         23    2    1    0    0    0 -0.28085488396E+01  0.25137916376E+01  0.29702000235E+02  0.95149794374E+02  0.90316484965E+02 0.  0.
         11    1    3    3    0    0 -0.60131879053E+01 -0.26590736604E+02  0.51753235296E+02  0.58494641343E+02  0.51100000000E-03 0. -1.
         22    1    1    0    0    0  0.28085488396E+01 -0.25137916376E+01 -0.29702000235E+02  0.29940205626E+02  0.00000000000E+00 0. -1.
</event>
<event>
 4    1  0.1044283E-009  0.9118800E+02  0.7815553E-02  0.1125453E+00
         25   -1    0    0    0    0  0.00000000000E+00  0.00000000000E+00  0.99999998245E-14  0.12509000000E+03  0.12509000000E+03 0.  0.
        -11    1    1    0    0    0  0.24511249436E+02  0.27597653459E+02 -0.37654650003E+02  0.52728592741E+02  0.51100000000E-03 0.  1.
         11    1    1    0    0    0 -0.42403813801E+01  0.14369573219E+02  0.11746250697E+02  0.19037853725E+02  0.51100000000E-03 0. -1.
         22    1    1    0    0    0 -0.20270868056E+02 -0.41967226678E+02  0.25908399306E+02  0.53323553533E+02  0.00000000000E+00 0.  1.
</event>
<event>
 5    1  0.1044283E-009  0.9118800E+02  0.7815553E-02  0.1125453E+00
         25   -1    0    0    0    0  0.00000000000E+00  0.00000000000E+00  0.99999998245E-14  0.12509000000E+03  0.12509000000E+03 0.  0.
        -11    1    3    3    0    0 -0.11385190563E+02  0.20641381427E+02 -0.54256935762E+02  0.59156607999E+02  0.51100000000E-03 0. -1.
         23    2    1    0    0    0 -0.11960382200E+02 -0.34550576903E+01 -0.25754819979E+02  0.96484075471E+02  0.92145959766E+02 0.  0.
         11    1    3    3    0    0 -0.57519163628E+00 -0.24096439117E+02  0.28502115782E+02  0.37327467472E+02  0.51100000000E-03 0.  1.
         22    1    1    0    0    0  0.11960382200E+02  0.34550576903E+01  0.25754819979E+02  0.28605924529E+02  0.00000000000E+00 0. -1.
</event>
<event>
 5    1  0.1044283E-009  0.9118800E+02  0.7815553E-02  0.1125453E+00
         25   -1    0    0    0    0  0.00000000000E+00  0.00000000000E+00  0.99999998245E-14  0.12509000000E+03  0.12509000000E+03 0.  0.
        -11    1    3    3    0    0 -0.47963664794E+02  0.27954300625E+02  0.28283339166E+01  0.55587368502E+02  0.51100000000E-03 0.  1.
         23    2    1    0    0    0 -0.25454301867E+02 -0.18807061636E+01  0.15710165851E+02  0.95118883066E+02  0.90273662080E+02 0.  0.
         11    1    3    3    0    0  0.22509362927E+02 -0.29835006789E+02  0.12881831935E+02  0.39531514564E+02  0.51100000000E-03 0. -1.
         22    1    1    0    0    0  0.25454301867E+02  0.18807061636E+01 -0.15710165851E+02  0.29971116934E+02  0.00000000000E+00 0.  1.
</event>
<event>
 5    1  0.1044283E-009  0.9118800E+02  0.7815553E-02  0.1125453E+00
         25   -1    0    0    0    0  0.00000000000E+00  0.00000000000E+00  0.99999998245E-14  0.12509000000E+03  0.12509000000E+03 0.  0.
        -11    1    3    3    0    0  0.32872793642E+02 -0.47220326536E+02  0.18072328986E+02  0.60307452899E+02  0.51100000000E-03 0.  1.
         23    2    1    0    0    0  0.55196694683E+01 -0.28533220349E+02  0.75974846488E+01  0.95051138712E+02  0.90179741533E+02 0.  0.
         11    1    3    3    0    0 -0.27353124173E+02  0.18687106187E+02 -0.10474844337E+02  0.34743685812E+02  0.51100000000E-03 0. -1.
         22    1    1    0    0    0 -0.55196694683E+01  0.28533220349E+02 -0.75974846488E+01  0.30038861288E+02  0.00000000000E+00 0.  1.
</event>
<event>
 5    1  0.1044283E-009  0.9118800E+02  0.7815553E-02  0.1125453E+00
         25   -1    0    0    0    0  0.00000000000E+00  0.00000000000E+00  0.99999998245E-14  0.12509000000E+03  0.12509000000E+03 0.  0.
        -11    1    3    3    0    0  0.28978713460E+02 -0.10292475573E+02  0.32313658234E+02  0.44607996995E+02  0.51100000000E-03 0.  1.
         23    2    1    0    0    0 -0.15457495284E+02  0.11682602195E+02  0.22945031445E+02  0.95058486176E+02  0.90189932762E+02 0.  0.
         11    1    3    3    0    0 -0.44436208744E+02  0.21975077768E+02 -0.93686267882E+01  0.50450489181E+02  0.51100000000E-03 0. -1.
         22    1    1    0    0    0  0.15457495284E+02 -0.11682602195E+02 -0.22945031445E+02  0.30031513824E+02  0.00000000000E+00 0. -1.
</event>
<event>
 5    1  0.1044283E-009  0.9118800E+02  0.7815553E-02  0.1125453E+00
         25   -1    0    0    0    0  0.00000000000E+00  0.00000000000E+00  0.99999998245E-14  0.12509000000E+03  0.12509000000E+03 0.  0.
        -11    1    3    3    0    0  0.13334494221E+02 -0.22658464801E+01 -0.31771525487E+02  0.34530749028E+02  0.51100000000E-03 0.  1.
         23    2    1    0    0    0 -0.73020404209E+01  0.27688737228E+02  0.14179226248E+02  0.93136339481E+02  0.87483377343E+02 0.  0.
         11    1    3    3    0    0 -0.20636534642E+02  0.29954583708E+02  0.45950751735E+02  0.58605590453E+02  0.51100000000E-03 0. -1.
         22    1    1    0    0    0  0.73020404209E+01 -0.27688737228E+02 -0.14179226248E+02  0.31953660519E+02  0.00000000000E+00 0. -1.
</event>
<event>
 5    1  0.1044283E-009  0.9118800E+02  0.7815553E-02  0.1125453E+00
         25   -1    0    0    0    0  0.00000000000E+00  0.00000000000E+00  0.99999998245E-14  0.12509000000E+03  0.12509000000E+03 0.  0.
        -11    1    3    3    0    0 -0.57297491616E+02 -0.23673207019E+02  0.67794215280E+00  0.61999055492E+02  0.51100000000E-03 0.  1.
         23    2    1    0    0    0 -0.24490689019E+02 -0.15514936431E+02  0.33247389452E+01  0.95908482045E+02  0.91361238707E+02 0.  0.
         11    1    3    3    0    0  0.32806802597E+02  0.81582705879E+01  0.26467967924E+01  0.33909426553E+02  0.51100000000E-03 0. -1.
         22    1    1    0    0    0  0.24490689019E+02  0.15514936431E+02 -0.33247389452E+01  0.29181517955E+02  0.00000000000E+00 0.  1.
</event>
<event>
 5    1  0.1044283E-009  0.9118800E+02  0.7815553E-02  0.1125453E+00
         25   -1    0    0    0    0  0.00000000000E+00  0.00000000000E+00  0.99999998245E-14  0.12509000000E+03  0.12509000000E+03 0.  0.
        -11    1    3    3    0    0 -0.18663423741E+02 -0.88588115576E+01  0.55709388019E+02  0.59416646166E+02  0.51100000000E-03 0. -1.
         23    2    1    0    0    0 -0.84988083220E+01 -0.17738857526E+02  0.22850132832E+02  0.94939952244E+02  0.90025380602E+02 0.  0.
         11    1    3    3    0    0  0.10164615419E+02 -0.88800459685E+01 -0.32859255187E+02  0.35523306078E+02  0.51100000000E-03 0.  1.
         22    1    1    0    0    0  0.84988083220E+01  0.17738857526E+02 -0.22850132832E+02  0.30150047756E+02  0.00000000000E+00 0. -1.
</event>
<event>
 5    1  0.1044283E-009  0.9118800E+02  0.7815553E-02  0.1125453E+00
         25   -1    0    0    0    0  0.00000000000E+00  0.00000000000E+00  0.99999998245E-14  0.12509000000E+03  0.12509000000E+03 0.  0.
        -11    1    3    3    0    0 -0.61876132529E+01 -0.30098812202E+02 -0.51621578662E+02  0.60075056701E+02  0.51100000000E-03 0.  1.
         23    2    1    0    0    0  0.59198658000E+01 -0.22053550030E+02 -0.20587230529E+02  0.94345277838E+02  0.89195254972E+02 0.  0.
         11    1    3    3    0    0  0.12107479053E+02  0.80452621723E+01  0.31034348134E+02  0.34270221137E+02  0.51100000000E-03 0. -1.
         22    1    1    0    0    0 -0.59198658000E+01  0.22053550030E+02  0.20587230529E+02  0.30744722162E+02  0.00000000000E+00 0.  1.
</event>
<event>
 5    1  0.1044283E-009  0.9118800E+02  0.7815553E-02  0.1125453E+00
         25   -1    0    0    0    0  0.00000000000E+00  0.00000000000E+00  0.99999998245E-14  0.12509000000E+03  0.12509000000E+03 0.  0.
        -11    1    3    3    0    0  0.98270771664E+01 -0.19448546990E+02  0.32115022414E+02  0.38809690679E+02  0.51100000000E-03 0.  1.
         23    2    1    0    0    0 -0.23493655972E+02 -0.10705913440E+02 -0.13487580515E+02  0.95961263644E+02  0.91433477668E+02 0.  0.
         11    1    3    3    0    0 -0.33320733139E+02  0.87426335493E+01 -0.45602602929E+02  0.57151572966E+02  0.51100000000E-03 0. -1.
         22    1    1    0    0    0  0.23493655972E+02  0.10705913440E+02  0.13487580515E+02  0.29128736356E+02  0.00000000000E+00 0. -1.
</event>
<event>
 5    1  0.1044283E-009  0.9118800E+02  0.7815553E-02  0.1125453E+00
         25   -1    0    0    0    0  0.00000000000E+00  0.00000000000E+00  0.99999998245E-14  0.12509000000E+03  0.12509000000E+03 0.  0.
        -11    1    3    3    0    0  0.10582965188E+01 -0.43175492119E+02  0.33144870283E+02  0.54441028073E+02  0.51100000000E-03 0. -1.
         23    2    1    0    0    0 -0.12728058568E+02 -0.33789591577E+00  0.20102812306E+02  0.10129418711E+03  0.98459492335E+02 0.  0.
         11    1    3    3    0    0 -0.13786355087E+02  0.42837596204E+02 -0.13042057978E+02  0.46853159036E+02  0.51100000000E-03 0.  1.
         22    1    1    0    0    0  0.12728058568E+02  0.33789591577E+00 -0.20102812306E+02  0.23795812891E+02  0.00000000000E+00 0. -1.
</event>
<event>
 5    1  0.1044283E-009  0.9118800E+02  0.7815553E-02  0.1125453E+00
         25   -1    0    0    0    0  0.00000000000E+00  0.00000000000E+00  0.99999998245E-14  0.12509000000E+03  0.12509000000E+03 0.  0.
        -11    1    3    3    0    0 -0.10548917998E+02  0.36825223768E+02  0.45501490974E+02  0.59479092609E+02  0.51100000000E-03 0.  1.
         23    2    1    0    0    0  0.62254289725E+01  0.23854941782E+02  0.16425444395E+02  0.95465526386E+02  0.90752726082E+02 0.  0.
         11    1    3    3    0    0  0.16774346971E+02 -0.12970281986E+02 -0.29076046579E+02  0.35986433777E+02  0.51100000000E-03 0. -1.
         22    1    1    0    0    0 -0.62254289725E+01 -0.23854941782E+02 -0.16425444395E+02  0.29624473614E+02  0.00000000000E+00 0.  1.
</event>
<event>
 5    1  0.1044283E-009  0.9118800E+02  0.7815553E-02  0.1125453E+00
         25   -1    0    0    0    0  0.00000000000E+00  0.00000000000E+00  0.99999998245E-14  0.12509000000E+03  0.12509000000E+03 0.  0.
        -11    1    3    3    0    0 -0.86755566874E+01 -0.13668021084E+02  0.36270015854E+02  0.39718939242E+02  0.51100000000E-03 0.  1.
         23    2    1    0    0    0 -0.23032224786E+02 -0.15119182097E+02 -0.15510715559E+02  0.93472673373E+02  0.87962977010E+02 0.  0.
         11    1    3    3    0    0 -0.14356668099E+02 -0.14511610132E+01 -0.51780731413E+02  0.53753734132E+02  0.51100000000E-03 0. -1.
         22    1    1    0    0    0  0.23032224786E+02  0.15119182097E+02  0.15510715559E+02  0.31617326627E+02  0.00000000000E+00 0. -1.
</event>
<event>
 5    1  0.1044283E-009  0.9118800E+02  0.7815553E-02  0.1125453E+00
         25   -1    0    0    0    0  0.00000000000E+00  0.00000000000E+00  0.99999998245E-14  0.12509000000E+03  0.12509000000E+03 0.  0.
        -11    1    3    3    0    0 -0.20577539065E+02  0.26841108540E+02 -0.11733165642E+02  0.35798706651E+02  0.51100000000E-03 0.  1.
         23    2    1    0    0    0 -0.45900463716E+01 -0.13242598366E+02  0.27565807663E+02  0.94165758873E+02  0.88943136075E+02 0.  0.
         11    1    3    3    0    0  0.15987492694E+02 -0.40083706906E+02  0.39298973305E+02  0.58367052222E+02  0.51100000000E-03 0. -1.
         22    1    1    0    0    0  0.45900463716E+01  0.13242598366E+02 -0.27565807663E+02  0.30924241127E+02  0.00000000000E+00 0. -1.
</event>
<event>
 5    1  0.1044283E-009  0.9118800E+02  0.7815553E-02  0.1125453E+00
         25   -1    0    0    0    0  0.00000000000E+00  0.00000000000E+00  0.99999998245E-14  0.12509000000E+03  0.12509000000E+03 0.  0.
        -11    1    3    3    0    0  0.58631353043E+02 -0.31463836633E+01 -0.18882960524E+02  0.61677398520E+02  0.51100000000E-03 0.  1.
         23    2    1    0    0    0  0.32961228175E+02 -0.53449520057E+01 -0.39263069073E+01  0.91468177315E+02  0.85064684215E+02 0.  0.
         11    1    3    3    0    0 -0.25670124869E+02 -0.21985683424E+01  0.14956653616E+02  0.29790778795E+02  0.51100000000E-03 0. -1.
         22    1    1    0    0    0 -0.32961228175E+02  0.53449520057E+01  0.39263069073E+01  0.33621822685E+02  0.00000000000E+00 0.  1.
</event>
<event>
 5    1  0.1044283E-009  0.9118800E+02  0.7815553E-02  0.1125453E+00
         25   -1    0    0    0    0  0.00000000000E+00  0.00000000000E+00  0.99999998245E-14  0.12509000000E+03  0.12509000000E+03 0.  0.
        -11    1    3    3    0    0 -0.92706657670E+01 -0.19878517743E+02  0.32416221524E+02  0.39139649073E+02  0.51100000000E-03 0.  1.
         23    2    1    0    0    0  0.49267027677E+01 -0.21270316671E+02 -0.21221813359E+02  0.94642272109E+02  0.89610800333E+02 0.  0.
         11    1    3    3    0    0  0.14197368535E+02 -0.13917989284E+01 -0.53638034883E+02  0.55502623036E+02  0.51100000000E-03 0. -1.
         22    1    1    0    0    0 -0.49267027677E+01  0.21270316671E+02  0.21221813359E+02  0.30447727891E+02  0.00000000000E+00 0. -1.
</event>
<event>
 5    1  0.1044283E-009  0.9118800E+02  0.7815553E-02  0.1125453E+00
         25   -1    0    0    0    0  0.00000000000E+00  0.00000000000E+00  0.99999998245E-14  0.12509000000E+03  0.12509000000E+03 0.  0.
        -11    1    3    3    0    0  0.20049494419E+02  0.21744345004E+02  0.55737786717E+01  0.30097604141E+02  0.51100000000E-03 0. -1.
         23    2    1    0    0    0 -0.29171316254E+02 -0.11715744606E+02 -0.10841841246E+02  0.91836881571E+02  0.85605157154E+02 0.  0.
         11    1    3    3    0    0 -0.49220810673E+02 -0.33460089610E+02 -0.16415619917E+02  0.61739277430E+02  0.51100000000E-03 0.  1.
         22    1    1    0    0    0  0.29171316254E+02  0.11715744606E+02  0.10841841246E+02  0.33253118429E+02  0.00000000000E+00 0.  1.
</event>
<event>
 5    1  0.1044283E-009  0.9118800E+02  0.7815553E-02  0.1125453E+00
         25   -1    0    0    0    0  0.00000000000E+00  0.00000000000E+00  0.99999998245E-14  0.12509000000E+03  0.12509000000E+03 0.  0.
        -11    1    3    3    0    0 -0.43296531061E+02 -0.39911707590E+02 -0.14959528594E+02  0.60756246598E+02  0.51100000000E-03 0. -1.
         23    2    1    0    0    0 -0.15507886008E+02 -0.28561629251E+02 -0.64545590556E+01  0.91955085989E+02  0.85777708717E+02 0.  0.
         11    1    3    3    0    0  0.27788645053E+02  0.11350078339E+02  0.85049695388E+01  0.31198839391E+02  0.51100000000E-03 0.  1.
         22    1    1    0    0    0  0.15507886008E+02  0.28561629251E+02  0.64545590556E+01  0.33134914011E+02  0.00000000000E+00 0. -1.
</event>
<event>
 5    1  0.1044283E-009  0.9118800E+02  0.7815553E-02  0.1125453E+00
         25   -1    0    0    0    0  0.00000000000E+00  0.00000000000E+00  0.99999998245E-14  0.12509000000E+03  0.12509000000E+03 0.  0.
        -11    1    3    3    0    0  0.47314029104E+02 -0.37178403226E+02 -0.10605376808E+02  0.61100941351E+02  0.51100000000E-03 0.  1.
         23    2    1    0    0    0  0.14791733928E+02 -0.19549315035E+02 -0.11290350115E+02  0.98100314625E+02  0.94314519629E+02 0.  0.
         11    1    3    3    0    0 -0.32522295176E+02  0.17629088191E+02 -0.68497330714E+00  0.36999373274E+02  0.51100000000E-03 0. -1.
         22    1    1    0    0    0 -0.14791733928E+02  0.19549315035E+02  0.11290350115E+02  0.26989685375E+02  0.00000000000E+00 0.  1.
</event>
<event>
 5    1  0.1044283E-009  0.9118800E+02  0.7815553E-02  0.1125453E+00
         25   -1    0    0    0    0  0.00000000000E+00  0.00000000000E+00  0.99999998245E-14  0.12509000000E+03  0.12509000000E+03 0.  0.
        -11    1    3    3    0    0 -0.14678404025E+02 -0.17948280654E+02 -0.29326403673E+02  0.37384947182E+02  0.51100000000E-03 0. -1.
         23    2    1    0    0    0 -0.27002373406E+01 -0.75036339993E+01  0.27533928091E+02  0.96424463183E+02  0.92064999316E+02 0.  0.
         11    1    3    3    0    0  0.11978166685E+02  0.10444646655E+02  0.56860331765E+02  0.59039516000E+02  0.51100000000E-03 0.  1.
         22    1    1    0    0    0  0.27002373406E+01  0.75036339993E+01 -0.27533928091E+02  0.28665536817E+02  0.00000000000E+00 0.  1.
</event>
<event>
 5    1  0.1044283E-009  0.9118800E+02  0.7815553E-02  0.1125453E+00
         25   -1    0    0    0    0  0.00000000000E+00  0.00000000000E+00  0.99999998245E-14  0.12509000000E+03  0.12509000000E+03 0.  0.
        -11    1    3    3    0    0 -0.26048069709E+02  0.98831658544E+01  0.92230010341E+01  0.29346935976E+02  0.51100000000E-03 0. -1.
         23    2    1    0    0    0  0.33244976909E+02 -0.62705618547E+01  0.40172950228E+01  0.91021141860E+02  0.84404746138E+02 0.  0.
         11    1    3    3    0    0  0.59293046618E+02 -0.16153727709E+02 -0.52057060113E+01  0.61674205884E+02  0.51100000000E-03 0.  1.
         22    1    1    0    0    0 -0.33244976909E+02  0.62705618547E+01 -0.40172950228E+01  0.34068858140E+02  0.00000000000E+00 0.  1.
</event>
<event>
 5    1  0.1044283E-009  0.9118800E+02  0.7815553E-02  0.1125453E+00
         25   -1    0    0    0    0  0.00000000000E+00  0.00000000000E+00  0.99999998245E-14  0.12509000000E+03  0.12509000000E+03 0.  0.
        -11    1    3    3    0    0 -0.45426551948E+02  0.40113203478E+02 -0.66969819806E+01  0.60971225042E+02  0.51100000000E-03 0.  1.
         23    2    1    0    0    0 -0.19623755037E+02  0.16369361542E+02 -0.12711449478E+02  0.96548298809E+02  0.92233103038E+02 0.  0.
         11    1    3    3    0    0  0.25802796911E+02 -0.23743841936E+02 -0.60144674970E+01  0.35577073767E+02  0.51100000000E-03 0. -1.
         22    1    1    0    0    0  0.19623755037E+02 -0.16369361542E+02  0.12711449478E+02  0.28541701191E+02  0.00000000000E+00 0.  1.
</event>
<event>
 5    1  0.1044283E-009  0.9118800E+02  0.7815553E-02  0.1125453E+00
         25   -1    0    0    0    0  0.00000000000E+00  0.00000000000E+00  0.99999998245E-14  0.12509000000E+03  0.12509000000E+03 0.  0.
        -11    1    3    3    0    0  0.42336059759E+02 -0.35243798575E+02 -0.20281721878E+02  0.58701069296E+02  0.51100000000E-03 0.  1.
         23    2    1    0    0    0  0.19498123621E+02 -0.24141898032E+02  0.39577412518E+01  0.93806269705E+02  0.88436103798E+02 0.  0.
         11    1    3    3    0    0 -0.22837936138E+02  0.11101900543E+02  0.24239463130E+02  0.35105200409E+02  0.51100000000E-03 0. -1.
         22    1    1    0    0    0 -0.19498123621E+02  0.24141898032E+02 -0.39577412518E+01  0.31283730295E+02  0.00000000000E+00 0.  1.
</event>
<event>
 5    1  0.1044283E-009  0.9118800E+02  0.7815553E-02  0.1125453E+00
         25   -1    0    0    0    0  0.00000000000E+00  0.00000000000E+00  0.99999998245E-14  0.12509000000E+03  0.12509000000E+03 0.  0.
        -11    1    3    3    0    0  0.12647805754E+02 -0.20165077241E+02  0.31418427938E+02  0.39417190982E+02  0.51100000000E-03 0.  1.
         23    2    1    0    0    0 -0.28382091753E+02 -0.23341858558E+01 -0.38083681427E+01  0.96358567321E+02  0.91975422110E+02 0.  0.
         11    1    3    3    0    0 -0.41029897507E+02  0.17830891385E+02 -0.35226796081E+02  0.56941376339E+02  0.51100000000E-03 0. -1.
         22    1    1    0    0    0  0.28382091753E+02  0.23341858558E+01  0.38083681427E+01  0.28731432679E+02  0.00000000000E+00 0. -1.
</event>
<event>
 5    1  0.1044283E-009  0.9118800E+02  0.7815553E-02  0.1125453E+00
         25   -1    0    0    0    0  0.00000000000E+00  0.00000000000E+00  0.99999998245E-14  0.12509000000E+03  0.12509000000E+03 0.  0.
        -11    1    3    3    0    0  0.26721760224E+00  0.18954204883E+02 -0.52851790863E+02  0.56148420153E+02  0.51100000000E-03 0.  1.
         23    2    1    0    0    0 -0.18453788810E+02  0.14343190134E+02 -0.19593583901E+02  0.94591181093E+02  0.89539452677E+02 0.  0.
         11    1    3    3    0    0 -0.18721006412E+02 -0.46110147490E+01  0.33258206962E+02  0.38442760940E+02  0.51100000000E-03 0. -1.
         22    1    1    0    0    0  0.18453788810E+02 -0.14343190134E+02  0.19593583901E+02  0.30498818907E+02  0.00000000000E+00 0.  1.
</event>
<event>
 5    1  0.1044283E-009  0.9118800E+02  0.7815553E-02  0.1125453E+00
         25   -1    0    0    0    0  0.00000000000E+00  0.00000000000E+00  0.99999998245E-14  0.12509000000E+03  0.12509000000E+03 0.  0.
        -11    1    3    3    0    0 -0.22286964194E+02 -0.13621459260E+02  0.22634124338E+02  0.34562356837E+02  0.51100000000E-03 0. -1.
         23    2    1    0    0    0 -0.31998637759E+01  0.16834889779E+02 -0.25335177297E+02  0.94503665621E+02  0.89417106670E+02 0.  0.
         11    1    3    3    0    0  0.19087100418E+02  0.30456349039E+02 -0.47969301635E+02  0.59941308784E+02  0.51100000000E-03 0.  1.
         22    1    1    0    0    0  0.31998637759E+01 -0.16834889779E+02  0.25335177297E+02  0.30586334379E+02  0.00000000000E+00 0.  1.
</event>
<event>
 5    1  0.1044283E-009  0.9118800E+02  0.7815553E-02  0.1125453E+00
         25   -1    0    0    0    0  0.00000000000E+00  0.00000000000E+00  0.99999998245E-14  0.12509000000E+03  0.12509000000E+03 0.  0.
        -11    1    3    3    0    0  0.52845188127E+01 -0.28969079940E+01 -0.39399666390E+02  0.39857896670E+02  0.51100000000E-03 0. -1.
         23    2    1    0    0    0 -0.27817444382E+02  0.11369976277E+02  0.22680801124E+01  0.94953132879E+02  0.90043693192E+02 0.  0.
         11    1    3    3    0    0 -0.33101963194E+02  0.14266884271E+02  0.41667746503E+02  0.55095236210E+02  0.51100000000E-03 0.  1.
         22    1    1    0    0    0  0.27817444382E+02 -0.11369976277E+02 -0.22680801124E+01  0.30136867121E+02  0.00000000000E+00 0. -1.
</event>
<event>
 5    1  0.1044283E-009  0.9118800E+02  0.7815553E-02  0.1125453E+00
         25   -1    0    0    0    0  0.00000000000E+00  0.00000000000E+00  0.99999998245E-14  0.12509000000E+03  0.12509000000E+03 0.  0.
        -11    1    3    3    0    0 -0.15019355925E+02  0.29422066665E+02  0.44740689387E+02  0.55614461666E+02  0.51100000000E-03 0. -1.
         23    2    1    0    0    0  0.44266279785E+01  0.25087095310E+02  0.63983209166E+01  0.98824130570E+02  0.95269685032E+02 0.  0.
         11    1    3    3    0    0  0.19445983904E+02 -0.43349713551E+01 -0.38342368471E+02  0.43209668904E+02  0.51100000000E-03 0.  1.
         22    1    1    0    0    0 -0.44266279785E+01 -0.25087095310E+02 -0.63983209166E+01  0.26265869430E+02  0.00000000000E+00 0. -1.
</event>
<event>
 5    1  0.1044283E-009  0.9118800E+02  0.7815553E-02  0.1125453E+00
         25   -1    0    0    0    0  0.00000000000E+00  0.00000000000E+00  0.99999998245E-14  0.12509000000E+03  0.12509000000E+03 0.  0.
        -11    1    3    3    0    0 -0.16637935761E+02 -0.37213958477E+02 -0.38771305534E+02  0.56257566114E+02  0.51100000000E-03 0. -1.
         23    2    1    0    0    0  0.12048559282E+02 -0.17487712594E+02 -0.20491333261E+02  0.95579279722E+02  0.90909384008E+02 0.  0.
         11    1    3    3    0    0  0.28686495043E+02  0.19726245883E+02  0.18279972274E+02  0.39321713608E+02  0.51100000000E-03 0.  1.
         22    1    1    0    0    0 -0.12048559282E+02  0.17487712594E+02  0.20491333261E+02  0.29510720278E+02  0.00000000000E+00 0. -1.
</event>
<event>
 5    1  0.1044283E-009  0.9118800E+02  0.7815553E-02  0.1125453E+00
         25   -1    0    0    0    0  0.00000000000E+00  0.00000000000E+00  0.99999998245E-14  0.12509000000E+03  0.12509000000E+03 0.  0.
        -11    1    3    3    0    0 -0.33168505193E+02  0.11414721986E+02  0.24641572281E+02  0.42867851585E+02  0.51100000000E-03 0.  1.
         23    2    1    0    0    0  0.18675190308E+02  0.66076456543E+01  0.22688256248E+02  0.94970559671E+02  0.90067899490E+02 0.  0.
         11    1    3    3    0    0  0.51843695501E+02 -0.48070763319E+01 -0.19533160329E+01  0.52102708086E+02  0.51100000000E-03 0. -1.
         22    1    1    0    0    0 -0.18675190308E+02 -0.66076456543E+01 -0.22688256248E+02  0.30119440329E+02  0.00000000000E+00 0. -1.
</event>
<event>
 5    1  0.1044283E-009  0.9118800E+02  0.7815553E-02  0.1125453E+00
         25   -1    0    0    0    0  0.00000000000E+00  0.00000000000E+00  0.99999998245E-14  0.12509000000E+03  0.12509000000E+03 0.  0.
        -11    1    3    3    0    0  0.19509505178E+02  0.26382500136E+01 -0.41026721672E+02  0.45505747404E+02  0.51100000000E-03 0. -1.
         23    2    1    0    0    0 -0.50949877696E+01  0.29368043298E+02 -0.89536879201E+01  0.93967509821E+02  0.88663879382E+02 0.  0.
         11    1    3    3    0    0 -0.24604492947E+02  0.26729793285E+02  0.32073033752E+02  0.48461762417E+02  0.51100000000E-03 0.  1.
         22    1    1    0    0    0  0.50949877696E+01 -0.29368043298E+02  0.89536879201E+01  0.31122490179E+02  0.00000000000E+00 0.  1.
</event>
<event>
 5    1  0.1044283E-009  0.9118800E+02  0.7815553E-02  0.1125453E+00
         25   -1    0    0    0    0  0.00000000000E+00  0.00000000000E+00  0.99999998245E-14  0.12509000000E+03  0.12509000000E+03 0.  0.
        -11    1    3    3    0    0  0.42999570183E+02  0.23815438008E+02 -0.14681496821E+02  0.51299946126E+02  0.51100000000E-03 0. -1.
         23    2    1    0    0    0  0.16607778814E+02  0.11282266705E+02  0.20070136196E+02  0.96701301086E+02  0.92440377572E+02 0.  0.
         11    1    3    3    0    0 -0.26391791369E+02 -0.12533171303E+02  0.34751633017E+02  0.45401354959E+02  0.51100000000E-03 0.  1.
         22    1    1    0    0    0 -0.16607778814E+02 -0.11282266705E+02 -0.20070136196E+02  0.28388698914E+02  0.00000000000E+00 0. -1.
</event>
<event>
 5    1  0.1044283E-009  0.9118800E+02  0.7815553E-02  0.1125453E+00
         25   -1    0    0    0    0  0.00000000000E+00  0.00000000000E+00  0.99999998245E-14  0.12509000000E+03  0.12509000000E+03 0.  0.
        -11    1    3    3    0    0  0.35528277624E+02 -0.94627383198E+01 -0.24824458591E+02  0.44362773494E+02  0.51100000000E-03 0.  1.
         23    2    1    0    0    0  0.14920829126E+02 -0.11490424441E+02  0.22339170153E+02  0.95871863188E+02  0.91311087128E+02 0.  0.
         11    1    3    3    0    0 -0.20607448498E+02 -0.20276861214E+01  0.47163628744E+02  0.51509089695E+02  0.51100000000E-03 0. -1.
         22    1    1    0    0    0 -0.14920829126E+02  0.11490424441E+02 -0.22339170153E+02  0.29218136812E+02  0.00000000000E+00 0. -1.
</event>
<event>
 5    1  0.1044283E-009  0.9118800E+02  0.7815553E-02  0.1125453E+00
         25   -1    0    0    0    0  0.00000000000E+00  0.00000000000E+00  0.99999998245E-14  0.12509000000E+03  0.12509000000E+03 0.  0.
        -11    1    3    3    0    0 -0.34482921620E+02 -0.86009225627E+01  0.20058342385E+02  0.40809127066E+02  0.51100000000E-03 0. -1.
         23    2    1    0    0    0  0.67087368969E+00 -0.23026182129E+02 -0.18946599374E+02  0.95263354818E+02  0.90473631564E+02 0.  0.
         11    1    3    3    0    0  0.35153795310E+02 -0.14425259566E+02 -0.39004941759E+02  0.54454227753E+02  0.51100000000E-03 0.  1.
         22    1    1    0    0    0 -0.67087368969E+00  0.23026182129E+02  0.18946599374E+02  0.29826645182E+02  0.00000000000E+00 0.  1.
</event>
<event>
 5    1  0.1044283E-009  0.9118800E+02  0.7815553E-02  0.1125453E+00
         25   -1    0    0    0    0  0.00000000000E+00  0.00000000000E+00  0.99999998245E-14  0.12509000000E+03  0.12509000000E+03 0.  0.
        -11    1    3    3    0    0  0.43497257807E+02  0.25770450314E+01  0.16753889479E+02  0.46683459712E+02  0.51100000000E-03 0. -1.
         23    2    1    0    0    0  0.11981340998E+02 -0.25152960058E+02 -0.88538088068E+01  0.95856220529E+02  0.91289655229E+02 0.  0.
         11    1    3    3    0    0 -0.31515916808E+02 -0.27730005089E+02 -0.25607698286E+02  0.49172760816E+02  0.51100000000E-03 0.  1.
         22    1    1    0    0    0 -0.11981340998E+02  0.25152960058E+02  0.88538088068E+01  0.29233779471E+02  0.00000000000E+00 0. -1.
</event>
<event>
 5    1  0.1044283E-009  0.9118800E+02  0.7815553E-02  0.1125453E+00
         25   -1    0    0    0    0  0.00000000000E+00  0.00000000000E+00  0.99999998245E-14  0.12509000000E+03  0.12509000000E+03 0.  0.
        -11    1    3    3    0    0  0.30306590681E+02 -0.12805588948E+02  0.92138723912E+01  0.34166767359E+02  0.51100000000E-03 0.  1.
         23    2    1    0    0    0 -0.27011367457E+02  0.98553212227E+01  0.13021343623E+01  0.96307420508E+02  0.91905834215E+02 0.  0.
         11    1    3    3    0    0 -0.57317958138E+02  0.22660910171E+02 -0.79117380289E+01  0.62140653149E+02  0.51100000000E-03 0. -1.
         22    1    1    0    0    0  0.27011367457E+02 -0.98553212227E+01 -0.13021343623E+01  0.28782579492E+02  0.00000000000E+00 0. -1.
</event>
<event>
 5    1  0.1044283E-009  0.9118800E+02  0.7815553E-02  0.1125453E+00
         25   -1    0    0    0    0  0.00000000000E+00  0.00000000000E+00  0.99999998245E-14  0.12509000000E+03  0.12509000000E+03 0.  0.
        -11    1    3    3    0    0  0.36176092025E+02  0.11867984571E+02  0.15162086113E+02  0.40981063280E+02  0.51100000000E-03 0.  1.
         23    2    1    0    0    0 -0.15434091596E+01 -0.26993059470E+02 -0.24813516118E+01  0.97939226950E+02  0.94100625388E+02 0.  0.
         11    1    3    3    0    0 -0.37719501185E+02 -0.38861044041E+02 -0.17643437725E+02  0.56958163670E+02  0.51100000000E-03 0. -1.
         22    1    1    0    0    0  0.15434091596E+01  0.26993059470E+02  0.24813516118E+01  0.27150773050E+02  0.00000000000E+00 0. -1.
</event>
<event>
 5    1  0.1044283E-009  0.9118800E+02  0.7815553E-02  0.1125453E+00
         25   -1    0    0    0    0  0.00000000000E+00  0.00000000000E+00  0.99999998245E-14  0.12509000000E+03  0.12509000000E+03 0.  0.
        -11    1    3    3    0    0 -0.10792380119E+02 -0.12786132704E+02 -0.29370385704E+02  0.33802074120E+02  0.51100000000E-03 0.  1.
         23    2    1    0    0    0  0.93510873129E+01  0.86693119357E+01  0.25788667331E+02  0.96321003388E+02  0.91924319566E+02 0.  0.
         11    1    3    3    0    0  0.20143467432E+02  0.21455444640E+02  0.55159053035E+02  0.62518929268E+02  0.51100000000E-03 0. -1.
         22    1    1    0    0    0 -0.93510873129E+01 -0.86693119357E+01 -0.25788667331E+02  0.28768996612E+02  0.00000000000E+00 0. -1.
</event>
<event>
 5    1  0.1044283E-009  0.9118800E+02  0.7815553E-02  0.1125453E+00
         25   -1    0    0    0    0  0.00000000000E+00  0.00000000000E+00  0.99999998245E-14  0.12509000000E+03  0.12509000000E+03 0.  0.
        -11    1    3    3    0    0 -0.78612607489E+01  0.93047001671E+01  0.20233581774E+02  0.23617254231E+02  0.51100000000E-03 0.  1.
         23    2    1    0    0    0  0.13730659628E+02 -0.32487791870E+02 -0.19139760799E+02  0.84961231294E+02  0.74887200142E+02 0.  0.
         11    1    3    3    0    0  0.21591920377E+02 -0.41792492037E+02 -0.39373342573E+02  0.61343977063E+02  0.51100000000E-03 0. -1.
         22    1    1    0    0    0 -0.13730659628E+02  0.32487791870E+02  0.19139760799E+02  0.40128768706E+02  0.00000000000E+00 0. -1.
</event>
<event>
 5    1  0.1044283E-009  0.9118800E+02  0.7815553E-02  0.1125453E+00
         25   -1    0    0    0    0  0.00000000000E+00  0.00000000000E+00  0.99999998245E-14  0.12509000000E+03  0.12509000000E+03 0.  0.
        -11    1    3    3    0    0 -0.41518708358E+01  0.40823178965E+02  0.32457062189E+02  0.52318551762E+02  0.51100000000E-03 0.  1.
         23    2    1    0    0    0 -0.24737496726E+01  0.25683068412E+02 -0.99942066167E+01  0.97420095656E+02  0.93407983766E+02 0.  0.
         11    1    3    3    0    0  0.16781211633E+01 -0.15140110552E+02 -0.42451268806E+02  0.45101543894E+02  0.51100000000E-03 0. -1.
         22    1    1    0    0    0  0.24737496726E+01 -0.25683068412E+02  0.99942066167E+01  0.27669904344E+02  0.00000000000E+00 0.  1.
</event>
<event>
 5    1  0.1044283E-009  0.9118800E+02  0.7815553E-02  0.1125453E+00
         25   -1    0    0    0    0  0.00000000000E+00  0.00000000000E+00  0.99999998245E-14  0.12509000000E+03  0.12509000000E+03 0.  0.
        -11    1    3    3    0    0 -0.18095137977E+02 -0.65197936656E+01 -0.33282166841E+02  0.38440139929E+02  0.51100000000E-03 0. -1.
         23    2    1    0    0    0 -0.18304678514E+02  0.73563041290E+01  0.22059981495E+02  0.95495756480E+02  0.90794384497E+02 0.  0.
         11    1    3    3    0    0 -0.20954053679E+00  0.13876097795E+02  0.55342148337E+02  0.57055616551E+02  0.51100000000E-03 0.  1.
         22    1    1    0    0    0  0.18304678514E+02 -0.73563041290E+01 -0.22059981495E+02  0.29594243520E+02  0.00000000000E+00 0.  1.
</event>
<event>
 5    1  0.1044283E-009  0.9118800E+02  0.7815553E-02  0.1125453E+00
         25   -1    0    0    0    0  0.00000000000E+00  0.00000000000E+00  0.99999998245E-14  0.12509000000E+03  0.12509000000E+03 0.  0.
        -11    1    3    3    0    0  0.18172602479E+02  0.28906245436E+02 -0.51127960452E+02  0.61480751836E+02  0.51100000000E-03 0.  1.
         23    2    1    0    0    0  0.51058809954E+01  0.20130464105E+02 -0.20542886386E+02  0.95878430599E+02  0.91320083592E+02 0.  0.
         11    1    3    3    0    0 -0.13066721484E+02 -0.87757813312E+01  0.30585074067E+02  0.34397678762E+02  0.51100000000E-03 0. -1.
         22    1    1    0    0    0 -0.51058809954E+01 -0.20130464105E+02  0.20542886386E+02  0.29211569401E+02  0.00000000000E+00 0.  1.
</event>
<event>
 5    1  0.1044283E-009  0.9118800E+02  0.7815553E-02  0.1125453E+00
         25   -1    0    0    0    0  0.00000000000E+00  0.00000000000E+00  0.99999998245E-14  0.12509000000E+03  0.12509000000E+03 0.  0.
        -11    1    3    3    0    0 -0.18824442946E+02  0.33737578688E+02 -0.28724749380E+02  0.48142445878E+02  0.51100000000E-03 0. -1.
         23    2    1    0    0    0 -0.18287792758E+02 -0.13118020734E+02 -0.18144377039E+02  0.96180758397E+02  0.91733276600E+02 0.  0.
         11    1    3    3    0    0  0.53665018754E+00 -0.46855599421E+02  0.10580372341E+02  0.48038312519E+02  0.51100000000E-03 0.  1.
         22    1    1    0    0    0  0.18287792758E+02  0.13118020734E+02  0.18144377039E+02  0.28909241603E+02  0.00000000000E+00 0.  1.
</event>
<event>
 5    1  0.1044283E-009  0.9118800E+02  0.7815553E-02  0.1125453E+00
         25   -1    0    0    0    0  0.00000000000E+00  0.00000000000E+00  0.99999998245E-14  0.12509000000E+03  0.12509000000E+03 0.  0.
        -11    1    3    3    0    0 -0.44950712439E+02 -0.32010754069E+01 -0.11019321214E+02  0.46392228582E+02  0.51100000000E-03 0. -1.
         23    2    1    0    0    0 -0.11599661856E+02 -0.11659204600E+02  0.24330581978E+02  0.95722221288E+02  0.91105857232E+02 0.  0.
         11    1    3    3    0    0  0.33351050583E+02 -0.84581291928E+01  0.35349903192E+02  0.49329992706E+02  0.51100000000E-03 0.  1.
         22    1    1    0    0    0  0.11599661856E+02  0.11659204600E+02 -0.24330581978E+02  0.29367778712E+02  0.00000000000E+00 0.  1.
</event>
<event>
 5    1  0.1044283E-009  0.9118800E+02  0.7815553E-02  0.1125453E+00
         25   -1    0    0    0    0  0.00000000000E+00  0.00000000000E+00  0.99999998245E-14  0.12509000000E+03  0.12509000000E+03 0.  0.
        -11    1    3    3    0    0 -0.44353861874E+02  0.33795987383E+02  0.22625577293E+02  0.60177658433E+02  0.51100000000E-03 0.  1.
         23    2    1    0    0    0 -0.11314865380E+02  0.23716726694E+02  0.10636714652E+02  0.96741296286E+02  0.92494483105E+02 0.  0.
         11    1    3    3    0    0  0.33038996494E+02 -0.10079260689E+02 -0.11988862641E+02  0.36563637853E+02  0.51100000000E-03 0. -1.
         22    1    1    0    0    0  0.11314865380E+02 -0.23716726694E+02 -0.10636714652E+02  0.28348703714E+02  0.00000000000E+00 0.  1.
</event>
<event>
 5    1  0.1044283E-009  0.9118800E+02  0.7815553E-02  0.1125453E+00
         25   -1    0    0    0    0  0.00000000000E+00  0.00000000000E+00  0.99999998245E-14  0.12509000000E+03  0.12509000000E+03 0.  0.
        -11    1    3    3    0    0 -0.33228965604E+02 -0.38805033444E+02  0.49139410591E+01  0.51323889103E+02  0.51100000000E-03 0. -1.
         23    2    1    0    0    0 -0.13199473861E+02 -0.21755781999E+01  0.24298181835E+02  0.97352644481E+02  0.93317610858E+02 0.  0.
         11    1    3    3    0    0  0.20029491743E+02  0.36629455244E+02  0.19384240776E+02  0.46028755378E+02  0.51100000000E-03 0.  1.
         22    1    1    0    0    0  0.13199473861E+02  0.21755781999E+01 -0.24298181835E+02  0.27737355519E+02  0.00000000000E+00 0. -1.
</event>
<event>
 5    1  0.1044283E-009  0.9118800E+02  0.7815553E-02  0.1125453E+00
         25   -1    0    0    0    0  0.00000000000E+00  0.00000000000E+00  0.99999998245E-14  0.12509000000E+03  0.12509000000E+03 0.  0.
        -11    1    3    3    0    0 -0.83207332732E+01 -0.30252543607E+02 -0.20600179495E+02  0.37534229610E+02  0.51100000000E-03 0.  1.
         23    2    1    0    0    0 -0.98279365445E+01  0.26385956667E+02 -0.10219936210E+02  0.95135799258E+02  0.90297099391E+02 0.  0.
         11    1    3    3    0    0 -0.15072032714E+01  0.56638500274E+02  0.10380243285E+02  0.57601569648E+02  0.51100000000E-03 0. -1.
         22    1    1    0    0    0  0.98279365445E+01 -0.26385956667E+02  0.10219936210E+02  0.29954200742E+02  0.00000000000E+00 0. -1.
</event>
<event>
 5    1  0.1044283E-009  0.9118800E+02  0.7815553E-02  0.1125453E+00
         25   -1    0    0    0    0  0.00000000000E+00  0.00000000000E+00  0.99999998245E-14  0.12509000000E+03  0.12509000000E+03 0.  0.
        -11    1    3    3    0    0 -0.42083944453E+02  0.55279599902E+01 -0.72455813376E+01  0.43059437659E+02  0.51100000000E-03 0.  1.
         23    2    1    0    0    0 -0.36605917891E+01 -0.22005787762E+02  0.17796294108E+02  0.96552958961E+02  0.92239423095E+02 0.  0.
         11    1    3    3    0    0  0.38423352664E+02 -0.27533747752E+02  0.25041875446E+02  0.53493521302E+02  0.51100000000E-03 0. -1.
         22    1    1    0    0    0  0.36605917891E+01  0.22005787762E+02 -0.17796294108E+02  0.28537041039E+02  0.00000000000E+00 0. -1.
</event>
<event>
 5    1  0.1044283E-009  0.9118800E+02  0.7815553E-02  0.1125453E+00
         25   -1    0    0    0    0  0.00000000000E+00  0.00000000000E+00  0.99999998245E-14  0.12509000000E+03  0.12509000000E+03 0.  0.
        -11    1    3    3    0    0 -0.10299825485E+02  0.38848642633E+02 -0.33127576249E+01  0.40327134820E+02  0.51100000000E-03 0. -1.
         23    2    1    0    0    0 -0.52845265707E+01  0.58915826414E+00  0.32010810349E+02  0.92640573075E+02  0.86771599455E+02 0.  0.
         11    1    3    3    0    0  0.50152989141E+01 -0.38259484369E+02  0.35323567974E+02  0.52313438255E+02  0.51100000000E-03 0.  1.
         22    1    1    0    0    0  0.52845265707E+01 -0.58915826414E+00 -0.32010810349E+02  0.32449426925E+02  0.00000000000E+00 0.  1.
</event>
<event>
 5    1  0.1044283E-009  0.9118800E+02  0.7815553E-02  0.1125453E+00
         25   -1    0    0    0    0  0.00000000000E+00  0.00000000000E+00  0.99999998245E-14  0.12509000000E+03  0.12509000000E+03 0.  0.
        -11    1    3    3    0    0 -0.14811704443E+02 -0.58697922576E+02  0.13402448482E+02  0.62003696090E+02  0.51100000000E-03 0. -1.
         23    2    1    0    0    0 -0.44501600396E+01 -0.31463410419E+02  0.21468431557E+01  0.93240996011E+02  0.87632894977E+02 0.  0.
         11    1    3    3    0    0  0.10361544403E+02  0.27234512157E+02 -0.11255605327E+02  0.31237299921E+02  0.51100000000E-03 0.  1.
         22    1    1    0    0    0  0.44501600396E+01  0.31463410419E+02 -0.21468431557E+01  0.31849003989E+02  0.00000000000E+00 0. -1.
</event>
<event>
 5    1  0.1044283E-009  0.9118800E+02  0.7815553E-02  0.1125453E+00
         25   -1    0    0    0    0  0.00000000000E+00  0.00000000000E+00  0.99999998245E-14  0.12509000000E+03  0.12509000000E+03 0.  0.
        -11    1    3    3    0    0  0.57254278036E+02  0.17150694457E+02 -0.47458963985E+01  0.59956002257E+02  0.51100000000E-03 0.  1.
         23    2    1    0    0    0  0.21481770944E+02  0.17233279314E+02  0.51510083559E+01  0.97072411134E+02  0.92941205703E+02 0.  0.
         11    1    3    3    0    0 -0.35772507092E+02  0.82584856665E-01  0.98969047544E+01  0.37116408876E+02  0.51100000000E-03 0. -1.
         22    1    1    0    0    0 -0.21481770944E+02 -0.17233279314E+02 -0.51510083559E+01  0.28017588866E+02  0.00000000000E+00 0.  1.
</event>
<event>
 5    1  0.1044283E-009  0.9118800E+02  0.7815553E-02  0.1125453E+00
         25   -1    0    0    0    0  0.00000000000E+00  0.00000000000E+00  0.99999998245E-14  0.12509000000E+03  0.12509000000E+03 0.  0.
        -11    1    3    3    0    0  0.23441140809E+01  0.60608342473E+01 -0.37262009082E+02  0.37824408835E+02  0.51100000000E-03 0.  1.
         23    2    1    0    0    0  0.97953338655E+01  0.19126165102E+02  0.19210993287E+02  0.96266033928E+02  0.91849487032E+02 0.  0.
         11    1    3    3    0    0  0.74512197846E+01  0.13065330855E+02  0.56473002369E+02  0.58441625093E+02  0.51100000000E-03 0. -1.
         22    1    1    0    0    0 -0.97953338655E+01 -0.19126165102E+02 -0.19210993287E+02  0.28823966072E+02  0.00000000000E+00 0. -1.
</event>
<event>
 5    1  0.1044283E-009  0.9118800E+02  0.7815553E-02  0.1125453E+00
         25   -1    0    0    0    0  0.00000000000E+00  0.00000000000E+00  0.99999998245E-14  0.12509000000E+03  0.12509000000E+03 0.  0.
        -11    1    3    3    0    0 -0.20814925886E+02 -0.24890567114E+02 -0.95572926086E+01  0.33825187556E+02  0.51100000000E-03 0. -1.
         23    2    1    0    0    0  0.26568074467E+02  0.13321556435E+02 -0.57706667481E+01  0.94814150855E+02  0.89850409909E+02 0.  0.
         11    1    3    3    0    0  0.47383000353E+02  0.38212123550E+02  0.37866258605E+01  0.60988963299E+02  0.51100000000E-03 0.  1.
         22    1    1    0    0    0 -0.26568074467E+02 -0.13321556435E+02  0.57706667481E+01  0.30275849145E+02  0.00000000000E+00 0.  1.
</event>
<event>
 5    1  0.1044283E-009  0.9118800E+02  0.7815553E-02  0.1125453E+00
         25   -1    0    0    0    0  0.00000000000E+00  0.00000000000E+00  0.99999998245E-14  0.12509000000E+03  0.12509000000E+03 0.  0.
        -11    1    3    3    0    0  0.70770050062E+00 -0.42707056709E+02  0.35566523265E+02  0.55582111422E+02  0.51100000000E-03 0. -1.
         23    2    1    0    0    0 -0.13722060102E+02 -0.81959958877E+01  0.26614766030E+02  0.94044629123E+02  0.88772615226E+02 0.  0.
         11    1    3    3    0    0 -0.14429760603E+02  0.34511060821E+02 -0.89517572348E+01  0.38462517701E+02  0.51100000000E-03 0.  1.
         22    1    1    0    0    0  0.13722060102E+02  0.81959958877E+01 -0.26614766030E+02  0.31045370877E+02  0.00000000000E+00 0. -1.
</event>
<event>
 5    1  0.1044283E-009  0.9118800E+02  0.7815553E-02  0.1125453E+00
         25   -1    0    0    0    0  0.00000000000E+00  0.00000000000E+00  0.99999998245E-14  0.12509000000E+03  0.12509000000E+03 0.  0.
        -11    1    3    3    0    0 -0.94249803902E+01 -0.41453780681E+02 -0.42294180685E+02  0.59967023506E+02  0.51100000000E-03 0.  1.
         23    2    1    0    0    0  0.83269384394E+01 -0.18847168684E+02 -0.20354474595E+02  0.96126949276E+02  0.91659871644E+02 0.  0.
         11    1    3    3    0    0  0.17751918830E+02  0.22606611997E+02  0.21939706090E+02  0.36159925770E+02  0.51100000000E-03 0. -1.
         22    1    1    0    0    0 -0.83269384394E+01  0.18847168684E+02  0.20354474595E+02  0.28963050724E+02  0.00000000000E+00 0.  1.
</event>
<event>
 5    1  0.1044283E-009  0.9118800E+02  0.7815553E-02  0.1125453E+00
         25   -1    0    0    0    0  0.00000000000E+00  0.00000000000E+00  0.99999998245E-14  0.12509000000E+03  0.12509000000E+03 0.  0.
        -11    1    3    3    0    0 -0.54373028363E+02  0.24800939510E+02 -0.11171956462E+02  0.60797412983E+02  0.51100000000E-03 0.  1.
         23    2    1    0    0    0 -0.23704786122E+02  0.63020439050E+01 -0.14212369562E+02  0.96741735661E+02  0.92495077316E+02 0.  0.
         11    1    3    3    0    0  0.30668242241E+02 -0.18498895605E+02 -0.30404130995E+01  0.35944322679E+02  0.51100000000E-03 0. -1.
         22    1    1    0    0    0  0.23704786122E+02 -0.63020439050E+01  0.14212369562E+02  0.28348264339E+02  0.00000000000E+00 0.  1.
</event>
<event>
 5    1  0.1044283E-009  0.9118800E+02  0.7815553E-02  0.1125453E+00
         25   -1    0    0    0    0  0.00000000000E+00  0.00000000000E+00  0.99999998245E-14  0.12509000000E+03  0.12509000000E+03 0.  0.
        -11    1    3    3    0    0  0.24644123552E+02 -0.47805448810E+02 -0.29439767162E+02  0.61313894448E+02  0.51100000000E-03 0.  1.
         23    2    1    0    0    0  0.13636653296E+02 -0.16268609980E+02 -0.19754389659E+02  0.96092381225E+02  0.91612683811E+02 0.  0.
         11    1    3    3    0    0 -0.11007470256E+02  0.31536838831E+02  0.96853775031E+01  0.34778486777E+02  0.51100000000E-03 0. -1.
         22    1    1    0    0    0 -0.13636653296E+02  0.16268609980E+02  0.19754389659E+02  0.28997618775E+02  0.00000000000E+00 0.  1.
</event>
<event>
 5    1  0.1044283E-009  0.9118800E+02  0.7815553E-02  0.1125453E+00
         25   -1    0    0    0    0  0.00000000000E+00  0.00000000000E+00  0.99999998245E-14  0.12509000000E+03  0.12509000000E+03 0.  0.
        -11    1    3    3    0    0  0.49672935278E+02  0.16474855016E+02 -0.92182717233E+01  0.53139419274E+02  0.51100000000E-03 0.  1.
         23    2    1    0    0    0  0.75168591483E+01  0.26278838223E+02 -0.86392761845E+01  0.96424382916E+02  0.92064890256E+02 0.  0.
         11    1    3    3    0    0 -0.42156076130E+02  0.98039832072E+01  0.57899553881E+00  0.43284963642E+02  0.51100000000E-03 0. -1.
         22    1    1    0    0    0 -0.75168591483E+01 -0.26278838223E+02  0.86392761845E+01  0.28665617084E+02  0.00000000000E+00 0.  1.
</event>
<event>
 5    1  0.1044283E-009  0.9118800E+02  0.7815553E-02  0.1125453E+00
         25   -1    0    0    0    0  0.00000000000E+00  0.00000000000E+00  0.99999998245E-14  0.12509000000E+03  0.12509000000E+03 0.  0.
        -11    1    3    3    0    0 -0.52709527536E+02  0.88384515647E+01 -0.95875634333E+01  0.54298562522E+02  0.51100000000E-03 0.  1.
         23    2    1    0    0    0 -0.17958658767E+02 -0.12533220196E+02  0.11641738520E+02  0.10028828415E+03  0.97173117833E+02 0.  0.
         11    1    3    3    0    0  0.34750868769E+02 -0.21371671761E+02  0.21229301953E+02  0.45989721631E+02  0.51100000000E-03 0. -1.
         22    1    1    0    0    0  0.17958658767E+02  0.12533220196E+02 -0.11641738520E+02  0.24801715847E+02  0.00000000000E+00 0.  1.
</event>
<event>
 5    1  0.1044283E-009  0.9118800E+02  0.7815553E-02  0.1125453E+00
         25   -1    0    0    0    0  0.00000000000E+00  0.00000000000E+00  0.99999998245E-14  0.12509000000E+03  0.12509000000E+03 0.  0.
        -11    1    3    3    0    0 -0.64592738135E+01  0.49532444716E+02  0.33908309158E+01  0.50066785719E+02  0.51100000000E-03 0. -1.
         23    2    1    0    0    0  0.10251298896E+02  0.13821988492E+02 -0.22147938416E+02  0.97042403472E+02  0.92900809472E+02 0.  0.
         11    1    3    3    0    0  0.16710572710E+02 -0.35710456224E+02 -0.25538769332E+02  0.46975617753E+02  0.51100000000E-03 0.  1.
         22    1    1    0    0    0 -0.10251298896E+02 -0.13821988492E+02  0.22147938416E+02  0.28047596528E+02  0.00000000000E+00 0.  1.
</event>
<event>
 5    1  0.1044283E-009  0.9118800E+02  0.7815553E-02  0.1125453E+00
         25   -1    0    0    0    0  0.00000000000E+00  0.00000000000E+00  0.99999998245E-14  0.12509000000E+03  0.12509000000E+03 0.  0.
        -11    1    3    3    0    0  0.42363122443E+02 -0.79772353669E+01  0.15426073165E+02  0.45784649838E+02  0.51100000000E-03 0. -1.
         23    2    1    0    0    0  0.15890053745E+02  0.13727784344E+02 -0.20734612256E+02  0.95579493118E+02  0.90909677639E+02 0.  0.
         11    1    3    3    0    0 -0.26473068698E+02  0.21705019711E+02 -0.36160685421E+02  0.49794843280E+02  0.51100000000E-03 0.  1.
         22    1    1    0    0    0 -0.15890053745E+02 -0.13727784344E+02  0.20734612256E+02  0.29510506882E+02  0.00000000000E+00 0. -1.
</event>
<event>
 5    1  0.1044283E-009  0.9118800E+02  0.7815553E-02  0.1125453E+00
         25   -1    0    0    0    0  0.00000000000E+00  0.00000000000E+00  0.99999998245E-14  0.12509000000E+03  0.12509000000E+03 0.  0.
        -11    1    3    3    0    0  0.11012062821E+02  0.18656894792E+02  0.30759004986E+02  0.37622621371E+02  0.51100000000E-03 0. -1.
         23    2    1    0    0    0  0.18635193003E+02 -0.16753219606E+02 -0.14924685224E+02  0.95923460704E+02  0.91381744889E+02 0.  0.
         11    1    3    3    0    0  0.76231301826E+01 -0.35410114398E+02 -0.45683690210E+02  0.58300839333E+02  0.51100000000E-03 0.  1.
         22    1    1    0    0    0 -0.18635193003E+02  0.16753219606E+02  0.14924685224E+02  0.29166539296E+02  0.00000000000E+00 0.  1.
</event>
<event>
 5    1  0.1044283E-009  0.9118800E+02  0.7815553E-02  0.1125453E+00
         25   -1    0    0    0    0  0.00000000000E+00  0.00000000000E+00  0.99999998245E-14  0.12509000000E+03  0.12509000000E+03 0.  0.
        -11    1    3    3    0    0 -0.20144124289E+02  0.56766052275E+02 -0.10626685557E+02  0.61164506705E+02  0.51100000000E-03 0. -1.
         23    2    1    0    0    0 -0.13885391211E+02  0.22816038316E+02 -0.12208789033E+02  0.95722837673E+02  0.91106703534E+02 0.  0.
         11    1    3    3    0    0  0.62587330784E+01 -0.33950013959E+02 -0.15821034759E+01  0.34558330967E+02  0.51100000000E-03 0.  1.
         22    1    1    0    0    0  0.13885391211E+02 -0.22816038316E+02  0.12208789033E+02  0.29367162327E+02  0.00000000000E+00 0. -1.
</event>
<event>
 5    1  0.1044283E-009  0.9118800E+02  0.7815553E-02  0.1125453E+00
         25   -1    0    0    0    0  0.00000000000E+00  0.00000000000E+00  0.99999998245E-14  0.12509000000E+03  0.12509000000E+03 0.  0.
        -11    1    3    3    0    0 -0.12569457724E+02  0.13077732872E+02 -0.28388508790E+02  0.33688659755E+02  0.51100000000E-03 0. -1.
         23    2    1    0    0    0 -0.11536108454E+01 -0.65035312192E+01  0.28977033278E+02  0.95369717466E+02  0.90620570599E+02 0.  0.
         11    1    3    3    0    0  0.11415846878E+02 -0.19581264091E+02  0.57365542068E+02  0.61681057711E+02  0.51100000000E-03 0.  1.
         22    1    1    0    0    0  0.11536108454E+01  0.65035312192E+01 -0.28977033278E+02  0.29720282534E+02  0.00000000000E+00 0.  1.
</event>
<event>
 5    1  0.1044283E-009  0.9118800E+02  0.7815553E-02  0.1125453E+00
         25   -1    0    0    0    0  0.00000000000E+00  0.00000000000E+00  0.99999998245E-14  0.12509000000E+03  0.12509000000E+03 0.  0.
        -11    1    3    3    0    0 -0.11224404880E+02 -0.37457351743E+02 -0.30873614904E+02  0.49821888383E+02  0.51100000000E-03 0. -1.
         23    2    1    0    0    0  0.12382500473E+02 -0.25561576286E+02  0.68378641051E+01  0.95875673280E+02  0.91316306546E+02 0.  0.
         11    1    3    3    0    0  0.23606905353E+02  0.11895775457E+02  0.37711479009E+02  0.46053784898E+02  0.51100000000E-03 0.  1.
         22    1    1    0    0    0 -0.12382500473E+02  0.25561576286E+02 -0.68378641051E+01  0.29214326720E+02  0.00000000000E+00 0. -1.
</event>
<event>
 5    1  0.1044283E-009  0.9118800E+02  0.7815553E-02  0.1125453E+00
         25   -1    0    0    0    0  0.00000000000E+00  0.00000000000E+00  0.99999998245E-14  0.12509000000E+03  0.12509000000E+03 0.  0.
        -11    1    3    3    0    0 -0.12565084208E+02  0.75436834881E+01  0.31231704643E+02  0.34499389515E+02  0.51100000000E-03 0.  1.
         23    2    1    0    0    0 -0.50417391566E+01  0.29439339936E+01 -0.29068525101E+02  0.95440969111E+02  0.90718870982E+02 0.  0.
         11    1    3    3    0    0  0.75233450513E+01 -0.45997494945E+01 -0.60300229745E+02  0.60941579596E+02  0.51100000000E-03 0. -1.
         22    1    1    0    0    0  0.50417391566E+01 -0.29439339936E+01  0.29068525101E+02  0.29649030889E+02  0.00000000000E+00 0. -1.
</event>
<event>
 5    1  0.1044283E-009  0.9118800E+02  0.7815553E-02  0.1125453E+00
         25   -1    0    0    0    0  0.00000000000E+00  0.00000000000E+00  0.99999998245E-14  0.12509000000E+03  0.12509000000E+03 0.  0.
        -11    1    3    3    0    0  0.54264822140E+02 -0.13082560525E+02  0.26045505598E+02  0.61597018384E+02  0.51100000000E-03 0.  1.
         23    2    1    0    0    0  0.16224763151E+02 -0.64686257259E+01  0.15784023694E+02  0.10154809137E+03  0.98781543814E+02 0.  0.
         11    1    3    3    0    0 -0.38040058988E+02  0.66139347992E+01 -0.10261481904E+02  0.39951072983E+02  0.51100000000E-03 0. -1.
         22    1    1    0    0    0 -0.16224763151E+02  0.64686257259E+01 -0.15784023694E+02  0.23541908632E+02  0.00000000000E+00 0.  1.
</event>
<event>
 5    1  0.1044283E-009  0.9118800E+02  0.7815553E-02  0.1125453E+00
         25   -1    0    0    0    0  0.00000000000E+00  0.00000000000E+00  0.99999998245E-14  0.12509000000E+03  0.12509000000E+03 0.  0.
        -11    1    3    3    0    0 -0.35877829076E+02  0.11922304325E+01 -0.14545187473E+02  0.38732447786E+02  0.51100000000E-03 0.  1.
         23    2    1    0    0    0 -0.66578662190E+00 -0.37087791251E+01  0.29508470298E+02  0.95341922184E+02  0.90582194674E+02 0.  0.
         11    1    3    3    0    0  0.35212042454E+02 -0.49010095576E+01  0.44053657770E+02  0.56609474398E+02  0.51100000000E-03 0. -1.
         22    1    1    0    0    0  0.66578662190E+00  0.37087791251E+01 -0.29508470298E+02  0.29748077816E+02  0.00000000000E+00 0. -1.
</event>
<event>
 5    1  0.1044283E-009  0.9118800E+02  0.7815553E-02  0.1125453E+00
         25   -1    0    0    0    0  0.00000000000E+00  0.00000000000E+00  0.99999998245E-14  0.12509000000E+03  0.12509000000E+03 0.  0.
        -11    1    3    3    0    0 -0.55884655437E+02 -0.13115638581E+02 -0.21403172993E+02  0.61263451610E+02  0.51100000000E-03 0. -1.
         23    2    1    0    0    0 -0.28801027000E+02  0.19998332738E+01 -0.74483681495E+01  0.95274288077E+02  0.90488746765E+02 0.  0.
         11    1    3    3    0    0  0.27083628437E+02  0.15115471855E+02  0.13954804844E+02  0.34010836467E+02  0.51100000000E-03 0.  1.
         22    1    1    0    0    0  0.28801027000E+02 -0.19998332738E+01  0.74483681495E+01  0.29815711923E+02  0.00000000000E+00 0. -1.
</event>
<event>
 5    1  0.1044283E-009  0.9118800E+02  0.7815553E-02  0.1125453E+00
         25   -1    0    0    0    0  0.00000000000E+00  0.00000000000E+00  0.99999998245E-14  0.12509000000E+03  0.12509000000E+03 0.  0.
        -11    1    3    3    0    0 -0.63575141322E+01 -0.74562442917E+01  0.39244660319E+02  0.40449436692E+02  0.51100000000E-03 0. -1.
         23    2    1    0    0    0  0.29148403018E+02 -0.16934443002E+00 -0.26187028514E+01  0.95823710849E+02  0.91245097842E+02 0.  0.
         11    1    3    3    0    0  0.35505917150E+02  0.72868998617E+01 -0.41863363170E+02  0.55374274157E+02  0.51100000000E-03 0.  1.
         22    1    1    0    0    0 -0.29148403018E+02  0.16934443002E+00  0.26187028514E+01  0.29266289151E+02  0.00000000000E+00 0.  1.
</event>
<event>
 5    1  0.1044283E-009  0.9118800E+02  0.7815553E-02  0.1125453E+00
         25   -1    0    0    0    0  0.00000000000E+00  0.00000000000E+00  0.99999998245E-14  0.12509000000E+03  0.12509000000E+03 0.  0.
        -11    1    3    3    0    0  0.19510320704E+02 -0.39474894138E+02 -0.78207155306E+01  0.44722292795E+02  0.51100000000E-03 0. -1.
         23    2    1    0    0    0 -0.19884187048E+02 -0.47591175865E+01  0.12613456255E+02  0.10106648291E+03  0.98169774340E+02 0.  0.
         11    1    3    3    0    0 -0.39394507752E+02  0.34715776552E+02  0.20434171786E+02  0.56344190113E+02  0.51100000000E-03 0.  1.
         22    1    1    0    0    0  0.19884187048E+02  0.47591175865E+01 -0.12613456255E+02  0.24023517092E+02  0.00000000000E+00 0.  1.
</event>
<event>
 5    1  0.1044283E-009  0.9118800E+02  0.7815553E-02  0.1125453E+00
         25   -1    0    0    0    0  0.00000000000E+00  0.00000000000E+00  0.99999998245E-14  0.12509000000E+03  0.12509000000E+03 0.  0.
        -11    1    3    3    0    0  0.71780268543E+01  0.53149851263E+02 -0.17288281353E+02  0.56349937278E+02  0.51100000000E-03 0.  1.
         23    2    1    0    0    0  0.22028604414E+02  0.18941646879E+02 -0.50319081763E+01  0.95604995357E+02  0.90944761468E+02 0.  0.
         11    1    3    3    0    0  0.14850577560E+02 -0.34208204384E+02  0.12256373177E+02  0.39255058079E+02  0.51100000000E-03 0. -1.
         22    1    1    0    0    0 -0.22028604414E+02 -0.18941646879E+02  0.50319081763E+01  0.29485004643E+02  0.00000000000E+00 0.  1.
</event>
<event>
 5    1  0.1044283E-009  0.9118800E+02  0.7815553E-02  0.1125453E+00
         25   -1    0    0    0    0  0.00000000000E+00  0.00000000000E+00  0.99999998245E-14  0.12509000000E+03  0.12509000000E+03 0.  0.
        -11    1    3    3    0    0 -0.25755105485E+01  0.34057263217E+02 -0.32692565243E+01  0.34310617466E+02  0.51100000000E-03 0.  1.
         23    2    1    0    0    0  0.40447783268E+01 -0.21619519293E+02  0.20325483226E+02  0.95141892972E+02  0.90305540715E+02 0.  0.
         11    1    3    3    0    0  0.66202888753E+01 -0.55676782510E+02  0.23594739750E+02  0.60831275506E+02  0.51100000000E-03 0. -1.
         22    1    1    0    0    0 -0.40447783268E+01  0.21619519293E+02 -0.20325483226E+02  0.29948107028E+02  0.00000000000E+00 0. -1.
</event>
<event>
 5    1  0.1044283E-009  0.9118800E+02  0.7815553E-02  0.1125453E+00
         25   -1    0    0    0    0  0.00000000000E+00  0.00000000000E+00  0.99999998245E-14  0.12509000000E+03  0.12509000000E+03 0.  0.
        -11    1    3    3    0    0  0.33082201831E+02 -0.66642736573E+01  0.25657567951E+02  0.42392869858E+02  0.51100000000E-03 0.  1.
         23    2    1    0    0    0  0.15296055491E+02 -0.17588740056E+02 -0.21132145048E+02  0.93627313454E+02  0.88182612685E+02 0.  0.
         11    1    3    3    0    0 -0.17786146340E+02 -0.10924466399E+02 -0.46789712999E+02  0.51234443596E+02  0.51100000000E-03 0. -1.
         22    1    1    0    0    0 -0.15296055491E+02  0.17588740056E+02  0.21132145048E+02  0.31462686546E+02  0.00000000000E+00 0. -1.
</event>
<event>
 5    1  0.1044283E-009  0.9118800E+02  0.7815553E-02  0.1125453E+00
         25   -1    0    0    0    0  0.00000000000E+00  0.00000000000E+00  0.99999998245E-14  0.12509000000E+03  0.12509000000E+03 0.  0.
        -11    1    3    3    0    0  0.10649706746E+02  0.36183542379E+02  0.17672155720E+02  0.41652972054E+02  0.51100000000E-03 0.  1.
         23    2    1    0    0    0 -0.14728160519E+02 -0.11596376494E+02  0.22306941164E+02  0.95952493515E+02  0.91421478481E+02 0.  0.
         11    1    3    3    0    0 -0.25377867265E+02 -0.47779918874E+02  0.46347854437E+01  0.54299521461E+02  0.51100000000E-03 0. -1.
         22    1    1    0    0    0  0.14728160519E+02  0.11596376494E+02 -0.22306941164E+02  0.29137506485E+02  0.00000000000E+00 0. -1.
</event>
<event>
 5    1  0.1044283E-009  0.9118800E+02  0.7815553E-02  0.1125453E+00
         25   -1    0    0    0    0  0.00000000000E+00  0.00000000000E+00  0.99999998245E-14  0.12509000000E+03  0.12509000000E+03 0.  0.
        -11    1    3    3    0    0 -0.54623510583E+02  0.17549425789E+02 -0.16639815928E+02  0.59737707759E+02  0.51100000000E-03 0.  1.
         23    2    1    0    0    0 -0.27971938197E+02  0.37234331647E+01  0.45776655229E+01  0.96502444969E+02  0.92170893358E+02 0.  0.
         11    1    3    3    0    0  0.26651572387E+02 -0.13825992624E+02  0.21217481451E+02  0.36764737210E+02  0.51100000000E-03 0. -1.
         22    1    1    0    0    0  0.27971938197E+02 -0.37234331647E+01 -0.45776655229E+01  0.28587555031E+02  0.00000000000E+00 0.  1.
</event>
<event>
 5    1  0.1044283E-009  0.9118800E+02  0.7815553E-02  0.1125453E+00
         25   -1    0    0    0    0  0.00000000000E+00  0.00000000000E+00  0.99999998245E-14  0.12509000000E+03  0.12509000000E+03 0.  0.
        -11    1    3    3    0    0  0.12654536873E+02  0.29561336102E+02 -0.20113175178E+02  0.37928217881E+02  0.51100000000E-03 0.  1.
         23    2    1    0    0    0  0.19619265567E+02 -0.21549160542E+02  0.53612282051E+01  0.95458518949E+02  0.90743066790E+02 0.  0.
         11    1    3    3    0    0  0.69647286939E+01 -0.51110496644E+02  0.25474403383E+02  0.57530301068E+02  0.51100000000E-03 0. -1.
         22    1    1    0    0    0 -0.19619265567E+02  0.21549160542E+02 -0.53612282051E+01  0.29631481051E+02  0.00000000000E+00 0. -1.
</event>
<event>
 5    1  0.1044283E-009  0.9118800E+02  0.7815553E-02  0.1125453E+00
         25   -1    0    0    0    0  0.00000000000E+00  0.00000000000E+00  0.99999998245E-14  0.12509000000E+03  0.12509000000E+03 0.  0.
        -11    1    3    3    0    0  0.18834942027E+02 -0.27729843345E+02 -0.26654406880E+02  0.42827055228E+02  0.51100000000E-03 0. -1.
         23    2    1    0    0    0  0.36796915298E+01 -0.17394677246E+02  0.23148885685E+02  0.95901203610E+02  0.91351272674E+02 0.  0.
         11    1    3    3    0    0 -0.15155250497E+02  0.10335166099E+02  0.49803292565E+02  0.53074148382E+02  0.51100000000E-03 0.  1.
         22    1    1    0    0    0 -0.36796915298E+01  0.17394677246E+02 -0.23148885685E+02  0.29188796390E+02  0.00000000000E+00 0.  1.
</event>
<event>
 5    1  0.1044283E-009  0.9118800E+02  0.7815553E-02  0.1125453E+00
         25   -1    0    0    0    0  0.00000000000E+00  0.00000000000E+00  0.99999998245E-14  0.12509000000E+03  0.12509000000E+03 0.  0.
        -11    1    3    3    0    0  0.37812395046E+02  0.40822273532E+01  0.49144214468E+02  0.62141738109E+02  0.51100000000E-03 0. -1.
         23    2    1    0    0    0  0.17255236691E+02 -0.31161461746E+01  0.22936404961E+02  0.96219041707E+02  0.91785465921E+02 0.  0.
         11    1    3    3    0    0 -0.20557158355E+02 -0.71983735278E+01 -0.26207809507E+02  0.34077303598E+02  0.51100000000E-03 0.  1.
         22    1    1    0    0    0 -0.17255236691E+02  0.31161461746E+01 -0.22936404961E+02  0.28870958293E+02  0.00000000000E+00 0. -1.
</event>
<event>
 5    1  0.1044283E-009  0.9118800E+02  0.7815553E-02  0.1125453E+00
         25   -1    0    0    0    0  0.00000000000E+00  0.00000000000E+00  0.99999998245E-14  0.12509000000E+03  0.12509000000E+03 0.  0.
        -11    1    3    3    0    0  0.29108079763E+02 -0.27405212088E+02  0.17261990499E+02  0.43546552944E+02  0.51100000000E-03 0.  1.
         23    2    1    0    0    0 -0.64243366556E+01  0.68703196123E+01  0.29261765496E+02  0.94353632079E+02  0.89206970431E+02 0.  0.
         11    1    3    3    0    0 -0.35532416419E+02  0.34275531700E+02  0.11999774997E+02  0.50807079134E+02  0.51100000000E-03 0. -1.
         22    1    1    0    0    0  0.64243366556E+01 -0.68703196123E+01 -0.29261765496E+02  0.30736367921E+02  0.00000000000E+00 0. -1.
</event>
<event>
 5    1  0.1044283E-009  0.9118800E+02  0.7815553E-02  0.1125453E+00
         25   -1    0    0    0    0  0.00000000000E+00  0.00000000000E+00  0.99999998245E-14  0.12509000000E+03  0.12509000000E+03 0.  0.
        -11    1    3    3    0    0  0.45642851147E+01  0.19431405120E+02 -0.53153322039E+02  0.56777529425E+02  0.51100000000E-03 0. -1.
         23    2    1    0    0    0  0.32938518343E+01 -0.96819177244E+01 -0.28027771684E+02  0.95254702510E+02  0.90461667982E+02 0.  0.
         11    1    3    3    0    0 -0.12704332804E+01 -0.29113322844E+02  0.25125550355E+02  0.38477173086E+02  0.51100000000E-03 0.  1.
         22    1    1    0    0    0 -0.32938518343E+01  0.96819177244E+01  0.28027771684E+02  0.29835297490E+02  0.00000000000E+00 0. -1.
</event>
<event>
 5    1  0.1044283E-009  0.9118800E+02  0.7815553E-02  0.1125453E+00
         25   -1    0    0    0    0  0.00000000000E+00  0.00000000000E+00  0.99999998245E-14  0.12509000000E+03  0.12509000000E+03 0.  0.
        -11    1    3    3    0    0 -0.25990700019E+02 -0.21669500122E+02  0.51615568911E+02  0.61719127321E+02  0.51100000000E-03 0.  1.
         23    2    1    0    0    0 -0.15534534610E+02 -0.13054903392E+02  0.17987880048E+02  0.97973287501E+02  0.94145891929E+02 0.  0.
         11    1    3    3    0    0  0.10456165409E+02  0.86145967300E+01 -0.33627688863E+02  0.36254160180E+02  0.51100000000E-03 0. -1.
         22    1    1    0    0    0  0.15534534610E+02  0.13054903392E+02 -0.17987880048E+02  0.27116712499E+02  0.00000000000E+00 0.  1.
</event>
<event>
 5    1  0.1044283E-009  0.9118800E+02  0.7815553E-02  0.1125453E+00
         25   -1    0    0    0    0  0.00000000000E+00  0.00000000000E+00  0.99999998245E-14  0.12509000000E+03  0.12509000000E+03 0.  0.
        -11    1    3    3    0    0  0.10464296878E+02 -0.35790814134E+02  0.62686301938E+01  0.37812426665E+02  0.51100000000E-03 0. -1.
         23    2    1    0    0    0 -0.22482526555E+02  0.93485054957E+01  0.17869035225E+02  0.94887997166E+02  0.89953160206E+02 0.  0.
         11    1    3    3    0    0 -0.32946823433E+02  0.45139319629E+02  0.11600405031E+02  0.57075570502E+02  0.51100000000E-03 0.  1.
         22    1    1    0    0    0  0.22482526555E+02 -0.93485054957E+01 -0.17869035225E+02  0.30202002834E+02  0.00000000000E+00 0. -1.
</event>
<event>
 5    1  0.1044283E-009  0.9118800E+02  0.7815553E-02  0.1125453E+00
         25   -1    0    0    0    0  0.00000000000E+00  0.00000000000E+00  0.99999998245E-14  0.12509000000E+03  0.12509000000E+03 0.  0.
        -11    1    3    3    0    0  0.28551829003E+02  0.14740668202E+02 -0.15689631710E+02  0.35758338635E+02  0.51100000000E-03 0.  1.
         23    2    1    0    0    0 -0.22308945857E+02  0.17798430317E+02  0.12437164941E+02  0.93958725391E+02  0.88651485144E+02 0.  0.
         11    1    3    3    0    0 -0.50860774859E+02  0.30577621152E+01  0.28126796651E+02  0.58200386756E+02  0.51100000000E-03 0. -1.
         22    1    1    0    0    0  0.22308945857E+02 -0.17798430317E+02 -0.12437164941E+02  0.31131274609E+02  0.00000000000E+00 0. -1.
</event>
<event>
 5    1  0.1044283E-009  0.9118800E+02  0.7815553E-02  0.1125453E+00
         25   -1    0    0    0    0  0.00000000000E+00  0.00000000000E+00  0.99999998245E-14  0.12509000000E+03  0.12509000000E+03 0.  0.
        -11    1    3    3    0    0 -0.27513136257E+02  0.20364353700E+02 -0.48351725834E+02  0.59241615100E+02  0.51100000000E-03 0.  1.
         23    2    1    0    0    0 -0.15198857232E+02  0.21638963128E+02 -0.15291873463E+02  0.94543455507E+02  0.89472753388E+02 0.  0.
         11    1    3    3    0    0  0.12314279025E+02  0.12746094277E+01  0.33059852371E+02  0.35301840407E+02  0.51100000000E-03 0. -1.
         22    1    1    0    0    0  0.15198857232E+02 -0.21638963128E+02  0.15291873463E+02  0.30546544493E+02  0.00000000000E+00 0.  1.
</event>
<event>
 5    1  0.1044283E-009  0.9118800E+02  0.7815553E-02  0.1125453E+00
         25   -1    0    0    0    0  0.00000000000E+00  0.00000000000E+00  0.99999998245E-14  0.12509000000E+03  0.12509000000E+03 0.  0.
        -11    1    3    3    0    0 -0.48443941529E+02  0.16725937247E+02  0.23836325829E+02  0.56522056552E+02  0.51100000000E-03 0.  1.
         23    2    1    0    0    0 -0.10936594418E+02  0.48094691148E+00  0.25405432363E+02  0.97426370430E+02  0.93416386433E+02 0.  0.
         11    1    3    3    0    0  0.37507347110E+02 -0.16244990335E+02  0.15691065343E+01  0.40904313878E+02  0.51100000000E-03 0. -1.
         22    1    1    0    0    0  0.10936594418E+02 -0.48094691148E+00 -0.25405432363E+02  0.27663629570E+02  0.00000000000E+00 0.  1.
</event>
<event>
 5    1  0.1044283E-009  0.9118800E+02  0.7815553E-02  0.1125453E+00
         25   -1    0    0    0    0  0.00000000000E+00  0.00000000000E+00  0.99999998245E-14  0.12509000000E+03  0.12509000000E+03 0.  0.
        -11    1    3    3    0    0  0.14557279638E+02  0.90880062693E+01  0.60139562585E+02  0.62540172982E+02  0.51100000000E-03 0. -1.
         23    2    1    0    0    0  0.71424065670E+01  0.41527705610E+01  0.27183746172E+02  0.96678461308E+02  0.92409465696E+02 0.  0.
         11    1    3    3    0    0 -0.74148730712E+01 -0.49352357083E+01 -0.32955816413E+02  0.34138288327E+02  0.51100000000E-03 0.  1.
         22    1    1    0    0    0 -0.71424065670E+01 -0.41527705610E+01 -0.27183746172E+02  0.28411538692E+02  0.00000000000E+00 0. -1.
</event>
<event>
 5    1  0.1044283E-009  0.9118800E+02  0.7815553E-02  0.1125453E+00
         25   -1    0    0    0    0  0.00000000000E+00  0.00000000000E+00  0.99999998245E-14  0.12509000000E+03  0.12509000000E+03 0.  0.
        -11    1    3    3    0    0  0.14941097588E+02 -0.19732134981E+02 -0.13319628290E+02  0.28107046200E+02  0.51100000000E-03 0. -1.
         23    2    1    0    0    0  0.47803663881E+01  0.30350781536E+02 -0.30280633547E+02  0.81951402310E+02  0.69678502639E+02 0.  0.
         11    1    3    3    0    0 -0.10160731200E+02  0.50082916517E+02 -0.16961005256E+02  0.53844356110E+02  0.51100000000E-03 0.  1.
         22    1    1    0    0    0 -0.47803663881E+01 -0.30350781536E+02  0.30280633547E+02  0.43138597690E+02  0.00000000000E+00 0.  1.
</event>
<event>
 5    1  0.1044283E-009  0.9118800E+02  0.7815553E-02  0.1125453E+00
         25   -1    0    0    0    0  0.00000000000E+00  0.00000000000E+00  0.99999998245E-14  0.12509000000E+03  0.12509000000E+03 0.  0.
        -11    1    3    3    0    0  0.14092254751E+02  0.25845847264E+00 -0.35729481088E+02  0.38409038830E+02  0.51100000000E-03 0.  1.
         23    2    1    0    0    0  0.37079685374E+01  0.22889730394E+02  0.16742499766E+02  0.96489299194E+02  0.92153050803E+02 0.  0.
         11    1    3    3    0    0 -0.10384286213E+02  0.22631271922E+02  0.52471980854E+02  0.58080260364E+02  0.51100000000E-03 0. -1.
         22    1    1    0    0    0 -0.37079685374E+01 -0.22889730394E+02 -0.16742499766E+02  0.28600700806E+02  0.00000000000E+00 0. -1.
</event>
<event>
 5    1  0.1044283E-009  0.9118800E+02  0.7815553E-02  0.1125453E+00
         25   -1    0    0    0    0  0.00000000000E+00  0.00000000000E+00  0.99999998245E-14  0.12509000000E+03  0.12509000000E+03 0.  0.
        -11    1    3    3    0    0 -0.16985224211E+02  0.67736006767E+01  0.31752715937E+02  0.36641704071E+02  0.51100000000E-03 0.  1.
         23    2    1    0    0    0  0.19361654500E+02  0.18171119930E+02 -0.13095320001E+02  0.95483401573E+02  0.90777361195E+02 0.  0.
         11    1    3    3    0    0  0.36346878711E+02  0.11397519253E+02 -0.44848035938E+02  0.58841697502E+02  0.51100000000E-03 0. -1.
         22    1    1    0    0    0 -0.19361654500E+02 -0.18171119930E+02  0.13095320001E+02  0.29606598427E+02  0.00000000000E+00 0. -1.
</event>
<event>
 5    1  0.1044283E-009  0.9118800E+02  0.7815553E-02  0.1125453E+00
         25   -1    0    0    0    0  0.00000000000E+00  0.00000000000E+00  0.99999998245E-14  0.12509000000E+03  0.12509000000E+03 0.  0.
        -11    1    3    3    0    0  0.23330161698E+02  0.14937755593E+02  0.19637069320E+02  0.33956552810E+02  0.51100000000E-03 0. -1.
         23    2    1    0    0    0 -0.21587345464E+02 -0.70649748077E+01 -0.17635052172E+02  0.96333741233E+02  0.91941651506E+02 0.  0.
         11    1    3    3    0    0 -0.44917507162E+02 -0.22002730401E+02 -0.37272121492E+02  0.62377188422E+02  0.51100000000E-03 0.  1.
         22    1    1    0    0    0  0.21587345464E+02  0.70649748077E+01  0.17635052172E+02  0.28756258767E+02  0.00000000000E+00 0.  1.
</event>
<event>
 5    1  0.1044283E-009  0.9118800E+02  0.7815553E-02  0.1125453E+00
         25   -1    0    0    0    0  0.00000000000E+00  0.00000000000E+00  0.99999998245E-14  0.12509000000E+03  0.12509000000E+03 0.  0.
        -11    1    3    3    0    0 -0.41285505805E+01  0.14854536864E+01  0.40689439434E+02  0.40925322042E+02  0.51100000000E-03 0.  1.
         23    2    1    0    0    0 -0.18093264487E+02  0.92733925306E+01 -0.15613822960E+02  0.99454994709E+02  0.96094445606E+02 0.  0.
         11    1    3    3    0    0 -0.13964713907E+02  0.77879388442E+01 -0.56303262394E+02  0.58529672667E+02  0.51100000000E-03 0. -1.
         22    1    1    0    0    0  0.18093264487E+02 -0.92733925306E+01  0.15613822960E+02  0.25635005291E+02  0.00000000000E+00 0. -1.
</event>
<event>
 5    1  0.1044283E-009  0.9118800E+02  0.7815553E-02  0.1125453E+00
         25   -1    0    0    0    0  0.00000000000E+00  0.00000000000E+00  0.99999998245E-14  0.12509000000E+03  0.12509000000E+03 0.  0.
        -11    1    3    3    0    0 -0.45509184065E+01  0.42289167859E+02 -0.38550151117E+00  0.42535081853E+02  0.51100000000E-03 0.  1.
         23    2    1    0    0    0 -0.24723711904E+02  0.35881455175E+01 -0.22506785825E+02  0.91464234183E+02  0.85058885532E+02 0.  0.
         11    1    3    3    0    0 -0.20172793498E+02 -0.38701022342E+02 -0.22121284314E+02  0.48929152330E+02  0.51100000000E-03 0. -1.
         22    1    1    0    0    0  0.24723711904E+02 -0.35881455175E+01  0.22506785825E+02  0.33625765817E+02  0.00000000000E+00 0. -1.
</event>
<event>
 5    1  0.1044283E-009  0.9118800E+02  0.7815553E-02  0.1125453E+00
         25   -1    0    0    0    0  0.00000000000E+00  0.00000000000E+00  0.99999998245E-14  0.12509000000E+03  0.12509000000E+03 0.  0.
        -11    1    3    3    0    0  0.40618152615E+02  0.23340243112E+01  0.12501850109E+02  0.42562639107E+02  0.51100000000E-03 0. -1.
         23    2    1    0    0    0 -0.10569224800E+02 -0.88291837624E+01  0.25112151611E+02  0.96449414158E+02  0.92098894316E+02 0.  0.
         11    1    3    3    0    0 -0.51187377416E+02 -0.11163208074E+02  0.12610301503E+02  0.53886775051E+02  0.51100000000E-03 0.  1.
         22    1    1    0    0    0  0.10569224800E+02  0.88291837624E+01 -0.25112151611E+02  0.28640585842E+02  0.00000000000E+00 0.  1.
</event>
<event>
 5    1  0.1044283E-009  0.9118800E+02  0.7815553E-02  0.1125453E+00
         25   -1    0    0    0    0  0.00000000000E+00  0.00000000000E+00  0.99999998245E-14  0.12509000000E+03  0.12509000000E+03 0.  0.
        -11    1    3    3    0    0 -0.24113265295E+02  0.26685320794E+02 -0.24535021452E+02  0.43537606583E+02  0.51100000000E-03 0. -1.
         23    2    1    0    0    0 -0.16348927678E+02  0.24540075201E+01  0.22592108804E+02  0.97095126017E+02  0.92971772743E+02 0.  0.
         11    1    3    3    0    0  0.77643376164E+01 -0.24231313274E+02  0.47127130255E+02  0.53557519434E+02  0.51100000000E-03 0.  1.
         22    1    1    0    0    0  0.16348927678E+02 -0.24540075201E+01 -0.22592108804E+02  0.27994873983E+02  0.00000000000E+00 0.  1.
</event>
<event>
 5    1  0.1044283E-009  0.9118800E+02  0.7815553E-02  0.1125453E+00
         25   -1    0    0    0    0  0.00000000000E+00  0.00000000000E+00  0.99999998245E-14  0.12509000000E+03  0.12509000000E+03 0.  0.
        -11    1    3    3    0    0  0.14350274759E+02 -0.32097521832E+02  0.43973226350E+00  0.35162119648E+02  0.51100000000E-03 0.  1.
         23    2    1    0    0    0 -0.16750061662E+02  0.17160143463E+02  0.16966064795E+02  0.95715139251E+02  0.91096132947E+02 0.  0.
         11    1    3    3    0    0 -0.31100336421E+02  0.49257665296E+02  0.16526332532E+02  0.60553019603E+02  0.51100000000E-03 0. -1.
         22    1    1    0    0    0  0.16750061662E+02 -0.17160143463E+02 -0.16966064795E+02  0.29374860749E+02  0.00000000000E+00 0. -1.
</event>
<event>
 5    1  0.1044283E-009  0.9118800E+02  0.7815553E-02  0.1125453E+00
         25   -1    0    0    0    0  0.00000000000E+00  0.00000000000E+00  0.99999998245E-14  0.12509000000E+03  0.12509000000E+03 0.  0.
        -11    1    3    3    0    0 -0.13443082104E+00 -0.34264525874E+02  0.89548673647E+01  0.35415610326E+02  0.51100000000E-03 0. -1.
         23    2    1    0    0    0  0.60274749671E+01  0.25926802716E+02 -0.61331196052E+01  0.97774350463E+02  0.93881195661E+02 0.  0.
         11    1    3    3    0    0  0.61619057882E+01  0.60191328590E+02 -0.15087986970E+02  0.62358740136E+02  0.51100000000E-03 0.  1.
         22    1    1    0    0    0 -0.60274749671E+01 -0.25926802716E+02  0.61331196052E+01  0.27315649537E+02  0.00000000000E+00 0.  1.
</event>
<event>
 5    1  0.1044283E-009  0.9118800E+02  0.7815553E-02  0.1125453E+00
         25   -1    0    0    0    0  0.00000000000E+00  0.00000000000E+00  0.99999998245E-14  0.12509000000E+03  0.12509000000E+03 0.  0.
        -11    1    3    3    0    0  0.31155077009E+02 -0.22195781472E+02 -0.36488449626E+02  0.52864907973E+02  0.51100000000E-03 0. -1.
         23    2    1    0    0    0 -0.66557753196E+01 -0.29605934151E+01 -0.28038597187E+02  0.96120578351E+02  0.91651176708E+02 0.  0.
         11    1    3    3    0    0 -0.37810852329E+02  0.19235188057E+02  0.84498524394E+01  0.43255670379E+02  0.51100000000E-03 0.  1.
         22    1    1    0    0    0  0.66557753196E+01  0.29605934151E+01  0.28038597187E+02  0.28969421649E+02  0.00000000000E+00 0. -1.
</event>
<event>
 5    1  0.1044283E-009  0.9118800E+02  0.7815553E-02  0.1125453E+00
         25   -1    0    0    0    0  0.00000000000E+00  0.00000000000E+00  0.99999998245E-14  0.12509000000E+03  0.12509000000E+03 0.  0.
        -11    1    3    3    0    0  0.66379859373E+01  0.39901409260E+02  0.31937549830E+02  0.51538261589E+02  0.51100000000E-03 0. -1.
         23    2    1    0    0    0  0.15323202306E+02  0.21828181556E+02 -0.88517240237E+01  0.96989767667E+02  0.92829908839E+02 0.  0.
         11    1    3    3    0    0  0.86852163691E+01 -0.18073227704E+02 -0.40789273853E+02  0.45451506078E+02  0.51100000000E-03 0.  1.
         22    1    1    0    0    0 -0.15323202306E+02 -0.21828181556E+02  0.88517240237E+01  0.28100232333E+02  0.00000000000E+00 0. -1.
</event>
<event>
 5    1  0.1044283E-009  0.9118800E+02  0.7815553E-02  0.1125453E+00
         25   -1    0    0    0    0  0.00000000000E+00  0.00000000000E+00  0.99999998245E-14  0.12509000000E+03  0.12509000000E+03 0.  0.
        -11    1    3    3    0    0  0.16145437216E+02  0.61258477276E+01 -0.40270859784E+02  0.43817157613E+02  0.51100000000E-03 0. -1.
         23    2    1    0    0    0 -0.14823680821E+02 -0.16309701224E+02  0.43938303560E+01  0.10261660212E+03  0.10012548835E+03 0.  0.
         11    1    3    3    0    0 -0.30969118037E+02 -0.22435548952E+02  0.44664690140E+02  0.58799444507E+02  0.51100000000E-03 0.  1.
         22    1    1    0    0    0  0.14823680821E+02  0.16309701224E+02 -0.43938303560E+01  0.22473397881E+02  0.00000000000E+00 0.  1.
</event>
<event>
 5    1  0.1044283E-009  0.9118800E+02  0.7815553E-02  0.1125453E+00
         25   -1    0    0    0    0  0.00000000000E+00  0.00000000000E+00  0.99999998245E-14  0.12509000000E+03  0.12509000000E+03 0.  0.
        -11    1    3    3    0    0  0.24470409184E+02 -0.22852095370E+02  0.71670522383E+01  0.34240120130E+02  0.51100000000E-03 0.  1.
         23    2    1    0    0    0 -0.26661405100E+02  0.11393795292E+02  0.34265555847E+01  0.95894274692E+02  0.91341784209E+02 0.  0.
         11    1    3    3    0    0 -0.51131814285E+02  0.34245890662E+02 -0.37404966536E+01  0.61654154562E+02  0.51100000000E-03 0. -1.
         22    1    1    0    0    0  0.26661405100E+02 -0.11393795292E+02 -0.34265555847E+01  0.29195725308E+02  0.00000000000E+00 0. -1.
</event>
<event>
 5    1  0.1044283E-009  0.9118800E+02  0.7815553E-02  0.1125453E+00
         25   -1    0    0    0    0  0.00000000000E+00  0.00000000000E+00  0.99999998245E-14  0.12509000000E+03  0.12509000000E+03 0.  0.
        -11    1    3    3    0    0  0.20474938722E+02 -0.31945641338E+02  0.46122312418E+02  0.59724490950E+02  0.51100000000E-03 0.  1.
         23    2    1    0    0    0  0.18396029014E+02 -0.18671873995E+02  0.12264010350E+02  0.96151121103E+02  0.91692853470E+02 0.  0.
         11    1    3    3    0    0 -0.20789097080E+01  0.13273767344E+02 -0.33858302068E+02  0.36426630153E+02  0.51100000000E-03 0. -1.
         22    1    1    0    0    0 -0.18396029014E+02  0.18671873995E+02 -0.12264010350E+02  0.28938878897E+02  0.00000000000E+00 0.  1.
</event>
<event>
 5    1  0.1044283E-009  0.9118800E+02  0.7815553E-02  0.1125453E+00
         25   -1    0    0    0    0  0.00000000000E+00  0.00000000000E+00  0.99999998245E-14  0.12509000000E+03  0.12509000000E+03 0.  0.
        -11    1    3    3    0    0 -0.37710671470E+02  0.13445974446E+02 -0.76137668882E+01  0.40753630734E+02  0.51100000000E-03 0.  1.
         23    2    1    0    0    0 -0.12241175194E+01 -0.28081788223E+02  0.21924137899E+01  0.96896171390E+02  0.92703700348E+02 0.  0.
         11    1    3    3    0    0  0.36486553951E+02 -0.41527762668E+02  0.98061806781E+01  0.56142540655E+02  0.51100000000E-03 0. -1.
         22    1    1    0    0    0  0.12241175194E+01  0.28081788223E+02 -0.21924137899E+01  0.28193828610E+02  0.00000000000E+00 0. -1.
</event>
<event>
 5    1  0.1044283E-009  0.9118800E+02  0.7815553E-02  0.1125453E+00
         25   -1    0    0    0    0  0.00000000000E+00  0.00000000000E+00  0.99999998245E-14  0.12509000000E+03  0.12509000000E+03 0.  0.
        -11    1    3    3    0    0 -0.27720623555E+01 -0.15300381899E+02  0.34123813921E+02  0.37499609235E+02  0.51100000000E-03 0. -1.
         23    2    1    0    0    0 -0.25256541687E+02  0.58357557985E+01 -0.14723775164E+02  0.95278282525E+02  0.90494268449E+02 0.  0.
         11    1    3    3    0    0 -0.22484479331E+02  0.21136137697E+02 -0.48847589085E+02  0.57778673291E+02  0.51100000000E-03 0.  1.
         22    1    1    0    0    0  0.25256541687E+02 -0.58357557985E+01  0.14723775164E+02  0.29811717475E+02  0.00000000000E+00 0.  1.
</event>
<event>
 5    1  0.1044283E-009  0.9118800E+02  0.7815553E-02  0.1125453E+00
         25   -1    0    0    0    0  0.00000000000E+00  0.00000000000E+00  0.99999998245E-14  0.12509000000E+03  0.12509000000E+03 0.  0.
        -11    1    3    3    0    0  0.21126835203E+02 -0.16564832524E+02 -0.26350997293E+02  0.37617973109E+02  0.51100000000E-03 0. -1.
         23    2    1    0    0    0  0.84378743608E+01  0.31805381053E+01  0.27386242587E+02  0.96257382543E+02  0.91837703938E+02 0.  0.
         11    1    3    3    0    0 -0.12688960842E+02  0.19745370630E+02  0.53737239880E+02  0.58639409434E+02  0.51100000000E-03 0.  1.
         22    1    1    0    0    0 -0.84378743608E+01 -0.31805381053E+01 -0.27386242587E+02  0.28832617457E+02  0.00000000000E+00 0.  1.
</event>
<event>
 5    1  0.1044283E-009  0.9118800E+02  0.7815553E-02  0.1125453E+00
         25   -1    0    0    0    0  0.00000000000E+00  0.00000000000E+00  0.99999998245E-14  0.12509000000E+03  0.12509000000E+03 0.  0.
        -11    1    3    3    0    0  0.25704701882E+02  0.41613387716E+02 -0.32955381548E+02  0.58978495312E+02  0.51100000000E-03 0.  1.
         23    2    1    0    0    0  0.21281853545E+02  0.23363476497E+02 -0.43614798113E+01  0.93187150120E+02  0.87555999892E+02 0.  0.
         11    1    3    3    0    0 -0.44228483373E+01 -0.18249911219E+02  0.28593901737E+02  0.34208654808E+02  0.51100000000E-03 0. -1.
         22    1    1    0    0    0 -0.21281853545E+02 -0.23363476497E+02  0.43614798113E+01  0.31902849880E+02  0.00000000000E+00 0.  1.
</event>
<event>
 5    1  0.1044283E-009  0.9118800E+02  0.7815553E-02  0.1125453E+00
         25   -1    0    0    0    0  0.00000000000E+00  0.00000000000E+00  0.99999998245E-14  0.12509000000E+03  0.12509000000E+03 0.  0.
        -11    1    3    3    0    0  0.16927870425E+02 -0.46962815618E+01  0.31004835510E+02  0.35635764098E+02  0.51100000000E-03 0. -1.
         23    2    1    0    0    0  0.13313521810E+02 -0.18278452618E+02 -0.23827249144E+02  0.92240502365E+02  0.86192927678E+02 0.  0.
         11    1    3    3    0    0 -0.36143486151E+01 -0.13582171056E+02 -0.54832084654E+02  0.56604738267E+02  0.51100000000E-03 0.  1.
         22    1    1    0    0    0 -0.13313521810E+02  0.18278452618E+02  0.23827249144E+02  0.32849497635E+02  0.00000000000E+00 0.  1.
</event>
<event>
 5    1  0.1044283E-009  0.9118800E+02  0.7815553E-02  0.1125453E+00
         25   -1    0    0    0    0  0.00000000000E+00  0.00000000000E+00  0.99999998245E-14  0.12509000000E+03  0.12509000000E+03 0.  0.
        -11    1    3    3    0    0 -0.41552024426E+02 -0.10409921162E+02 -0.25458375637E+02  0.49830373095E+02  0.51100000000E-03 0. -1.
         23    2    1    0    0    0 -0.10332311914E+02  0.14484719553E+02  0.11224896138E+02  0.10405284089E+03  0.10190403149E+03 0.  0.
         11    1    3    3    0    0  0.31219712512E+02  0.24894640715E+02  0.36683271775E+02  0.54222467797E+02  0.51100000000E-03 0.  1.
         22    1    1    0    0    0  0.10332311914E+02 -0.14484719553E+02 -0.11224896138E+02  0.21037159108E+02  0.00000000000E+00 0.  1.
</event>
<event>
 5    1  0.1044283E-009  0.9118800E+02  0.7815553E-02  0.1125453E+00
         25   -1    0    0    0    0  0.00000000000E+00  0.00000000000E+00  0.99999998245E-14  0.12509000000E+03  0.12509000000E+03 0.  0.
        -11    1    3    3    0    0  0.16087571996E+02 -0.42238278334E+02 -0.10196259169E+02  0.46334067711E+02  0.51100000000E-03 0. -1.
         23    2    1    0    0    0 -0.29445125081E+00 -0.12653688938E+02  0.26185766213E+02  0.96005693279E+02  0.91494241592E+02 0.  0.
         11    1    3    3    0    0 -0.16382023247E+02  0.29584589396E+02  0.36382025383E+02  0.49671625568E+02  0.51100000000E-03 0.  1.
         22    1    1    0    0    0  0.29445125081E+00  0.12653688938E+02 -0.26185766213E+02  0.29084306721E+02  0.00000000000E+00 0. -1.
</event>
<event>
 5    1  0.1044283E-009  0.9118800E+02  0.7815553E-02  0.1125453E+00
         25   -1    0    0    0    0  0.00000000000E+00  0.00000000000E+00  0.99999998245E-14  0.12509000000E+03  0.12509000000E+03 0.  0.
        -11    1    3    3    0    0  0.26675590841E+02 -0.22803281844E+02  0.49939674387E+02  0.61037266385E+02  0.51100000000E-03 0. -1.
         23    2    1    0    0    0  0.18849700650E+02 -0.35903813380E+01  0.21014991007E+02  0.96632454432E+02  0.92347167524E+02 0.  0.
         11    1    3    3    0    0 -0.78258901914E+01  0.19212900506E+02 -0.28924683381E+02  0.35595188047E+02  0.51100000000E-03 0.  1.
         22    1    1    0    0    0 -0.18849700650E+02  0.35903813380E+01 -0.21014991007E+02  0.28457545568E+02  0.00000000000E+00 0. -1.
</event>
<event>
 5    1  0.1044283E-009  0.9118800E+02  0.7815553E-02  0.1125453E+00
         25   -1    0    0    0    0  0.00000000000E+00  0.00000000000E+00  0.99999998245E-14  0.12509000000E+03  0.12509000000E+03 0.  0.
        -11    1    3    3    0    0 -0.28832524948E+02 -0.24456886728E+02 -0.36846462697E+02  0.52793139865E+02  0.51100000000E-03 0. -1.
         23    2    1    0    0    0  0.92112913080E+01 -0.11167138838E+02 -0.27273568772E+02  0.94212816985E+02  0.89009294196E+02 0.  0.
         11    1    3    3    0    0  0.38043816256E+02  0.13289747890E+02  0.95728939248E+01  0.41419677119E+02  0.51100000000E-03 0.  1.
         22    1    1    0    0    0 -0.92112913080E+01  0.11167138838E+02  0.27273568772E+02  0.30877183015E+02  0.00000000000E+00 0. -1.
</event>
<event>
 5    1  0.1044283E-009  0.9118800E+02  0.7815553E-02  0.1125453E+00
         25   -1    0    0    0    0  0.00000000000E+00  0.00000000000E+00  0.99999998245E-14  0.12509000000E+03  0.12509000000E+03 0.  0.
        -11    1    3    3    0    0 -0.20029880245E+02 -0.19913937453E+02 -0.52898358423E+02  0.59966635153E+02  0.51100000000E-03 0.  1.
         23    2    1    0    0    0 -0.20222952325E+02 -0.61707352024E+01 -0.18550909461E+02  0.96962042102E+02  0.92792540612E+02 0.  0.
         11    1    3    3    0    0 -0.19307207944E+00  0.13743202250E+02  0.34347448962E+02  0.36995406949E+02  0.51100000000E-03 0. -1.
         22    1    1    0    0    0  0.20222952325E+02  0.61707352024E+01  0.18550909461E+02  0.28127957898E+02  0.00000000000E+00 0.  1.
</event>
<event>
 5    1  0.1044283E-009  0.9118800E+02  0.7815553E-02  0.1125453E+00
         25   -1    0    0    0    0  0.00000000000E+00  0.00000000000E+00  0.99999998245E-14  0.12509000000E+03  0.12509000000E+03 0.  0.
        -11    1    3    3    0    0 -0.12528765458E+02  0.33675767440E+02  0.39558993150E+02  0.53441006875E+02  0.51100000000E-03 0.  1.
         23    2    1    0    0    0 -0.28451547028E+02  0.12181038062E+02  0.11865809073E+02  0.91943874412E+02  0.85761357267E+02 0.  0.
         11    1    3    3    0    0 -0.15922781571E+02 -0.21494729377E+02 -0.27693184077E+02  0.38502867537E+02  0.51100000000E-03 0. -1.
         22    1    1    0    0    0  0.28451547028E+02 -0.12181038062E+02 -0.11865809073E+02  0.33146125588E+02  0.00000000000E+00 0.  1.
</event>
<event>
 5    1  0.1044283E-009  0.9118800E+02  0.7815553E-02  0.1125453E+00
         25   -1    0    0    0    0  0.00000000000E+00  0.00000000000E+00  0.99999998245E-14  0.12509000000E+03  0.12509000000E+03 0.  0.
        -11    1    3    3    0    0 -0.50245140606E+02 -0.31150572608E+01 -0.14612084110E+02  0.52419373695E+02  0.51100000000E-03 0.  1.
         23    2    1    0    0    0 -0.89185097699E+01 -0.13110056864E+02 -0.24344500704E+02  0.96037149503E+02  0.91537238120E+02 0.  0.
         11    1    3    3    0    0  0.41326630837E+02 -0.99949996028E+01 -0.97324165943E+01  0.43617775807E+02  0.51100000000E-03 0. -1.
         22    1    1    0    0    0  0.89185097699E+01  0.13110056864E+02  0.24344500704E+02  0.29052850497E+02  0.00000000000E+00 0.  1.
</event>
<event>
 5    1  0.1044283E-009  0.9118800E+02  0.7815553E-02  0.1125453E+00
         25   -1    0    0    0    0  0.00000000000E+00  0.00000000000E+00  0.99999998245E-14  0.12509000000E+03  0.12509000000E+03 0.  0.
        -11    1    3    3    0    0 -0.44071175190E+02 -0.11947224238E+02  0.32536081951E+02  0.56067827482E+02  0.51100000000E-03 0. -1.
         23    2    1    0    0    0 -0.68589883372E+01 -0.45822556416E+01  0.29877299664E+02  0.94094906469E+02  0.88843433074E+02 0.  0.
         11    1    3    3    0    0  0.37212186852E+02  0.73649685960E+01 -0.26587822865E+01  0.38027078987E+02  0.51100000000E-03 0.  1.
         22    1    1    0    0    0  0.68589883372E+01  0.45822556416E+01 -0.29877299664E+02  0.30995093531E+02  0.00000000000E+00 0. -1.
</event>
<event>
 5    1  0.1044283E-009  0.9118800E+02  0.7815553E-02  0.1125453E+00
         25   -1    0    0    0    0  0.00000000000E+00  0.00000000000E+00  0.99999998245E-14  0.12509000000E+03  0.12509000000E+03 0.  0.
        -11    1    3    3    0    0  0.27825388891E+02 -0.47095664766E+02  0.22565613112E+02  0.59173142573E+02  0.51100000000E-03 0. -1.
         23    2    1    0    0    0  0.25091430417E+02 -0.15958011936E+02  0.52898290710E+01  0.94887014768E+02  0.89951794060E+02 0.  0.
         11    1    3    3    0    0 -0.27339584738E+01  0.31137652829E+02 -0.17275784041E+02  0.35713872194E+02  0.51100000000E-03 0.  1.
         22    1    1    0    0    0 -0.25091430417E+02  0.15958011936E+02 -0.52898290710E+01  0.30202985232E+02  0.00000000000E+00 0. -1.
</event>
<event>
 5    1  0.1044283E-009  0.9118800E+02  0.7815553E-02  0.1125453E+00
         25   -1    0    0    0    0  0.00000000000E+00  0.00000000000E+00  0.99999998245E-14  0.12509000000E+03  0.12509000000E+03 0.  0.
        -11    1    3    3    0    0  0.85067896698E+01  0.16916958983E+02 -0.29842720321E+02  0.35343131272E+02  0.51100000000E-03 0.  1.
         23    2    1    0    0    0  0.64526201541E+01 -0.23606889315E+02  0.15446346348E+02  0.96150215179E+02  0.91691617575E+02 0.  0.
         11    1    3    3    0    0 -0.20541695157E+01 -0.40523848297E+02  0.45289066669E+02  0.60807083907E+02  0.51100000000E-03 0. -1.
         22    1    1    0    0    0 -0.64526201541E+01  0.23606889315E+02 -0.15446346348E+02  0.28939784821E+02  0.00000000000E+00 0. -1.
</event>
<event>
 5    1  0.1044283E-009  0.9118800E+02  0.7815553E-02  0.1125453E+00
         25   -1    0    0    0    0  0.00000000000E+00  0.00000000000E+00  0.99999998245E-14  0.12509000000E+03  0.12509000000E+03 0.  0.
        -11    1    3    3    0    0 -0.12281287616E+02  0.35352036629E+02 -0.49009515355E+02  0.61664650448E+02  0.51100000000E-03 0.  1.
         23    2    1    0    0    0 -0.45933286553E+01  0.97819209925E+01 -0.26079572499E+02  0.96860073536E+02  0.92654978804E+02 0.  0.
         11    1    3    3    0    0  0.76879589605E+01 -0.25570115637E+02  0.22929942856E+02  0.35195423087E+02  0.51100000000E-03 0. -1.
         22    1    1    0    0    0  0.45933286553E+01 -0.97819209925E+01  0.26079572499E+02  0.28229926464E+02  0.00000000000E+00 0.  1.
</event>
<event>
 5    1  0.1044283E-009  0.9118800E+02  0.7815553E-02  0.1125453E+00
         25   -1    0    0    0    0  0.00000000000E+00  0.00000000000E+00  0.99999998245E-14  0.12509000000E+03  0.12509000000E+03 0.  0.
        -11    1    3    3    0    0 -0.52840013964E+02 -0.96024980522E+01 -0.21581442632E+02  0.57879475731E+02  0.51100000000E-03 0. -1.
         23    2    1    0    0    0 -0.19001426997E+02 -0.18825576203E+02 -0.14877866956E+01  0.98300635383E+02  0.94579833264E+02 0.  0.
         11    1    3    3    0    0  0.33838586967E+02 -0.92230781508E+01  0.20093655936E+02  0.40421159652E+02  0.51100000000E-03 0.  1.
         22    1    1    0    0    0  0.19001426997E+02  0.18825576203E+02  0.14877866956E+01  0.26789364617E+02  0.00000000000E+00 0. -1.
</event>
<event>
 5    1  0.1044283E-009  0.9118800E+02  0.7815553E-02  0.1125453E+00
         25   -1    0    0    0    0  0.00000000000E+00  0.00000000000E+00  0.99999998245E-14  0.12509000000E+03  0.12509000000E+03 0.  0.
        -11    1    3    3    0    0  0.55470859169E+01  0.13542781409E+02  0.52435066630E+02  0.54439078824E+02  0.51100000000E-03 0. -1.
         23    2    1    0    0    0  0.31833691882E+01  0.26827339739E+02  0.15092859438E+02  0.94144331436E+02  0.88912995331E+02 0.  0.
         11    1    3    3    0    0 -0.23637167287E+01  0.13284558329E+02 -0.37342207192E+02  0.39705252612E+02  0.51100000000E-03 0.  1.
         22    1    1    0    0    0 -0.31833691882E+01 -0.26827339739E+02 -0.15092859438E+02  0.30945668564E+02  0.00000000000E+00 0.  1.
</event>
<event>
 5    1  0.1044283E-009  0.9118800E+02  0.7815553E-02  0.1125453E+00
         25   -1    0    0    0    0  0.00000000000E+00  0.00000000000E+00  0.99999998245E-14  0.12509000000E+03  0.12509000000E+03 0.  0.
        -11    1    3    3    0    0  0.21741802532E+02 -0.30185070621E+02 -0.49740992298E+01  0.37531135463E+02  0.51100000000E-03 0.  1.
         23    2    1    0    0    0 -0.21254580105E+02  0.26724499248E+01 -0.22120898276E+02  0.94296602906E+02  0.89126965701E+02 0.  0.
         11    1    3    3    0    0 -0.42996382637E+02  0.32857520546E+02 -0.17146799046E+02  0.56765467443E+02  0.51100000000E-03 0. -1.
         22    1    1    0    0    0  0.21254580105E+02 -0.26724499248E+01  0.22120898276E+02  0.30793397094E+02  0.00000000000E+00 0. -1.
</event>
<event>
 5    1  0.1044283E-009  0.9118800E+02  0.7815553E-02  0.1125453E+00
         25   -1    0    0    0    0  0.00000000000E+00  0.00000000000E+00  0.99999998245E-14  0.12509000000E+03  0.12509000000E+03 0.  0.
        -11    1    3    3    0    0 -0.39570865230E+02 -0.53489149228E+01 -0.30278112391E+02  0.50112157768E+02  0.51100000000E-03 0.  1.
         23    2    1    0    0    0 -0.22331366750E+02 -0.20060601937E+02  0.74834003352E+01  0.94152660561E+02  0.88924712646E+02 0.  0.
         11    1    3    3    0    0  0.17239498480E+02 -0.14711687014E+02  0.37761512727E+02  0.44040502794E+02  0.51100000000E-03 0. -1.
         22    1    1    0    0    0  0.22331366750E+02  0.20060601937E+02 -0.74834003352E+01  0.30937339439E+02  0.00000000000E+00 0. -1.
</event>
<event>
 5    1  0.1044283E-009  0.9118800E+02  0.7815553E-02  0.1125453E+00
         25   -1    0    0    0    0  0.00000000000E+00  0.00000000000E+00  0.99999998245E-14  0.12509000000E+03  0.12509000000E+03 0.  0.
        -11    1    3    3    0    0  0.42711595987E+02 -0.19774143166E+01  0.20932313563E+02  0.47606221763E+02  0.51100000000E-03 0. -1.
         23    2    1    0    0    0  0.89981902986E+01 -0.26149055090E+02 -0.56352330760E+01  0.96867732859E+02  0.92665318791E+02 0.  0.
         11    1    3    3    0    0 -0.33713405689E+02 -0.24171640774E+02 -0.26567546639E+02  0.49261511096E+02  0.51100000000E-03 0.  1.
         22    1    1    0    0    0 -0.89981902986E+01  0.26149055090E+02  0.56352330760E+01  0.28222267141E+02  0.00000000000E+00 0.  1.
</event>
<event>
 5    1  0.1044283E-009  0.9118800E+02  0.7815553E-02  0.1125453E+00
         25   -1    0    0    0    0  0.00000000000E+00  0.00000000000E+00  0.99999998245E-14  0.12509000000E+03  0.12509000000E+03 0.  0.
        -11    1    3    3    0    0 -0.86103431926E+01  0.11580289634E+02 -0.57658536372E+02  0.59436924001E+02  0.51100000000E-03 0.  1.
         23    2    1    0    0    0 -0.76763461463E+01  0.18556081926E+02 -0.24125418661E+02  0.93700665949E+02  0.88286604347E+02 0.  0.
         11    1    3    3    0    0  0.93399704629E+00  0.69757922923E+01  0.33533117711E+02  0.34263741948E+02  0.51100000000E-03 0. -1.
         22    1    1    0    0    0  0.76763461463E+01 -0.18556081926E+02  0.24125418661E+02  0.31389334051E+02  0.00000000000E+00 0.  1.
</event>
<event>
 5    1  0.1044283E-009  0.9118800E+02  0.7815553E-02  0.1125453E+00
         25   -1    0    0    0    0  0.00000000000E+00  0.00000000000E+00  0.99999998245E-14  0.12509000000E+03  0.12509000000E+03 0.  0.
        -11    1    3    3    0    0  0.26727373785E+01  0.52108767980E+02  0.97765025824E+01  0.53085282598E+02  0.51100000000E-03 0. -1.
         23    2    1    0    0    0 -0.22131460210E+02  0.15193934489E+02  0.28822918788E+01  0.98090652179E+02  0.94301703389E+02 0.  0.
         11    1    3    3    0    0 -0.24804197589E+02 -0.36914833491E+02 -0.68942107036E+01  0.45005369581E+02  0.51100000000E-03 0.  1.
         22    1    1    0    0    0  0.22131460210E+02 -0.15193934489E+02 -0.28822918788E+01  0.26999347821E+02  0.00000000000E+00 0. -1.
</event>
<event>
 5    1  0.1044283E-009  0.9118800E+02  0.7815553E-02  0.1125453E+00
         25   -1    0    0    0    0  0.00000000000E+00  0.00000000000E+00  0.99999998245E-14  0.12509000000E+03  0.12509000000E+03 0.  0.
        -11    1    3    3    0    0 -0.40089967629E+02 -0.13968966142E+02 -0.45315856880E+02  0.62095606967E+02  0.51100000000E-03 0.  1.
         23    2    1    0    0    0 -0.19313463614E+02 -0.76627373028E+01 -0.14663763373E+02  0.99658653673E+02  0.96359191964E+02 0.  0.
         11    1    3    3    0    0  0.20776504014E+02  0.63062288387E+01  0.30652093507E+02  0.37563046706E+02  0.51100000000E-03 0. -1.
         22    1    1    0    0    0  0.19313463614E+02  0.76627373028E+01  0.14663763373E+02  0.25431346327E+02  0.00000000000E+00 0.  1.
</event>
<event>
 5    1  0.1044283E-009  0.9118800E+02  0.7815553E-02  0.1125453E+00
         25   -1    0    0    0    0  0.00000000000E+00  0.00000000000E+00  0.99999998245E-14  0.12509000000E+03  0.12509000000E+03 0.  0.
        -11    1    3    3    0    0  0.14997496559E+02  0.46374787755E+02 -0.54397367003E+01  0.49042191815E+02  0.51100000000E-03 0.  1.
         23    2    1    0    0    0 -0.58946301068E+01 -0.28674680708E+01 -0.19639204713E+02  0.10438571544E+03  0.10231182820E+03 0.  0.
         11    1    3    3    0    0 -0.20892126665E+02 -0.49242255826E+02 -0.14199468013E+02  0.55343523628E+02  0.51100000000E-03 0. -1.
         22    1    1    0    0    0  0.58946301068E+01  0.28674680708E+01  0.19639204713E+02  0.20704284557E+02  0.00000000000E+00 0. -1.
</event>
<event>
 5    1  0.1044283E-009  0.9118800E+02  0.7815553E-02  0.1125453E+00
         25   -1    0    0    0    0  0.00000000000E+00  0.00000000000E+00  0.99999998245E-14  0.12509000000E+03  0.12509000000E+03 0.  0.
        -11    1    3    3    0    0 -0.16284380869E+02 -0.55449884771E+02 -0.10610061775E+02  0.58757503287E+02  0.51100000000E-03 0.  1.
         23    2    1    0    0    0  0.72836917185E+01 -0.27811512406E+02 -0.10308452120E+01  0.96322048575E+02  0.91925741838E+02 0.  0.
         11    1    3    3    0    0  0.23568072588E+02  0.27638372365E+02  0.95792165625E+01  0.37564545288E+02  0.51100000000E-03 0. -1.
         22    1    1    0    0    0 -0.72836917185E+01  0.27811512406E+02  0.10308452120E+01  0.28767951425E+02  0.00000000000E+00 0.  1.
</event>
<event>
 5    1  0.1044283E-009  0.9118800E+02  0.7815553E-02  0.1125453E+00
         25   -1    0    0    0    0  0.00000000000E+00  0.00000000000E+00  0.99999998245E-14  0.12509000000E+03  0.12509000000E+03 0.  0.
        -11    1    3    3    0    0 -0.18900151926E+02  0.26102485744E+02  0.18314423772E+02  0.37067150190E+02  0.51100000000E-03 0.  1.
         23    2    1    0    0    0 -0.75214738694E+01 -0.24234342924E+02 -0.12108887047E+02  0.96974148748E+02  0.92808859672E+02 0.  0.
         11    1    3    3    0    0  0.11378678056E+02 -0.50336828669E+02 -0.30423310819E+02  0.59906998557E+02  0.51100000000E-03 0. -1.
         22    1    1    0    0    0  0.75214738694E+01  0.24234342924E+02  0.12108887047E+02  0.28115851252E+02  0.00000000000E+00 0. -1.
</event>
<event>
 5    1  0.1044283E-009  0.9118800E+02  0.7815553E-02  0.1125453E+00
         25   -1    0    0    0    0  0.00000000000E+00  0.00000000000E+00  0.99999998245E-14  0.12509000000E+03  0.12509000000E+03 0.  0.
        -11    1    3    3    0    0 -0.30105680722E+02 -0.15850819918E+02  0.14439755559E+02  0.36960885334E+02  0.51100000000E-03 0. -1.
         23    2    1    0    0    0 -0.64940348119E+00  0.41913546863E+00 -0.31319284384E+02  0.93761179822E+02  0.88372302606E+02 0.  0.
         11    1    3    3    0    0  0.29456277241E+02  0.16269955386E+02 -0.45759039943E+02  0.56800294488E+02  0.51100000000E-03 0.  1.
         22    1    1    0    0    0  0.64940348119E+00 -0.41913546863E+00  0.31319284384E+02  0.31328820178E+02  0.00000000000E+00 0.  1.
</event>
<event>
 5    1  0.1044283E-009  0.9118800E+02  0.7815553E-02  0.1125453E+00
         25   -1    0    0    0    0  0.00000000000E+00  0.00000000000E+00  0.99999998245E-14  0.12509000000E+03  0.12509000000E+03 0.  0.
        -11    1    3    3    0    0 -0.33859644533E+02 -0.21217686435E+02 -0.39279065246E+01  0.40150892835E+02  0.51100000000E-03 0. -1.
         23    2    1    0    0    0  0.93551823661E+01 -0.60437981492E+01  0.27313689804E+02  0.95592803797E+02  0.90927991036E+02 0.  0.
         11    1    3    3    0    0  0.43214826899E+02  0.15173888286E+02  0.31241596328E+02  0.55441910961E+02  0.51100000000E-03 0.  1.
         22    1    1    0    0    0 -0.93551823661E+01  0.60437981492E+01 -0.27313689804E+02  0.29497196203E+02  0.00000000000E+00 0.  1.
</event>
<event>
 5    1  0.1044283E-009  0.9118800E+02  0.7815553E-02  0.1125453E+00
         25   -1    0    0    0    0  0.00000000000E+00  0.00000000000E+00  0.99999998245E-14  0.12509000000E+03  0.12509000000E+03 0.  0.
        -11    1    3    3    0    0 -0.18346405189E+01  0.28936044949E+02  0.19063015882E+02  0.34699555875E+02  0.51100000000E-03 0.  1.
         23    2    1    0    0    0  0.31310123698E+02  0.24289138927E+02 -0.15247852078E+02  0.82630806546E+02  0.70887707550E+02 0.  0.
         11    1    3    3    0    0  0.33144764216E+02 -0.46469060224E+01 -0.34310867960E+02  0.47931250672E+02  0.51100000000E-03 0. -1.
         22    1    1    0    0    0 -0.31310123698E+02 -0.24289138927E+02  0.15247852078E+02  0.42459193454E+02  0.00000000000E+00 0. -1.
</event>
<event>
 5    1  0.1044283E-009  0.9118800E+02  0.7815553E-02  0.1125453E+00
         25   -1    0    0    0    0  0.00000000000E+00  0.00000000000E+00  0.99999998245E-14  0.12509000000E+03  0.12509000000E+03 0.  0.
        -11    1    3    3    0    0  0.22117632247E+01  0.43787676499E+02 -0.34356335302E+02  0.55701079751E+02  0.51100000000E-03 0.  1.
         23    2    1    0    0    0  0.74698104903E+01  0.48570250852E+01 -0.28264040226E+02  0.95454805866E+02  0.90737948134E+02 0.  0.
         11    1    3    3    0    0  0.52580472656E+01 -0.38930651413E+02  0.60922950759E+01  0.39753726116E+02  0.51100000000E-03 0. -1.
         22    1    1    0    0    0 -0.74698104903E+01 -0.48570250852E+01  0.28264040226E+02  0.29635194134E+02  0.00000000000E+00 0.  1.
</event>
<event>
 5    1  0.1044283E-009  0.9118800E+02  0.7815553E-02  0.1125453E+00
         25   -1    0    0    0    0  0.00000000000E+00  0.00000000000E+00  0.99999998245E-14  0.12509000000E+03  0.12509000000E+03 0.  0.
        -11    1    3    3    0    0 -0.33784514089E+02 -0.23958350725E+02  0.80443621088E+01  0.42191322848E+02  0.51100000000E-03 0.  1.
         23    2    1    0    0    0 -0.13201415210E+02  0.25152380006E+02  0.84873160520E+01  0.95442839642E+02  0.90721450174E+02 0.  0.
         11    1    3    3    0    0  0.20583098879E+02  0.49110730731E+02  0.44295394321E+00  0.53251516794E+02  0.51100000000E-03 0. -1.
         22    1    1    0    0    0  0.13201415210E+02 -0.25152380006E+02 -0.84873160520E+01  0.29647160358E+02  0.00000000000E+00 0. -1.
</event>
<event>
 5    1  0.1044283E-009  0.9118800E+02  0.7815553E-02  0.1125453E+00
         25   -1    0    0    0    0  0.00000000000E+00  0.00000000000E+00  0.99999998245E-14  0.12509000000E+03  0.12509000000E+03 0.  0.
        -11    1    3    3    0    0  0.47116768151E+02 -0.26730789004E+02 -0.10412596223E+02  0.55162914011E+02  0.51100000000E-03 0.  1.
         23    2    1    0    0    0  0.15448447238E+02 -0.25232326200E+02 -0.21245298949E+02  0.88666277854E+02  0.80839478558E+02 0.  0.
         11    1    3    3    0    0 -0.31668320913E+02  0.14984628048E+01 -0.10832702726E+02  0.33503363844E+02  0.51100000000E-03 0. -1.
         22    1    1    0    0    0 -0.15448447238E+02  0.25232326200E+02  0.21245298949E+02  0.36423722146E+02  0.00000000000E+00 0.  1.
</event>
<event>
 5    1  0.1044283E-009  0.9118800E+02  0.7815553E-02  0.1125453E+00
         25   -1    0    0    0    0  0.00000000000E+00  0.00000000000E+00  0.99999998245E-14  0.12509000000E+03  0.12509000000E+03 0.  0.
        -11    1    3    3    0    0  0.87374378693E+01  0.33247974927E+02 -0.87072285719E+01  0.35462465889E+02  0.51100000000E-03 0.  1.
         23    2    1    0    0    0 -0.75042424752E+01 -0.23488088893E+02  0.11555093371E+02  0.97859058816E+02  0.93993995737E+02 0.  0.
         11    1    3    3    0    0 -0.16241680344E+02 -0.56736063820E+02  0.20262321942E+02  0.62396592927E+02  0.51100000000E-03 0. -1.
         22    1    1    0    0    0  0.75042424752E+01  0.23488088893E+02 -0.11555093371E+02  0.27230941184E+02  0.00000000000E+00 0. -1.
</event>
<event>
 5    1  0.1044283E-009  0.9118800E+02  0.7815553E-02  0.1125453E+00
         25   -1    0    0    0    0  0.00000000000E+00  0.00000000000E+00  0.99999998245E-14  0.12509000000E+03  0.12509000000E+03 0.  0.
        -11    1    3    3    0    0 -0.12349935750E+02 -0.35370617648E+02  0.63275058822E+01  0.37995247555E+02  0.51100000000E-03 0.  1.
         23    2    1    0    0    0  0.25553210158E+02  0.95658339662E+01  0.74959595419E+01  0.96794043782E+02  0.92565791593E+02 0.  0.
         11    1    3    3    0    0  0.37903145909E+02  0.44936451614E+02  0.11684536597E+01  0.58798796226E+02  0.51100000000E-03 0. -1.
         22    1    1    0    0    0 -0.25553210158E+02 -0.95658339662E+01 -0.74959595419E+01  0.28295956218E+02  0.00000000000E+00 0. -1.
</event>
<event>
 5    1  0.1044283E-009  0.9118800E+02  0.7815553E-02  0.1125453E+00
         25   -1    0    0    0    0  0.00000000000E+00  0.00000000000E+00  0.99999998245E-14  0.12509000000E+03  0.12509000000E+03 0.  0.
        -11    1    3    3    0    0 -0.25073892486E+02 -0.19973289081E+02 -0.15162022504E+02  0.35461518407E+02  0.51100000000E-03 0. -1.
         23    2    1    0    0    0  0.22319705448E+02  0.17130934319E+02 -0.41918782858E+01  0.96643383233E+02  0.92361970081E+02 0.  0.
         11    1    3    3    0    0  0.47393597933E+02  0.37104223400E+02  0.10970144218E+02  0.61181864826E+02  0.51100000000E-03 0.  1.
         22    1    1    0    0    0 -0.22319705448E+02 -0.17130934319E+02  0.41918782858E+01  0.28446616767E+02  0.00000000000E+00 0.  1.
</event>
<event>
 5    1  0.1044283E-009  0.9118800E+02  0.7815553E-02  0.1125453E+00
         25   -1    0    0    0    0  0.00000000000E+00  0.00000000000E+00  0.99999998245E-14  0.12509000000E+03  0.12509000000E+03 0.  0.
        -11    1    3    3    0    0  0.23414348898E+02  0.55305412083E+02  0.15520816825E+02  0.62030767327E+02  0.51100000000E-03 0. -1.
         23    2    1    0    0    0  0.12233429695E+02  0.19806065263E+02  0.10374541473E+02  0.99603373427E+02  0.96287402415E+02 0.  0.
         11    1    3    3    0    0 -0.11180919203E+02 -0.35499346820E+02 -0.51462753521E+01  0.37572606100E+02  0.51100000000E-03 0.  1.
         22    1    1    0    0    0 -0.12233429695E+02 -0.19806065263E+02 -0.10374541473E+02  0.25486626573E+02  0.00000000000E+00 0. -1.
</event>
<event>
 5    1  0.1044283E-009  0.9118800E+02  0.7815553E-02  0.1125453E+00
         25   -1    0    0    0    0  0.00000000000E+00  0.00000000000E+00  0.99999998245E-14  0.12509000000E+03  0.12509000000E+03 0.  0.
        -11    1    3    3    0    0  0.37013069108E+02 -0.24263294797E+02  0.36770284355E+02  0.57538930917E+02  0.51100000000E-03 0.  1.
         23    2    1    0    0    0  0.19386227862E+02  0.58759500324E+01  0.21197161496E+02  0.95769831601E+02  0.91171203622E+02 0.  0.
         11    1    3    3    0    0 -0.17626841247E+02  0.30139244830E+02 -0.15573122859E+02  0.38230900684E+02  0.51100000000E-03 0. -1.
         22    1    1    0    0    0 -0.19386227862E+02 -0.58759500324E+01 -0.21197161496E+02  0.29320168399E+02  0.00000000000E+00 0.  1.
</event>
<event>
 5    1  0.1044283E-009  0.9118800E+02  0.7815553E-02  0.1125453E+00
         25   -1    0    0    0    0  0.00000000000E+00  0.00000000000E+00  0.99999998245E-14  0.12509000000E+03  0.12509000000E+03 0.  0.
        -11    1    3    3    0    0 -0.37286730869E+02  0.74017754499E+00 -0.43841756288E+02  0.57558211894E+02  0.51100000000E-03 0.  1.
         23    2    1    0    0    0 -0.23709050138E+02  0.13887014422E+02 -0.10912563901E+02  0.95525624835E+02  0.90835525656E+02 0.  0.
         11    1    3    3    0    0  0.13577680731E+02  0.13146836877E+02  0.32929192387E+02  0.37967412941E+02  0.51100000000E-03 0. -1.
         22    1    1    0    0    0  0.23709050138E+02 -0.13887014422E+02  0.10912563901E+02  0.29564375165E+02  0.00000000000E+00 0.  1.
</event>
<event>
 5    1  0.1044283E-009  0.9118800E+02  0.7815553E-02  0.1125453E+00
         25   -1    0    0    0    0  0.00000000000E+00  0.00000000000E+00  0.99999998245E-14  0.12509000000E+03  0.12509000000E+03 0.  0.
        -11    1    3    3    0    0 -0.31922746385E+02 -0.13670188698E+02  0.42016587623E+02  0.54509902142E+02  0.51100000000E-03 0. -1.
         23    2    1    0    0    0  0.32373953351E+01 -0.19808258377E+02  0.21496111314E+02  0.95680297007E+02  0.91048276235E+02 0.  0.
         11    1    3    3    0    0  0.35160141720E+02 -0.61380696785E+01 -0.20520476308E+02  0.41170394865E+02  0.51100000000E-03 0.  1.
         22    1    1    0    0    0 -0.32373953351E+01  0.19808258377E+02 -0.21496111314E+02  0.29409702993E+02  0.00000000000E+00 0. -1.
</event>
<event>
 5    1  0.1044283E-009  0.9118800E+02  0.7815553E-02  0.1125453E+00
         25   -1    0    0    0    0  0.00000000000E+00  0.00000000000E+00  0.99999998245E-14  0.12509000000E+03  0.12509000000E+03 0.  0.
        -11    1    3    3    0    0 -0.33370330277E+02 -0.49331147205E+01 -0.18933032988E+02  0.38682997583E+02  0.51100000000E-03 0. -1.
         23    2    1    0    0    0 -0.65593301340E-01  0.33071576110E+02 -0.12968432862E+02  0.89566575337E+02  0.82220786409E+02 0.  0.
         11    1    3    3    0    0  0.33304736975E+02  0.38004690831E+02  0.59646001258E+01  0.50883577754E+02  0.51100000000E-03 0.  1.
         22    1    1    0    0    0  0.65593301340E-01 -0.33071576110E+02  0.12968432862E+02  0.35523424663E+02  0.00000000000E+00 0.  1.
</event>
<event>
 5    1  0.1044283E-009  0.9118800E+02  0.7815553E-02  0.1125453E+00
         25   -1    0    0    0    0  0.00000000000E+00  0.00000000000E+00  0.99999998245E-14  0.12509000000E+03  0.12509000000E+03 0.  0.
        -11    1    3    3    0    0  0.47142980573E+02 -0.32073939979E+02  0.13459284659E+02  0.58586266197E+02  0.51100000000E-03 0.  1.
         23    2    1    0    0    0  0.21284530167E+02 -0.12925832211E+02  0.21983849170E+02  0.91872565013E+02  0.85657283491E+02 0.  0.
         11    1    3    3    0    0 -0.25858450407E+02  0.19148107768E+02  0.85245645113E+01  0.33286298817E+02  0.51100000000E-03 0. -1.
         22    1    1    0    0    0 -0.21284530167E+02  0.12925832211E+02 -0.21983849170E+02  0.33217434987E+02  0.00000000000E+00 0.  1.
</event>
<event>
 5    1  0.1044283E-009  0.9118800E+02  0.7815553E-02  0.1125453E+00
         25   -1    0    0    0    0  0.00000000000E+00  0.00000000000E+00  0.99999998245E-14  0.12509000000E+03  0.12509000000E+03 0.  0.
        -11    1    3    3    0    0 -0.17598461992E+02 -0.54277019574E+02 -0.18824929107E+02  0.60083930251E+02  0.51100000000E-03 0. -1.
         23    2    1    0    0    0 -0.79381194633E+01 -0.28435845354E+02  0.32119308763E+01  0.95392735117E+02  0.90652337926E+02 0.  0.
         11    1    3    3    0    0  0.96603425284E+01  0.25841174220E+02  0.22036859983E+02  0.35308804865E+02  0.51100000000E-03 0.  1.
         22    1    1    0    0    0  0.79381194633E+01  0.28435845354E+02 -0.32119308763E+01  0.29697264883E+02  0.00000000000E+00 0. -1.
</event>
<event>
 5    1  0.1044283E-009  0.9118800E+02  0.7815553E-02  0.1125453E+00
         25   -1    0    0    0    0  0.00000000000E+00  0.00000000000E+00  0.99999998245E-14  0.12509000000E+03  0.12509000000E+03 0.  0.
        -11    1    3    3    0    0  0.67204672632E+01  0.52775330376E+02  0.10291902223E+02  0.54187853142E+02  0.51100000000E-03 0.  1.
         23    2    1    0    0    0 -0.87196569664E+01  0.16462338205E+02  0.22860374551E+02  0.95600379429E+02  0.90938412267E+02 0.  0.
         11    1    3    3    0    0 -0.15440124230E+02 -0.36312992170E+02  0.12568472328E+02  0.41412526287E+02  0.51100000000E-03 0. -1.
         22    1    1    0    0    0  0.87196569664E+01 -0.16462338205E+02 -0.22860374551E+02  0.29489620571E+02  0.00000000000E+00 0.  1.
</event>
<event>
 5    1  0.1044283E-009  0.9118800E+02  0.7815553E-02  0.1125453E+00
         25   -1    0    0    0    0  0.00000000000E+00  0.00000000000E+00  0.99999998245E-14  0.12509000000E+03  0.12509000000E+03 0.  0.
        -11    1    3    3    0    0 -0.35072834891E+02  0.14547567301E+02  0.18334726666E+02  0.42165123785E+02  0.51100000000E-03 0.  1.
         23    2    1    0    0    0  0.16500672759E+02  0.23309453126E+02  0.62488199058E+01  0.95855592930E+02  0.91288795256E+02 0.  0.
         11    1    3    3    0    0  0.51573507650E+02  0.87618858254E+01 -0.12085906760E+02  0.53690469145E+02  0.51100000000E-03 0. -1.
         22    1    1    0    0    0 -0.16500672759E+02 -0.23309453126E+02 -0.62488199058E+01  0.29234407070E+02  0.00000000000E+00 0. -1.
</event>
<event>
 5    1  0.1044283E-009  0.9118800E+02  0.7815553E-02  0.1125453E+00
         25   -1    0    0    0    0  0.00000000000E+00  0.00000000000E+00  0.99999998245E-14  0.12509000000E+03  0.12509000000E+03 0.  0.
        -11    1    3    3    0    0  0.31195827970E+02  0.59759523373E+01  0.14128400401E+01  0.31794461881E+02  0.51100000000E-03 0. -1.
         23    2    1    0    0    0 -0.28404975837E+02 -0.12274689890E+02 -0.12983124908E+00  0.94146058422E+02  0.88915424961E+02 0.  0.
         11    1    3    3    0    0 -0.59600803808E+02 -0.18250642227E+02 -0.15426712892E+01  0.62351596541E+02  0.51100000000E-03 0.  1.
         22    1    1    0    0    0  0.28404975837E+02  0.12274689890E+02  0.12983124908E+00  0.30943941578E+02  0.00000000000E+00 0.  1.
</event>
<event>
 5    1  0.1044283E-009  0.9118800E+02  0.7815553E-02  0.1125453E+00
         25   -1    0    0    0    0  0.00000000000E+00  0.00000000000E+00  0.99999998245E-14  0.12509000000E+03  0.12509000000E+03 0.  0.
        -11    1    3    3    0    0  0.15399480350E+02  0.14091791405E+02  0.42036309114E+02  0.46933717775E+02  0.51100000000E-03 0.  1.
         23    2    1    0    0    0  0.31669261061E+02  0.79862432781E+01 -0.96562182663E-02  0.92429285508E+02  0.86466470660E+02 0.  0.
         11    1    3    3    0    0  0.16269780712E+02 -0.61055481271E+01 -0.42045965332E+02  0.45495567733E+02  0.51100000000E-03 0. -1.
         22    1    1    0    0    0 -0.31669261061E+02 -0.79862432781E+01  0.96562182663E-02  0.32660714492E+02  0.00000000000E+00 0.  1.
</event>
<event>
 5    1  0.1044283E-009  0.9118800E+02  0.7815553E-02  0.1125453E+00
         25   -1    0    0    0    0  0.00000000000E+00  0.00000000000E+00  0.99999998245E-14  0.12509000000E+03  0.12509000000E+03 0.  0.
        -11    1    3    3    0    0  0.19572187052E+02 -0.38778915578E+02 -0.20020595454E+02  0.47829896948E+02  0.51100000000E-03 0. -1.
         23    2    1    0    0    0 -0.33143827017E+01 -0.23702786224E+02  0.18314046086E+02  0.94953452561E+02  0.90044137298E+02 0.  0.
         11    1    3    3    0    0 -0.22886569754E+02  0.15076129354E+02  0.38334641541E+02  0.47123555614E+02  0.51100000000E-03 0.  1.
         22    1    1    0    0    0  0.33143827017E+01  0.23702786224E+02 -0.18314046086E+02  0.30136547439E+02  0.00000000000E+00 0.  1.
</event>
<event>
 5    1  0.1044283E-009  0.9118800E+02  0.7815553E-02  0.1125453E+00
         25   -1    0    0    0    0  0.00000000000E+00  0.00000000000E+00  0.99999998245E-14  0.12509000000E+03  0.12509000000E+03 0.  0.
        -11    1    3    3    0    0  0.30384010804E+02  0.11287398224E+02  0.44201960456E+02  0.54812469198E+02  0.51100000000E-03 0. -1.
         23    2    1    0    0    0 -0.15539704939E+01 -0.27689301839E+01  0.33682794309E+02  0.91257878708E+02  0.84754870038E+02 0.  0.
         11    1    3    3    0    0 -0.31937981298E+02 -0.14056328408E+02 -0.10519166147E+02  0.36445409510E+02  0.51100000000E-03 0.  1.
         22    1    1    0    0    0  0.15539704939E+01  0.27689301839E+01 -0.33682794309E+02  0.33832121292E+02  0.00000000000E+00 0. -1.
</event>
<event>
 5    1  0.1044283E-009  0.9118800E+02  0.7815553E-02  0.1125453E+00
         25   -1    0    0    0    0  0.00000000000E+00  0.00000000000E+00  0.99999998245E-14  0.12509000000E+03  0.12509000000E+03 0.  0.
        -11    1    3    3    0    0 -0.31526039419E+02  0.36081184223E+02  0.26027953484E+02  0.54527033472E+02  0.51100000000E-03 0.  1.
         23    2    1    0    0    0 -0.15193824667E+02 -0.34890511003E+01  0.22817558818E+02  0.97455478546E+02  0.93455355772E+02 0.  0.
         11    1    3    3    0    0  0.16332214752E+02 -0.39570235323E+02 -0.32103946661E+01  0.42928445074E+02  0.51100000000E-03 0. -1.
         22    1    1    0    0    0  0.15193824667E+02  0.34890511003E+01 -0.22817558818E+02  0.27634521454E+02  0.00000000000E+00 0.  1.
</event>
<event>
 5    1  0.1044283E-009  0.9118800E+02  0.7815553E-02  0.1125453E+00
         25   -1    0    0    0    0  0.00000000000E+00  0.00000000000E+00  0.99999998245E-14  0.12509000000E+03  0.12509000000E+03 0.  0.
        -11    1    3    3    0    0  0.25935554490E+02 -0.41543943439E+02 -0.12694116611E+02  0.50593406882E+02  0.51100000000E-03 0. -1.
         23    2    1    0    0    0 -0.14327990395E+02 -0.26190042278E+02 -0.11044693800E+01  0.95216441861E+02  0.90408745842E+02 0.  0.
         11    1    3    3    0    0 -0.40263544884E+02  0.15353901161E+02  0.11589647231E+02  0.44623034979E+02  0.51100000000E-03 0.  1.
         22    1    1    0    0    0  0.14327990395E+02  0.26190042278E+02  0.11044693800E+01  0.29873558139E+02  0.00000000000E+00 0. -1.
</event>
<event>
 5    1  0.1044283E-009  0.9118800E+02  0.7815553E-02  0.1125453E+00
         25   -1    0    0    0    0  0.00000000000E+00  0.00000000000E+00  0.99999998245E-14  0.12509000000E+03  0.12509000000E+03 0.  0.
        -11    1    3    3    0    0  0.38687141492E+02  0.15397893694E+02  0.49829554950E+01  0.41935902193E+02  0.51100000000E-03 0.  1.
         23    2    1    0    0    0  0.44822010436E+01 -0.27098194006E+02  0.77293876913E+01  0.96556761862E+02  0.92244580234E+02 0.  0.
         11    1    3    3    0    0 -0.34204940448E+02 -0.42496087700E+02  0.27464321963E+01  0.54620859669E+02  0.51100000000E-03 0. -1.
         22    1    1    0    0    0 -0.44822010436E+01  0.27098194006E+02 -0.77293876913E+01  0.28533238138E+02  0.00000000000E+00 0. -1.
</event>
<event>
 5    1  0.1044283E-009  0.9118800E+02  0.7815553E-02  0.1125453E+00
         25   -1    0    0    0    0  0.00000000000E+00  0.00000000000E+00  0.99999998245E-14  0.12509000000E+03  0.12509000000E+03 0.  0.
        -11    1    3    3    0    0 -0.36257450498E+02  0.39104372277E+02 -0.26782586313E+02  0.59674630939E+02  0.51100000000E-03 0.  1.
         23    2    1    0    0    0 -0.27150146059E+02  0.10639360909E+02 -0.84736145405E+01  0.94723429977E+02  0.89724019146E+02 0.  0.
         11    1    3    3    0    0  0.91073044393E+01 -0.28465011369E+02  0.18308971773E+02  0.35048799038E+02  0.51100000000E-03 0. -1.
         22    1    1    0    0    0  0.27150146059E+02 -0.10639360909E+02  0.84736145405E+01  0.30366570023E+02  0.00000000000E+00 0.  1.
</event>
<event>
 5    1  0.1044283E-009  0.9118800E+02  0.7815553E-02  0.1125453E+00
         25   -1    0    0    0    0  0.00000000000E+00  0.00000000000E+00  0.99999998245E-14  0.12509000000E+03  0.12509000000E+03 0.  0.
        -11    1    3    3    0    0  0.18734147058E+02 -0.35980858756E+02  0.17245258255E+02  0.44079353391E+02  0.51100000000E-03 0.  1.
         23    2    1    0    0    0 -0.18147774011E+02 -0.11787158665E+01  0.23720062536E+02  0.95200663450E+02  0.90386912117E+02 0.  0.
         11    1    3    3    0    0 -0.36881921070E+02  0.34802142889E+02  0.64748042813E+01  0.51121310060E+02  0.51100000000E-03 0. -1.
         22    1    1    0    0    0  0.18147774011E+02  0.11787158665E+01 -0.23720062536E+02  0.29889336550E+02  0.00000000000E+00 0.  1.
</event>
<event>
 5    1  0.1044283E-009  0.9118800E+02  0.7815553E-02  0.1125453E+00
         25   -1    0    0    0    0  0.00000000000E+00  0.00000000000E+00  0.99999998245E-14  0.12509000000E+03  0.12509000000E+03 0.  0.
        -11    1    3    3    0    0 -0.21987374425E+02  0.20911684298E+02  0.18187485863E+02  0.35376939050E+02  0.51100000000E-03 0. -1.
         23    2    1    0    0    0  0.13310578914E+02 -0.25569794996E+02  0.89698782248E+00  0.96249221330E+02  0.91826587067E+02 0.  0.
         11    1    3    3    0    0  0.35297953339E+02 -0.46481479293E+02 -0.17290498041E+02  0.60872282280E+02  0.51100000000E-03 0.  1.
         22    1    1    0    0    0 -0.13310578914E+02  0.25569794996E+02 -0.89698782248E+00  0.28840778670E+02  0.00000000000E+00 0.  1.
</event>
<event>
 5    1  0.1044283E-009  0.9118800E+02  0.7815553E-02  0.1125453E+00
         25   -1    0    0    0    0  0.00000000000E+00  0.00000000000E+00  0.99999998245E-14  0.12509000000E+03  0.12509000000E+03 0.  0.
        -11    1    3    3    0    0 -0.19059888231E+02  0.18925603731E+02  0.36635191282E+02  0.45426809887E+02  0.51100000000E-03 0.  1.
         23    2    1    0    0    0  0.13240725758E+02 -0.13856248970E+02  0.26220269970E+02  0.92612084251E+02  0.86730520222E+02 0.  0.
         11    1    3    3    0    0  0.32300613989E+02 -0.32781852701E+02 -0.10414921313E+02  0.47185274364E+02  0.51100000000E-03 0. -1.
         22    1    1    0    0    0 -0.13240725758E+02  0.13856248970E+02 -0.26220269970E+02  0.32477915749E+02  0.00000000000E+00 0. -1.
</event>
<event>
 5    1  0.1044283E-009  0.9118800E+02  0.7815553E-02  0.1125453E+00
         25   -1    0    0    0    0  0.00000000000E+00  0.00000000000E+00  0.99999998245E-14  0.12509000000E+03  0.12509000000E+03 0.  0.
        -11    1    3    3    0    0 -0.21326418848E+02 -0.17111861938E+02 -0.46341228639E+02  0.53806518489E+02  0.51100000000E-03 0.  1.
         23    2    1    0    0    0 -0.21428872080E+01  0.14400381466E+02 -0.24244639793E+02  0.96809874282E+02  0.92587181876E+02 0.  0.
         11    1    3    3    0    0  0.19183531640E+02  0.31512243404E+02  0.22096588846E+02  0.43003355793E+02  0.51100000000E-03 0. -1.
         22    1    1    0    0    0  0.21428872080E+01 -0.14400381466E+02  0.24244639793E+02  0.28280125718E+02  0.00000000000E+00 0.  1.
</event>
<event>
 5    1  0.1044283E-009  0.9118800E+02  0.7815553E-02  0.1125453E+00
         25   -1    0    0    0    0  0.00000000000E+00  0.00000000000E+00  0.99999998245E-14  0.12509000000E+03  0.12509000000E+03 0.  0.
        -11    1    3    3    0    0  0.34236325653E+02 -0.24841250844E+01 -0.44865444852E+02  0.56490751576E+02  0.51100000000E-03 0.  1.
         23    2    1    0    0    0  0.37656231065E+02 -0.90033722495E+01 -0.21898827196E+02  0.80608418616E+02  0.67224296718E+02 0.  0.
         11    1    3    3    0    0  0.34199054127E+01 -0.65192471651E+01  0.22966617656E+02  0.24117667040E+02  0.51100000000E-03 0. -1.
         22    1    1    0    0    0 -0.37656231065E+02  0.90033722495E+01  0.21898827196E+02  0.44481581384E+02  0.00000000000E+00 0.  1.
</event>
<event>
 5    1  0.1044283E-009  0.9118800E+02  0.7815553E-02  0.1125453E+00
         25   -1    0    0    0    0  0.00000000000E+00  0.00000000000E+00  0.99999998245E-14  0.12509000000E+03  0.12509000000E+03 0.  0.
        -11    1    3    3    0    0 -0.43409284193E+02 -0.13119778320E+02 -0.56290017799E+01  0.45696610362E+02  0.51100000000E-03 0.  1.
         23    2    1    0    0    0  0.34699009392E+01 -0.28756853588E+02  0.33751431156E+01  0.95928579735E+02  0.91388751924E+02 0.  0.
         11    1    3    3    0    0  0.46879185132E+02 -0.15637075268E+02  0.90041448955E+01  0.50231969373E+02  0.51100000000E-03 0. -1.
         22    1    1    0    0    0 -0.34699009392E+01  0.28756853588E+02 -0.33751431156E+01  0.29161420265E+02  0.00000000000E+00 0.  1.
</event>
<event>
 5    1  0.1044283E-009  0.9118800E+02  0.7815553E-02  0.1125453E+00
         25   -1    0    0    0    0  0.00000000000E+00  0.00000000000E+00  0.99999998245E-14  0.12509000000E+03  0.12509000000E+03 0.  0.
        -11    1    3    3    0    0  0.35918761627E+02 -0.36092347548E+02 -0.53812917240E+01  0.51203254674E+02  0.51100000000E-03 0.  1.
         23    2    1    0    0    0  0.27125915453E+02  0.58673150692E+01  0.81599864490E+01  0.96162054098E+02  0.91707767360E+02 0.  0.
         11    1    3    3    0    0 -0.87928461734E+01  0.41959662617E+02  0.13541278173E+02  0.44958799424E+02  0.51100000000E-03 0. -1.
         22    1    1    0    0    0 -0.27125915453E+02 -0.58673150692E+01 -0.81599864490E+01  0.28927945902E+02  0.00000000000E+00 0.  1.
</event>
<event>
 5    1  0.1044283E-009  0.9118800E+02  0.7815553E-02  0.1125453E+00
         25   -1    0    0    0    0  0.00000000000E+00  0.00000000000E+00  0.99999998245E-14  0.12509000000E+03  0.12509000000E+03 0.  0.
        -11    1    3    3    0    0  0.16620168608E+02 -0.25045903857E+02 -0.27806635684E+02  0.40947970559E+02  0.51100000000E-03 0.  1.
         23    2    1    0    0    0 -0.39060993527E+01  0.24188310360E+02 -0.16712900831E+02  0.95431054900E+02  0.90705199492E+02 0.  0.
         11    1    3    3    0    0 -0.20526267961E+02  0.49234214218E+02  0.11093734853E+02  0.54483084341E+02  0.51100000000E-03 0. -1.
         22    1    1    0    0    0  0.39060993527E+01 -0.24188310360E+02  0.16712900831E+02  0.29658945100E+02  0.00000000000E+00 0. -1.
</event>
<event>
 5    1  0.1044283E-009  0.9118800E+02  0.7815553E-02  0.1125453E+00
         25   -1    0    0    0    0  0.00000000000E+00  0.00000000000E+00  0.99999998245E-14  0.12509000000E+03  0.12509000000E+03 0.  0.
        -11    1    3    3    0    0  0.26421392999E+02 -0.20445473765E+02 -0.28504710590E+01  0.33529577853E+02  0.51100000000E-03 0.  1.
         23    2    1    0    0    0 -0.65667523784E+01  0.30223174509E+02  0.13135400914E+01  0.94133774427E+02  0.88898141634E+02 0.  0.
         11    1    3    3    0    0 -0.32988145377E+02  0.50668648273E+02  0.41640111504E+01  0.60604196574E+02  0.51100000000E-03 0. -1.
         22    1    1    0    0    0  0.65667523784E+01 -0.30223174509E+02 -0.13135400914E+01  0.30956225573E+02  0.00000000000E+00 0. -1.
</event>
<event>
 5    1  0.1044283E-009  0.9118800E+02  0.7815553E-02  0.1125453E+00
         25   -1    0    0    0    0  0.00000000000E+00  0.00000000000E+00  0.99999998245E-14  0.12509000000E+03  0.12509000000E+03 0.  0.
        -11    1    3    3    0    0  0.26340677500E+02 -0.33625356815E+02  0.44733483073E+02  0.61851276626E+02  0.51100000000E-03 0.  1.
         23    2    1    0    0    0  0.60470966816E+01 -0.15212351111E+02  0.23170476302E+02  0.96720051522E+02  0.92465747116E+02 0.  0.
         11    1    3    3    0    0 -0.20293580818E+02  0.18413005704E+02 -0.21563006771E+02  0.34868774896E+02  0.51100000000E-03 0. -1.
         22    1    1    0    0    0 -0.60470966816E+01  0.15212351111E+02 -0.23170476302E+02  0.28369948478E+02  0.00000000000E+00 0.  1.
</event>
<event>
 5    1  0.1044283E-009  0.9118800E+02  0.7815553E-02  0.1125453E+00
         25   -1    0    0    0    0  0.00000000000E+00  0.00000000000E+00  0.99999998245E-14  0.12509000000E+03  0.12509000000E+03 0.  0.
        -11    1    3    3    0    0  0.10387327792E+02 -0.46280693091E+02  0.55993409305E+01  0.47761404405E+02  0.51100000000E-03 0. -1.
         23    2    1    0    0    0 -0.24666748703E+02 -0.13503237669E+02  0.81245931283E+01  0.95818940357E+02  0.91238557631E+02 0.  0.
         11    1    3    3    0    0 -0.35054076495E+02  0.32777455422E+02  0.25252521978E+01  0.48057535952E+02  0.51100000000E-03 0.  1.
         22    1    1    0    0    0  0.24666748703E+02  0.13503237669E+02 -0.81245931283E+01  0.29271059643E+02  0.00000000000E+00 0. -1.
</event>
<event>
 5    1  0.1044283E-009  0.9118800E+02  0.7815553E-02  0.1125453E+00
         25   -1    0    0    0    0  0.00000000000E+00  0.00000000000E+00  0.99999998245E-14  0.12509000000E+03  0.12509000000E+03 0.  0.
        -11    1    3    3    0    0  0.19821413828E+02  0.51497415562E+02 -0.19416377958E+02  0.58496734857E+02  0.51100000000E-03 0. -1.
         23    2    1    0    0    0 -0.56461682069E+01  0.23023271126E+02 -0.15198701351E+02  0.96930618765E+02  0.92750170365E+02 0.  0.
         11    1    3    3    0    0 -0.25467582035E+02 -0.28474144435E+02  0.42176766062E+01  0.38433883908E+02  0.51100000000E-03 0.  1.
         22    1    1    0    0    0  0.56461682069E+01 -0.23023271126E+02  0.15198701351E+02  0.28159381235E+02  0.00000000000E+00 0. -1.
</event>
<event>
 5    1  0.1044283E-009  0.9118800E+02  0.7815553E-02  0.1125453E+00
         25   -1    0    0    0    0  0.00000000000E+00  0.00000000000E+00  0.99999998245E-14  0.12509000000E+03  0.12509000000E+03 0.  0.
        -11    1    3    3    0    0  0.32453282414E+02 -0.21298807697E+02  0.27416545818E+02  0.47523906969E+02  0.51100000000E-03 0.  1.
         23    2    1    0    0    0 -0.14822317114E+02 -0.10507482054E+02  0.22360738363E+02  0.96278355065E+02  0.91866265680E+02 0.  0.
         11    1    3    3    0    0 -0.47275599528E+02  0.10791325644E+02 -0.50558074542E+01  0.48754448096E+02  0.51100000000E-03 0. -1.
         22    1    1    0    0    0  0.14822317114E+02  0.10507482054E+02 -0.22360738363E+02  0.28811644935E+02  0.00000000000E+00 0. -1.
</event>
<event>
 5    1  0.1044283E-009  0.9118800E+02  0.7815553E-02  0.1125453E+00
         25   -1    0    0    0    0  0.00000000000E+00  0.00000000000E+00  0.99999998245E-14  0.12509000000E+03  0.12509000000E+03 0.  0.
        -11    1    3    3    0    0  0.24721722318E+01 -0.12513216951E+02  0.48873150004E+02  0.50510167547E+02  0.51100000000E-03 0. -1.
         23    2    1    0    0    0 -0.15952191938E+02  0.15845572357E+02  0.20745635175E+02  0.94496929383E+02  0.89407682517E+02 0.  0.
         11    1    3    3    0    0 -0.18424364170E+02  0.28358789308E+02 -0.28127514829E+02  0.43986761836E+02  0.51100000000E-03 0.  1.
         22    1    1    0    0    0  0.15952191938E+02 -0.15845572357E+02 -0.20745635175E+02  0.30593070617E+02  0.00000000000E+00 0. -1.
</event>
<event>
 5    1  0.1044283E-009  0.9118800E+02  0.7815553E-02  0.1125453E+00
         25   -1    0    0    0    0  0.00000000000E+00  0.00000000000E+00  0.99999998245E-14  0.12509000000E+03  0.12509000000E+03 0.  0.
        -11    1    3    3    0    0 -0.46867369791E+02 -0.81105806779E+00  0.25889034208E+02  0.53548578495E+02  0.51100000000E-03 0.  1.
         23    2    1    0    0    0 -0.17568504236E+02 -0.23347051661E+02  0.70648020424E+01  0.95029251669E+02  0.90149376495E+02 0.  0.
         11    1    3    3    0    0  0.29298865555E+02 -0.22535993593E+02 -0.18824232165E+02  0.41480673174E+02  0.51100000000E-03 0. -1.
         22    1    1    0    0    0  0.17568504236E+02  0.23347051661E+02 -0.70648020424E+01  0.30060748331E+02  0.00000000000E+00 0.  1.
</event>
<event>
 5    1  0.1044283E-009  0.9118800E+02  0.7815553E-02  0.1125453E+00
         25   -1    0    0    0    0  0.00000000000E+00  0.00000000000E+00  0.99999998245E-14  0.12509000000E+03  0.12509000000E+03 0.  0.
        -11    1    3    3    0    0 -0.38024329520E+02 -0.34905440898E+02 -0.19658979457E+02  0.55233277228E+02  0.51100000000E-03 0.  1.
         23    2    1    0    0    0 -0.29497838238E+02 -0.33098498115E+01  0.33214332964E+01  0.95221798085E+02  0.90416156437E+02 0.  0.
         11    1    3    3    0    0  0.85264912822E+01  0.31595591087E+02  0.22980412754E+02  0.39988520857E+02  0.51100000000E-03 0. -1.
         22    1    1    0    0    0  0.29497838238E+02  0.33098498115E+01 -0.33214332964E+01  0.29868201915E+02  0.00000000000E+00 0.  1.
</event>
<event>
 5    1  0.1044283E-009  0.9118800E+02  0.7815553E-02  0.1125453E+00
         25   -1    0    0    0    0  0.00000000000E+00  0.00000000000E+00  0.99999998245E-14  0.12509000000E+03  0.12509000000E+03 0.  0.
        -11    1    3    3    0    0 -0.17619585554E+02  0.28906787746E+02 -0.52278323390E+01  0.34254669815E+02  0.51100000000E-03 0. -1.
         23    2    1    0    0    0  0.22831347423E+02 -0.15232242737E+02  0.97375039999E+01  0.95967661013E+02  0.91442229480E+02 0.  0.
         11    1    3    3    0    0  0.40450932977E+02 -0.44139030482E+02  0.14965336339E+02  0.61712991198E+02  0.51100000000E-03 0.  1.
         22    1    1    0    0    0 -0.22831347423E+02  0.15232242737E+02 -0.97375039999E+01  0.29122338987E+02  0.00000000000E+00 0.  1.
</event>
<event>
 5    1  0.1044283E-009  0.9118800E+02  0.7815553E-02  0.1125453E+00
         25   -1    0    0    0    0  0.00000000000E+00  0.00000000000E+00  0.99999998245E-14  0.12509000000E+03  0.12509000000E+03 0.  0.
        -11    1    3    3    0    0  0.46114604422E+02  0.44610484869E+01  0.33409523723E+01  0.46450184689E+02  0.51100000000E-03 0. -1.
         23    2    1    0    0    0  0.45353680340E+01  0.12199003712E+02  0.27148013677E+02  0.94983523930E+02  0.90085902985E+02 0.  0.
         11    1    3    3    0    0 -0.41579236388E+02  0.77379552253E+01  0.23807061305E+02  0.48533339241E+02  0.51100000000E-03 0.  1.
         22    1    1    0    0    0 -0.45353680340E+01 -0.12199003712E+02 -0.27148013677E+02  0.30106476070E+02  0.00000000000E+00 0.  1.
</event>
<event>
 5    1  0.1044283E-009  0.9118800E+02  0.7815553E-02  0.1125453E+00
         25   -1    0    0    0    0  0.00000000000E+00  0.00000000000E+00  0.99999998245E-14  0.12509000000E+03  0.12509000000E+03 0.  0.
        -11    1    3    3    0    0  0.44614250673E+02 -0.17436168940E+02  0.88213168519E+01  0.48705923477E+02  0.51100000000E-03 0.  1.
         23    2    1    0    0    0 -0.19040875790E+01  0.15179549405E+02  0.12057308464E+02  0.10561121777E+03  0.10379935627E+03 0.  0.
         11    1    3    3    0    0 -0.46518338252E+02  0.32615718345E+02  0.32359916124E+01  0.56905294296E+02  0.51100000000E-03 0. -1.
         22    1    1    0    0    0  0.19040875790E+01 -0.15179549405E+02 -0.12057308464E+02  0.19478782227E+02  0.00000000000E+00 0. -1.
</event>
<event>
 5    1  0.1044283E-009  0.9118800E+02  0.7815553E-02  0.1125453E+00
         25   -1    0    0    0    0  0.00000000000E+00  0.00000000000E+00  0.99999998245E-14  0.12509000000E+03  0.12509000000E+03 0.  0.
        -11    1    3    3    0    0 -0.30151301466E+02 -0.88256367738E+01  0.11979012004E+02  0.33622753805E+02  0.51100000000E-03 0. -1.
         23    2    1    0    0    0  0.27989041267E+02 -0.14279113687E+02 -0.17844694552E+01  0.93618364358E+02  0.88169917178E+02 0.  0.
         11    1    3    3    0    0  0.58140342733E+02 -0.54534769128E+01 -0.13763481459E+02  0.59995610554E+02  0.51100000000E-03 0.  1.
         22    1    1    0    0    0 -0.27989041267E+02  0.14279113687E+02  0.17844694552E+01  0.31471635642E+02  0.00000000000E+00 0.  1.
</event>
<event>
 5    1  0.1044283E-009  0.9118800E+02  0.7815553E-02  0.1125453E+00
         25   -1    0    0    0    0  0.00000000000E+00  0.00000000000E+00  0.99999998245E-14  0.12509000000E+03  0.12509000000E+03 0.  0.
        -11    1    3    3    0    0 -0.21774760420E+02  0.17654507937E+02 -0.37880154056E+02  0.47124599876E+02  0.51100000000E-03 0.  1.
         23    2    1    0    0    0 -0.30916657304E+02  0.16835372298E+02  0.36880474366E+01  0.89694079993E+02  0.82414542604E+02 0.  0.
         11    1    3    3    0    0 -0.91418968838E+01 -0.81913563853E+00  0.41568201493E+02  0.42569480117E+02  0.51100000000E-03 0. -1.
         22    1    1    0    0    0  0.30916657304E+02 -0.16835372298E+02 -0.36880474366E+01  0.35395920007E+02  0.00000000000E+00 0.  1.
</event>
<event>
 5    1  0.1044283E-009  0.9118800E+02  0.7815553E-02  0.1125453E+00
         25   -1    0    0    0    0  0.00000000000E+00  0.00000000000E+00  0.99999998245E-14  0.12509000000E+03  0.12509000000E+03 0.  0.
        -11    1    3    3    0    0  0.26503069606E+02  0.31452513954E+02  0.18396963346E+02  0.45056870654E+02  0.51100000000E-03 0. -1.
         23    2    1    0    0    0 -0.47959495367E+01 -0.63437534412E+01  0.28792724048E+02  0.95219189871E+02  0.90412547923E+02 0.  0.
         11    1    3    3    0    0 -0.31299019143E+02 -0.37796267395E+02  0.10395760702E+02  0.50162319216E+02  0.51100000000E-03 0.  1.
         22    1    1    0    0    0  0.47959495367E+01  0.63437534412E+01 -0.28792724048E+02  0.29870810129E+02  0.00000000000E+00 0.  1.
</event>
<event>
 5    1  0.1044283E-009  0.9118800E+02  0.7815553E-02  0.1125453E+00
         25   -1    0    0    0    0  0.00000000000E+00  0.00000000000E+00  0.99999998245E-14  0.12509000000E+03  0.12509000000E+03 0.  0.
        -11    1    3    3    0    0 -0.34978448546E+02 -0.16375624273E+02 -0.11618331311E+02  0.40331607403E+02  0.51100000000E-03 0.  1.
         23    2    1    0    0    0  0.21061024473E+02 -0.25319735639E+01 -0.16433950653E+02  0.98256208318E+02  0.94521056368E+02 0.  0.
         11    1    3    3    0    0  0.56039473019E+02  0.13843650709E+02 -0.48156193417E+01  0.57924600915E+02  0.51100000000E-03 0. -1.
         22    1    1    0    0    0 -0.21061024473E+02  0.25319735639E+01  0.16433950653E+02  0.26833791682E+02  0.00000000000E+00 0. -1.
</event>
<event>
 5    1  0.1044283E-009  0.9118800E+02  0.7815553E-02  0.1125453E+00
         25   -1    0    0    0    0  0.00000000000E+00  0.00000000000E+00  0.99999998245E-14  0.12509000000E+03  0.12509000000E+03 0.  0.
        -11    1    3    3    0    0 -0.34820462158E+02 -0.62496890351E+01  0.26327939556E+02  0.44098566864E+02  0.51100000000E-03 0.  1.
         23    2    1    0    0    0 -0.13168985734E+02 -0.15990257957E+02 -0.20088325580E+02  0.96234301094E+02  0.91806259850E+02 0.  0.
         11    1    3    3    0    0  0.21651476424E+02 -0.97405689215E+01 -0.46416265136E+02  0.52135734230E+02  0.51100000000E-03 0. -1.
         22    1    1    0    0    0  0.13168985734E+02  0.15990257957E+02  0.20088325580E+02  0.28855698906E+02  0.00000000000E+00 0.  1.
</event>
<event>
 5    1  0.1044283E-009  0.9118800E+02  0.7815553E-02  0.1125453E+00
         25   -1    0    0    0    0  0.00000000000E+00  0.00000000000E+00  0.99999998245E-14  0.12509000000E+03  0.12509000000E+03 0.  0.
        -11    1    3    3    0    0  0.44922645001E+02 -0.19902689254E+02 -0.32264019369E+02  0.58780337015E+02  0.51100000000E-03 0.  1.
         23    2    1    0    0    0  0.90335104395E+01 -0.97706826910E+01 -0.24994221077E+02  0.96774251054E+02  0.92539040565E+02 0.  0.
         11    1    3    3    0    0 -0.35889134561E+02  0.10132006563E+02  0.72697982921E+01  0.37993914039E+02  0.51100000000E-03 0. -1.
         22    1    1    0    0    0 -0.90335104395E+01  0.97706826910E+01  0.24994221077E+02  0.28315748946E+02  0.00000000000E+00 0.  1.
</event>
<event>
 5    1  0.1044283E-009  0.9118800E+02  0.7815553E-02  0.1125453E+00
         25   -1    0    0    0    0  0.00000000000E+00  0.00000000000E+00  0.99999998245E-14  0.12509000000E+03  0.12509000000E+03 0.  0.
        -11    1    3    3    0    0  0.29910862737E+02 -0.14343775451E+02 -0.14171229451E+02  0.36072528997E+02  0.51100000000E-03 0.  1.
         23    2    1    0    0    0 -0.10107048143E+02  0.27613957614E+02 -0.33368890954E+00  0.95682612738E+02  0.91051457730E+02 0.  0.
         11    1    3    3    0    0 -0.40017910880E+02  0.41957733065E+02  0.13837540541E+02  0.59610083741E+02  0.51100000000E-03 0. -1.
         22    1    1    0    0    0  0.10107048143E+02 -0.27613957614E+02  0.33368890954E+00  0.29407387262E+02  0.00000000000E+00 0. -1.
</event>
<event>
 5    1  0.1044283E-009  0.9118800E+02  0.7815553E-02  0.1125453E+00
         25   -1    0    0    0    0  0.00000000000E+00  0.00000000000E+00  0.99999998245E-14  0.12509000000E+03  0.12509000000E+03 0.  0.
        -11    1    3    3    0    0 -0.41712925612E+01 -0.12605055938E+02 -0.36101017793E+02  0.38465186893E+02  0.51100000000E-03 0.  1.
         23    2    1    0    0    0  0.14593560786E+02 -0.19151295394E+02  0.17298023359E+02  0.95442643561E+02  0.90721179810E+02 0.  0.
         11    1    3    3    0    0  0.18764853347E+02 -0.65462394563E+01  0.53399041151E+02  0.56977456668E+02  0.51100000000E-03 0. -1.
         22    1    1    0    0    0 -0.14593560786E+02  0.19151295394E+02 -0.17298023359E+02  0.29647356439E+02  0.00000000000E+00 0. -1.
</event>
<event>
 5    1  0.1044283E-009  0.9118800E+02  0.7815553E-02  0.1125453E+00
         25   -1    0    0    0    0  0.00000000000E+00  0.00000000000E+00  0.99999998245E-14  0.12509000000E+03  0.12509000000E+03 0.  0.
        -11    1    3    3    0    0  0.20432104989E+02 -0.29947666249E+02  0.13782638168E-02  0.36253739534E+02  0.51100000000E-03 0.  1.
         23    2    1    0    0    0  0.53333041060E+01  0.28136146168E+02  0.26802422893E+01  0.96327688678E+02  0.91933416413E+02 0.  0.
         11    1    3    3    0    0 -0.15098800883E+02  0.58083812417E+02  0.26788640255E+01  0.60073949144E+02  0.51100000000E-03 0. -1.
         22    1    1    0    0    0 -0.53333041060E+01 -0.28136146168E+02 -0.26802422893E+01  0.28762311322E+02  0.00000000000E+00 0. -1.
</event>
<event>
 5    1  0.1044283E-009  0.9118800E+02  0.7815553E-02  0.1125453E+00
         25   -1    0    0    0    0  0.00000000000E+00  0.00000000000E+00  0.99999998245E-14  0.12509000000E+03  0.12509000000E+03 0.  0.
        -11    1    3    3    0    0 -0.29982033431E+02  0.42541823538E+02  0.28642590338E+00  0.52046240197E+02  0.51100000000E-03 0. -1.
         23    2    1    0    0    0  0.30306604815E+00  0.19990794401E+02  0.21805107723E+02  0.95506449966E+02  0.90809116020E+02 0.  0.
         11    1    3    3    0    0  0.30285099479E+02 -0.22551029137E+02  0.21518681820E+02  0.43460209768E+02  0.51100000000E-03 0.  1.
         22    1    1    0    0    0 -0.30306604815E+00 -0.19990794401E+02 -0.21805107723E+02  0.29583550034E+02  0.00000000000E+00 0. -1.
</event>
<event>
 5    1  0.1044283E-009  0.9118800E+02  0.7815553E-02  0.1125453E+00
         25   -1    0    0    0    0  0.00000000000E+00  0.00000000000E+00  0.99999998245E-14  0.12509000000E+03  0.12509000000E+03 0.  0.
        -11    1    3    3    0    0  0.12416277822E+02 -0.27961010283E+02 -0.20961812083E+01  0.30665551144E+02  0.51100000000E-03 0.  1.
         23    2    1    0    0    0 -0.51356699098E+01  0.31671851793E+02 -0.32646311227E+01  0.92838812149E+02  0.87056911980E+02 0.  0.
         11    1    3    3    0    0 -0.17551947732E+02  0.59632862076E+02 -0.11684499144E+01  0.62173261006E+02  0.51100000000E-03 0. -1.
         22    1    1    0    0    0  0.51356699098E+01 -0.31671851793E+02  0.32646311227E+01  0.32251187851E+02  0.00000000000E+00 0. -1.
</event>
<event>
 5    1  0.1044283E-009  0.9118800E+02  0.7815553E-02  0.1125453E+00
         25   -1    0    0    0    0  0.00000000000E+00  0.00000000000E+00  0.99999998245E-14  0.12509000000E+03  0.12509000000E+03 0.  0.
        -11    1    3    3    0    0 -0.96153535436E+01  0.10802314188E+01  0.37717249276E+02  0.38938577490E+02  0.51100000000E-03 0.  1.
         23    2    1    0    0    0  0.20219342743E+02  0.20928890761E+02 -0.59096283535E+01  0.95395488778E+02  0.90656137588E+02 0.  0.
         11    1    3    3    0    0  0.29834696286E+02  0.19848659343E+02 -0.43626877630E+02  0.56456911288E+02  0.51100000000E-03 0. -1.
         22    1    1    0    0    0 -0.20219342743E+02 -0.20928890761E+02  0.59096283535E+01  0.29694511222E+02  0.00000000000E+00 0.  1.
</event>
<event>
 5    1  0.1044283E-009  0.9118800E+02  0.7815553E-02  0.1125453E+00
         25   -1    0    0    0    0  0.00000000000E+00  0.00000000000E+00  0.99999998245E-14  0.12509000000E+03  0.12509000000E+03 0.  0.
        -11    1    3    3    0    0  0.25270095640E+02 -0.48063948933E+01 -0.31131181158E+02  0.40383531372E+02  0.51100000000E-03 0.  1.
         23    2    1    0    0    0 -0.13020896618E+02  0.24229060329E+02 -0.10555209438E+00  0.97583596120E+02  0.93626684109E+02 0.  0.
         11    1    3    3    0    0 -0.38290992259E+02  0.29035455222E+02  0.31025629064E+02  0.57200064748E+02  0.51100000000E-03 0. -1.
         22    1    1    0    0    0  0.13020896618E+02 -0.24229060329E+02  0.10555209438E+00  0.27506403880E+02  0.00000000000E+00 0. -1.
</event>
<event>
 5    1  0.1044283E-009  0.9118800E+02  0.7815553E-02  0.1125453E+00
         25   -1    0    0    0    0  0.00000000000E+00  0.00000000000E+00  0.99999998245E-14  0.12509000000E+03  0.12509000000E+03 0.  0.
        -11    1    3    3    0    0  0.21352544049E+02 -0.23836957168E+02  0.98963501952E+01  0.33497304546E+02  0.51100000000E-03 0.  1.
         23    2    1    0    0    0 -0.88391656764E+01  0.27395345856E+02 -0.72852613165E+01  0.95396383567E+02  0.90657372236E+02 0.  0.
         11    1    3    3    0    0 -0.30191709726E+02  0.51232303024E+02 -0.17181611512E+02  0.61899079021E+02  0.51100000000E-03 0. -1.
         22    1    1    0    0    0  0.88391656764E+01 -0.27395345856E+02  0.72852613165E+01  0.29693616433E+02  0.00000000000E+00 0. -1.
</event>
<event>
 5    1  0.1044283E-009  0.9118800E+02  0.7815553E-02  0.1125453E+00
         25   -1    0    0    0    0  0.00000000000E+00  0.00000000000E+00  0.99999998245E-14  0.12509000000E+03  0.12509000000E+03 0.  0.
        -11    1    3    3    0    0 -0.20053103324E+02 -0.27706826659E+02 -0.15452953455E+02  0.37531173272E+02  0.51100000000E-03 0. -1.
         23    2    1    0    0    0  0.37587831080E+01  0.25519362021E+02 -0.13735365266E+02  0.95866267394E+02  0.91303420948E+02 0.  0.
         11    1    3    3    0    0  0.23811886432E+02  0.53226188680E+02  0.17175881888E+01  0.58335094122E+02  0.51100000000E-03 0.  1.
         22    1    1    0    0    0 -0.37587831080E+01 -0.25519362021E+02  0.13735365266E+02  0.29223732606E+02  0.00000000000E+00 0.  1.
</event>
<event>
 5    1  0.1044283E-009  0.9118800E+02  0.7815553E-02  0.1125453E+00
         25   -1    0    0    0    0  0.00000000000E+00  0.00000000000E+00  0.99999998245E-14  0.12509000000E+03  0.12509000000E+03 0.  0.
        -11    1    3    3    0    0  0.60752020536E+01 -0.26406247804E+02 -0.20269812743E+02  0.33838784138E+02  0.51100000000E-03 0.  1.
         23    2    1    0    0    0 -0.22336397228E+02  0.17053415162E+02  0.11517761081E+02  0.94719085787E+02  0.89717962427E+02 0.  0.
         11    1    3    3    0    0 -0.28411599282E+02  0.43459662966E+02  0.31787573825E+02  0.60880301648E+02  0.51100000000E-03 0. -1.
         22    1    1    0    0    0  0.22336397228E+02 -0.17053415162E+02 -0.11517761081E+02  0.30370914213E+02  0.00000000000E+00 0. -1.
</event>
<event>
 5    1  0.1044283E-009  0.9118800E+02  0.7815553E-02  0.1125453E+00
         25   -1    0    0    0    0  0.00000000000E+00  0.00000000000E+00  0.99999998245E-14  0.12509000000E+03  0.12509000000E+03 0.  0.
        -11    1    3    3    0    0  0.38291655721E+02 -0.28173654944E+01  0.39429795087E+02  0.55035417570E+02  0.51100000000E-03 0.  1.
         23    2    1    0    0    0  0.34482919649E+01 -0.16532025051E+02  0.24469452858E+02  0.95358658071E+02  0.90605303245E+02 0.  0.
         11    1    3    3    0    0 -0.34843363756E+02 -0.13714659557E+02 -0.14960342229E+02  0.40323240501E+02  0.51100000000E-03 0. -1.
         22    1    1    0    0    0 -0.34482919649E+01  0.16532025051E+02 -0.24469452858E+02  0.29731341929E+02  0.00000000000E+00 0. -1.
</event>
<event>
 5    1  0.1044283E-009  0.9118800E+02  0.7815553E-02  0.1125453E+00
         25   -1    0    0    0    0  0.00000000000E+00  0.00000000000E+00  0.99999998245E-14  0.12509000000E+03  0.12509000000E+03 0.  0.
        -11    1    3    3    0    0 -0.51543346124E+02 -0.11257531514E+02  0.24054360840E+02  0.57983280531E+02  0.51100000000E-03 0.  1.
         23    2    1    0    0    0 -0.23620255608E+02  0.11707671229E+02  0.12293483693E+02  0.96001930592E+02  0.91489097140E+02 0.  0.
         11    1    3    3    0    0  0.27923090516E+02  0.22965202742E+02 -0.11760877146E+02  0.38018650061E+02  0.51100000000E-03 0. -1.
         22    1    1    0    0    0  0.23620255608E+02 -0.11707671229E+02 -0.12293483693E+02  0.29088069408E+02  0.00000000000E+00 0.  1.
</event>
<event>
 5    1  0.1044283E-009  0.9118800E+02  0.7815553E-02  0.1125453E+00
         25   -1    0    0    0    0  0.00000000000E+00  0.00000000000E+00  0.99999998245E-14  0.12509000000E+03  0.12509000000E+03 0.  0.
        -11    1    3    3    0    0 -0.88534063824E+01 -0.40254631391E+02  0.81800511237E+00  0.41224838212E+02  0.51100000000E-03 0.  1.
         23    2    1    0    0    0 -0.24623279249E+02  0.96993513067E+01  0.13870679263E+02  0.95210591707E+02  0.90400651177E+02 0.  0.
         11    1    3    3    0    0 -0.15769872867E+02  0.49953982698E+02  0.13052674150E+02  0.53985753494E+02  0.51100000000E-03 0. -1.
         22    1    1    0    0    0  0.24623279249E+02 -0.96993513067E+01 -0.13870679263E+02  0.29879408293E+02  0.00000000000E+00 0. -1.
</event>
<event>
 5    1  0.1044283E-009  0.9118800E+02  0.7815553E-02  0.1125453E+00
         25   -1    0    0    0    0  0.00000000000E+00  0.00000000000E+00  0.99999998245E-14  0.12509000000E+03  0.12509000000E+03 0.  0.
        -11    1    3    3    0    0  0.38223728447E+02 -0.14825406407E+02  0.21833112181E+01  0.41056216821E+02  0.51100000000E-03 0.  1.
         23    2    1    0    0    0 -0.29402715363E+01  0.19152237182E+02  0.19918855077E+02  0.97301258155E+02  0.93248703290E+02 0.  0.
         11    1    3    3    0    0 -0.41163999983E+02  0.33977643589E+02  0.17735543859E+02  0.56245041334E+02  0.51100000000E-03 0. -1.
         22    1    1    0    0    0  0.29402715363E+01 -0.19152237182E+02 -0.19918855077E+02  0.27788741845E+02  0.00000000000E+00 0. -1.
</event>
<event>
 5    1  0.1044283E-009  0.9118800E+02  0.7815553E-02  0.1125453E+00
         25   -1    0    0    0    0  0.00000000000E+00  0.00000000000E+00  0.99999998245E-14  0.12509000000E+03  0.12509000000E+03 0.  0.
        -11    1    3    3    0    0  0.38128983689E+02  0.23234717296E+02  0.43126581193E+02  0.62077157559E+02  0.51100000000E-03 0.  1.
         23    2    1    0    0    0  0.16188207347E+02  0.15736247844E+02  0.18495482068E+02  0.95904894034E+02  0.91356325941E+02 0.  0.
         11    1    3    3    0    0 -0.21940776342E+02 -0.74984694518E+01 -0.24631099125E+02  0.33827736474E+02  0.51100000000E-03 0. -1.
         22    1    1    0    0    0 -0.16188207347E+02 -0.15736247844E+02 -0.18495482068E+02  0.29185105966E+02  0.00000000000E+00 0.  1.
</event>
<event>
 5    1  0.1044283E-009  0.9118800E+02  0.7815553E-02  0.1125453E+00
         25   -1    0    0    0    0  0.00000000000E+00  0.00000000000E+00  0.99999998245E-14  0.12509000000E+03  0.12509000000E+03 0.  0.
        -11    1    3    3    0    0 -0.81876155495E+01  0.54172129720E+02  0.28169702279E+02  0.61605103794E+02  0.51100000000E-03 0.  1.
         23    2    1    0    0    0  0.29537840897E+01  0.22691944145E+02  0.69331842360E+01  0.10117937029E+03  0.98313512595E+02 0.  0.
         11    1    3    3    0    0  0.11141399639E+02 -0.31480185574E+02 -0.21236518043E+02  0.39574266494E+02  0.51100000000E-03 0. -1.
         22    1    1    0    0    0 -0.29537840897E+01 -0.22691944145E+02 -0.69331842360E+01  0.23910629711E+02  0.00000000000E+00 0.  1.
</event>
<event>
 5    1  0.1044283E-009  0.9118800E+02  0.7815553E-02  0.1125453E+00
         25   -1    0    0    0    0  0.00000000000E+00  0.00000000000E+00  0.99999998245E-14  0.12509000000E+03  0.12509000000E+03 0.  0.
        -11    1    3    3    0    0  0.27577232540E+02 -0.17946988720E+02  0.32105877196E+02  0.45971572841E+02  0.51100000000E-03 0.  1.
         23    2    1    0    0    0  0.20978502264E+02  0.22102117796E+02  0.65961963117E+01  0.93911305767E+02  0.88584549312E+02 0.  0.
         11    1    3    3    0    0 -0.65987302761E+01  0.40049106516E+02 -0.25509680884E+02  0.47939732926E+02  0.51100000000E-03 0. -1.
         22    1    1    0    0    0 -0.20978502264E+02 -0.22102117796E+02 -0.65961963117E+01  0.31178694233E+02  0.00000000000E+00 0.  1.
</event>
<event>
 5    1  0.1044283E-009  0.9118800E+02  0.7815553E-02  0.1125453E+00
         25   -1    0    0    0    0  0.00000000000E+00  0.00000000000E+00  0.99999998245E-14  0.12509000000E+03  0.12509000000E+03 0.  0.
        -11    1    3    3    0    0 -0.70170608462E+01 -0.27520333850E+02 -0.26441169032E+02  0.38803908800E+02  0.51100000000E-03 0.  1.
         23    2    1    0    0    0 -0.14700137350E+02  0.24210476359E+02 -0.15492588106E+01  0.96723798166E+02  0.92470815532E+02 0.  0.
         11    1    3    3    0    0 -0.76830765043E+01  0.51730810208E+02  0.24891910222E+02  0.57919889366E+02  0.51100000000E-03 0. -1.
         22    1    1    0    0    0  0.14700137350E+02 -0.24210476359E+02  0.15492588106E+01  0.28366201834E+02  0.00000000000E+00 0. -1.
</event>
<event>
 5    1  0.1044283E-009  0.9118800E+02  0.7815553E-02  0.1125453E+00
         25   -1    0    0    0    0  0.00000000000E+00  0.00000000000E+00  0.99999998245E-14  0.12509000000E+03  0.12509000000E+03 0.  0.
        -11    1    3    3    0    0 -0.32634187499E+02  0.16333260249E+02 -0.26845784942E+02  0.45304103054E+02  0.51100000000E-03 0.  1.
         23    2    1    0    0    0  0.14413852831E+02  0.21165669024E+02 -0.42525327314E+00  0.99478956698E+02  0.96125632829E+02 0.  0.
         11    1    3    3    0    0  0.47048040330E+02  0.48324087748E+01  0.26420531669E+02  0.54174853644E+02  0.51100000000E-03 0. -1.
         22    1    1    0    0    0 -0.14413852831E+02 -0.21165669024E+02  0.42525327314E+00  0.25611043302E+02  0.00000000000E+00 0. -1.
</event>
<event>
 5    1  0.1044283E-009  0.9118800E+02  0.7815553E-02  0.1125453E+00
         25   -1    0    0    0    0  0.00000000000E+00  0.00000000000E+00  0.99999998245E-14  0.12509000000E+03  0.12509000000E+03 0.  0.
        -11    1    3    3    0    0  0.32212382725E+02 -0.10589286577E+02 -0.13506779658E+02  0.36499365584E+02  0.51100000000E-03 0.  1.
         23    2    1    0    0    0 -0.49293212242E+01  0.87163099965E+01  0.27942003749E+02  0.95407886848E+02  0.90673243195E+02 0.  0.
         11    1    3    3    0    0 -0.37141703949E+02  0.19305596574E+02  0.41448783407E+02  0.58908521264E+02  0.51100000000E-03 0. -1.
         22    1    1    0    0    0  0.49293212242E+01 -0.87163099965E+01 -0.27942003749E+02  0.29682113152E+02  0.00000000000E+00 0. -1.
</event>
<event>
 5    1  0.1044283E-009  0.9118800E+02  0.7815553E-02  0.1125453E+00
         25   -1    0    0    0    0  0.00000000000E+00  0.00000000000E+00  0.99999998245E-14  0.12509000000E+03  0.12509000000E+03 0.  0.
        -11    1    3    3    0    0 -0.74897344486E+01 -0.60431666241E+02  0.83973838720E+01  0.61470305538E+02  0.51100000000E-03 0. -1.
         23    2    1    0    0    0 -0.11356165714E+02 -0.25696053044E+02  0.45252926165E+01  0.96634281506E+02  0.92349642377E+02 0.  0.
         11    1    3    3    0    0 -0.38664312655E+01  0.34735613197E+02 -0.38720912554E+01  0.35163975968E+02  0.51100000000E-03 0.  1.
         22    1    1    0    0    0  0.11356165714E+02  0.25696053044E+02 -0.45252926165E+01  0.28455718494E+02  0.00000000000E+00 0. -1.
</event>
<event>
 5    1  0.1044283E-009  0.9118800E+02  0.7815553E-02  0.1125453E+00
         25   -1    0    0    0    0  0.00000000000E+00  0.00000000000E+00  0.99999998245E-14  0.12509000000E+03  0.12509000000E+03 0.  0.
        -11    1    3    3    0    0  0.11942243019E+02 -0.41705251990E+02  0.81241009253E+01  0.44135543817E+02  0.51100000000E-03 0.  1.
         23    2    1    0    0    0 -0.10663695760E+02 -0.42995673093E+02 -0.16712138804E+02  0.77744061469E+02  0.61664424091E+02 0.  0.
         11    1    3    3    0    0 -0.22605938779E+02 -0.12904211025E+01 -0.24836239729E+02  0.33608517653E+02  0.51100000000E-03 0. -1.
         22    1    1    0    0    0  0.10663695760E+02  0.42995673093E+02  0.16712138804E+02  0.47345938531E+02  0.00000000000E+00 0.  1.
</event>
<event>
 5    1  0.1044283E-009  0.9118800E+02  0.7815553E-02  0.1125453E+00
         25   -1    0    0    0    0  0.00000000000E+00  0.00000000000E+00  0.99999998245E-14  0.12509000000E+03  0.12509000000E+03 0.  0.
        -11    1    3    3    0    0  0.12376501724E+02 -0.58665983293E+02 -0.17788344275E+02  0.62540391612E+02  0.51100000000E-03 0.  1.
         23    2    1    0    0    0  0.55460125679E+01 -0.26931312789E+02 -0.86985317498E+01  0.96250472984E+02  0.91828292106E+02 0.  0.
         11    1    3    3    0    0 -0.68304891562E+01  0.31734670504E+02  0.90898125251E+01  0.33710081372E+02  0.51100000000E-03 0. -1.
         22    1    1    0    0    0 -0.55460125679E+01  0.26931312789E+02  0.86985317498E+01  0.28839527016E+02  0.00000000000E+00 0.  1.
</event>
<event>
 5    1  0.1044283E-009  0.9118800E+02  0.7815553E-02  0.1125453E+00
         25   -1    0    0    0    0  0.00000000000E+00  0.00000000000E+00  0.99999998245E-14  0.12509000000E+03  0.12509000000E+03 0.  0.
        -11    1    3    3    0    0 -0.24348766448E+02 -0.78838221728E+01 -0.43641482517E+02  0.50592450782E+02  0.51100000000E-03 0.  1.
         23    2    1    0    0    0 -0.10394938226E+02  0.23531324104E+02 -0.15184222917E+02  0.95217963237E+02  0.90410850801E+02 0.  0.
         11    1    3    3    0    0  0.13953828222E+02  0.31415146277E+02  0.28457259600E+02  0.44625512455E+02  0.51100000000E-03 0. -1.
         22    1    1    0    0    0  0.10394938226E+02 -0.23531324104E+02  0.15184222917E+02  0.29872036763E+02  0.00000000000E+00 0. -1.
</event>
<event>
 5    1  0.1044283E-009  0.9118800E+02  0.7815553E-02  0.1125453E+00
         25   -1    0    0    0    0  0.00000000000E+00  0.00000000000E+00  0.99999998245E-14  0.12509000000E+03  0.12509000000E+03 0.  0.
        -11    1    3    3    0    0 -0.25372846136E+02  0.45605409347E+02  0.31792377833E+02  0.61109655303E+02  0.51100000000E-03 0.  1.
         23    2    1    0    0    0 -0.65227355259E+01  0.30720785914E+02  0.16120511132E+02  0.89788673607E+02  0.82557993332E+02 0.  0.
         11    1    3    3    0    0  0.18850110610E+02 -0.14884623433E+02 -0.15671866701E+02  0.28679018304E+02  0.51100000000E-03 0. -1.
         22    1    1    0    0    0  0.65227355259E+01 -0.30720785914E+02 -0.16120511132E+02  0.35301326393E+02  0.00000000000E+00 0.  1.
</event>
<event>
 5    1  0.1044283E-009  0.9118800E+02  0.7815553E-02  0.1125453E+00
         25   -1    0    0    0    0  0.00000000000E+00  0.00000000000E+00  0.99999998245E-14  0.12509000000E+03  0.12509000000E+03 0.  0.
        -11    1    3    3    0    0  0.29859640946E+02 -0.70743777092E+01  0.26543923764E+02  0.40573696731E+02  0.51100000000E-03 0.  1.
         23    2    1    0    0    0 -0.21654960107E+02 -0.12866091813E+02  0.20204829468E+02  0.92798998938E+02  0.86999686518E+02 0.  0.
         11    1    3    3    0    0 -0.51514601053E+02 -0.57917141037E+01 -0.63390942959E+01  0.52225302207E+02  0.51100000000E-03 0. -1.
         22    1    1    0    0    0  0.21654960107E+02  0.12866091813E+02 -0.20204829468E+02  0.32291001062E+02  0.00000000000E+00 0. -1.
</event>
<event>
 5    1  0.1044283E-009  0.9118800E+02  0.7815553E-02  0.1125453E+00
         25   -1    0    0    0    0  0.00000000000E+00  0.00000000000E+00  0.99999998245E-14  0.12509000000E+03  0.12509000000E+03 0.  0.
        -11    1    3    3    0    0  0.38365861049E+02  0.14097938146E+02 -0.23444431611E+02  0.47120404581E+02  0.51100000000E-03 0.  1.
         23    2    1    0    0    0 -0.91851554872E+01  0.22204481536E+02 -0.16701779846E+02  0.95826447044E+02  0.91248848877E+02 0.  0.
         11    1    3    3    0    0 -0.47551016536E+02  0.81065433893E+01  0.67426517650E+01  0.48706042463E+02  0.51100000000E-03 0. -1.
         22    1    1    0    0    0  0.91851554872E+01 -0.22204481536E+02  0.16701779846E+02  0.29263552956E+02  0.00000000000E+00 0.  1.
</event>
<event>
 5    1  0.1044283E-009  0.9118800E+02  0.7815553E-02  0.1125453E+00
         25   -1    0    0    0    0  0.00000000000E+00  0.00000000000E+00  0.99999998245E-14  0.12509000000E+03  0.12509000000E+03 0.  0.
        -11    1    3    3    0    0 -0.54236424939E+02 -0.29343166205E+02 -0.72441929182E+00  0.61669570913E+02  0.51100000000E-03 0. -1.
         23    2    1    0    0    0 -0.23287057692E+02 -0.12320599996E+02 -0.76338115066E+01  0.97660830885E+02  0.93729816872E+02 0.  0.
         11    1    3    3    0    0  0.30949367247E+02  0.17022566209E+02 -0.69093922147E+01  0.35991259972E+02  0.51100000000E-03 0.  1.
         22    1    1    0    0    0  0.23287057692E+02  0.12320599996E+02  0.76338115066E+01  0.27429169115E+02  0.00000000000E+00 0. -1.
</event>
<event>
 5    1  0.1044283E-009  0.9118800E+02  0.7815553E-02  0.1125453E+00
         25   -1    0    0    0    0  0.00000000000E+00  0.00000000000E+00  0.99999998245E-14  0.12509000000E+03  0.12509000000E+03 0.  0.
        -11    1    3    3    0    0 -0.30728916837E+02  0.10540655595E+02  0.14509223292E+02  0.35579338262E+02  0.51100000000E-03 0. -1.
         23    2    1    0    0    0  0.10302762004E+02 -0.17046036606E+02 -0.20765878489E+02  0.96316123336E+02  0.91917678583E+02 0.  0.
         11    1    3    3    0    0  0.41031678841E+02 -0.27586692201E+02 -0.35275101781E+02  0.60736785073E+02  0.51100000000E-03 0.  1.
         22    1    1    0    0    0 -0.10302762004E+02  0.17046036606E+02  0.20765878489E+02  0.28773876664E+02  0.00000000000E+00 0.  1.
</event>
<event>
 5    1  0.1044283E-009  0.9118800E+02  0.7815553E-02  0.1125453E+00
         25   -1    0    0    0    0  0.00000000000E+00  0.00000000000E+00  0.99999998245E-14  0.12509000000E+03  0.12509000000E+03 0.  0.
        -11    1    3    3    0    0  0.12903822981E+02 -0.31704583886E+02  0.30586880423E+02  0.45904755104E+02  0.51100000000E-03 0. -1.
         23    2    1    0    0    0  0.31558841389E+02 -0.40427527872E+01 -0.28568012678E+01  0.93145272213E+02  0.87496149071E+02 0.  0.
         11    1    3    3    0    0  0.18655018408E+02  0.27661831098E+02 -0.33443681690E+02  0.47240517110E+02  0.51100000000E-03 0.  1.
         22    1    1    0    0    0 -0.31558841389E+02  0.40427527872E+01  0.28568012678E+01  0.31944727787E+02  0.00000000000E+00 0.  1.
</event>
<event>
 5    1  0.1044283E-009  0.9118800E+02  0.7815553E-02  0.1125453E+00
         25   -1    0    0    0    0  0.00000000000E+00  0.00000000000E+00  0.99999998245E-14  0.12509000000E+03  0.12509000000E+03 0.  0.
        -11    1    3    3    0    0  0.24416280138E+02 -0.29999305474E+02 -0.91236894435E+01  0.39741096790E+02  0.51100000000E-03 0.  1.
         23    2    1    0    0    0  0.10171532981E+02  0.11606710416E+02  0.25208566758E+02  0.95532468847E+02  0.90844950086E+02 0.  0.
         11    1    3    3    0    0 -0.14244747157E+02  0.41606015891E+02  0.34332256202E+02  0.55791372057E+02  0.51100000000E-03 0. -1.
         22    1    1    0    0    0 -0.10171532981E+02 -0.11606710416E+02 -0.25208566758E+02  0.29557531153E+02  0.00000000000E+00 0.  1.
</event>
<event>
 5    1  0.1044283E-009  0.9118800E+02  0.7815553E-02  0.1125453E+00
         25   -1    0    0    0    0  0.00000000000E+00  0.00000000000E+00  0.99999998245E-14  0.12509000000E+03  0.12509000000E+03 0.  0.
        -11    1    3    3    0    0 -0.18191698010E+02  0.46605117321E+02 -0.36849622114E+01  0.50165264713E+02  0.51100000000E-03 0.  1.
         23    2    1    0    0    0 -0.27188022457E+02  0.26930948857E+00 -0.52775058916E+01  0.97393192221E+02  0.93371948302E+02 0.  0.
         11    1    3    3    0    0 -0.89963244468E+01 -0.46335807832E+02 -0.15925436802E+01  0.47227927507E+02  0.51100000000E-03 0. -1.
         22    1    1    0    0    0  0.27188022457E+02 -0.26930948857E+00  0.52775058916E+01  0.27696807779E+02  0.00000000000E+00 0.  1.
</event>
<event>
 5    1  0.1044283E-009  0.9118800E+02  0.7815553E-02  0.1125453E+00
         25   -1    0    0    0    0  0.00000000000E+00  0.00000000000E+00  0.99999998245E-14  0.12509000000E+03  0.12509000000E+03 0.  0.
        -11    1    3    3    0    0 -0.91491247651E+01 -0.51981186307E+02 -0.11654596884E+01  0.52793072561E+02  0.51100000000E-03 0.  1.
         23    2    1    0    0    0 -0.24589398658E+02 -0.12417984234E+02  0.83298376151E+01  0.96310996308E+02  0.91910700990E+02 0.  0.
         11    1    3    3    0    0 -0.15440273893E+02  0.39563202073E+02  0.94952973034E+01  0.43517923748E+02  0.51100000000E-03 0. -1.
         22    1    1    0    0    0  0.24589398658E+02  0.12417984234E+02 -0.83298376151E+01  0.28779003692E+02  0.00000000000E+00 0.  1.
</event>
<event>
 5    1  0.1044283E-009  0.9118800E+02  0.7815553E-02  0.1125453E+00
         25   -1    0    0    0    0  0.00000000000E+00  0.00000000000E+00  0.99999998245E-14  0.12509000000E+03  0.12509000000E+03 0.  0.
        -11    1    3    3    0    0  0.34695888355E+02 -0.84379443065E+01 -0.83767942623E+01  0.36676617282E+02  0.51100000000E-03 0.  1.
         23    2    1    0    0    0  0.10732486811E+02  0.22235600571E+02  0.26449962706E+02  0.88907010446E+02  0.81211130847E+02 0.  0.
         11    1    3    3    0    0 -0.23963401544E+02  0.30673544877E+02  0.34826756969E+02  0.52230393164E+02  0.51100000000E-03 0. -1.
         22    1    1    0    0    0 -0.10732486811E+02 -0.22235600571E+02 -0.26449962706E+02  0.36182989554E+02  0.00000000000E+00 0. -1.
</event>
<event>
 5    1  0.1044283E-009  0.9118800E+02  0.7815553E-02  0.1125453E+00
         25   -1    0    0    0    0  0.00000000000E+00  0.00000000000E+00  0.99999998245E-14  0.12509000000E+03  0.12509000000E+03 0.  0.
        -11    1    3    3    0    0 -0.55188081910E+01  0.27934095329E+02  0.20139281628E+02  0.34876375821E+02  0.51100000000E-03 0.  1.
         23    2    1    0    0    0 -0.11945478297E+02 -0.22977855322E+02 -0.13151011599E+02  0.96044769875E+02  0.91547651129E+02 0.  0.
         11    1    3    3    0    0 -0.64266701064E+01 -0.50911950651E+02 -0.33290293227E+02  0.61168394054E+02  0.51100000000E-03 0. -1.
         22    1    1    0    0    0  0.11945478297E+02  0.22977855322E+02  0.13151011599E+02  0.29045230125E+02  0.00000000000E+00 0. -1.
</event>
<event>
 5    1  0.1044283E-009  0.9118800E+02  0.7815553E-02  0.1125453E+00
         25   -1    0    0    0    0  0.00000000000E+00  0.00000000000E+00  0.99999998245E-14  0.12509000000E+03  0.12509000000E+03 0.  0.
        -11    1    3    3    0    0 -0.81725811044E+01 -0.58710174124E+02 -0.66422983993E+01  0.59647261092E+02  0.51100000000E-03 0.  1.
         23    2    1    0    0    0 -0.75895246854E+01 -0.27058977471E+02  0.98100141445E+01  0.95323819119E+02  0.90557191693E+02 0.  0.
         11    1    3    3    0    0  0.58305641907E+00  0.31651196653E+02  0.16452312544E+02  0.35676558027E+02  0.51100000000E-03 0. -1.
         22    1    1    0    0    0  0.75895246854E+01  0.27058977471E+02 -0.98100141445E+01  0.29766180881E+02  0.00000000000E+00 0.  1.
</event>
<event>
 5    1  0.1044283E-009  0.9118800E+02  0.7815553E-02  0.1125453E+00
         25   -1    0    0    0    0  0.00000000000E+00  0.00000000000E+00  0.99999998245E-14  0.12509000000E+03  0.12509000000E+03 0.  0.
        -11    1    3    3    0    0 -0.37936950847E+02 -0.35109489514E+02  0.17187151312E+02  0.54472806647E+02  0.51100000000E-03 0. -1.
         23    2    1    0    0    0  0.39608840530E+01 -0.14791591384E+02  0.18523864049E+02  0.10105641272E+03  0.98156941856E+02 0.  0.
         11    1    3    3    0    0  0.41897834900E+02  0.20317898130E+02  0.13367127379E+01  0.46583606074E+02  0.51100000000E-03 0.  1.
         22    1    1    0    0    0 -0.39608840530E+01  0.14791591384E+02 -0.18523864049E+02  0.24033587279E+02  0.00000000000E+00 0. -1.
</event>
<event>
 5    1  0.1044283E-009  0.9118800E+02  0.7815553E-02  0.1125453E+00
         25   -1    0    0    0    0  0.00000000000E+00  0.00000000000E+00  0.99999998245E-14  0.12509000000E+03  0.12509000000E+03 0.  0.
        -11    1    3    3    0    0 -0.56751535098E+01  0.14453702357E+02  0.16035495737E+02  0.22321603952E+02  0.51100000000E-03 0. -1.
         23    2    1    0    0    0  0.35502496680E+02  0.30001919912E+02 -0.15078731719E+02  0.76223747645E+02  0.58499137479E+02 0.  0.
         11    1    3    3    0    0  0.41177650190E+02  0.15548217555E+02 -0.31114227456E+02  0.53902143693E+02  0.51100000000E-03 0.  1.
         22    1    1    0    0    0 -0.35502496680E+02 -0.30001919912E+02  0.15078731719E+02  0.48866252355E+02  0.00000000000E+00 0.  1.
</event>
<event>
 5    1  0.1044283E-009  0.9118800E+02  0.7815553E-02  0.1125453E+00
         25   -1    0    0    0    0  0.00000000000E+00  0.00000000000E+00  0.99999998245E-14  0.12509000000E+03  0.12509000000E+03 0.  0.
        -11    1    3    3    0    0  0.21899272882E+02  0.18041961659E+02  0.15199193224E+02  0.32188600594E+02  0.51100000000E-03 0. -1.
         23    2    1    0    0    0  0.14851277802E+02 -0.35017929623E+02  0.43260397840E+01  0.86807752578E+02  0.77910560517E+02 0.  0.
         11    1    3    3    0    0 -0.70479950807E+01 -0.53059891282E+02 -0.10873153440E+02  0.54619151985E+02  0.51100000000E-03 0.  1.
         22    1    1    0    0    0 -0.14851277802E+02  0.35017929623E+02 -0.43260397840E+01  0.38282247422E+02  0.00000000000E+00 0.  1.
</event>
<event>
 5    1  0.1044283E-009  0.9118800E+02  0.7815553E-02  0.1125453E+00
         25   -1    0    0    0    0  0.00000000000E+00  0.00000000000E+00  0.99999998245E-14  0.12509000000E+03  0.12509000000E+03 0.  0.
        -11    1    3    3    0    0 -0.32780486248E+01 -0.35868221135E+02  0.16823945591E+02  0.39753239311E+02  0.51100000000E-03 0. -1.
         23    2    1    0    0    0 -0.14276453815E+02  0.19994957737E+00 -0.25145249829E+02  0.96173902367E+02  0.91723927054E+02 0.  0.
         11    1    3    3    0    0 -0.10998405190E+02  0.36068170713E+02 -0.41969195420E+02  0.56420663056E+02  0.51100000000E-03 0.  1.
         22    1    1    0    0    0  0.14276453815E+02 -0.19994957737E+00  0.25145249829E+02  0.28916097633E+02  0.00000000000E+00 0.  1.
</event>
<event>
 5    1  0.1044283E-009  0.9118800E+02  0.7815553E-02  0.1125453E+00
         25   -1    0    0    0    0  0.00000000000E+00  0.00000000000E+00  0.99999998245E-14  0.12509000000E+03  0.12509000000E+03 0.  0.
        -11    1    3    3    0    0  0.11989985707E+02  0.28346694868E+02 -0.38840881659E+02  0.49557128201E+02  0.51100000000E-03 0.  1.
         23    2    1    0    0    0 -0.22904396521E+02  0.84279427631E+01 -0.17554236333E+02  0.95026852919E+02  0.90146047963E+02 0.  0.
         11    1    3    3    0    0 -0.34894382227E+02 -0.19918752105E+02  0.21286645326E+02  0.45469724718E+02  0.51100000000E-03 0. -1.
         22    1    1    0    0    0  0.22904396521E+02 -0.84279427631E+01  0.17554236333E+02  0.30063147081E+02  0.00000000000E+00 0.  1.
</event>
<event>
 5    1  0.1044283E-009  0.9118800E+02  0.7815553E-02  0.1125453E+00
         25   -1    0    0    0    0  0.00000000000E+00  0.00000000000E+00  0.99999998245E-14  0.12509000000E+03  0.12509000000E+03 0.  0.
        -11    1    3    3    0    0  0.20704837047E+02  0.21469823689E+02 -0.21349295509E+02  0.36680185733E+02  0.51100000000E-03 0.  1.
         23    2    1    0    0    0 -0.85558994149E+01 -0.27459838139E+02 -0.80631925529E+01  0.95219258470E+02  0.90412642833E+02 0.  0.
         11    1    3    3    0    0 -0.29260736462E+02 -0.48929661828E+02  0.13286102956E+02  0.58539072737E+02  0.51100000000E-03 0. -1.
         22    1    1    0    0    0  0.85558994149E+01  0.27459838139E+02  0.80631925529E+01  0.29870741530E+02  0.00000000000E+00 0. -1.
</event>
<event>
 5    1  0.1044283E-009  0.9118800E+02  0.7815553E-02  0.1125453E+00
         25   -1    0    0    0    0  0.00000000000E+00  0.00000000000E+00  0.99999998245E-14  0.12509000000E+03  0.12509000000E+03 0.  0.
        -11    1    3    3    0    0 -0.19322935705E+02 -0.12583633549E+02 -0.40400034421E+02  0.46517593005E+02  0.51100000000E-03 0.  1.
         23    2    1    0    0    0 -0.45769730225E+01 -0.29196212860E+02  0.31141733933E+01  0.95373580241E+02  0.90625902504E+02 0.  0.
         11    1    3    3    0    0  0.14745962683E+02 -0.16612579311E+02  0.43514207814E+02  0.48855987235E+02  0.51100000000E-03 0. -1.
         22    1    1    0    0    0  0.45769730225E+01  0.29196212860E+02 -0.31141733933E+01  0.29716419759E+02  0.00000000000E+00 0. -1.
</event>
<event>
 5    1  0.1044283E-009  0.9118800E+02  0.7815553E-02  0.1125453E+00
         25   -1    0    0    0    0  0.00000000000E+00  0.00000000000E+00  0.99999998245E-14  0.12509000000E+03  0.12509000000E+03 0.  0.
        -11    1    3    3    0    0  0.49947472038E+02 -0.20249444104E+02 -0.85625043757E+01  0.54572029749E+02  0.51100000000E-03 0.  1.
         23    2    1    0    0    0  0.10107610984E+02 -0.27595870384E+02 -0.17797021331E+01  0.95647459319E+02  0.91003149795E+02 0.  0.
         11    1    3    3    0    0 -0.39839861054E+02 -0.73464262793E+01  0.67828022427E+01  0.41075429570E+02  0.51100000000E-03 0. -1.
         22    1    1    0    0    0 -0.10107610984E+02  0.27595870384E+02  0.17797021331E+01  0.29442540681E+02  0.00000000000E+00 0.  1.
</event>
<event>
 5    1  0.1044283E-009  0.9118800E+02  0.7815553E-02  0.1125453E+00
         25   -1    0    0    0    0  0.00000000000E+00  0.00000000000E+00  0.99999998245E-14  0.12509000000E+03  0.12509000000E+03 0.  0.
        -11    1    3    3    0    0  0.48178550402E+02 -0.20325923299E+01 -0.65003883711E+01  0.48657570836E+02  0.51100000000E-03 0.  1.
         23    2    1    0    0    0  0.12455974379E+02 -0.16564088869E+01  0.25527753979E+02  0.96637210833E+02  0.92353610142E+02 0.  0.
         11    1    3    3    0    0 -0.35722576022E+02  0.37618344299E+00  0.32028142350E+02  0.47979639998E+02  0.51100000000E-03 0. -1.
         22    1    1    0    0    0 -0.12455974379E+02  0.16564088869E+01 -0.25527753979E+02  0.28452789167E+02  0.00000000000E+00 0. -1.
</event>
<event>
 5    1  0.1044283E-009  0.9118800E+02  0.7815553E-02  0.1125453E+00
         25   -1    0    0    0    0  0.00000000000E+00  0.00000000000E+00  0.99999998245E-14  0.12509000000E+03  0.12509000000E+03 0.  0.
        -11    1    3    3    0    0  0.57676098944E+02  0.67082134921E+01  0.22446785865E+02  0.62252636198E+02  0.51100000000E-03 0.  1.
         23    2    1    0    0    0  0.29024283666E+02  0.70767893704E+01  0.91194897693E+01  0.93854522034E+02  0.88504328834E+02 0.  0.
         11    1    3    3    0    0 -0.28651815278E+02  0.36857587831E+00 -0.13327296095E+02  0.31601885836E+02  0.51100000000E-03 0. -1.
         22    1    1    0    0    0 -0.29024283666E+02 -0.70767893704E+01 -0.91194897693E+01  0.31235477966E+02  0.00000000000E+00 0.  1.
</event>
<event>
 5    1  0.1044283E-009  0.9118800E+02  0.7815553E-02  0.1125453E+00
         25   -1    0    0    0    0  0.00000000000E+00  0.00000000000E+00  0.99999998245E-14  0.12509000000E+03  0.12509000000E+03 0.  0.
        -11    1    3    3    0    0  0.22579441123E+02 -0.19265612009E+01  0.44061935674E+02  0.49547926042E+02  0.51100000000E-03 0. -1.
         23    2    1    0    0    0 -0.23342530875E+01 -0.26063871349E+02  0.23781221540E+02  0.89730126907E+02  0.82469236990E+02 0.  0.
         11    1    3    3    0    0 -0.24913694210E+02 -0.24137310148E+02 -0.20280714133E+02  0.40182200865E+02  0.51100000000E-03 0.  1.
         22    1    1    0    0    0  0.23342530875E+01  0.26063871349E+02 -0.23781221540E+02  0.35359873093E+02  0.00000000000E+00 0. -1.
</event>
<event>
 5    1  0.1044283E-009  0.9118800E+02  0.7815553E-02  0.1125453E+00
         25   -1    0    0    0    0  0.00000000000E+00  0.00000000000E+00  0.99999998245E-14  0.12509000000E+03  0.12509000000E+03 0.  0.
        -11    1    3    3    0    0  0.21559100263E+02 -0.33908153964E+02  0.10140768601E+02  0.41441439375E+02  0.51100000000E-03 0.  1.
         23    2    1    0    0    0 -0.23394413004E+02 -0.14207398963E+01  0.15230628118E+02  0.97138450946E+02  0.93030046532E+02 0.  0.
         11    1    3    3    0    0 -0.44953513267E+02  0.32487414068E+02  0.50898595163E+01  0.55697011571E+02  0.51100000000E-03 0. -1.
         22    1    1    0    0    0  0.23394413004E+02  0.14207398963E+01 -0.15230628118E+02  0.27951549054E+02  0.00000000000E+00 0. -1.
</event>
<event>
 5    1  0.1044283E-009  0.9118800E+02  0.7815553E-02  0.1125453E+00
         25   -1    0    0    0    0  0.00000000000E+00  0.00000000000E+00  0.99999998245E-14  0.12509000000E+03  0.12509000000E+03 0.  0.
        -11    1    3    3    0    0  0.19415584340E+02 -0.33584488241E+02  0.32221793081E+02  0.50429423111E+02  0.51100000000E-03 0. -1.
         23    2    1    0    0    0  0.20996374916E+02  0.93401363553E+01  0.18704574172E+02  0.95459829536E+02  0.90744873427E+02 0.  0.
         11    1    3    3    0    0  0.15807905766E+01  0.42924624596E+02 -0.13517218909E+02  0.45030406426E+02  0.51100000000E-03 0.  1.
         22    1    1    0    0    0 -0.20996374916E+02 -0.93401363553E+01 -0.18704574172E+02  0.29630170464E+02  0.00000000000E+00 0.  1.
</event>
<event>
 5    1  0.1044283E-009  0.9118800E+02  0.7815553E-02  0.1125453E+00
         25   -1    0    0    0    0  0.00000000000E+00  0.00000000000E+00  0.99999998245E-14  0.12509000000E+03  0.12509000000E+03 0.  0.
        -11    1    3    3    0    0  0.17851467218E+02 -0.32931324231E+02  0.35724931617E+02  0.51763092418E+02  0.51100000000E-03 0. -1.
         23    2    1    0    0    0 -0.17949710781E+02 -0.14162322215E+02  0.18398229848E+02  0.95742796569E+02  0.91134103088E+02 0.  0.
         11    1    3    3    0    0 -0.35801177999E+02  0.18769002015E+02 -0.17326701769E+02  0.43979704151E+02  0.51100000000E-03 0.  1.
         22    1    1    0    0    0  0.17949710781E+02  0.14162322215E+02 -0.18398229848E+02  0.29347203431E+02  0.00000000000E+00 0. -1.
</event>
<event>
 5    1  0.1044283E-009  0.9118800E+02  0.7815553E-02  0.1125453E+00
         25   -1    0    0    0    0  0.00000000000E+00  0.00000000000E+00  0.99999998245E-14  0.12509000000E+03  0.12509000000E+03 0.  0.
        -11    1    3    3    0    0 -0.13133229201E+02  0.48860689314E+02 -0.74759665428E+01  0.51144293381E+02  0.51100000000E-03 0.  1.
         23    2    1    0    0    0 -0.28541636858E+02  0.10492666448E+02 -0.11258955804E+02  0.92663387943E+02  0.86804483153E+02 0.  0.
         11    1    3    3    0    0 -0.15408407657E+02 -0.38368022866E+02 -0.37829892609E+01  0.41519094561E+02  0.51100000000E-03 0. -1.
         22    1    1    0    0    0  0.28541636858E+02 -0.10492666448E+02  0.11258955804E+02  0.32426612057E+02  0.00000000000E+00 0.  1.
</event>
<event>
 5    1  0.1044283E-009  0.9118800E+02  0.7815553E-02  0.1125453E+00
         25   -1    0    0    0    0  0.00000000000E+00  0.00000000000E+00  0.99999998245E-14  0.12509000000E+03  0.12509000000E+03 0.  0.
        -11    1    3    3    0    0  0.94506506512E+01 -0.51701812011E+02 -0.20263154534E+01  0.52597510564E+02  0.51100000000E-03 0. -1.
         23    2    1    0    0    0  0.18519146355E+02 -0.14381151908E+02  0.17641555178E+02  0.95747185189E+02  0.91140126676E+02 0.  0.
         11    1    3    3    0    0  0.90684957038E+01  0.37320660102E+02  0.19667870631E+02  0.43149674625E+02  0.51100000000E-03 0.  1.
         22    1    1    0    0    0 -0.18519146355E+02  0.14381151908E+02 -0.17641555178E+02  0.29342814811E+02  0.00000000000E+00 0.  1.
</event>
<event>
 5    1  0.1044283E-009  0.9118800E+02  0.7815553E-02  0.1125453E+00
         25   -1    0    0    0    0  0.00000000000E+00  0.00000000000E+00  0.99999998245E-14  0.12509000000E+03  0.12509000000E+03 0.  0.
        -11    1    3    3    0    0 -0.25330918126E+02  0.39178237342E+02 -0.65973584746E+01  0.47118094544E+02  0.51100000000E-03 0. -1.
         23    2    1    0    0    0 -0.10759810668E+02 -0.25011838426E+01 -0.27119160995E+02  0.95807268923E+02  0.91222554443E+02 0.  0.
         11    1    3    3    0    0  0.14571107458E+02 -0.41679421184E+02 -0.20521802521E+02  0.48689174379E+02  0.51100000000E-03 0.  1.
         22    1    1    0    0    0  0.10759810668E+02  0.25011838426E+01  0.27119160995E+02  0.29282731077E+02  0.00000000000E+00 0. -1.
</event>
<event>
 5    1  0.1044283E-009  0.9118800E+02  0.7815553E-02  0.1125453E+00
         25   -1    0    0    0    0  0.00000000000E+00  0.00000000000E+00  0.99999998245E-14  0.12509000000E+03  0.12509000000E+03 0.  0.
        -11    1    3    3    0    0  0.40589329125E+02 -0.24256212450E+02  0.84753955162E+00  0.47292449765E+02  0.51100000000E-03 0.  1.
         23    2    1    0    0    0 -0.51739088222E+01 -0.22508185502E+02 -0.16967343832E+02  0.96432042924E+02  0.92075297440E+02 0.  0.
         11    1    3    3    0    0 -0.45763237947E+02  0.17480269483E+01 -0.17814883384E+02  0.49139593159E+02  0.51100000000E-03 0. -1.
         22    1    1    0    0    0  0.51739088222E+01  0.22508185502E+02  0.16967343832E+02  0.28657957076E+02  0.00000000000E+00 0.  1.
</event>
<event>
 5    1  0.1044283E-009  0.9118800E+02  0.7815553E-02  0.1125453E+00
         25   -1    0    0    0    0  0.00000000000E+00  0.00000000000E+00  0.99999998245E-14  0.12509000000E+03  0.12509000000E+03 0.  0.
        -11    1    3    3    0    0 -0.29397169261E+02 -0.73201622958E+01  0.18749245698E+02  0.35627412916E+02  0.51100000000E-03 0.  1.
         23    2    1    0    0    0 -0.52148992251E+01  0.17273553649E+02 -0.26812224907E+02  0.92771797172E+02  0.86960566445E+02 0.  0.
         11    1    3    3    0    0  0.24182270036E+02  0.24593715944E+02 -0.45561470605E+02  0.57144384256E+02  0.51100000000E-03 0. -1.
         22    1    1    0    0    0  0.52148992251E+01 -0.17273553649E+02  0.26812224907E+02  0.32318202828E+02  0.00000000000E+00 0. -1.
</event>
<event>
 5    1  0.1044283E-009  0.9118800E+02  0.7815553E-02  0.1125453E+00
         25   -1    0    0    0    0  0.00000000000E+00  0.00000000000E+00  0.99999998245E-14  0.12509000000E+03  0.12509000000E+03 0.  0.
        -11    1    3    3    0    0 -0.24938276978E+02  0.23521411753E+02  0.14397091274E+01  0.34311036594E+02  0.51100000000E-03 0. -1.
         23    2    1    0    0    0  0.36547071392E+01 -0.27984578587E+02 -0.11481368078E+02  0.94621732312E+02  0.89582123718E+02 0.  0.
         11    1    3    3    0    0  0.28592984117E+02 -0.51505990340E+02 -0.12921077206E+02  0.60310695718E+02  0.51100000000E-03 0.  1.
         22    1    1    0    0    0 -0.36547071392E+01  0.27984578587E+02  0.11481368078E+02  0.30468267688E+02  0.00000000000E+00 0.  1.
</event>
<event>
 5    1  0.1044283E-009  0.9118800E+02  0.7815553E-02  0.1125453E+00
         25   -1    0    0    0    0  0.00000000000E+00  0.00000000000E+00  0.99999998245E-14  0.12509000000E+03  0.12509000000E+03 0.  0.
        -11    1    3    3    0    0  0.32253636642E+02  0.32604404447E+01  0.15420349698E+02  0.35898673146E+02  0.51100000000E-03 0. -1.
         23    2    1    0    0    0 -0.10740618970E+02 -0.29365980402E+02 -0.46416549507E+01  0.93478820625E+02  0.87971718432E+02 0.  0.
         11    1    3    3    0    0 -0.42994255612E+02 -0.32626420847E+02 -0.20062004649E+02  0.57580147479E+02  0.51100000000E-03 0.  1.
         22    1    1    0    0    0  0.10740618970E+02  0.29365980402E+02  0.46416549507E+01  0.31611179375E+02  0.00000000000E+00 0.  1.
</event>
<event>
 5    1  0.1044283E-009  0.9118800E+02  0.7815553E-02  0.1125453E+00
         25   -1    0    0    0    0  0.00000000000E+00  0.00000000000E+00  0.99999998245E-14  0.12509000000E+03  0.12509000000E+03 0.  0.
        -11    1    3    3    0    0 -0.33992683471E+02  0.21755590503E+02  0.42662328838E+01  0.40583358548E+02  0.51100000000E-03 0.  1.
         23    2    1    0    0    0 -0.92362958739E+01 -0.26728770216E+02  0.94611043616E+01  0.95269724775E+02  0.90482438320E+02 0.  0.
         11    1    3    3    0    0  0.24756387597E+02 -0.48484360719E+02  0.51948714779E+01  0.54686366228E+02  0.51100000000E-03 0. -1.
         22    1    1    0    0    0  0.92362958739E+01  0.26728770216E+02 -0.94611043616E+01  0.29820275225E+02  0.00000000000E+00 0. -1.
</event>
<event>
 5    1  0.1044283E-009  0.9118800E+02  0.7815553E-02  0.1125453E+00
         25   -1    0    0    0    0  0.00000000000E+00  0.00000000000E+00  0.99999998245E-14  0.12509000000E+03  0.12509000000E+03 0.  0.
        -11    1    3    3    0    0  0.53810940507E+01 -0.35621922133E+02 -0.19723430421E+02  0.41071781280E+02  0.51100000000E-03 0. -1.
         23    2    1    0    0    0  0.36239754476E+02 -0.15361141362E+02 -0.25144375931E+02  0.78383211314E+02  0.62947626694E+02 0.  0.
         11    1    3    3    0    0  0.30858660426E+02  0.20260780771E+02 -0.54209455097E+01  0.37311430034E+02  0.51100000000E-03 0.  1.
         22    1    1    0    0    0 -0.36239754476E+02  0.15361141362E+02  0.25144375931E+02  0.46706788686E+02  0.00000000000E+00 0. -1.
</event>
<event>
 5    1  0.1044283E-009  0.9118800E+02  0.7815553E-02  0.1125453E+00
         25   -1    0    0    0    0  0.00000000000E+00  0.00000000000E+00  0.99999998245E-14  0.12509000000E+03  0.12509000000E+03 0.  0.
        -11    1    3    3    0    0  0.20385361572E+02  0.28734806719E+01 -0.29615076287E+02  0.36067611529E+02  0.51100000000E-03 0.  1.
         23    2    1    0    0    0 -0.11056849310E+02 -0.21863590824E+02  0.15290685525E+02  0.96209633240E+02  0.91772642677E+02 0.  0.
         11    1    3    3    0    0 -0.31442210883E+02 -0.24737071495E+02  0.44905761812E+02  0.60142021712E+02  0.51100000000E-03 0. -1.
         22    1    1    0    0    0  0.11056849310E+02  0.21863590824E+02 -0.15290685525E+02  0.28880366760E+02  0.00000000000E+00 0. -1.
</event>
<event>
 5    1  0.1044283E-009  0.9118800E+02  0.7815553E-02  0.1125453E+00
         25   -1    0    0    0    0  0.00000000000E+00  0.00000000000E+00  0.99999998245E-14  0.12509000000E+03  0.12509000000E+03 0.  0.
        -11    1    3    3    0    0 -0.52615194941E+02 -0.38932975947E+01 -0.21386226471E+02  0.56928790500E+02  0.51100000000E-03 0.  1.
         23    2    1    0    0    0 -0.23209973571E+02 -0.96628432016E+01  0.78075069565E+01  0.98764526086E+02  0.95191391608E+02 0.  0.
         11    1    3    3    0    0  0.29405221371E+02 -0.57695456069E+01  0.29193733427E+02  0.41835735586E+02  0.51100000000E-03 0. -1.
         22    1    1    0    0    0  0.23209973571E+02  0.96628432016E+01 -0.78075069565E+01  0.26325473914E+02  0.00000000000E+00 0.  1.
</event>
<event>
 5    1  0.1044283E-009  0.9118800E+02  0.7815553E-02  0.1125453E+00
         25   -1    0    0    0    0  0.00000000000E+00  0.00000000000E+00  0.99999998245E-14  0.12509000000E+03  0.12509000000E+03 0.  0.
        -11    1    3    3    0    0 -0.42882654616E+02 -0.77771449528E+01 -0.43659316679E+02  0.61689075076E+02  0.51100000000E-03 0. -1.
         23    2    1    0    0    0 -0.19651996362E+02 -0.70637245794E+01 -0.11867204572E+02  0.10107068048E+03  0.98175122826E+02 0.  0.
         11    1    3    3    0    0  0.23230658255E+02  0.71342037338E+00  0.31792112107E+02  0.39381605402E+02  0.51100000000E-03 0.  1.
         22    1    1    0    0    0  0.19651996362E+02  0.70637245794E+01  0.11867204572E+02  0.24019319522E+02  0.00000000000E+00 0. -1.
</event>
<event>
 5    1  0.1044283E-009  0.9118800E+02  0.7815553E-02  0.1125453E+00
         25   -1    0    0    0    0  0.00000000000E+00  0.00000000000E+00  0.99999998245E-14  0.12509000000E+03  0.12509000000E+03 0.  0.
        -11    1    3    3    0    0  0.66813359217E+01  0.46454565189E+02  0.14830673234E+02  0.49220074619E+02  0.51100000000E-03 0.  1.
         23    2    1    0    0    0 -0.30362250671E+01  0.19411773951E+02 -0.21777425463E+02  0.95759267135E+02  0.91156707663E+02 0.  0.
         11    1    3    3    0    0 -0.97175609889E+01 -0.27042791239E+02 -0.36608098698E+02  0.46539192516E+02  0.51100000000E-03 0. -1.
         22    1    1    0    0    0  0.30362250671E+01 -0.19411773951E+02  0.21777425463E+02  0.29330732865E+02  0.00000000000E+00 0.  1.
</event>
<event>
 5    1  0.1044283E-009  0.9118800E+02  0.7815553E-02  0.1125453E+00
         25   -1    0    0    0    0  0.00000000000E+00  0.00000000000E+00  0.99999998245E-14  0.12509000000E+03  0.12509000000E+03 0.  0.
        -11    1    3    3    0    0 -0.68217676187E+01 -0.25310632159E+02 -0.33278790970E+02  0.42363221578E+02  0.51100000000E-03 0. -1.
         23    2    1    0    0    0 -0.16562988431E+02  0.21941625486E+02 -0.11891002471E+02  0.95137313067E+02  0.90299196471E+02 0.  0.
         11    1    3    3    0    0 -0.97412208121E+01  0.47252257645E+02  0.21387788499E+02  0.52774091490E+02  0.51100000000E-03 0.  1.
         22    1    1    0    0    0  0.16562988431E+02 -0.21941625486E+02  0.11891002471E+02  0.29952686933E+02  0.00000000000E+00 0. -1.
</event>
<event>
 5    1  0.1044283E-009  0.9118800E+02  0.7815553E-02  0.1125453E+00
         25   -1    0    0    0    0  0.00000000000E+00  0.00000000000E+00  0.99999998245E-14  0.12509000000E+03  0.12509000000E+03 0.  0.
        -11    1    3    3    0    0 -0.31518710037E+01 -0.13026474075E+02  0.36459205379E+02  0.38844523099E+02  0.51100000000E-03 0.  1.
         23    2    1    0    0    0  0.20138073227E+02  0.21115215190E+02 -0.27100169853E+01  0.95785759729E+02  0.91193054938E+02 0.  0.
         11    1    3    3    0    0  0.23289944231E+02  0.34141689265E+02 -0.39169222364E+02  0.56941236630E+02  0.51100000000E-03 0. -1.
         22    1    1    0    0    0 -0.20138073227E+02 -0.21115215190E+02  0.27100169853E+01  0.29304240271E+02  0.00000000000E+00 0. -1.
</event>
<event>
 5    1  0.1044283E-009  0.9118800E+02  0.7815553E-02  0.1125453E+00
         25   -1    0    0    0    0  0.00000000000E+00  0.00000000000E+00  0.99999998245E-14  0.12509000000E+03  0.12509000000E+03 0.  0.
        -11    1    3    3    0    0 -0.53001697292E+02 -0.10222950601E+02  0.89634719259E+01  0.54717752732E+02  0.51100000000E-03 0. -1.
         23    2    1    0    0    0 -0.21567003650E+02 -0.58864570402E+01  0.26053570946E+02  0.90759625956E+02  0.84016278909E+02 0.  0.
         11    1    3    3    0    0  0.31434693641E+02  0.43364935610E+01  0.17090099020E+02  0.36041873224E+02  0.51100000000E-03 0.  1.
         22    1    1    0    0    0  0.21567003650E+02  0.58864570402E+01 -0.26053570946E+02  0.34330374044E+02  0.00000000000E+00 0. -1.
</event>
<event>
 5    1  0.1044283E-009  0.9118800E+02  0.7815553E-02  0.1125453E+00
         25   -1    0    0    0    0  0.00000000000E+00  0.00000000000E+00  0.99999998245E-14  0.12509000000E+03  0.12509000000E+03 0.  0.
        -11    1    3    3    0    0  0.72712643060E+00 -0.38610339012E+02 -0.39300075088E+02  0.55097939105E+02  0.51100000000E-03 0.  1.
         23    2    1    0    0    0  0.32386053681E+01  0.36787401139E+00 -0.29557002706E+02  0.95353821614E+02  0.90598625770E+02 0.  0.
         11    1    3    3    0    0  0.25114789375E+01  0.38978213023E+02  0.97430723814E+01  0.40255882509E+02  0.51100000000E-03 0. -1.
         22    1    1    0    0    0 -0.32386053681E+01 -0.36787401139E+00  0.29557002706E+02  0.29736178386E+02  0.00000000000E+00 0.  1.
</event>
<event>
 5    1  0.1044283E-009  0.9118800E+02  0.7815553E-02  0.1125453E+00
         25   -1    0    0    0    0  0.00000000000E+00  0.00000000000E+00  0.99999998245E-14  0.12509000000E+03  0.12509000000E+03 0.  0.
        -11    1    3    3    0    0 -0.12122564714E+02  0.23385158356E+02  0.18015389240E+02  0.31912011160E+02  0.51100000000E-03 0.  1.
         23    2    1    0    0    0  0.14779448232E+02 -0.25079373190E+02 -0.10370187645E+02  0.94187769637E+02  0.88974086720E+02 0.  0.
         11    1    3    3    0    0  0.26902012946E+02 -0.48464531546E+02 -0.28385576885E+02  0.62275758476E+02  0.51100000000E-03 0. -1.
         22    1    1    0    0    0 -0.14779448232E+02  0.25079373190E+02  0.10370187645E+02  0.30902230363E+02  0.00000000000E+00 0. -1.
</event>
<event>
 5    1  0.1044283E-009  0.9118800E+02  0.7815553E-02  0.1125453E+00
         25   -1    0    0    0    0  0.00000000000E+00  0.00000000000E+00  0.99999998245E-14  0.12509000000E+03  0.12509000000E+03 0.  0.
        -11    1    3    3    0    0  0.24613547493E+02 -0.19545125634E+02  0.18037113458E+02  0.36237771985E+02  0.51100000000E-03 0.  1.
         23    2    1    0    0    0 -0.21531282239E+02  0.17516474153E+02  0.42204728499E+01  0.97014470215E+02  0.92863190008E+02 0.  0.
         11    1    3    3    0    0 -0.46144829733E+02  0.37061599787E+02 -0.13816640609E+02  0.60776698230E+02  0.51100000000E-03 0. -1.
         22    1    1    0    0    0  0.21531282239E+02 -0.17516474153E+02 -0.42204728499E+01  0.28075529785E+02  0.00000000000E+00 0. -1.
</event>
<event>
 5    1  0.1044283E-009  0.9118800E+02  0.7815553E-02  0.1125453E+00
         25   -1    0    0    0    0  0.00000000000E+00  0.00000000000E+00  0.99999998245E-14  0.12509000000E+03  0.12509000000E+03 0.  0.
        -11    1    3    3    0    0  0.11360842120E+02 -0.51571330258E+02  0.96691509766E+01  0.53685783212E+02  0.51100000000E-03 0. -1.
         23    2    1    0    0    0 -0.34645989955E+01 -0.15228137952E+02  0.24825168408E+02  0.95761027666E+02  0.91159123523E+02 0.  0.
         11    1    3    3    0    0 -0.14825441115E+02  0.36343192305E+02  0.15156017431E+02  0.42075244454E+02  0.51100000000E-03 0.  1.
         22    1    1    0    0    0  0.34645989955E+01  0.15228137952E+02 -0.24825168408E+02  0.29328972334E+02  0.00000000000E+00 0. -1.
</event>
<event>
 5    1  0.1044283E-009  0.9118800E+02  0.7815553E-02  0.1125453E+00
         25   -1    0    0    0    0  0.00000000000E+00  0.00000000000E+00  0.99999998245E-14  0.12509000000E+03  0.12509000000E+03 0.  0.
        -11    1    3    3    0    0 -0.97262313348E+01 -0.33611877133E+02 -0.14526640553E+02  0.37886424302E+02  0.51100000000E-03 0.  1.
         23    2    1    0    0    0  0.26332186653E+02  0.11007826982E+02 -0.30998015399E+01  0.96381724567E+02  0.92006911437E+02 0.  0.
         11    1    3    3    0    0  0.36058417987E+02  0.44619704114E+02  0.11426839013E+02  0.58495300265E+02  0.51100000000E-03 0. -1.
         22    1    1    0    0    0 -0.26332186653E+02 -0.11007826982E+02  0.30998015399E+01  0.28708275433E+02  0.00000000000E+00 0. -1.
</event>
<event>
 5    1  0.1044283E-009  0.9118800E+02  0.7815553E-02  0.1125453E+00
         25   -1    0    0    0    0  0.00000000000E+00  0.00000000000E+00  0.99999998245E-14  0.12509000000E+03  0.12509000000E+03 0.  0.
        -11    1    3    3    0    0 -0.59836524790E+01  0.47025739311E+02 -0.24707839762E+02  0.53457474695E+02  0.51100000000E-03 0. -1.
         23    2    1    0    0    0 -0.11481336345E+02  0.24305299168E+02  0.10925308397E+02  0.96073952449E+02  0.91587517291E+02 0.  0.
         11    1    3    3    0    0 -0.54976838656E+01 -0.22720440143E+02  0.35633148159E+02  0.42616477754E+02  0.51100000000E-03 0.  1.
         22    1    1    0    0    0  0.11481336345E+02 -0.24305299168E+02 -0.10925308397E+02  0.29016047551E+02  0.00000000000E+00 0. -1.
</event>
<event>
 5    1  0.1044283E-009  0.9118800E+02  0.7815553E-02  0.1125453E+00
         25   -1    0    0    0    0  0.00000000000E+00  0.00000000000E+00  0.99999998245E-14  0.12509000000E+03  0.12509000000E+03 0.  0.
        -11    1    3    3    0    0  0.17984664296E+02 -0.12632167448E+02  0.51876194940E+02  0.56339678788E+02  0.51100000000E-03 0. -1.
         23    2    1    0    0    0  0.22606990336E+02 -0.12992662047E+02  0.12170932321E+02  0.96314717679E+02  0.91915765617E+02 0.  0.
         11    1    3    3    0    0  0.46223260398E+01 -0.36049459954E+00 -0.39705262619E+02  0.39975038891E+02  0.51100000000E-03 0.  1.
         22    1    1    0    0    0 -0.22606990336E+02  0.12992662047E+02 -0.12170932321E+02  0.28775282321E+02  0.00000000000E+00 0. -1.
</event>
<event>
 5    1  0.1044283E-009  0.9118800E+02  0.7815553E-02  0.1125453E+00
         25   -1    0    0    0    0  0.00000000000E+00  0.00000000000E+00  0.99999998245E-14  0.12509000000E+03  0.12509000000E+03 0.  0.
        -11    1    3    3    0    0  0.32356124425E+02  0.16597369113E+02  0.45772973396E+02  0.58459871220E+02  0.51100000000E-03 0.  1.
         23    2    1    0    0    0  0.31626621920E+02  0.34213410303E+01  0.19725211553E+02  0.87659627849E+02  0.79266497307E+02 0.  0.
         11    1    3    3    0    0 -0.72950250428E+00 -0.13176028083E+02 -0.26047761843E+02  0.29199756630E+02  0.51100000000E-03 0. -1.
         22    1    1    0    0    0 -0.31626621920E+02 -0.34213410303E+01 -0.19725211553E+02  0.37430372151E+02  0.00000000000E+00 0.  1.
</event>
<event>
 5    1  0.1044283E-009  0.9118800E+02  0.7815553E-02  0.1125453E+00
         25   -1    0    0    0    0  0.00000000000E+00  0.00000000000E+00  0.99999998245E-14  0.12509000000E+03  0.12509000000E+03 0.  0.
        -11    1    3    3    0    0  0.14131184381E+02 -0.34732393587E+02 -0.15973593061E+01  0.37531068374E+02  0.51100000000E-03 0. -1.
         23    2    1    0    0    0 -0.29927056308E+02  0.12358139212E+01  0.47624122373E+01  0.94761193468E+02  0.89776652209E+02 0.  0.
         11    1    3    3    0    0 -0.44058240689E+02  0.35968207508E+02  0.63597715433E+01  0.57230125094E+02  0.51100000000E-03 0.  1.
         22    1    1    0    0    0  0.29927056308E+02 -0.12358139212E+01 -0.47624122373E+01  0.30328806532E+02  0.00000000000E+00 0.  1.
</event>
<event>
 5    1  0.1044283E-009  0.9118800E+02  0.7815553E-02  0.1125453E+00
         25   -1    0    0    0    0  0.00000000000E+00  0.00000000000E+00  0.99999998245E-14  0.12509000000E+03  0.12509000000E+03 0.  0.
        -11    1    3    3    0    0 -0.99084353876E+00 -0.17772451335E+02  0.52221404500E+02  0.55171703668E+02  0.51100000000E-03 0. -1.
         23    2    1    0    0    0  0.44776732823E+01 -0.26324589344E+02  0.13563793533E+02  0.95139873837E+02  0.90302743793E+02 0.  0.
         11    1    3    3    0    0  0.54685168211E+01 -0.85521380093E+01 -0.38657610967E+02  0.39968170169E+02  0.51100000000E-03 0.  1.
         22    1    1    0    0    0 -0.44776732823E+01  0.26324589344E+02 -0.13563793533E+02  0.29950126163E+02  0.00000000000E+00 0.  1.
</event>
<event>
 5    1  0.1044283E-009  0.9118800E+02  0.7815553E-02  0.1125453E+00
         25   -1    0    0    0    0  0.00000000000E+00  0.00000000000E+00  0.99999998245E-14  0.12509000000E+03  0.12509000000E+03 0.  0.
        -11    1    3    3    0    0 -0.21214897365E+02 -0.24392747704E+02  0.48223416476E+01  0.32685363543E+02  0.51100000000E-03 0. -1.
         23    2    1    0    0    0  0.25038990343E+02  0.14801811760E+02 -0.85559051333E+01  0.94770894119E+02  0.89790167561E+02 0.  0.
         11    1    3    3    0    0  0.46253887708E+02  0.39194559464E+02 -0.13378246781E+02  0.62085530576E+02  0.51100000000E-03 0.  1.
         22    1    1    0    0    0 -0.25038990343E+02 -0.14801811760E+02  0.85559051333E+01  0.30319105881E+02  0.00000000000E+00 0.  1.
</event>
<event>
 5    1  0.1044283E-009  0.9118800E+02  0.7815553E-02  0.1125453E+00
         25   -1    0    0    0    0  0.00000000000E+00  0.00000000000E+00  0.99999998245E-14  0.12509000000E+03  0.12509000000E+03 0.  0.
        -11    1    3    3    0    0 -0.61745895488E+01  0.29979754060E+02  0.53057124034E+02  0.61253323344E+02  0.51100000000E-03 0.  1.
         23    2    1    0    0    0 -0.10010669827E+02  0.93876965950E+01  0.27964024266E+02  0.93939895491E+02  0.88624911588E+02 0.  0.
         11    1    3    3    0    0 -0.38360802782E+01 -0.20592057465E+02 -0.25093099768E+02  0.32686572148E+02  0.51100000000E-03 0. -1.
         22    1    1    0    0    0  0.10010669827E+02 -0.93876965950E+01 -0.27964024266E+02  0.31150104509E+02  0.00000000000E+00 0.  1.
</event>
<event>
 5    1  0.1044283E-009  0.9118800E+02  0.7815553E-02  0.1125453E+00
         25   -1    0    0    0    0  0.00000000000E+00  0.00000000000E+00  0.99999998245E-14  0.12509000000E+03  0.12509000000E+03 0.  0.
        -11    1    3    3    0    0  0.22978963011E+02  0.51873007784E+02  0.13868628354E+02  0.58405312518E+02  0.51100000000E-03 0.  1.
         23    2    1    0    0    0  0.22017761481E+02  0.13633964329E+02  0.11570843653E+02  0.96725387772E+02  0.92472965849E+02 0.  0.
         11    1    3    3    0    0 -0.96120152952E+00 -0.38239043455E+02 -0.22977847004E+01  0.38320075255E+02  0.51100000000E-03 0. -1.
         22    1    1    0    0    0 -0.22017761481E+02 -0.13633964329E+02 -0.11570843653E+02  0.28364612228E+02  0.00000000000E+00 0.  1.
</event>
<event>
 5    1  0.1044283E-009  0.9118800E+02  0.7815553E-02  0.1125453E+00
         25   -1    0    0    0    0  0.00000000000E+00  0.00000000000E+00  0.99999998245E-14  0.12509000000E+03  0.12509000000E+03 0.  0.
        -11    1    3    3    0    0 -0.11192729872E+02  0.33002820599E+02  0.36977764927E+02  0.50811597778E+02  0.51100000000E-03 0. -1.
         23    2    1    0    0    0  0.16986704280E+01 -0.91897587404E+01  0.27647878743E+02  0.95905374837E+02  0.91356984280E+02 0.  0.
         11    1    3    3    0    0  0.12891400300E+02 -0.42192579339E+02 -0.93298861839E+01  0.45093777059E+02  0.51100000000E-03 0.  1.
         22    1    1    0    0    0 -0.16986704280E+01  0.91897587404E+01 -0.27647878743E+02  0.29184625163E+02  0.00000000000E+00 0.  1.
</event>
<event>
 5    1  0.1044283E-009  0.9118800E+02  0.7815553E-02  0.1125453E+00
         25   -1    0    0    0    0  0.00000000000E+00  0.00000000000E+00  0.99999998245E-14  0.12509000000E+03  0.12509000000E+03 0.  0.
        -11    1    3    3    0    0 -0.12956080124E+01  0.16324953784E+02  0.31402008939E+02  0.35415658710E+02  0.51100000000E-03 0. -1.
         23    2    1    0    0    0 -0.10836419977E+02  0.69310058033E+00 -0.26663265269E+02  0.96300451529E+02  0.91896348478E+02 0.  0.
         11    1    3    3    0    0 -0.95408119642E+01 -0.15631853203E+02 -0.58065274209E+02  0.60884792820E+02  0.51100000000E-03 0.  1.
         22    1    1    0    0    0  0.10836419977E+02 -0.69310058033E+00  0.26663265269E+02  0.28789548471E+02  0.00000000000E+00 0.  1.
</event>
<event>
 5    1  0.1044283E-009  0.9118800E+02  0.7815553E-02  0.1125453E+00
         25   -1    0    0    0    0  0.00000000000E+00  0.00000000000E+00  0.99999998245E-14  0.12509000000E+03  0.12509000000E+03 0.  0.
        -11    1    3    3    0    0  0.17231140055E+02 -0.44070519771E+02 -0.35859077171E+02  0.59371679413E+02  0.51100000000E-03 0. -1.
         23    2    1    0    0    0  0.11614070222E+02 -0.95018518641E+01 -0.24809473959E+02  0.96095486483E+02  0.91616923700E+02 0.  0.
         11    1    3    3    0    0 -0.56170698325E+01  0.34568667907E+02  0.11049603212E+02  0.36723807071E+02  0.51100000000E-03 0.  1.
         22    1    1    0    0    0 -0.11614070222E+02  0.95018518641E+01  0.24809473959E+02  0.28994513517E+02  0.00000000000E+00 0. -1.
</event>
<event>
 5    1  0.1044283E-009  0.9118800E+02  0.7815553E-02  0.1125453E+00
         25   -1    0    0    0    0  0.00000000000E+00  0.00000000000E+00  0.99999998245E-14  0.12509000000E+03  0.12509000000E+03 0.  0.
        -11    1    3    3    0    0 -0.39306747277E+02 -0.15214288974E+02  0.28531041620E+02  0.50897105091E+02  0.51100000000E-03 0. -1.
         23    2    1    0    0    0  0.35613852350E+01  0.13121482359E+01  0.27990113678E+02  0.96843731901E+02  0.92632913951E+02 0.  0.
         11    1    3    3    0    0  0.42868132512E+02  0.16526437210E+02 -0.54092794199E+00  0.45946626810E+02  0.51100000000E-03 0.  1.
         22    1    1    0    0    0 -0.35613852350E+01 -0.13121482359E+01 -0.27990113678E+02  0.28246268099E+02  0.00000000000E+00 0.  1.
</event>
<event>
 5    1  0.1044283E-009  0.9118800E+02  0.7815553E-02  0.1125453E+00
         25   -1    0    0    0    0  0.00000000000E+00  0.00000000000E+00  0.99999998245E-14  0.12509000000E+03  0.12509000000E+03 0.  0.
        -11    1    3    3    0    0  0.50539992095E+02 -0.82596504820E+01  0.19175945138E+02  0.54682990950E+02  0.51100000000E-03 0. -1.
         23    2    1    0    0    0  0.31432301901E+02  0.83468844725E+01 -0.77674217356E+01  0.91653598824E+02  0.85336916125E+02 0.  0.
         11    1    3    3    0    0 -0.19107690194E+02  0.16606534955E+02 -0.26943366874E+02  0.36970607873E+02  0.51100000000E-03 0.  1.
         22    1    1    0    0    0 -0.31432301901E+02 -0.83468844725E+01  0.77674217356E+01  0.33436401176E+02  0.00000000000E+00 0. -1.
</event>
<event>
 5    1  0.1044283E-009  0.9118800E+02  0.7815553E-02  0.1125453E+00
         25   -1    0    0    0    0  0.00000000000E+00  0.00000000000E+00  0.99999998245E-14  0.12509000000E+03  0.12509000000E+03 0.  0.
        -11    1    3    3    0    0  0.13992565976E+02  0.24832007737E+02 -0.26908946682E+02  0.39198366326E+02  0.51100000000E-03 0. -1.
         23    2    1    0    0    0  0.12201248848E+02 -0.27003725560E+02 -0.80945420121E+01  0.94372036559E+02  0.89232774283E+02 0.  0.
         11    1    3    3    0    0 -0.17913171276E+01 -0.51835733297E+02  0.18814404670E+02  0.55173670232E+02  0.51100000000E-03 0.  1.
         22    1    1    0    0    0 -0.12201248848E+02  0.27003725560E+02  0.80945420121E+01  0.30717963441E+02  0.00000000000E+00 0.  1.
</event>
<event>
 5    1  0.1044283E-009  0.9118800E+02  0.7815553E-02  0.1125453E+00
         25   -1    0    0    0    0  0.00000000000E+00  0.00000000000E+00  0.99999998245E-14  0.12509000000E+03  0.12509000000E+03 0.  0.
        -11    1    3    3    0    0 -0.24277741758E+02  0.24457096264E+02 -0.61356701376E+00  0.34466429570E+02  0.51100000000E-03 0.  1.
         23    2    1    0    0    0  0.22782576182E+02 -0.12281375331E+02  0.13621283458E+02  0.95842481805E+02  0.91270827749E+02 0.  0.
         11    1    3    3    0    0  0.47060317940E+02 -0.36738471595E+02  0.14234850472E+02  0.61376052235E+02  0.51100000000E-03 0. -1.
         22    1    1    0    0    0 -0.22782576182E+02  0.12281375331E+02 -0.13621283458E+02  0.29247518195E+02  0.00000000000E+00 0. -1.
</event>
<event>
 5    1  0.1044283E-009  0.9118800E+02  0.7815553E-02  0.1125453E+00
         25   -1    0    0    0    0  0.00000000000E+00  0.00000000000E+00  0.99999998245E-14  0.12509000000E+03  0.12509000000E+03 0.  0.
        -11    1    3    3    0    0 -0.60639332431E+02 -0.74499373564E+01 -0.15641169553E+01  0.61115273594E+02  0.51100000000E-03 0. -1.
         23    2    1    0    0    0 -0.29165360099E+02  0.31096781594E+01  0.59707906629E+01  0.95157765384E+02  0.90327524287E+02 0.  0.
         11    1    3    3    0    0  0.31473972332E+02  0.10559615516E+02  0.75349076182E+01  0.34042491790E+02  0.51100000000E-03 0.  1.
         22    1    1    0    0    0  0.29165360099E+02 -0.31096781594E+01 -0.59707906629E+01  0.29932234616E+02  0.00000000000E+00 0. -1.
</event>
<event>
 5    1  0.1044283E-009  0.9118800E+02  0.7815553E-02  0.1125453E+00
         25   -1    0    0    0    0  0.00000000000E+00  0.00000000000E+00  0.99999998245E-14  0.12509000000E+03  0.12509000000E+03 0.  0.
        -11    1    3    3    0    0 -0.84732111973E+01 -0.90450313534E+00 -0.32487962978E+02  0.33586919666E+02  0.51100000000E-03 0.  1.
         23    2    1    0    0    0 -0.12075004570E+02  0.30749251948E+01  0.28068110776E+02  0.94380396570E+02  0.89244492905E+02 0.  0.
         11    1    3    3    0    0 -0.36017933729E+01  0.39794283302E+01  0.60556073754E+02  0.60793476904E+02  0.51100000000E-03 0. -1.
         22    1    1    0    0    0  0.12075004570E+02 -0.30749251948E+01 -0.28068110776E+02  0.30709603430E+02  0.00000000000E+00 0. -1.
</event>
<event>
 5    1  0.1044283E-009  0.9118800E+02  0.7815553E-02  0.1125453E+00
         25   -1    0    0    0    0  0.00000000000E+00  0.00000000000E+00  0.99999998245E-14  0.12509000000E+03  0.12509000000E+03 0.  0.
        -11    1    3    3    0    0 -0.12291440369E+02 -0.49632819257E+02  0.34094842337E+02  0.61456932302E+02  0.51100000000E-03 0.  1.
         23    2    1    0    0    0 -0.10544716620E+01 -0.18813390542E+02  0.21257410867E+02  0.96683432257E+02  0.92416194371E+02 0.  0.
         11    1    3    3    0    0  0.11236968707E+02  0.30819428715E+02 -0.12837431470E+02  0.35226499954E+02  0.51100000000E-03 0. -1.
         22    1    1    0    0    0  0.10544716620E+01  0.18813390542E+02 -0.21257410867E+02  0.28406567743E+02  0.00000000000E+00 0.  1.
</event>
<event>
 5    1  0.1044283E-009  0.9118800E+02  0.7815553E-02  0.1125453E+00
         25   -1    0    0    0    0  0.00000000000E+00  0.00000000000E+00  0.99999998245E-14  0.12509000000E+03  0.12509000000E+03 0.  0.
        -11    1    3    3    0    0 -0.60946320489E+01 -0.32434284842E+02  0.13519785402E+02  0.35663874868E+02  0.51100000000E-03 0.  1.
         23    2    1    0    0    0  0.21878605071E+02  0.85438896919E+01 -0.18908486462E+02  0.94937018867E+02  0.90021304590E+02 0.  0.
         11    1    3    3    0    0  0.27973237120E+02  0.40978174534E+02 -0.32428271864E+02  0.59273143999E+02  0.51100000000E-03 0. -1.
         22    1    1    0    0    0 -0.21878605071E+02 -0.85438896919E+01  0.18908486462E+02  0.30152981133E+02  0.00000000000E+00 0. -1.
</event>
<event>
 5    1  0.1044283E-009  0.9118800E+02  0.7815553E-02  0.1125453E+00
         25   -1    0    0    0    0  0.00000000000E+00  0.00000000000E+00  0.99999998245E-14  0.12509000000E+03  0.12509000000E+03 0.  0.
        -11    1    3    3    0    0  0.35470145839E+02  0.36156994014E+01  0.24043165195E+01  0.35734930616E+02  0.51100000000E-03 0.  1.
         23    2    1    0    0    0 -0.21826783132E+02  0.52164889691E+01  0.19298246415E+02  0.95491984294E+02  0.90789187301E+02 0.  0.
         11    1    3    3    0    0 -0.57296928970E+02  0.16007895677E+01  0.16893929895E+02  0.59757053678E+02  0.51100000000E-03 0. -1.
         22    1    1    0    0    0  0.21826783132E+02 -0.52164889691E+01 -0.19298246415E+02  0.29598015706E+02  0.00000000000E+00 0. -1.
</event>
<event>
 5    1  0.1044283E-009  0.9118800E+02  0.7815553E-02  0.1125453E+00
         25   -1    0    0    0    0  0.00000000000E+00  0.00000000000E+00  0.99999998245E-14  0.12509000000E+03  0.12509000000E+03 0.  0.
        -11    1    3    3    0    0  0.25599474422E+02 -0.17816733806E+02 -0.16423859062E+02  0.35249287099E+02  0.51100000000E-03 0. -1.
         23    2    1    0    0    0 -0.20248222184E+02  0.20218323764E+02 -0.29556797647E+01  0.96323575816E+02  0.91927820042E+02 0.  0.
         11    1    3    3    0    0 -0.45847696606E+02  0.38035057570E+02  0.13468179298E+02  0.61074288717E+02  0.51100000000E-03 0.  1.
         22    1    1    0    0    0  0.20248222184E+02 -0.20218323764E+02  0.29556797647E+01  0.28766424184E+02  0.00000000000E+00 0.  1.
</event>
<event>
 5    1  0.1044283E-009  0.9118800E+02  0.7815553E-02  0.1125453E+00
         25   -1    0    0    0    0  0.00000000000E+00  0.00000000000E+00  0.99999998245E-14  0.12509000000E+03  0.12509000000E+03 0.  0.
        -11    1    3    3    0    0 -0.42828597785E+02  0.10663772267E+02  0.25719802136E+02  0.51083393088E+02  0.51100000000E-03 0. -1.
         23    2    1    0    0    0  0.12140584252E+01  0.22154351793E+02  0.16283991773E+02  0.97568051863E+02  0.93605913889E+02 0.  0.
         11    1    3    3    0    0  0.44042656211E+02  0.11490579526E+02 -0.94358103629E+01  0.46484658775E+02  0.51100000000E-03 0.  1.
         22    1    1    0    0    0 -0.12140584252E+01 -0.22154351793E+02 -0.16283991773E+02  0.27521948137E+02  0.00000000000E+00 0. -1.
</event>
<event>
 5    1  0.1044283E-009  0.9118800E+02  0.7815553E-02  0.1125453E+00
         25   -1    0    0    0    0  0.00000000000E+00  0.00000000000E+00  0.99999998245E-14  0.12509000000E+03  0.12509000000E+03 0.  0.
        -11    1    3    3    0    0  0.29104843171E+01 -0.22732261382E+02 -0.36081358315E+02  0.42744485546E+02  0.51100000000E-03 0.  1.
         23    2    1    0    0    0 -0.28287445561E+02 -0.82919229781E+01  0.37668822591E+01  0.95372581455E+02  0.90624523880E+02 0.  0.
         11    1    3    3    0    0 -0.31197929878E+02  0.14440338404E+02  0.39848240574E+02  0.52628095909E+02  0.51100000000E-03 0. -1.
         22    1    1    0    0    0  0.28287445561E+02  0.82919229781E+01 -0.37668822591E+01  0.29717418545E+02  0.00000000000E+00 0. -1.
</event>
<event>
 5    1  0.1044283E-009  0.9118800E+02  0.7815553E-02  0.1125453E+00
         25   -1    0    0    0    0  0.00000000000E+00  0.00000000000E+00  0.99999998245E-14  0.12509000000E+03  0.12509000000E+03 0.  0.
        -11    1    3    3    0    0  0.27372938921E+02  0.34144221919E+02  0.63749319521E+01  0.44223810705E+02  0.51100000000E-03 0. -1.
         23    2    1    0    0    0 -0.20348680257E+02  0.10392389261E+02  0.14329133634E+02  0.98119745767E+02  0.94340287767E+02 0.  0.
         11    1    3    3    0    0 -0.47721619177E+02 -0.23751832658E+02  0.79542016814E+01  0.53895935062E+02  0.51100000000E-03 0.  1.
         22    1    1    0    0    0  0.20348680257E+02 -0.10392389261E+02 -0.14329133634E+02  0.26970254233E+02  0.00000000000E+00 0.  1.
</event>
<event>
 5    1  0.1044283E-009  0.9118800E+02  0.7815553E-02  0.1125453E+00
         25   -1    0    0    0    0  0.00000000000E+00  0.00000000000E+00  0.99999998245E-14  0.12509000000E+03  0.12509000000E+03 0.  0.
        -11    1    3    3    0    0  0.37007446592E+02 -0.21990973230E+02 -0.21564514620E+02  0.48147505625E+02  0.51100000000E-03 0. -1.
         23    2    1    0    0    0  0.20488042222E+02 -0.47035960962E+01  0.19984377643E+02  0.96085534135E+02  0.91603334163E+02 0.  0.
         11    1    3    3    0    0 -0.16519404370E+02  0.17287377134E+02  0.41548892263E+02  0.47938028510E+02  0.51100000000E-03 0.  1.
         22    1    1    0    0    0 -0.20488042222E+02  0.47035960962E+01 -0.19984377643E+02  0.29004465865E+02  0.00000000000E+00 0.  1.
</event>
<event>
 5    1  0.1044283E-009  0.9118800E+02  0.7815553E-02  0.1125453E+00
         25   -1    0    0    0    0  0.00000000000E+00  0.00000000000E+00  0.99999998245E-14  0.12509000000E+03  0.12509000000E+03 0.  0.
        -11    1    3    3    0    0  0.18936043312E+01 -0.12544998213E+02 -0.52115040214E+02  0.53637115268E+02  0.51100000000E-03 0. -1.
         23    2    1    0    0    0 -0.15743577504E+02  0.62404284999E+00 -0.98553174252E+00  0.10930326712E+03  0.10815721552E+03 0.  0.
         11    1    3    3    0    0 -0.17637181835E+02  0.13169041063E+02  0.51129508472E+02  0.55666151855E+02  0.51100000000E-03 0.  1.
         22    1    1    0    0    0  0.15743577504E+02 -0.62404284999E+00  0.98553174252E+00  0.15786732876E+02  0.00000000000E+00 0.  1.
</event>
<event>
 5    1  0.1044283E-009  0.9118800E+02  0.7815553E-02  0.1125453E+00
         25   -1    0    0    0    0  0.00000000000E+00  0.00000000000E+00  0.99999998245E-14  0.12509000000E+03  0.12509000000E+03 0.  0.
        -11    1    3    3    0    0  0.39921605206E+01 -0.48655292071E+02  0.14960439508E+02  0.51059666496E+02  0.51100000000E-03 0.  1.
         23    2    1    0    0    0  0.13264998599E+02 -0.49548686810E+01  0.24548384807E+02  0.96750379182E+02  0.92506766043E+02 0.  0.
         11    1    3    3    0    0  0.92728380789E+01  0.43700423390E+02  0.95879452987E+01  0.45690712686E+02  0.51100000000E-03 0. -1.
         22    1    1    0    0    0 -0.13264998599E+02  0.49548686810E+01 -0.24548384807E+02  0.28339620818E+02  0.00000000000E+00 0. -1.
</event>
<event>
 5    1  0.1044283E-009  0.9118800E+02  0.7815553E-02  0.1125453E+00
         25   -1    0    0    0    0  0.00000000000E+00  0.00000000000E+00  0.99999998245E-14  0.12509000000E+03  0.12509000000E+03 0.  0.
        -11    1    3    3    0    0 -0.11646331171E+02  0.18915916576E+02  0.40305120338E+02  0.46021208756E+02  0.51100000000E-03 0.  1.
         23    2    1    0    0    0 -0.27081636591E+02  0.14493599057E-01 -0.50659148658E+01  0.97538616297E+02  0.93566569485E+02 0.  0.
         11    1    3    3    0    0 -0.15435305421E+02 -0.18901422977E+02 -0.45371035204E+02  0.51517407541E+02  0.51100000000E-03 0. -1.
         22    1    1    0    0    0  0.27081636591E+02 -0.14493599057E-01  0.50659148658E+01  0.27551383703E+02  0.00000000000E+00 0.  1.
</event>
<event>
 5    1  0.1044283E-009  0.9118800E+02  0.7815553E-02  0.1125453E+00
         25   -1    0    0    0    0  0.00000000000E+00  0.00000000000E+00  0.99999998245E-14  0.12509000000E+03  0.12509000000E+03 0.  0.
        -11    1    3    3    0    0  0.22645917449E+02  0.45539261633E+00  0.49236589122E+02  0.54196740383E+02  0.51100000000E-03 0.  1.
         23    2    1    0    0    0  0.89308505846E+01  0.22572438158E+02  0.17909114291E+02  0.94923604271E+02  0.90002662275E+02 0.  0.
         11    1    3    3    0    0 -0.13715066864E+02  0.22117045542E+02 -0.31327474831E+02  0.40726863888E+02  0.51100000000E-03 0. -1.
         22    1    1    0    0    0 -0.89308505846E+01 -0.22572438158E+02 -0.17909114291E+02  0.30166395729E+02  0.00000000000E+00 0. -1.
</event>
<event>
 5    1  0.1044283E-009  0.9118800E+02  0.7815553E-02  0.1125453E+00
         25   -1    0    0    0    0  0.00000000000E+00  0.00000000000E+00  0.99999998245E-14  0.12509000000E+03  0.12509000000E+03 0.  0.
        -11    1    3    3    0    0 -0.45511400889E+02  0.50852696586E+01  0.87289145854E+01  0.46619111194E+02  0.51100000000E-03 0.  1.
         23    2    1    0    0    0 -0.75621591944E+01  0.21452853427E+02 -0.18209993197E+02  0.95952137620E+02  0.91420991516E+02 0.  0.
         11    1    3    3    0    0  0.37949241695E+02  0.16367583769E+02 -0.26938907782E+02  0.49333026426E+02  0.51100000000E-03 0. -1.
         22    1    1    0    0    0  0.75621591944E+01 -0.21452853427E+02  0.18209993197E+02  0.29137862380E+02  0.00000000000E+00 0.  1.
</event>
<event>
 5    1  0.1044283E-009  0.9118800E+02  0.7815553E-02  0.1125453E+00
         25   -1    0    0    0    0  0.00000000000E+00  0.00000000000E+00  0.99999998245E-14  0.12509000000E+03  0.12509000000E+03 0.  0.
        -11    1    3    3    0    0 -0.24934216467E+02  0.39849046953E+01 -0.38499718906E+02  0.46041535296E+02  0.51100000000E-03 0. -1.
         23    2    1    0    0    0  0.40590950454E+01 -0.26477763793E+02 -0.12090182528E+02  0.95700873752E+02  0.91076541959E+02 0.  0.
         11    1    3    3    0    0  0.28993311513E+02 -0.30462668489E+02  0.26409536378E+02  0.49659338456E+02  0.51100000000E-03 0.  1.
         22    1    1    0    0    0 -0.40590950454E+01  0.26477763793E+02  0.12090182528E+02  0.29389126248E+02  0.00000000000E+00 0.  1.
</event>
<event>
 5    1  0.1044283E-009  0.9118800E+02  0.7815553E-02  0.1125453E+00
         25   -1    0    0    0    0  0.00000000000E+00  0.00000000000E+00  0.99999998245E-14  0.12509000000E+03  0.12509000000E+03 0.  0.
        -11    1    3    3    0    0 -0.27164865732E+02 -0.19461372049E+02 -0.24937823662E+01  0.33509608817E+02  0.51100000000E-03 0.  1.
         23    2    1    0    0    0  0.18606758627E+02  0.22669486395E+02 -0.13964894174E+01  0.95729018022E+02  0.91115188793E+02 0.  0.
         11    1    3    3    0    0  0.45771624359E+02  0.42130858445E+02  0.10972929488E+01  0.62219409205E+02  0.51100000000E-03 0. -1.
         22    1    1    0    0    0 -0.18606758627E+02 -0.22669486395E+02  0.13964894174E+01  0.29360981978E+02  0.00000000000E+00 0. -1.
</event>
<event>
 5    1  0.1044283E-009  0.9118800E+02  0.7815553E-02  0.1125453E+00
         25   -1    0    0    0    0  0.00000000000E+00  0.00000000000E+00  0.99999998245E-14  0.12509000000E+03  0.12509000000E+03 0.  0.
        -11    1    3    3    0    0 -0.27481000370E+02  0.61168537041E+01 -0.30902265247E+02  0.41803962470E+02  0.51100000000E-03 0. -1.
         23    2    1    0    0    0  0.94960703186E+01 -0.26386981529E+02 -0.95790597335E+01  0.95455450382E+02  0.90738836650E+02 0.  0.
         11    1    3    3    0    0  0.36977070688E+02 -0.32503835233E+02  0.21323205513E+02  0.53651487912E+02  0.51100000000E-03 0.  1.
         22    1    1    0    0    0 -0.94960703186E+01  0.26386981529E+02  0.95790597335E+01  0.29634549618E+02  0.00000000000E+00 0.  1.
</event>
<event>
 5    1  0.1044283E-009  0.9118800E+02  0.7815553E-02  0.1125453E+00
         25   -1    0    0    0    0  0.00000000000E+00  0.00000000000E+00  0.99999998245E-14  0.12509000000E+03  0.12509000000E+03 0.  0.
        -11    1    3    3    0    0 -0.99225395723E+01  0.25790312224E+02  0.34942054542E+01  0.27853302644E+02  0.51100000000E-03 0.  1.
         23    2    1    0    0    0  0.16156463122E+02 -0.26527088060E+02 -0.16855736049E+02  0.89751161036E+02  0.82501135556E+02 0.  0.
         11    1    3    3    0    0  0.26079002694E+02 -0.52317400285E+02 -0.20349941503E+02  0.61897858392E+02  0.51100000000E-03 0. -1.
         22    1    1    0    0    0 -0.16156463122E+02  0.26527088060E+02  0.16855736049E+02  0.35338838964E+02  0.00000000000E+00 0. -1.
</event>
<event>
 5    1  0.1044283E-009  0.9118800E+02  0.7815553E-02  0.1125453E+00
         25   -1    0    0    0    0  0.00000000000E+00  0.00000000000E+00  0.99999998245E-14  0.12509000000E+03  0.12509000000E+03 0.  0.
        -11    1    3    3    0    0 -0.58729409519E+01 -0.23037674024E+02  0.49522311510E+02  0.54933461546E+02  0.51100000000E-03 0. -1.
         23    2    1    0    0    0 -0.23292054601E+02 -0.46620131280E+01  0.18469352441E+02  0.95000613939E+02  0.90109630425E+02 0.  0.
         11    1    3    3    0    0 -0.17419113649E+02  0.18375660896E+02 -0.31052959069E+02  0.40067152393E+02  0.51100000000E-03 0.  1.
         22    1    1    0    0    0  0.23292054601E+02  0.46620131280E+01 -0.18469352441E+02  0.30089386061E+02  0.00000000000E+00 0. -1.
</event>
<event>
 5    1  0.1044283E-009  0.9118800E+02  0.7815553E-02  0.1125453E+00
         25   -1    0    0    0    0  0.00000000000E+00  0.00000000000E+00  0.99999998245E-14  0.12509000000E+03  0.12509000000E+03 0.  0.
        -11    1    3    3    0    0  0.39467717466E+01  0.11573644153E+02 -0.24154600000E+02  0.27073436199E+02  0.51100000000E-03 0.  1.
         23    2    1    0    0    0 -0.32096827264E+02 -0.79058135854E+01  0.19312328815E+02  0.86805874659E+02  0.77907545348E+02 0.  0.
         11    1    3    3    0    0 -0.36043599011E+02 -0.19479457738E+02  0.43466928815E+02  0.59732438460E+02  0.51100000000E-03 0. -1.
         22    1    1    0    0    0  0.32096827264E+02  0.79058135854E+01 -0.19312328815E+02  0.38284125341E+02  0.00000000000E+00 0. -1.
</event>
<event>
 5    1  0.1044283E-009  0.9118800E+02  0.7815553E-02  0.1125453E+00
         25   -1    0    0    0    0  0.00000000000E+00  0.00000000000E+00  0.99999998245E-14  0.12509000000E+03  0.12509000000E+03 0.  0.
        -11    1    3    3    0    0  0.22225419648E+02  0.43326206214E+02 -0.33861400420E+02  0.59310402647E+02  0.51100000000E-03 0.  1.
         23    2    1    0    0    0  0.71110873066E+01  0.68829365644E+01 -0.22722427600E+02  0.10030591046E+03  0.97195805352E+02 0.  0.
         11    1    3    3    0    0 -0.15114332342E+02 -0.36443269649E+02  0.11138972820E+02  0.40995507810E+02  0.51100000000E-03 0. -1.
         22    1    1    0    0    0 -0.71110873066E+01 -0.68829365644E+01  0.22722427600E+02  0.24784089543E+02  0.00000000000E+00 0.  1.
</event>
<event>
 5    1  0.1044283E-009  0.9118800E+02  0.7815553E-02  0.1125453E+00
         25   -1    0    0    0    0  0.00000000000E+00  0.00000000000E+00  0.99999998245E-14  0.12509000000E+03  0.12509000000E+03 0.  0.
        -11    1    3    3    0    0  0.31483712593E+02  0.45727161425E+01 -0.17715526215E+02  0.36413922625E+02  0.51100000000E-03 0.  1.
         23    2    1    0    0    0 -0.26813397913E+02  0.41168431222E+01 -0.13293644793E+02  0.94880271487E+02  0.89942416137E+02 0.  0.
         11    1    3    3    0    0 -0.58297110507E+02 -0.45587302028E+00  0.44218814220E+01  0.58466348862E+02  0.51100000000E-03 0. -1.
         22    1    1    0    0    0  0.26813397913E+02 -0.41168431222E+01  0.13293644793E+02  0.30209728513E+02  0.00000000000E+00 0. -1.
</event>
<event>
 5    1  0.1044283E-009  0.9118800E+02  0.7815553E-02  0.1125453E+00
         25   -1    0    0    0    0  0.00000000000E+00  0.00000000000E+00  0.99999998245E-14  0.12509000000E+03  0.12509000000E+03 0.  0.
        -11    1    3    3    0    0  0.46362382256E+02  0.13440064093E+02  0.21547537984E+02  0.52862105565E+02  0.51100000000E-03 0. -1.
         23    2    1    0    0    0  0.25141949841E+02  0.55729475260E+01 -0.14582871292E+02  0.95495481571E+02  0.90794005746E+02 0.  0.
         11    1    3    3    0    0 -0.21220432415E+02 -0.78671165670E+01 -0.36130409276E+02  0.42633376006E+02  0.51100000000E-03 0.  1.
         22    1    1    0    0    0 -0.25141949841E+02 -0.55729475260E+01  0.14582871292E+02  0.29594518429E+02  0.00000000000E+00 0. -1.
</event>
<event>
 5    1  0.1044283E-009  0.9118800E+02  0.7815553E-02  0.1125453E+00
         25   -1    0    0    0    0  0.00000000000E+00  0.00000000000E+00  0.99999998245E-14  0.12509000000E+03  0.12509000000E+03 0.  0.
        -11    1    3    3    0    0 -0.18224169343E+02  0.98175732648E+01  0.70538502626E+00  0.20712379422E+02  0.51100000000E-03 0.  1.
         23    2    1    0    0    0  0.27175634765E+02 -0.18818908601E+02  0.28756389757E+02  0.81276801102E+02  0.68456716249E+02 0.  0.
         11    1    3    3    0    0  0.45399804108E+02 -0.28636481866E+02  0.28051004731E+02  0.60564421679E+02  0.51100000000E-03 0. -1.
         22    1    1    0    0    0 -0.27175634765E+02  0.18818908601E+02 -0.28756389757E+02  0.43813198898E+02  0.00000000000E+00 0. -1.
</event>
<event>
 5    1  0.1044283E-009  0.9118800E+02  0.7815553E-02  0.1125453E+00
         25   -1    0    0    0    0  0.00000000000E+00  0.00000000000E+00  0.99999998245E-14  0.12509000000E+03  0.12509000000E+03 0.  0.
        -11    1    3    3    0    0  0.62398211138E+01 -0.37562982268E+02  0.14900576099E+02  0.40889365033E+02  0.51100000000E-03 0.  1.
         23    2    1    0    0    0 -0.86025505905E+01 -0.59998031036E+01 -0.27421160697E+02  0.95731499222E+02  0.91118595113E+02 0.  0.
         11    1    3    3    0    0 -0.14842371704E+02  0.31563179165E+02 -0.42321736796E+02  0.54842134190E+02  0.51100000000E-03 0. -1.
         22    1    1    0    0    0  0.86025505905E+01  0.59998031036E+01  0.27421160697E+02  0.29358500778E+02  0.00000000000E+00 0. -1.
</event>
<event>
 5    1  0.1044283E-009  0.9118800E+02  0.7815553E-02  0.1125453E+00
         25   -1    0    0    0    0  0.00000000000E+00  0.00000000000E+00  0.99999998245E-14  0.12509000000E+03  0.12509000000E+03 0.  0.
        -11    1    3    3    0    0  0.51522032680E+01  0.50899779201E+02 -0.12786575140E+02  0.52733568296E+02  0.51100000000E-03 0.  1.
         23    2    1    0    0    0 -0.48941026765E+01  0.20622679107E+02  0.18160507798E+02  0.97178511719E+02  0.93083897436E+02 0.  0.
         11    1    3    3    0    0 -0.10046305945E+02 -0.30277100093E+02  0.30947082939E+02  0.44444943423E+02  0.51100000000E-03 0. -1.
         22    1    1    0    0    0  0.48941026765E+01 -0.20622679107E+02 -0.18160507798E+02  0.27911488281E+02  0.00000000000E+00 0.  1.
</event>
<event>
 5    1  0.1044283E-009  0.9118800E+02  0.7815553E-02  0.1125453E+00
         25   -1    0    0    0    0  0.00000000000E+00  0.00000000000E+00  0.99999998245E-14  0.12509000000E+03  0.12509000000E+03 0.  0.
        -11    1    3    3    0    0 -0.24182214171E+02 -0.36098146309E+02 -0.39872531067E+02  0.58971810072E+02  0.51100000000E-03 0.  1.
         23    2    1    0    0    0 -0.12303596346E+02 -0.27359445560E+02 -0.80733228107E+01  0.94024001133E+02  0.88743543447E+02 0.  0.
         11    1    3    3    0    0  0.11878617824E+02  0.87387007496E+01  0.31799208257E+02  0.35052191062E+02  0.51100000000E-03 0. -1.
         22    1    1    0    0    0  0.12303596346E+02  0.27359445560E+02  0.80733228107E+01  0.31065998867E+02  0.00000000000E+00 0.  1.
</event>
<event>
 5    1  0.1044283E-009  0.9118800E+02  0.7815553E-02  0.1125453E+00
         25   -1    0    0    0    0  0.00000000000E+00  0.00000000000E+00  0.99999998245E-14  0.12509000000E+03  0.12509000000E+03 0.  0.
        -11    1    3    3    0    0  0.50488587041E+02 -0.13360593025E+02  0.17706377865E+02  0.55146338816E+02  0.51100000000E-03 0. -1.
         23    2    1    0    0    0  0.12870997733E+02 -0.24917157510E+02  0.43165060958E+01  0.96714666594E+02  0.92458461962E+02 0.  0.
         11    1    3    3    0    0 -0.37617589308E+02 -0.11556564485E+02 -0.13389871769E+02  0.41568327778E+02  0.51100000000E-03 0.  1.
         22    1    1    0    0    0 -0.12870997733E+02  0.24917157510E+02 -0.43165060958E+01  0.28375333406E+02  0.00000000000E+00 0. -1.
</event>
<event>
 5    1  0.1044283E-009  0.9118800E+02  0.7815553E-02  0.1125453E+00
         25   -1    0    0    0    0  0.00000000000E+00  0.00000000000E+00  0.99999998245E-14  0.12509000000E+03  0.12509000000E+03 0.  0.
        -11    1    3    3    0    0 -0.46564317958E+02 -0.20220188220E+02 -0.33034361048E+02  0.60566993723E+02  0.51100000000E-03 0.  1.
         23    2    1    0    0    0 -0.29506518849E+02 -0.99173501987E+00 -0.14934104549E+02  0.92004570101E+02  0.85849841280E+02 0.  0.
         11    1    3    3    0    0  0.17057799109E+02  0.19228453200E+02  0.18100256499E+02  0.31437576377E+02  0.51100000000E-03 0. -1.
         22    1    1    0    0    0  0.29506518849E+02  0.99173501987E+00  0.14934104549E+02  0.33085429899E+02  0.00000000000E+00 0.  1.
</event>
<event>
 5    1  0.1044283E-009  0.9118800E+02  0.7815553E-02  0.1125453E+00
         25   -1    0    0    0    0  0.00000000000E+00  0.00000000000E+00  0.99999998245E-14  0.12509000000E+03  0.12509000000E+03 0.  0.
        -11    1    3    3    0    0 -0.43644019616E+02  0.34963331223E+02 -0.18504482476E+02  0.58903742245E+02  0.51100000000E-03 0. -1.
         23    2    1    0    0    0 -0.27066124746E+02  0.32990564272E+01 -0.12291247168E+02  0.95181244777E+02  0.90360033855E+02 0.  0.
         11    1    3    3    0    0  0.16577894871E+02 -0.31664274796E+02  0.62132353082E+01  0.36277502532E+02  0.51100000000E-03 0.  1.
         22    1    1    0    0    0  0.27066124746E+02 -0.32990564272E+01  0.12291247168E+02  0.29908755223E+02  0.00000000000E+00 0. -1.
</event>
<event>
 5    1  0.1044283E-009  0.9118800E+02  0.7815553E-02  0.1125453E+00
         25   -1    0    0    0    0  0.00000000000E+00  0.00000000000E+00  0.99999998245E-14  0.12509000000E+03  0.12509000000E+03 0.  0.
        -11    1    3    3    0    0 -0.40615858571E+02  0.15507934553E+01  0.27155022391E+02  0.48881982050E+02  0.51100000000E-03 0.  1.
         23    2    1    0    0    0 -0.38077852696E+01  0.25983173489E+02  0.15593022308E+02  0.94548767577E+02  0.89480179774E+02 0.  0.
         11    1    3    3    0    0  0.36808073301E+02  0.24432380033E+02 -0.11562000083E+02  0.45666785527E+02  0.51100000000E-03 0. -1.
         22    1    1    0    0    0  0.38077852696E+01 -0.25983173489E+02 -0.15593022308E+02  0.30541232423E+02  0.00000000000E+00 0. -1.
</event>
<event>
 5    1  0.1044283E-009  0.9118800E+02  0.7815553E-02  0.1125453E+00
         25   -1    0    0    0    0  0.00000000000E+00  0.00000000000E+00  0.99999998245E-14  0.12509000000E+03  0.12509000000E+03 0.  0.
        -11    1    3    3    0    0  0.16559123764E+02  0.43906065116E+02 -0.52465020867E+01  0.47217294694E+02  0.51100000000E-03 0.  1.
         23    2    1    0    0    0  0.74325978050E+01  0.68684138327E+01  0.26422576920E+02  0.96795633250E+02  0.92567939517E+02 0.  0.
         11    1    3    3    0    0 -0.91265259586E+01 -0.37037651283E+02  0.31669079006E+02  0.49578338556E+02  0.51100000000E-03 0. -1.
         22    1    1    0    0    0 -0.74325978050E+01 -0.68684138327E+01 -0.26422576920E+02  0.28294366750E+02  0.00000000000E+00 0.  1.
</event>
<event>
 5    1  0.1044283E-009  0.9118800E+02  0.7815553E-02  0.1125453E+00
         25   -1    0    0    0    0  0.00000000000E+00  0.00000000000E+00  0.99999998245E-14  0.12509000000E+03  0.12509000000E+03 0.  0.
        -11    1    3    3    0    0 -0.42081346141E+02  0.26568198348E+02  0.19566640573E+02  0.53474875223E+02  0.51100000000E-03 0.  1.
         23    2    1    0    0    0 -0.97942529210E+00  0.27723753745E+02  0.68293753989E+01  0.96520677923E+02  0.92195634944E+02 0.  0.
         11    1    3    3    0    0  0.41101920848E+02  0.11555553969E+01 -0.12737265175E+02  0.43045802700E+02  0.51100000000E-03 0. -1.
         22    1    1    0    0    0  0.97942529210E+00 -0.27723753745E+02 -0.68293753989E+01  0.28569322077E+02  0.00000000000E+00 0.  1.
</event>
<event>
 5    1  0.1044283E-009  0.9118800E+02  0.7815553E-02  0.1125453E+00
         25   -1    0    0    0    0  0.00000000000E+00  0.00000000000E+00  0.99999998245E-14  0.12509000000E+03  0.12509000000E+03 0.  0.
        -11    1    3    3    0    0 -0.74780124500E+01  0.18578478953E+02 -0.50923063104E+02  0.54719639130E+02  0.51100000000E-03 0. -1.
         23    2    1    0    0    0 -0.23597663919E+02  0.12080586408E+02 -0.14989784671E+02  0.94635378760E+02  0.89601177214E+02 0.  0.
         11    1    3    3    0    0 -0.16119651469E+02 -0.64978925441E+01  0.35933278433E+02  0.39915739630E+02  0.51100000000E-03 0.  1.
         22    1    1    0    0    0  0.23597663919E+02 -0.12080586408E+02  0.14989784671E+02  0.30454621240E+02  0.00000000000E+00 0. -1.
</event>
<event>
 5    1  0.1044283E-009  0.9118800E+02  0.7815553E-02  0.1125453E+00
         25   -1    0    0    0    0  0.00000000000E+00  0.00000000000E+00  0.99999998245E-14  0.12509000000E+03  0.12509000000E+03 0.  0.
        -11    1    3    3    0    0  0.48600573139E+02  0.31972046294E+02  0.25506876919E+01  0.58230004823E+02  0.51100000000E-03 0.  1.
         23    2    1    0    0    0  0.11933810644E+02  0.27337158772E+02  0.24215766629E+00  0.95260572808E+02  0.90469785040E+02 0.  0.
         11    1    3    3    0    0 -0.36666762495E+02 -0.46348875215E+01 -0.23085300257E+01  0.37030567986E+02  0.51100000000E-03 0. -1.
         22    1    1    0    0    0 -0.11933810644E+02 -0.27337158772E+02 -0.24215766629E+00  0.29829427192E+02  0.00000000000E+00 0.  1.
</event>
<event>
 5    1  0.1044283E-009  0.9118800E+02  0.7815553E-02  0.1125453E+00
         25   -1    0    0    0    0  0.00000000000E+00  0.00000000000E+00  0.99999998245E-14  0.12509000000E+03  0.12509000000E+03 0.  0.
        -11    1    3    3    0    0 -0.24944916486E+02 -0.24345750839E+02 -0.91861649059E+01  0.36046498697E+02  0.51100000000E-03 0.  1.
         23    2    1    0    0    0  0.24210053708E+02 -0.20704069983E+01  0.16403658384E+02  0.95772883940E+02  0.91175391440E+02 0.  0.
         11    1    3    3    0    0  0.49154970194E+02  0.22275343840E+02  0.25589823290E+02  0.59726385243E+02  0.51100000000E-03 0. -1.
         22    1    1    0    0    0 -0.24210053708E+02  0.20704069983E+01 -0.16403658384E+02  0.29317116060E+02  0.00000000000E+00 0. -1.
</event>
<event>
 5    1  0.1044283E-009  0.9118800E+02  0.7815553E-02  0.1125453E+00
         25   -1    0    0    0    0  0.00000000000E+00  0.00000000000E+00  0.99999998245E-14  0.12509000000E+03  0.12509000000E+03 0.  0.
        -11    1    3    3    0    0  0.28684598654E+02 -0.69390033976E+00  0.55061547129E+02  0.62089142932E+02  0.51100000000E-03 0.  1.
         23    2    1    0    0    0  0.10652365760E+02  0.40587277613E+01  0.27004009496E+02  0.95778522791E+02  0.91183127451E+02 0.  0.
         11    1    3    3    0    0 -0.18032232893E+02  0.47526281011E+01 -0.28057537632E+02  0.33689379858E+02  0.51100000000E-03 0. -1.
         22    1    1    0    0    0 -0.10652365760E+02 -0.40587277613E+01 -0.27004009496E+02  0.29311477209E+02  0.00000000000E+00 0.  1.
</event>
<event>
 5    1  0.1044283E-009  0.9118800E+02  0.7815553E-02  0.1125453E+00
         25   -1    0    0    0    0  0.00000000000E+00  0.00000000000E+00  0.99999998245E-14  0.12509000000E+03  0.12509000000E+03 0.  0.
        -11    1    3    3    0    0  0.46087397987E+01  0.26006190187E+02  0.28194186807E+02  0.38632558555E+02  0.51100000000E-03 0. -1.
         23    2    1    0    0    0  0.97415402253E+01 -0.25487168994E+02 -0.49193077063E+00  0.97800159671E+02  0.93915578296E+02 0.  0.
         11    1    3    3    0    0  0.51328004266E+01 -0.51493359180E+02 -0.28686117578E+02  0.59167601116E+02  0.51100000000E-03 0.  1.
         22    1    1    0    0    0 -0.97415402253E+01  0.25487168994E+02  0.49193077063E+00  0.27289840329E+02  0.00000000000E+00 0.  1.
</event>
<event>
 5    1  0.1044283E-009  0.9118800E+02  0.7815553E-02  0.1125453E+00
         25   -1    0    0    0    0  0.00000000000E+00  0.00000000000E+00  0.99999998245E-14  0.12509000000E+03  0.12509000000E+03 0.  0.
        -11    1    3    3    0    0 -0.13378230243E+02  0.20596812355E+02 -0.22039691682E+02  0.32999298982E+02  0.51100000000E-03 0.  1.
         23    2    1    0    0    0 -0.79737697219E+01 -0.20323846089E+02  0.22510267367E+02  0.93731558388E+02  0.88330363847E+02 0.  0.
         11    1    3    3    0    0  0.54044605216E+01 -0.40920658444E+02  0.44549959049E+02  0.60732259406E+02  0.51100000000E-03 0. -1.
         22    1    1    0    0    0  0.79737697219E+01  0.20323846089E+02 -0.22510267367E+02  0.31358441612E+02  0.00000000000E+00 0. -1.
</event>
<event>
 5    1  0.1044283E-009  0.9118800E+02  0.7815553E-02  0.1125453E+00
         25   -1    0    0    0    0  0.00000000000E+00  0.00000000000E+00  0.99999998245E-14  0.12509000000E+03  0.12509000000E+03 0.  0.
        -11    1    3    3    0    0 -0.32710364523E+02  0.36711143218E+00  0.14247897926E+02  0.35680601363E+02  0.51100000000E-03 0.  1.
         23    2    1    0    0    0  0.15242935952E+02 -0.98304739838E+01 -0.21945697028E+02  0.96618980819E+02  0.92328914871E+02 0.  0.
         11    1    3    3    0    0  0.47953300475E+02 -0.10197585416E+02 -0.36193594954E+02  0.60938379456E+02  0.51100000000E-03 0. -1.
         22    1    1    0    0    0 -0.15242935952E+02  0.98304739838E+01  0.21945697028E+02  0.28471019181E+02  0.00000000000E+00 0. -1.
</event>
<event>
 5    1  0.1044283E-009  0.9118800E+02  0.7815553E-02  0.1125453E+00
         25   -1    0    0    0    0  0.00000000000E+00  0.00000000000E+00  0.99999998245E-14  0.12509000000E+03  0.12509000000E+03 0.  0.
        -11    1    3    3    0    0 -0.27300758153E+02 -0.12183132474E+02  0.19554543785E+02  0.35723105905E+02  0.51100000000E-03 0. -1.
         23    2    1    0    0    0 -0.54251198989E+01  0.18312100686E+02 -0.24776327607E+02  0.93806915639E+02  0.88437017445E+02 0.  0.
         11    1    3    3    0    0  0.21875638254E+02  0.30495233160E+02 -0.44330871392E+02  0.58083809734E+02  0.51100000000E-03 0.  1.
         22    1    1    0    0    0  0.54251198989E+01 -0.18312100686E+02  0.24776327607E+02  0.31283084361E+02  0.00000000000E+00 0.  1.
</event>
<event>
 5    1  0.1044283E-009  0.9118800E+02  0.7815553E-02  0.1125453E+00
         25   -1    0    0    0    0  0.00000000000E+00  0.00000000000E+00  0.99999998245E-14  0.12509000000E+03  0.12509000000E+03 0.  0.
        -11    1    3    3    0    0 -0.33390072510E+02 -0.27782137267E+02  0.12680837048E+01  0.43455173799E+02  0.51100000000E-03 0. -1.
         23    2    1    0    0    0  0.15567382373E+02 -0.17722306999E+02 -0.16282537145E+02  0.96427401109E+02  0.92068991031E+02 0.  0.
         11    1    3    3    0    0  0.48957454883E+02  0.10059830268E+02 -0.17550620850E+02  0.52972227310E+02  0.51100000000E-03 0.  1.
         22    1    1    0    0    0 -0.15567382373E+02  0.17722306999E+02  0.16282537145E+02  0.28662598891E+02  0.00000000000E+00 0.  1.
</event>
<event>
 5    1  0.1044283E-009  0.9118800E+02  0.7815553E-02  0.1125453E+00
         25   -1    0    0    0    0  0.00000000000E+00  0.00000000000E+00  0.99999998245E-14  0.12509000000E+03  0.12509000000E+03 0.  0.
        -11    1    3    3    0    0 -0.32608956313E+02  0.24193217194E+02  0.43260447295E+01  0.40833447728E+02  0.51100000000E-03 0.  1.
         23    2    1    0    0    0  0.21205110306E+02  0.19180666533E+02 -0.60413479461E+01  0.95865822394E+02  0.91302811274E+02 0.  0.
         11    1    3    3    0    0  0.53814066619E+02 -0.50125506611E+01 -0.10367392676E+02  0.55032374666E+02  0.51100000000E-03 0. -1.
         22    1    1    0    0    0 -0.21205110306E+02 -0.19180666533E+02  0.60413479461E+01  0.29224177606E+02  0.00000000000E+00 0. -1.
</event>
<event>
 5    1  0.1044283E-009  0.9118800E+02  0.7815553E-02  0.1125453E+00
         25   -1    0    0    0    0  0.00000000000E+00  0.00000000000E+00  0.99999998245E-14  0.12509000000E+03  0.12509000000E+03 0.  0.
        -11    1    3    3    0    0 -0.33252378110E+02  0.62408740169E+01 -0.51710179293E+01  0.34225846741E+02  0.51100000000E-03 0.  1.
         23    2    1    0    0    0  0.27643842347E+02 -0.29780200654E+01 -0.88113158480E+01  0.95923411063E+02  0.91381676937E+02 0.  0.
         11    1    3    3    0    0  0.60896220457E+02 -0.92188940823E+01 -0.36402979187E+01  0.61697564322E+02  0.51100000000E-03 0. -1.
         22    1    1    0    0    0 -0.27643842347E+02  0.29780200654E+01  0.88113158480E+01  0.29166588937E+02  0.00000000000E+00 0. -1.
</event>
<event>
 5    1  0.1044283E-009  0.9118800E+02  0.7815553E-02  0.1125453E+00
         25   -1    0    0    0    0  0.00000000000E+00  0.00000000000E+00  0.99999998245E-14  0.12509000000E+03  0.12509000000E+03 0.  0.
        -11    1    3    3    0    0  0.46456825636E+02 -0.15020159812E+02 -0.15016897663E+02  0.51081787994E+02  0.51100000000E-03 0. -1.
         23    2    1    0    0    0  0.33399034665E+01 -0.27379659799E+02 -0.67988050712E+01  0.96681823778E+02  0.92414017187E+02 0.  0.
         11    1    3    3    0    0 -0.43116922170E+02 -0.12359499987E+02  0.82180925923E+01  0.45600035784E+02  0.51100000000E-03 0.  1.
         22    1    1    0    0    0 -0.33399034665E+01  0.27379659799E+02  0.67988050712E+01  0.28408176222E+02  0.00000000000E+00 0. -1.
</event>
<event>
 5    1  0.1044283E-009  0.9118800E+02  0.7815553E-02  0.1125453E+00
         25   -1    0    0    0    0  0.00000000000E+00  0.00000000000E+00  0.99999998245E-14  0.12509000000E+03  0.12509000000E+03 0.  0.
        -11    1    3    3    0    0 -0.27844974783E+02  0.20459055222E+02  0.14888342260E+02  0.37624171708E+02  0.51100000000E-03 0.  1.
         23    2    1    0    0    0 -0.30884046307E+02 -0.58199429941E+01 -0.24617066727E+02  0.85168877433E+02  0.75233248343E+02 0.  0.
         11    1    3    3    0    0 -0.30390715235E+01 -0.26278998216E+02 -0.39505408987E+02  0.47544705725E+02  0.51100000000E-03 0. -1.
         22    1    1    0    0    0  0.30884046307E+02  0.58199429941E+01  0.24617066727E+02  0.39921122567E+02  0.00000000000E+00 0. -1.
</event>
<event>
 5    1  0.1044283E-009  0.9118800E+02  0.7815553E-02  0.1125453E+00
         25   -1    0    0    0    0  0.00000000000E+00  0.00000000000E+00  0.99999998245E-14  0.12509000000E+03  0.12509000000E+03 0.  0.
        -11    1    3    3    0    0  0.18533881625E+02  0.22045994371E+02  0.45133526662E+02  0.53540319994E+02  0.51100000000E-03 0.  1.
         23    2    1    0    0    0 -0.70717730189E+01 -0.66073626949E+01  0.27719850035E+02  0.95729187658E+02  0.91115421682E+02 0.  0.
         11    1    3    3    0    0 -0.25605654643E+02 -0.28653357066E+02 -0.17413676626E+02  0.42188867664E+02  0.51100000000E-03 0. -1.
         22    1    1    0    0    0  0.70717730189E+01  0.66073626949E+01 -0.27719850035E+02  0.29360812342E+02  0.00000000000E+00 0.  1.
</event>
<event>
 5    1  0.1044283E-009  0.9118800E+02  0.7815553E-02  0.1125453E+00
         25   -1    0    0    0    0  0.00000000000E+00  0.00000000000E+00  0.99999998245E-14  0.12509000000E+03  0.12509000000E+03 0.  0.
        -11    1    3    3    0    0 -0.23833841893E+02 -0.12291843783E+02  0.14404782825E+02  0.30440749194E+02  0.51100000000E-03 0. -1.
         23    2    1    0    0    0  0.32936677417E+02  0.68391251642E+01  0.52584589482E+01  0.91042243205E+02  0.84436013081E+02 0.  0.
         11    1    3    3    0    0  0.56770519310E+02  0.19130968948E+02 -0.91463238771E+01  0.60601494011E+02  0.51100000000E-03 0.  1.
         22    1    1    0    0    0 -0.32936677417E+02 -0.68391251642E+01 -0.52584589482E+01  0.34047756795E+02  0.00000000000E+00 0.  1.
</event>
<event>
 5    1  0.1044283E-009  0.9118800E+02  0.7815553E-02  0.1125453E+00
         25   -1    0    0    0    0  0.00000000000E+00  0.00000000000E+00  0.99999998245E-14  0.12509000000E+03  0.12509000000E+03 0.  0.
        -11    1    3    3    0    0 -0.87640185713E+01  0.40067284767E+02 -0.13185360431E+02  0.43081887843E+02  0.51100000000E-03 0. -1.
         23    2    1    0    0    0  0.26652508505E+02 -0.10449265088E+01 -0.39366562530E+01  0.98128076043E+02  0.94351332605E+02 0.  0.
         11    1    3    3    0    0  0.35416527076E+02 -0.41112211276E+02  0.92487041778E+01  0.55046188200E+02  0.51100000000E-03 0.  1.
         22    1    1    0    0    0 -0.26652508505E+02  0.10449265088E+01  0.39366562530E+01  0.26961923957E+02  0.00000000000E+00 0.  1.
</event>
<event>
 5    1  0.1044283E-009  0.9118800E+02  0.7815553E-02  0.1125453E+00
         25   -1    0    0    0    0  0.00000000000E+00  0.00000000000E+00  0.99999998245E-14  0.12509000000E+03  0.12509000000E+03 0.  0.
        -11    1    3    3    0    0  0.26027911947E+02  0.95692691226E+01  0.14417571338E+02  0.31255231169E+02  0.51100000000E-03 0. -1.
         23    2    1    0    0    0 -0.11374807103E+02 -0.18377622846E+02 -0.24773532565E+02  0.92213698902E+02  0.86154019589E+02 0.  0.
         11    1    3    3    0    0 -0.37402719050E+02 -0.27946891969E+02 -0.39191103903E+02  0.60958467734E+02  0.51100000000E-03 0.  1.
         22    1    1    0    0    0  0.11374807103E+02  0.18377622846E+02  0.24773532565E+02  0.32876301098E+02  0.00000000000E+00 0.  1.
</event>
<event>
 5    1  0.1044283E-009  0.9118800E+02  0.7815553E-02  0.1125453E+00
         25   -1    0    0    0    0  0.00000000000E+00  0.00000000000E+00  0.99999998245E-14  0.12509000000E+03  0.12509000000E+03 0.  0.
        -11    1    3    3    0    0  0.48390578248E+02 -0.27492640821E+02 -0.12057856754E+02  0.56946336776E+02  0.51100000000E-03 0.  1.
         23    2    1    0    0    0  0.19988840827E+02 -0.84572568698E+00 -0.20118784379E+02  0.96716870204E+02  0.92461443249E+02 0.  0.
         11    1    3    3    0    0 -0.28401737421E+02  0.26646915134E+02 -0.80609276248E+01  0.39770533428E+02  0.51100000000E-03 0. -1.
         22    1    1    0    0    0 -0.19988840827E+02  0.84572568698E+00  0.20118784379E+02  0.28373129796E+02  0.00000000000E+00 0.  1.
</event>
<event>
 5    1  0.1044283E-009  0.9118800E+02  0.7815553E-02  0.1125453E+00
         25   -1    0    0    0    0  0.00000000000E+00  0.00000000000E+00  0.99999998245E-14  0.12509000000E+03  0.12509000000E+03 0.  0.
        -11    1    3    3    0    0 -0.47383001815E+02 -0.49285634678E+01  0.34762082616E+02  0.58973231105E+02  0.51100000000E-03 0.  1.
         23    2    1    0    0    0 -0.15950514120E+02  0.98420103633E+01  0.22504564644E+02  0.95802809993E+02  0.91216439878E+02 0.  0.
         11    1    3    3    0    0  0.31432487695E+02  0.14770573831E+02 -0.12257517972E+02  0.36829578889E+02  0.51100000000E-03 0. -1.
         22    1    1    0    0    0  0.15950514120E+02 -0.98420103633E+01 -0.22504564644E+02  0.29287190007E+02  0.00000000000E+00 0.  1.
</event>
<event>
 5    1  0.1044283E-009  0.9118800E+02  0.7815553E-02  0.1125453E+00
         25   -1    0    0    0    0  0.00000000000E+00  0.00000000000E+00  0.99999998245E-14  0.12509000000E+03  0.12509000000E+03 0.  0.
        -11    1    3    3    0    0 -0.32831031225E+02  0.17230164988E+02  0.36626450903E+02  0.52117675532E+02  0.51100000000E-03 0.  1.
         23    2    1    0    0    0 -0.56520943030E+01 -0.16712102455E+02  0.19343931267E+02  0.98909315988E+02  0.95381468713E+02 0.  0.
         11    1    3    3    0    0  0.27178936922E+02 -0.33942267443E+02 -0.17282519636E+02  0.46791640456E+02  0.51100000000E-03 0. -1.
         22    1    1    0    0    0  0.56520943030E+01  0.16712102455E+02 -0.19343931267E+02  0.26180684012E+02  0.00000000000E+00 0.  1.
</event>
<event>
 5    1  0.1044283E-009  0.9118800E+02  0.7815553E-02  0.1125453E+00
         25   -1    0    0    0    0  0.00000000000E+00  0.00000000000E+00  0.99999998245E-14  0.12509000000E+03  0.12509000000E+03 0.  0.
        -11    1    3    3    0    0  0.53085710615E+01 -0.32770919216E+02  0.10405445605E+02  0.34790621890E+02  0.51100000000E-03 0. -1.
         23    2    1    0    0    0 -0.22079997870E+01  0.27781239186E+02  0.89300939354E+01  0.95825361074E+02  0.91247360145E+02 0.  0.
         11    1    3    3    0    0 -0.75165708486E+01  0.60552158402E+02 -0.14753516693E+01  0.61034739184E+02  0.51100000000E-03 0.  1.
         22    1    1    0    0    0  0.22079997870E+01 -0.27781239186E+02 -0.89300939354E+01  0.29264638926E+02  0.00000000000E+00 0.  1.
</event>
<event>
 5    1  0.1044283E-009  0.9118800E+02  0.7815553E-02  0.1125453E+00
         25   -1    0    0    0    0  0.00000000000E+00  0.00000000000E+00  0.99999998245E-14  0.12509000000E+03  0.12509000000E+03 0.  0.
        -11    1    3    3    0    0 -0.25421846414E+02  0.12106290192E+02  0.25010115870E+02  0.37660834210E+02  0.51100000000E-03 0. -1.
         23    2    1    0    0    0 -0.55097755140E+01 -0.67229910561E+01 -0.27150231702E+02  0.96582258658E+02  0.92279149167E+02 0.  0.
         11    1    3    3    0    0  0.19912070900E+02 -0.18829281248E+02 -0.52160347572E+02  0.58921424448E+02  0.51100000000E-03 0.  1.
         22    1    1    0    0    0  0.55097755140E+01  0.67229910561E+01  0.27150231702E+02  0.28507741342E+02  0.00000000000E+00 0.  1.
</event>
<event>
 5    1  0.1044283E-009  0.9118800E+02  0.7815553E-02  0.1125453E+00
         25   -1    0    0    0    0  0.00000000000E+00  0.00000000000E+00  0.99999998245E-14  0.12509000000E+03  0.12509000000E+03 0.  0.
        -11    1    3    3    0    0 -0.26439193230E+02  0.25995147110E+02  0.95547387387E+01  0.38289315018E+02  0.51100000000E-03 0. -1.
         23    2    1    0    0    0 -0.44286992427E+00 -0.55432247696E+01 -0.29649412881E+02  0.94923608787E+02  0.90002668551E+02 0.  0.
         11    1    3    3    0    0  0.25996323306E+02 -0.31538371879E+02 -0.39204151620E+02  0.56634293769E+02  0.51100000000E-03 0.  1.
         22    1    1    0    0    0  0.44286992427E+00  0.55432247696E+01  0.29649412881E+02  0.30166391213E+02  0.00000000000E+00 0.  1.
</event>
<event>
 5    1  0.1044283E-009  0.9118800E+02  0.7815553E-02  0.1125453E+00
         25   -1    0    0    0    0  0.00000000000E+00  0.00000000000E+00  0.99999998245E-14  0.12509000000E+03  0.12509000000E+03 0.  0.
        -11    1    3    3    0    0  0.37200909478E+01  0.35782109746E+02 -0.38865605928E+02  0.52959737339E+02  0.51100000000E-03 0. -1.
         23    2    1    0    0    0  0.71459523953E+01 -0.68686299696E+01 -0.25412532167E+02  0.97812912464E+02  0.93932562726E+02 0.  0.
         11    1    3    3    0    0  0.34258614475E+01 -0.42650739716E+02  0.13453073761E+02  0.44853175126E+02  0.51100000000E-03 0.  1.
         22    1    1    0    0    0 -0.71459523953E+01  0.68686299696E+01  0.25412532167E+02  0.27277087536E+02  0.00000000000E+00 0.  1.
</event>
<event>
 5    1  0.1044283E-009  0.9118800E+02  0.7815553E-02  0.1125453E+00
         25   -1    0    0    0    0  0.00000000000E+00  0.00000000000E+00  0.99999998245E-14  0.12509000000E+03  0.12509000000E+03 0.  0.
        -11    1    3    3    0    0 -0.29193810870E+02  0.50852732261E+02 -0.20478832859E+02  0.62110076212E+02  0.51100000000E-03 0.  1.
         23    2    1    0    0    0 -0.99483508457E+01  0.24867188138E+02 -0.54971454817E+01  0.97748358885E+02  0.93846557346E+02 0.  0.
         11    1    3    3    0    0  0.19245460025E+02 -0.25985544123E+02  0.14981687378E+02  0.35638282673E+02  0.51100000000E-03 0. -1.
         22    1    1    0    0    0  0.99483508457E+01 -0.24867188138E+02  0.54971454817E+01  0.27341641115E+02  0.00000000000E+00 0.  1.
</event>
<event>
 5    1  0.1044283E-009  0.9118800E+02  0.7815553E-02  0.1125453E+00
         25   -1    0    0    0    0  0.00000000000E+00  0.00000000000E+00  0.99999998245E-14  0.12509000000E+03  0.12509000000E+03 0.  0.
        -11    1    3    3    0    0  0.39952243503E+02  0.65263579870E+00  0.38976066981E+02  0.55818827397E+02  0.51100000000E-03 0.  1.
         23    2    1    0    0    0  0.29020369302E+02 -0.25111434352E+01  0.48490220480E+00  0.95957152458E+02  0.91427852988E+02 0.  0.
         11    1    3    3    0    0 -0.10931874201E+02 -0.31637792339E+01 -0.38491164776E+02  0.40138325061E+02  0.51100000000E-03 0. -1.
         22    1    1    0    0    0 -0.29020369302E+02  0.25111434352E+01 -0.48490220480E+00  0.29132847542E+02  0.00000000000E+00 0.  1.
</event>
<event>
 5    1  0.1044283E-009  0.9118800E+02  0.7815553E-02  0.1125453E+00
         25   -1    0    0    0    0  0.00000000000E+00  0.00000000000E+00  0.99999998245E-14  0.12509000000E+03  0.12509000000E+03 0.  0.
        -11    1    3    3    0    0  0.97277158596E+01 -0.47603969612E+02 -0.38606733465E+02  0.62058409968E+02  0.51100000000E-03 0. -1.
         23    2    1    0    0    0  0.38354965054E+00 -0.22354935198E+02 -0.22178640245E+02  0.93597424349E+02  0.88140203787E+02 0.  0.
         11    1    3    3    0    0 -0.93441662091E+01  0.25249034415E+02  0.16428093220E+02  0.31539014381E+02  0.51100000000E-03 0.  1.
         22    1    1    0    0    0 -0.38354965054E+00  0.22354935198E+02  0.22178640245E+02  0.31492575651E+02  0.00000000000E+00 0. -1.
</event>
<event>
 5    1  0.1044283E-009  0.9118800E+02  0.7815553E-02  0.1125453E+00
         25   -1    0    0    0    0  0.00000000000E+00  0.00000000000E+00  0.99999998245E-14  0.12509000000E+03  0.12509000000E+03 0.  0.
        -11    1    3    3    0    0  0.23270016469E+02  0.22633605849E+02 -0.49158129916E+02  0.58909214197E+02  0.51100000000E-03 0. -1.
         23    2    1    0    0    0  0.22168035080E+02  0.12546632713E+02 -0.12945051277E+02  0.96517038581E+02  0.92190696993E+02 0.  0.
         11    1    3    3    0    0 -0.11019813893E+01 -0.10086973136E+02  0.36213078640E+02  0.37607824383E+02  0.51100000000E-03 0.  1.
         22    1    1    0    0    0 -0.22168035080E+02 -0.12546632713E+02  0.12945051277E+02  0.28572961419E+02  0.00000000000E+00 0. -1.
</event>
<event>
 5    1  0.1044283E-009  0.9118800E+02  0.7815553E-02  0.1125453E+00
         25   -1    0    0    0    0  0.00000000000E+00  0.00000000000E+00  0.99999998245E-14  0.12509000000E+03  0.12509000000E+03 0.  0.
        -11    1    3    3    0    0 -0.34197775335E+02  0.13132347975E+02 -0.25205514582E+01  0.36719199080E+02  0.51100000000E-03 0.  1.
         23    2    1    0    0    0  0.73641932740E+01 -0.13051994603E+01  0.31738454613E+02  0.92482264884E+02  0.86543081345E+02 0.  0.
         11    1    3    3    0    0  0.41561968609E+02 -0.14437547436E+02  0.34259006071E+02  0.55763065804E+02  0.51100000000E-03 0. -1.
         22    1    1    0    0    0 -0.73641932740E+01  0.13051994603E+01 -0.31738454613E+02  0.32607735116E+02  0.00000000000E+00 0. -1.
</event>
<event>
 5    1  0.1044283E-009  0.9118800E+02  0.7815553E-02  0.1125453E+00
         25   -1    0    0    0    0  0.00000000000E+00  0.00000000000E+00  0.99999998245E-14  0.12509000000E+03  0.12509000000E+03 0.  0.
        -11    1    3    3    0    0  0.36986452975E+02  0.32051258035E+02 -0.23014017742E+02  0.54082583686E+02  0.51100000000E-03 0.  1.
         23    2    1    0    0    0  0.42517349689E+01  0.63113381370E+01 -0.28047678392E+02  0.96028298355E+02  0.91525141806E+02 0.  0.
         11    1    3    3    0    0 -0.32734718007E+02 -0.25739919898E+02 -0.50336606502E+01  0.41945714669E+02  0.51100000000E-03 0. -1.
         22    1    1    0    0    0 -0.42517349689E+01 -0.63113381370E+01  0.28047678392E+02  0.29061701645E+02  0.00000000000E+00 0. -1.
</event>
<event>
 5    1  0.1044283E-009  0.9118800E+02  0.7815553E-02  0.1125453E+00
         25   -1    0    0    0    0  0.00000000000E+00  0.00000000000E+00  0.99999998245E-14  0.12509000000E+03  0.12509000000E+03 0.  0.
        -11    1    3    3    0    0  0.21829473235E+01  0.37531924299E+02  0.38362456922E+02  0.53713021717E+02  0.51100000000E-03 0.  1.
         23    2    1    0    0    0 -0.14119910869E+02  0.25175708799E+02  0.11205310072E+01  0.96203259335E+02  0.91763954364E+02 0.  0.
         11    1    3    3    0    0 -0.16302858193E+02 -0.12356215500E+02 -0.37241925915E+02  0.42490237618E+02  0.51100000000E-03 0. -1.
         22    1    1    0    0    0  0.14119910869E+02 -0.25175708799E+02 -0.11205310072E+01  0.28886740665E+02  0.00000000000E+00 0.  1.
</event>
<event>
 5    1  0.1044283E-009  0.9118800E+02  0.7815553E-02  0.1125453E+00
         25   -1    0    0    0    0  0.00000000000E+00  0.00000000000E+00  0.99999998245E-14  0.12509000000E+03  0.12509000000E+03 0.  0.
        -11    1    3    3    0    0 -0.20970789311E+02 -0.15500276469E+02  0.21999879480E+02  0.34117843899E+02  0.51100000000E-03 0.  1.
         23    2    1    0    0    0  0.25179591250E+02  0.49981019784E+00 -0.15340730664E+02  0.95601025059E+02  0.90939300356E+02 0.  0.
         11    1    3    3    0    0  0.46150380561E+02  0.16000086667E+02 -0.37340610144E+02  0.61483181160E+02  0.51100000000E-03 0. -1.
         22    1    1    0    0    0 -0.25179591250E+02 -0.49981019784E+00  0.15340730664E+02  0.29488974941E+02  0.00000000000E+00 0. -1.
</event>
<event>
 5    1  0.1044283E-009  0.9118800E+02  0.7815553E-02  0.1125453E+00
         25   -1    0    0    0    0  0.00000000000E+00  0.00000000000E+00  0.99999998245E-14  0.12509000000E+03  0.12509000000E+03 0.  0.
        -11    1    3    3    0    0 -0.20631001215E+01  0.29430345747E+02  0.48922440326E+02  0.57129736570E+02  0.51100000000E-03 0. -1.
         23    2    1    0    0    0 -0.20872402016E+01 -0.51051870194E+01  0.25837717286E+02  0.98670175233E+02  0.95067325301E+02 0.  0.
         11    1    3    3    0    0 -0.24140080022E-01 -0.34535532766E+02 -0.23084723040E+02  0.41540438663E+02  0.51100000000E-03 0.  1.
         22    1    1    0    0    0  0.20872402016E+01  0.51051870194E+01 -0.25837717286E+02  0.26419824767E+02  0.00000000000E+00 0. -1.
</event>
<event>
 5    1  0.1044283E-009  0.9118800E+02  0.7815553E-02  0.1125453E+00
         25   -1    0    0    0    0  0.00000000000E+00  0.00000000000E+00  0.99999998245E-14  0.12509000000E+03  0.12509000000E+03 0.  0.
        -11    1    3    3    0    0  0.19719229730E+02  0.17440217729E+01 -0.32690269155E+02  0.38217055496E+02  0.51100000000E-03 0.  1.
         23    2    1    0    0    0 -0.15447428394E+02  0.23061764214E+02  0.81362296845E+01  0.96164816403E+02  0.91711535086E+02 0.  0.
         11    1    3    3    0    0 -0.35166658124E+02  0.21317742441E+02  0.40826498840E+02  0.57947760907E+02  0.51100000000E-03 0. -1.
         22    1    1    0    0    0  0.15447428394E+02 -0.23061764214E+02 -0.81362296845E+01  0.28925183597E+02  0.00000000000E+00 0. -1.
</event>
<event>
 5    1  0.1044283E-009  0.9118800E+02  0.7815553E-02  0.1125453E+00
         25   -1    0    0    0    0  0.00000000000E+00  0.00000000000E+00  0.99999998245E-14  0.12509000000E+03  0.12509000000E+03 0.  0.
        -11    1    3    3    0    0 -0.12292179086E+02 -0.14317063128E+02  0.35960907227E+02  0.40611116854E+02  0.51100000000E-03 0.  1.
         23    2    1    0    0    0  0.24488243741E+02 -0.94869464097E+01 -0.75262896491E+01  0.97771118808E+02  0.93876889612E+02 0.  0.
         11    1    3    3    0    0  0.36780422827E+02  0.48301167180E+01 -0.43487196876E+02  0.57160001953E+02  0.51100000000E-03 0. -1.
         22    1    1    0    0    0 -0.24488243741E+02  0.94869464097E+01  0.75262896491E+01  0.27318881192E+02  0.00000000000E+00 0. -1.
</event>
<event>
 5    1  0.1044283E-009  0.9118800E+02  0.7815553E-02  0.1125453E+00
         25   -1    0    0    0    0  0.00000000000E+00  0.00000000000E+00  0.99999998245E-14  0.12509000000E+03  0.12509000000E+03 0.  0.
        -11    1    3    3    0    0  0.49734995889E+02 -0.17594253248E+02  0.18766242903E+02  0.55993744619E+02  0.51100000000E-03 0.  1.
         23    2    1    0    0    0  0.19699331017E+02  0.71973957348E+01  0.21524778352E+02  0.95037009616E+02  0.90160140671E+02 0.  0.
         11    1    3    3    0    0 -0.30035664872E+02  0.24791648983E+02  0.27585354494E+01  0.39043264998E+02  0.51100000000E-03 0. -1.
         22    1    1    0    0    0 -0.19699331017E+02 -0.71973957348E+01 -0.21524778352E+02  0.30052990384E+02  0.00000000000E+00 0.  1.
</event>
<event>
 5    1  0.1044283E-009  0.9118800E+02  0.7815553E-02  0.1125453E+00
         25   -1    0    0    0    0  0.00000000000E+00  0.00000000000E+00  0.99999998245E-14  0.12509000000E+03  0.12509000000E+03 0.  0.
        -11    1    3    3    0    0  0.40650566910E+01 -0.16358568101E+02  0.59173296657E+02  0.61527282353E+02  0.51100000000E-03 0.  1.
         23    2    1    0    0    0  0.63719517005E+01 -0.13397413015E+02  0.24177942192E+02  0.96723376433E+02  0.92470245030E+02 0.  0.
         11    1    3    3    0    0  0.23068950096E+01  0.29611550865E+01 -0.34995354465E+02  0.35196094079E+02  0.51100000000E-03 0. -1.
         22    1    1    0    0    0 -0.63719517005E+01  0.13397413015E+02 -0.24177942192E+02  0.28366623567E+02  0.00000000000E+00 0.  1.
</event>
<event>
 5    1  0.1044283E-009  0.9118800E+02  0.7815553E-02  0.1125453E+00
         25   -1    0    0    0    0  0.00000000000E+00  0.00000000000E+00  0.99999998245E-14  0.12509000000E+03  0.12509000000E+03 0.  0.
        -11    1    3    3    0    0 -0.33658822318E+02  0.97917578805E+01 -0.25040753977E-01  0.35054179059E+02  0.51100000000E-03 0. -1.
         23    2    1    0    0    0  0.23940733478E+02 -0.41543646990E+00 -0.16718637570E+02  0.95886504505E+02  0.91331142537E+02 0.  0.
         11    1    3    3    0    0  0.57599555795E+02 -0.10207194350E+02 -0.16693596816E+02  0.60832325446E+02  0.51100000000E-03 0.  1.
         22    1    1    0    0    0 -0.23940733478E+02  0.41543646990E+00  0.16718637570E+02  0.29203495495E+02  0.00000000000E+00 0.  1.
</event>
<event>
 5    1  0.1044283E-009  0.9118800E+02  0.7815553E-02  0.1125453E+00
         25   -1    0    0    0    0  0.00000000000E+00  0.00000000000E+00  0.99999998245E-14  0.12509000000E+03  0.12509000000E+03 0.  0.
        -11    1    3    3    0    0  0.42303030040E+02  0.17794346576E+02  0.50784892167E+01  0.46173327513E+02  0.51100000000E-03 0.  1.
         23    2    1    0    0    0  0.18771921684E+02 -0.23815961602E+02 -0.28589328163E+01  0.94630870538E+02  0.89594883175E+02 0.  0.
         11    1    3    3    0    0 -0.23531108356E+02 -0.41610308179E+02 -0.79374220330E+01  0.48457543025E+02  0.51100000000E-03 0. -1.
         22    1    1    0    0    0 -0.18771921684E+02  0.23815961602E+02  0.28589328163E+01  0.30459129462E+02  0.00000000000E+00 0. -1.
</event>
<event>
 5    1  0.1044283E-009  0.9118800E+02  0.7815553E-02  0.1125453E+00
         25   -1    0    0    0    0  0.00000000000E+00  0.00000000000E+00  0.99999998245E-14  0.12509000000E+03  0.12509000000E+03 0.  0.
        -11    1    3    3    0    0  0.21850816073E+02 -0.52397558671E+02  0.23309706605E+02  0.61370226820E+02  0.51100000000E-03 0. -1.
         23    2    1    0    0    0  0.17188023109E+02 -0.24666831444E+02  0.58743781303E+01  0.94456863852E+02  0.89351609378E+02 0.  0.
         11    1    3    3    0    0 -0.46627929641E+01  0.27730727227E+02 -0.17435328475E+02  0.33086637031E+02  0.51100000000E-03 0.  1.
         22    1    1    0    0    0 -0.17188023109E+02  0.24666831444E+02 -0.58743781303E+01  0.30633136148E+02  0.00000000000E+00 0. -1.
</event>
<event>
 5    1  0.1044283E-009  0.9118800E+02  0.7815553E-02  0.1125453E+00
         25   -1    0    0    0    0  0.00000000000E+00  0.00000000000E+00  0.99999998245E-14  0.12509000000E+03  0.12509000000E+03 0.  0.
        -11    1    3    3    0    0 -0.25536328366E+02 -0.10886309530E+02  0.20205511157E+02  0.34334799883E+02  0.51100000000E-03 0. -1.
         23    2    1    0    0    0  0.26073631594E+02  0.12708209433E+02 -0.35771792297E+01  0.95864513473E+02  0.91301017961E+02 0.  0.
         11    1    3    3    0    0  0.51609959961E+02  0.23594518962E+02 -0.23782690387E+02  0.61529713590E+02  0.51100000000E-03 0.  1.
         22    1    1    0    0    0 -0.26073631594E+02 -0.12708209433E+02  0.35771792297E+01  0.29225486527E+02  0.00000000000E+00 0.  1.
</event>
<event>
 5    1  0.1044283E-009  0.9118800E+02  0.7815553E-02  0.1125453E+00
         25   -1    0    0    0    0  0.00000000000E+00  0.00000000000E+00  0.99999998245E-14  0.12509000000E+03  0.12509000000E+03 0.  0.
        -11    1    3    3    0    0  0.35059461832E+02  0.12986140010E+02 -0.25452077442E+02  0.45228463855E+02  0.51100000000E-03 0.  1.
         23    2    1    0    0    0 -0.83139919792E+00  0.31437035955E+02  0.12477903455E+01  0.93617227084E+02  0.88168303669E+02 0.  0.
         11    1    3    3    0    0 -0.35890861030E+02  0.18450895946E+02  0.26699867787E+02  0.48388763229E+02  0.51100000000E-03 0. -1.
         22    1    1    0    0    0  0.83139919792E+00 -0.31437035955E+02 -0.12477903455E+01  0.31472772916E+02  0.00000000000E+00 0. -1.
</event>
<event>
 5    1  0.1044283E-009  0.9118800E+02  0.7815553E-02  0.1125453E+00
         25   -1    0    0    0    0  0.00000000000E+00  0.00000000000E+00  0.99999998245E-14  0.12509000000E+03  0.12509000000E+03 0.  0.
        -11    1    3    3    0    0 -0.41074272338E+02 -0.18284483538E+02  0.95621764255E+01  0.45965785152E+02  0.51100000000E-03 0.  1.
         23    2    1    0    0    0 -0.17090638858E+02  0.20425465516E+02 -0.11429180757E+02  0.96108699979E+02  0.91634963091E+02 0.  0.
         11    1    3    3    0    0  0.23983633480E+02  0.38709949055E+02 -0.20991357183E+02  0.50142914827E+02  0.51100000000E-03 0. -1.
         22    1    1    0    0    0  0.17090638858E+02 -0.20425465516E+02  0.11429180757E+02  0.28981300021E+02  0.00000000000E+00 0. -1.
</event>
<event>
 5    1  0.1044283E-009  0.9118800E+02  0.7815553E-02  0.1125453E+00
         25   -1    0    0    0    0  0.00000000000E+00  0.00000000000E+00  0.99999998245E-14  0.12509000000E+03  0.12509000000E+03 0.  0.
        -11    1    3    3    0    0 -0.22554044072E+02  0.74492136307E+01  0.27577586997E+02  0.36396414556E+02  0.51100000000E-03 0. -1.
         23    2    1    0    0    0  0.62157406068E+01  0.13581406187E+02 -0.24609249624E+02  0.96302759903E+02  0.91899490600E+02 0.  0.
         11    1    3    3    0    0  0.28769784679E+02  0.61321925567E+01 -0.52186836621E+02  0.59906345347E+02  0.51100000000E-03 0.  1.
         22    1    1    0    0    0 -0.62157406068E+01 -0.13581406187E+02  0.24609249624E+02  0.28787240097E+02  0.00000000000E+00 0.  1.
</event>
<event>
 5    1  0.1044283E-009  0.9118800E+02  0.7815553E-02  0.1125453E+00
         25   -1    0    0    0    0  0.00000000000E+00  0.00000000000E+00  0.99999998245E-14  0.12509000000E+03  0.12509000000E+03 0.  0.
        -11    1    3    3    0    0  0.23630857197E+02 -0.26475618505E+01  0.12469372084E+02  0.26849808864E+02  0.51100000000E-03 0. -1.
         23    2    1    0    0    0 -0.36538132534E+02 -0.35909713437E+01 -0.33926463039E+00  0.88374263527E+02  0.80386349271E+02 0.  0.
         11    1    3    3    0    0 -0.60168989731E+02 -0.94340949319E+00 -0.12808636714E+02  0.61524454662E+02  0.51100000000E-03 0.  1.
         22    1    1    0    0    0  0.36538132534E+02  0.35909713437E+01  0.33926463039E+00  0.36715736473E+02  0.00000000000E+00 0.  1.
</event>
<event>
 5    1  0.1044283E-009  0.9118800E+02  0.7815553E-02  0.1125453E+00
         25   -1    0    0    0    0  0.00000000000E+00  0.00000000000E+00  0.99999998245E-14  0.12509000000E+03  0.12509000000E+03 0.  0.
        -11    1    3    3    0    0 -0.31614501636E+02  0.18240623104E+02  0.26456856518E+02  0.45079510889E+02  0.51100000000E-03 0. -1.
         23    2    1    0    0    0  0.73316498984E+01 -0.12979632689E+02  0.26142975924E+02  0.94995496430E+02  0.90102526029E+02 0.  0.
         11    1    3    3    0    0  0.38946151535E+02 -0.31220255793E+02 -0.31388059362E+00  0.49915985540E+02  0.51100000000E-03 0.  1.
         22    1    1    0    0    0 -0.73316498984E+01  0.12979632689E+02 -0.26142975924E+02  0.30094503570E+02  0.00000000000E+00 0.  1.
</event>
<event>
 5    1  0.1044283E-009  0.9118800E+02  0.7815553E-02  0.1125453E+00
         25   -1    0    0    0    0  0.00000000000E+00  0.00000000000E+00  0.99999998245E-14  0.12509000000E+03  0.12509000000E+03 0.  0.
        -11    1    3    3    0    0 -0.19572678547E+02 -0.54657661371E+01  0.47902430357E+02  0.52034672857E+02  0.51100000000E-03 0. -1.
         23    2    1    0    0    0 -0.83707174022E+01  0.22830643482E+02  0.16905413151E+02  0.95474122748E+02  0.90764574196E+02 0.  0.
         11    1    3    3    0    0  0.11201961145E+02  0.28296409619E+02 -0.30997017207E+02  0.43439449890E+02  0.51100000000E-03 0.  1.
         22    1    1    0    0    0  0.83707174022E+01 -0.22830643482E+02 -0.16905413151E+02  0.29615877252E+02  0.00000000000E+00 0.  1.
</event>
<event>
 5    1  0.1044283E-009  0.9118800E+02  0.7815553E-02  0.1125453E+00
         25   -1    0    0    0    0  0.00000000000E+00  0.00000000000E+00  0.99999998245E-14  0.12509000000E+03  0.12509000000E+03 0.  0.
        -11    1    3    3    0    0 -0.54605997181E+02 -0.15532176880E+02 -0.25727031297E+02  0.62329315626E+02  0.51100000000E-03 0. -1.
         23    2    1    0    0    0 -0.26540281840E+02 -0.44104586718E+01 -0.14409002028E+02  0.94570202404E+02  0.89510139858E+02 0.  0.
         11    1    3    3    0    0  0.28065715340E+02  0.11121718208E+02  0.11318029269E+02  0.32240886778E+02  0.51100000000E-03 0.  1.
         22    1    1    0    0    0  0.26540281840E+02  0.44104586718E+01  0.14409002028E+02  0.30519797596E+02  0.00000000000E+00 0. -1.
</event>
<event>
 5    1  0.1044283E-009  0.9118800E+02  0.7815553E-02  0.1125453E+00
         25   -1    0    0    0    0  0.00000000000E+00  0.00000000000E+00  0.99999998245E-14  0.12509000000E+03  0.12509000000E+03 0.  0.
        -11    1    3    3    0    0 -0.37450325042E+02 -0.44193775027E+02 -0.65207849127E+01  0.58293543665E+02  0.51100000000E-03 0. -1.
         23    2    1    0    0    0 -0.18526070884E+02 -0.20594398775E+02  0.13200736271E+02  0.94404433337E+02  0.89278177806E+02 0.  0.
         11    1    3    3    0    0  0.18924254158E+02  0.23599376251E+02  0.19721521183E+02  0.36110889672E+02  0.51100000000E-03 0.  1.
         22    1    1    0    0    0  0.18526070884E+02  0.20594398775E+02 -0.13200736271E+02  0.30685566663E+02  0.00000000000E+00 0. -1.
</event>
<event>
 5    1  0.1044283E-009  0.9118800E+02  0.7815553E-02  0.1125453E+00
         25   -1    0    0    0    0  0.00000000000E+00  0.00000000000E+00  0.99999998245E-14  0.12509000000E+03  0.12509000000E+03 0.  0.
        -11    1    3    3    0    0 -0.36052355041E-01 -0.35829288668E+02 -0.82350654456E+01  0.36763508121E+02  0.51100000000E-03 0.  1.
         23    2    1    0    0    0 -0.22676847653E+02  0.15494771626E+02  0.10171209925E+02  0.95802103549E+02  0.91215471088E+02 0.  0.
         11    1    3    3    0    0 -0.22640795298E+02  0.51324060293E+02  0.18406275371E+02  0.59038595427E+02  0.51100000000E-03 0. -1.
         22    1    1    0    0    0  0.22676847653E+02 -0.15494771626E+02 -0.10171209925E+02  0.29287896451E+02  0.00000000000E+00 0. -1.
</event>
<event>
 5    1  0.1044283E-009  0.9118800E+02  0.7815553E-02  0.1125453E+00
         25   -1    0    0    0    0  0.00000000000E+00  0.00000000000E+00  0.99999998245E-14  0.12509000000E+03  0.12509000000E+03 0.  0.
        -11    1    3    3    0    0 -0.19617771560E+02 -0.31701151405E+02  0.70187849210E+01  0.37935251461E+02  0.51100000000E-03 0. -1.
         23    2    1    0    0    0  0.73020515481E+01  0.18133274921E+02  0.21127196383E+02  0.96306427547E+02  0.91904482718E+02 0.  0.
         11    1    3    3    0    0  0.26919823108E+02  0.49834426326E+02  0.14108411462E+02  0.58371176086E+02  0.51100000000E-03 0.  1.
         22    1    1    0    0    0 -0.73020515481E+01 -0.18133274921E+02 -0.21127196383E+02  0.28783572453E+02  0.00000000000E+00 0.  1.
</event>
<event>
 5    1  0.1044283E-009  0.9118800E+02  0.7815553E-02  0.1125453E+00
         25   -1    0    0    0    0  0.00000000000E+00  0.00000000000E+00  0.99999998245E-14  0.12509000000E+03  0.12509000000E+03 0.  0.
        -11    1    3    3    0    0 -0.26647342200E+02 -0.82419836463E+00  0.21358697426E+02  0.34160709965E+02  0.51100000000E-03 0.  1.
         23    2    1    0    0    0  0.22555969805E+02  0.13522296063E+02 -0.12889265303E+02  0.95802503953E+02  0.91216020188E+02 0.  0.
         11    1    3    3    0    0  0.49203312005E+02  0.14346494427E+02 -0.34247962730E+02  0.61641793988E+02  0.51100000000E-03 0. -1.
         22    1    1    0    0    0 -0.22555969805E+02 -0.13522296063E+02  0.12889265303E+02  0.29287496047E+02  0.00000000000E+00 0. -1.
</event>
<event>
 5    1  0.1044283E-009  0.9118800E+02  0.7815553E-02  0.1125453E+00
         25   -1    0    0    0    0  0.00000000000E+00  0.00000000000E+00  0.99999998245E-14  0.12509000000E+03  0.12509000000E+03 0.  0.
        -11    1    3    3    0    0 -0.42374458160E+02 -0.25210557692E+02  0.26492166366E+02  0.55973223979E+02  0.51100000000E-03 0. -1.
         23    2    1    0    0    0 -0.12708771618E+02 -0.19563853444E+02  0.30773044168E+02  0.86473455813E+02  0.77371965693E+02 0.  0.
         11    1    3    3    0    0  0.29665686543E+02  0.56467042473E+01  0.42808778012E+01  0.30500231834E+02  0.51100000000E-03 0.  1.
         22    1    1    0    0    0  0.12708771618E+02  0.19563853444E+02 -0.30773044168E+02  0.38616544187E+02  0.00000000000E+00 0. -1.
</event>
<event>
 5    1  0.1044283E-009  0.9118800E+02  0.7815553E-02  0.1125453E+00
         25   -1    0    0    0    0  0.00000000000E+00  0.00000000000E+00  0.99999998245E-14  0.12509000000E+03  0.12509000000E+03 0.  0.
        -11    1    3    3    0    0  0.55658277930E+02 -0.11693234946E+02 -0.21998380297E+02  0.60979540680E+02  0.51100000000E-03 0. -1.
         23    2    1    0    0    0  0.26417392628E+02  0.39885337328E+01 -0.13110139130E+02  0.95329912926E+02  0.90565608903E+02 0.  0.
         11    1    3    3    0    0 -0.29240885302E+02  0.15681768679E+02  0.88882411668E+01  0.34350372246E+02  0.51100000000E-03 0.  1.
         22    1    1    0    0    0 -0.26417392628E+02 -0.39885337328E+01  0.13110139130E+02  0.29760087074E+02  0.00000000000E+00 0. -1.
</event>
<event>
 5    1  0.1044283E-009  0.9118800E+02  0.7815553E-02  0.1125453E+00
         25   -1    0    0    0    0  0.00000000000E+00  0.00000000000E+00  0.99999998245E-14  0.12509000000E+03  0.12509000000E+03 0.  0.
        -11    1    3    3    0    0 -0.24270085126E+02  0.65664116718E+01 -0.30331057614E+02  0.39397053831E+02  0.51100000000E-03 0.  1.
         23    2    1    0    0    0  0.27684268586E+02  0.26733099196E+01 -0.74753096772E+01  0.96289903337E+02  0.91881989077E+02 0.  0.
         11    1    3    3    0    0  0.51954353712E+02 -0.38931017522E+01  0.22855747937E+02  0.56892849506E+02  0.51100000000E-03 0. -1.
         22    1    1    0    0    0 -0.27684268586E+02 -0.26733099196E+01  0.74753096772E+01  0.28800096663E+02  0.00000000000E+00 0. -1.
</event>
<event>
 5    1  0.1044283E-009  0.9118800E+02  0.7815553E-02  0.1125453E+00
         25   -1    0    0    0    0  0.00000000000E+00  0.00000000000E+00  0.99999998245E-14  0.12509000000E+03  0.12509000000E+03 0.  0.
        -11    1    3    3    0    0  0.20225825609E+02  0.12396933482E+02 -0.27188335215E+02  0.36082870636E+02  0.51100000000E-03 0. -1.
         23    2    1    0    0    0 -0.23693753613E+02  0.14084617583E+02  0.12055216820E+02  0.95005142259E+02  0.90115916410E+02 0.  0.
         11    1    3    3    0    0 -0.43919579222E+02  0.16876841010E+01  0.39243552034E+02  0.58922271623E+02  0.51100000000E-03 0.  1.
         22    1    1    0    0    0  0.23693753613E+02 -0.14084617583E+02 -0.12055216820E+02  0.30084857741E+02  0.00000000000E+00 0.  1.
</event>
<event>
 5    1  0.1044283E-009  0.9118800E+02  0.7815553E-02  0.1125453E+00
         25   -1    0    0    0    0  0.00000000000E+00  0.00000000000E+00  0.99999998245E-14  0.12509000000E+03  0.12509000000E+03 0.  0.
        -11    1    3    3    0    0  0.28695422961E+02 -0.43418452351E+02 -0.29221393987E+02  0.59686507439E+02  0.51100000000E-03 0.  1.
         23    2    1    0    0    0  0.14871819421E+02 -0.11501441009E+02 -0.23595325828E+02  0.94920585702E+02  0.89998466825E+02 0.  0.
         11    1    3    3    0    0 -0.13823603541E+02  0.31917011342E+02  0.56260681592E+01  0.35234078263E+02  0.51100000000E-03 0. -1.
         22    1    1    0    0    0 -0.14871819421E+02  0.11501441009E+02  0.23595325828E+02  0.30169414298E+02  0.00000000000E+00 0.  1.
</event>
<event>
 5    1  0.1044283E-009  0.9118800E+02  0.7815553E-02  0.1125453E+00
         25   -1    0    0    0    0  0.00000000000E+00  0.00000000000E+00  0.99999998245E-14  0.12509000000E+03  0.12509000000E+03 0.  0.
        -11    1    3    3    0    0 -0.39481812620E+02 -0.45921064186E+02  0.13188459771E+02  0.61979780050E+02  0.51100000000E-03 0. -1.
         23    2    1    0    0    0 -0.22612575368E+02 -0.19165765361E+02  0.26015464636E+01  0.95333938926E+02  0.90571169477E+02 0.  0.
         11    1    3    3    0    0  0.16869237252E+02  0.26755298825E+02 -0.10586913307E+02  0.33354158876E+02  0.51100000000E-03 0.  1.
         22    1    1    0    0    0  0.22612575368E+02  0.19165765361E+02 -0.26015464636E+01  0.29756061074E+02  0.00000000000E+00 0. -1.
</event>
<event>
 5    1  0.1044283E-009  0.9118800E+02  0.7815553E-02  0.1125453E+00
         25   -1    0    0    0    0  0.00000000000E+00  0.00000000000E+00  0.99999998245E-14  0.12509000000E+03  0.12509000000E+03 0.  0.
        -11    1    3    3    0    0 -0.48128736371E+02  0.12994079169E+02  0.16464313261E+02  0.52500428280E+02  0.51100000000E-03 0. -1.
         23    2    1    0    0    0 -0.78963661785E+01  0.11273164782E+02  0.27572102666E+02  0.94273483512E+02  0.89094511643E+02 0.  0.
         11    1    3    3    0    0  0.40232370193E+02 -0.17209143871E+01  0.11107789406E+02  0.41773055232E+02  0.51100000000E-03 0.  1.
         22    1    1    0    0    0  0.78963661785E+01 -0.11273164782E+02 -0.27572102666E+02  0.30816516488E+02  0.00000000000E+00 0. -1.
</event>
<event>
 5    1  0.1044283E-009  0.9118800E+02  0.7815553E-02  0.1125453E+00
         25   -1    0    0    0    0  0.00000000000E+00  0.00000000000E+00  0.99999998245E-14  0.12509000000E+03  0.12509000000E+03 0.  0.
        -11    1    3    3    0    0 -0.34883172058E+02  0.11234753981E+01  0.22635031019E+02  0.41598587948E+02  0.51100000000E-03 0.  1.
         23    2    1    0    0    0 -0.35020901504E+01  0.25113158479E+02 -0.14556561279E+02  0.95852543878E+02  0.91284617145E+02 0.  0.
         11    1    3    3    0    0  0.31381081908E+02  0.23989683081E+02 -0.37191592299E+02  0.54253955929E+02  0.51100000000E-03 0. -1.
         22    1    1    0    0    0  0.35020901504E+01 -0.25113158479E+02  0.14556561279E+02  0.29237456122E+02  0.00000000000E+00 0. -1.
</event>
<event>
 5    1  0.1044283E-009  0.9118800E+02  0.7815553E-02  0.1125453E+00
         25   -1    0    0    0    0  0.00000000000E+00  0.00000000000E+00  0.99999998245E-14  0.12509000000E+03  0.12509000000E+03 0.  0.
        -11    1    3    3    0    0  0.15180178032E+02  0.91561602687E+01  0.30473946344E+02  0.35255275945E+02  0.51100000000E-03 0. -1.
         23    2    1    0    0    0 -0.23976309943E+02  0.43474043637E+01 -0.15788621304E+02  0.96054781285E+02  0.91561329620E+02 0.  0.
         11    1    3    3    0    0 -0.39156487975E+02 -0.48087559050E+01 -0.46262567648E+02  0.60799505339E+02  0.51100000000E-03 0.  1.
         22    1    1    0    0    0  0.23976309943E+02 -0.43474043637E+01  0.15788621304E+02  0.29035218715E+02  0.00000000000E+00 0.  1.
</event>
<event>
 5    1  0.1044283E-009  0.9118800E+02  0.7815553E-02  0.1125453E+00
         25   -1    0    0    0    0  0.00000000000E+00  0.00000000000E+00  0.99999998245E-14  0.12509000000E+03  0.12509000000E+03 0.  0.
        -11    1    3    3    0    0 -0.46313196805E+02 -0.12509034428E+02  0.30358994066E+02  0.56771970739E+02  0.51100000000E-03 0.  1.
         23    2    1    0    0    0 -0.42848729809E+02 -0.82435056631E+01  0.68421475507E+01  0.80922319339E+02  0.67805882873E+02 0.  0.
         11    1    3    3    0    0  0.34644669957E+01  0.42655287649E+01 -0.23516846515E+02  0.24150348600E+02  0.51100000000E-03 0. -1.
         22    1    1    0    0    0  0.42848729809E+02  0.82435056631E+01 -0.68421475507E+01  0.44167680661E+02  0.00000000000E+00 0.  1.
</event>
<event>
 5    1  0.1044283E-009  0.9118800E+02  0.7815553E-02  0.1125453E+00
         25   -1    0    0    0    0  0.00000000000E+00  0.00000000000E+00  0.99999998245E-14  0.12509000000E+03  0.12509000000E+03 0.  0.
        -11    1    3    3    0    0 -0.13173809474E+02 -0.87824533143E+01 -0.22550341400E+02  0.27553559476E+02  0.51100000000E-03 0. -1.
         23    2    1    0    0    0  0.31753820798E+02  0.64540265198E+01  0.16249904440E+02  0.88840600172E+02  0.81108774192E+02 0.  0.
         11    1    3    3    0    0  0.44927630272E+02  0.15236479834E+02  0.38800245841E+02  0.61287040695E+02  0.51100000000E-03 0.  1.
         22    1    1    0    0    0 -0.31753820798E+02 -0.64540265198E+01 -0.16249904440E+02  0.36249399828E+02  0.00000000000E+00 0.  1.
</event>
<event>
 5    1  0.1044283E-009  0.9118800E+02  0.7815553E-02  0.1125453E+00
         25   -1    0    0    0    0  0.00000000000E+00  0.00000000000E+00  0.99999998245E-14  0.12509000000E+03  0.12509000000E+03 0.  0.
        -11    1    3    3    0    0 -0.15428453265E+02  0.39269149660E+02 -0.15835717420E+02  0.45065210879E+02  0.51100000000E-03 0.  1.
         23    2    1    0    0    0 -0.13860789383E+02 -0.12019908257E+02 -0.21655963802E+02  0.96707250926E+02  0.92448428525E+02 0.  0.
         11    1    3    3    0    0  0.15676638825E+01 -0.51289057916E+02 -0.58202463821E+01  0.51642040047E+02  0.51100000000E-03 0. -1.
         22    1    1    0    0    0  0.13860789383E+02  0.12019908257E+02  0.21655963802E+02  0.28382749074E+02  0.00000000000E+00 0. -1.
</event>
<event>
 5    1  0.1044283E-009  0.9118800E+02  0.7815553E-02  0.1125453E+00
         25   -1    0    0    0    0  0.00000000000E+00  0.00000000000E+00  0.99999998245E-14  0.12509000000E+03  0.12509000000E+03 0.  0.
        -11    1    3    3    0    0 -0.21941928864E+02  0.14116120464E+02 -0.21934494849E+02  0.34085703217E+02  0.51100000000E-03 0.  1.
         23    2    1    0    0    0  0.97547372728E+01 -0.19256842950E+01  0.28005336974E+02  0.95371957361E+02  0.90623662432E+02 0.  0.
         11    1    3    3    0    0  0.31696666137E+02 -0.16041804759E+02  0.49939831823E+02  0.61286254144E+02  0.51100000000E-03 0. -1.
         22    1    1    0    0    0 -0.97547372728E+01  0.19256842950E+01 -0.28005336974E+02  0.29718042639E+02  0.00000000000E+00 0. -1.
</event>
<event>
 5    1  0.1044283E-009  0.9118800E+02  0.7815553E-02  0.1125453E+00
         25   -1    0    0    0    0  0.00000000000E+00  0.00000000000E+00  0.99999998245E-14  0.12509000000E+03  0.12509000000E+03 0.  0.
        -11    1    3    3    0    0 -0.54018310545E+01 -0.36600195804E+02  0.67267598001E+01  0.37603236687E+02  0.51100000000E-03 0. -1.
         23    2    1    0    0    0  0.33000923724E+01  0.20251378996E+02  0.19791211903E+02  0.96582088300E+02  0.92278918237E+02 0.  0.
         11    1    3    3    0    0  0.87019234269E+01  0.56851574800E+02  0.13064452103E+02  0.58978851613E+02  0.51100000000E-03 0.  1.
         22    1    1    0    0    0 -0.33000923724E+01 -0.20251378996E+02 -0.19791211903E+02  0.28507911700E+02  0.00000000000E+00 0.  1.
</event>
<event>
 5    1  0.1044283E-009  0.9118800E+02  0.7815553E-02  0.1125453E+00
         25   -1    0    0    0    0  0.00000000000E+00  0.00000000000E+00  0.99999998245E-14  0.12509000000E+03  0.12509000000E+03 0.  0.
        -11    1    3    3    0    0 -0.50398526096E+02  0.71635825329E+01 -0.21038114321E+02  0.55081127455E+02  0.51100000000E-03 0. -1.
         23    2    1    0    0    0 -0.96708562995E+01  0.20047841452E+01 -0.26792075247E+02  0.96535492176E+02  0.92215732566E+02 0.  0.
         11    1    3    3    0    0  0.40727669796E+02 -0.51587983876E+01 -0.57539609261E+01  0.41454364721E+02  0.51100000000E-03 0.  1.
         22    1    1    0    0    0  0.96708562995E+01 -0.20047841452E+01  0.26792075247E+02  0.28554507824E+02  0.00000000000E+00 0. -1.
</event>
<event>
 5    1  0.1044283E-009  0.9118800E+02  0.7815553E-02  0.1125453E+00
         25   -1    0    0    0    0  0.00000000000E+00  0.00000000000E+00  0.99999998245E-14  0.12509000000E+03  0.12509000000E+03 0.  0.
        -11    1    3    3    0    0 -0.15002836509E+02  0.67569235602E+01 -0.34888795270E+02  0.38574203232E+02  0.51100000000E-03 0.  1.
         23    2    1    0    0    0  0.26355974337E+02 -0.10860802220E+02  0.16947902830E+01  0.96533622039E+02  0.92213195703E+02 0.  0.
         11    1    3    3    0    0  0.41358810846E+02 -0.17617725781E+02  0.36583585553E+02  0.57959418807E+02  0.51100000000E-03 0. -1.
         22    1    1    0    0    0 -0.26355974337E+02  0.10860802220E+02 -0.16947902830E+01  0.28556377961E+02  0.00000000000E+00 0. -1.
</event>
<event>
 5    1  0.1044283E-009  0.9118800E+02  0.7815553E-02  0.1125453E+00
         25   -1    0    0    0    0  0.00000000000E+00  0.00000000000E+00  0.99999998245E-14  0.12509000000E+03  0.12509000000E+03 0.  0.
        -11    1    3    3    0    0  0.67520172480E+01  0.37008691935E+02 -0.21874694152E+01  0.37683126706E+02  0.51100000000E-03 0.  1.
         23    2    1    0    0    0  0.14781285624E+02 -0.20448030643E+02 -0.13014977691E+02  0.96699895982E+02  0.92438476170E+02 0.  0.
         11    1    3    3    0    0  0.80292683759E+01 -0.57456722578E+02 -0.10827508276E+02  0.59016769276E+02  0.51100000000E-03 0. -1.
         22    1    1    0    0    0 -0.14781285624E+02  0.20448030643E+02  0.13014977691E+02  0.28390104018E+02  0.00000000000E+00 0. -1.
</event>
<event>
 5    1  0.1044283E-009  0.9118800E+02  0.7815553E-02  0.1125453E+00
         25   -1    0    0    0    0  0.00000000000E+00  0.00000000000E+00  0.99999998245E-14  0.12509000000E+03  0.12509000000E+03 0.  0.
        -11    1    3    3    0    0  0.28430624367E+02 -0.21586019067E+02 -0.36328321975E+02  0.50931361643E+02  0.51100000000E-03 0. -1.
         23    2    1    0    0    0 -0.10740743269E+02 -0.25295485807E+01 -0.27610749060E+02  0.95355917777E+02  0.90601519907E+02 0.  0.
         11    1    3    3    0    0 -0.39171367637E+02  0.19056470486E+02  0.87175729151E+01  0.44424556134E+02  0.51100000000E-03 0.  1.
         22    1    1    0    0    0  0.10740743269E+02  0.25295485807E+01  0.27610749060E+02  0.29734082223E+02  0.00000000000E+00 0. -1.
</event>
<event>
 5    1  0.1044283E-009  0.9118800E+02  0.7815553E-02  0.1125453E+00
         25   -1    0    0    0    0  0.00000000000E+00  0.00000000000E+00  0.99999998245E-14  0.12509000000E+03  0.12509000000E+03 0.  0.
        -11    1    3    3    0    0 -0.27248742308E+02  0.30266526792E+02 -0.16545746609E+02  0.43958142961E+02  0.51100000000E-03 0. -1.
         23    2    1    0    0    0 -0.52731538333E+01  0.10798015584E+02  0.26459683299E+02  0.96029405853E+02  0.91526655442E+02 0.  0.
         11    1    3    3    0    0  0.21975588475E+02 -0.19468511208E+02  0.43005429907E+02  0.52071262893E+02  0.51100000000E-03 0.  1.
         22    1    1    0    0    0  0.52731538333E+01 -0.10798015584E+02 -0.26459683299E+02  0.29060594147E+02  0.00000000000E+00 0.  1.
</event>
<event>
 5    1  0.1044283E-009  0.9118800E+02  0.7815553E-02  0.1125453E+00
         25   -1    0    0    0    0  0.00000000000E+00  0.00000000000E+00  0.99999998245E-14  0.12509000000E+03  0.12509000000E+03 0.  0.
        -11    1    3    3    0    0  0.18453387814E+02  0.38336363825E+02 -0.36386418643E+02  0.55983709908E+02  0.51100000000E-03 0.  1.
         23    2    1    0    0    0 -0.64276466977E+01  0.27732971394E+02 -0.73017332050E+01  0.95700415923E+02  0.91075913148E+02 0.  0.
         11    1    3    3    0    0 -0.24881034511E+02 -0.10603392431E+02  0.29084685438E+02  0.39716706015E+02  0.51100000000E-03 0. -1.
         22    1    1    0    0    0  0.64276466977E+01 -0.27732971394E+02  0.73017332050E+01  0.29389584077E+02  0.00000000000E+00 0.  1.
</event>
<event>
 5    1  0.1044283E-009  0.9118800E+02  0.7815553E-02  0.1125453E+00
         25   -1    0    0    0    0  0.00000000000E+00  0.00000000000E+00  0.99999998245E-14  0.12509000000E+03  0.12509000000E+03 0.  0.
        -11    1    3    3    0    0  0.12715237460E+02 -0.16124757180E+02  0.26473474484E+02  0.33504177490E+02  0.51100000000E-03 0.  1.
         23    2    1    0    0    0 -0.23960782255E+02  0.17656794502E+02 -0.81755142894E+01  0.94223828999E+02  0.89024768683E+02 0.  0.
         11    1    3    3    0    0 -0.36676019714E+02  0.33781551683E+02 -0.34648988773E+02  0.60719651509E+02  0.51100000000E-03 0. -1.
         22    1    1    0    0    0  0.23960782255E+02 -0.17656794502E+02  0.81755142894E+01  0.30866171001E+02  0.00000000000E+00 0. -1.
</event>
<event>
 5    1  0.1044283E-009  0.9118800E+02  0.7815553E-02  0.1125453E+00
         25   -1    0    0    0    0  0.00000000000E+00  0.00000000000E+00  0.99999998245E-14  0.12509000000E+03  0.12509000000E+03 0.  0.
        -11    1    3    3    0    0 -0.39222687407E+02  0.18513523583E+02  0.40865618709E+02  0.59591681933E+02  0.51100000000E-03 0. -1.
         23    2    1    0    0    0 -0.24635602765E+02  0.88047141604E+01  0.65522784472E+01  0.98120234189E+02  0.94340935386E+02 0.  0.
         11    1    3    3    0    0  0.14587084642E+02 -0.97088094225E+01 -0.34313340262E+02  0.38528552256E+02  0.51100000000E-03 0.  1.
         22    1    1    0    0    0  0.24635602765E+02 -0.88047141604E+01 -0.65522784472E+01  0.26969765811E+02  0.00000000000E+00 0. -1.
</event>
<event>
 5    1  0.1044283E-009  0.9118800E+02  0.7815553E-02  0.1125453E+00
         25   -1    0    0    0    0  0.00000000000E+00  0.00000000000E+00  0.99999998245E-14  0.12509000000E+03  0.12509000000E+03 0.  0.
        -11    1    3    3    0    0 -0.17208537554E+02  0.38956093576E+02  0.56874139839E+01  0.42965773234E+02  0.51100000000E-03 0. -1.
         23    2    1    0    0    0 -0.16249953799E+02 -0.12152162274E+01 -0.26181184256E+02  0.94251839257E+02  0.89064117609E+02 0.  0.
         11    1    3    3    0    0  0.95858375514E+00 -0.40171309804E+02 -0.31868598240E+02  0.51286066024E+02  0.51100000000E-03 0.  1.
         22    1    1    0    0    0  0.16249953799E+02  0.12152162274E+01  0.26181184256E+02  0.30838160743E+02  0.00000000000E+00 0. -1.
</event>
<event>
 5    1  0.1044283E-009  0.9118800E+02  0.7815553E-02  0.1125453E+00
         25   -1    0    0    0    0  0.00000000000E+00  0.00000000000E+00  0.99999998245E-14  0.12509000000E+03  0.12509000000E+03 0.  0.
        -11    1    3    3    0    0 -0.98943900201E+01  0.70588531861E+01  0.36956177257E+02  0.38903539684E+02  0.51100000000E-03 0.  1.
         23    2    1    0    0    0  0.45897072414E+01 -0.28598998588E+02 -0.48430423611E+01  0.95722957382E+02  0.91106867896E+02 0.  0.
         11    1    3    3    0    0  0.14484097262E+02 -0.35657851774E+02 -0.41799219618E+02  0.56819417699E+02  0.51100000000E-03 0. -1.
         22    1    1    0    0    0 -0.45897072414E+01  0.28598998588E+02  0.48430423611E+01  0.29367042618E+02  0.00000000000E+00 0. -1.
</event>
<event>
 5    1  0.1044283E-009  0.9118800E+02  0.7815553E-02  0.1125453E+00
         25   -1    0    0    0    0  0.00000000000E+00  0.00000000000E+00  0.99999998245E-14  0.12509000000E+03  0.12509000000E+03 0.  0.
        -11    1    3    3    0    0  0.45108707367E+02 -0.10743109940E+02 -0.23954733868E+01  0.46432189099E+02  0.51100000000E-03 0.  1.
         23    2    1    0    0    0 -0.89890866473E+00 -0.29078365258E+02 -0.11885794015E+01  0.95973474042E+02  0.91450181169E+02 0.  0.
         11    1    3    3    0    0 -0.46007616032E+02 -0.18335255317E+02  0.12068939853E+01  0.49541284943E+02  0.51100000000E-03 0. -1.
         22    1    1    0    0    0  0.89890866473E+00  0.29078365258E+02  0.11885794015E+01  0.29116525958E+02  0.00000000000E+00 0.  1.
</event>
<event>
 5    1  0.1044283E-009  0.9118800E+02  0.7815553E-02  0.1125453E+00
         25   -1    0    0    0    0  0.00000000000E+00  0.00000000000E+00  0.99999998245E-14  0.12509000000E+03  0.12509000000E+03 0.  0.
        -11    1    3    3    0    0 -0.16967617029E+02 -0.29374675661E+02 -0.17884391096E+02  0.38348703276E+02  0.51100000000E-03 0.  1.
         23    2    1    0    0    0  0.57558572667E+01  0.22823512954E+02 -0.18291886318E+02  0.95280006013E+02  0.90496650791E+02 0.  0.
         11    1    3    3    0    0  0.22723474296E+02  0.52198188615E+02 -0.40749522192E+00  0.56931302737E+02  0.51100000000E-03 0. -1.
         22    1    1    0    0    0 -0.57558572667E+01 -0.22823512954E+02  0.18291886318E+02  0.29809993987E+02  0.00000000000E+00 0. -1.
</event>
<event>
 5    1  0.1044283E-009  0.9118800E+02  0.7815553E-02  0.1125453E+00
         25   -1    0    0    0    0  0.00000000000E+00  0.00000000000E+00  0.99999998245E-14  0.12509000000E+03  0.12509000000E+03 0.  0.
        -11    1    3    3    0    0 -0.73689916942E+01 -0.27354116072E+02  0.18335877544E+02  0.33745430953E+02  0.51100000000E-03 0.  1.
         23    2    1    0    0    0  0.81198418976E+01  0.29480058197E+02  0.64159238994E+01  0.93846284741E+02  0.88492685666E+02 0.  0.
         11    1    3    3    0    0  0.15488833592E+02  0.56834174269E+02 -0.11919953644E+02  0.60100853787E+02  0.51100000000E-03 0. -1.
         22    1    1    0    0    0 -0.81198418976E+01 -0.29480058197E+02 -0.64159238994E+01  0.31243715259E+02  0.00000000000E+00 0. -1.
</event>
<event>
 5    1  0.1044283E-009  0.9118800E+02  0.7815553E-02  0.1125453E+00
         25   -1    0    0    0    0  0.00000000000E+00  0.00000000000E+00  0.99999998245E-14  0.12509000000E+03  0.12509000000E+03 0.  0.
        -11    1    3    3    0    0  0.31321541512E+02  0.21101672434E+01 -0.38174728853E+02  0.49424707300E+02  0.51100000000E-03 0. -1.
         23    2    1    0    0    0 -0.48950360483E+01 -0.20631309936E+02 -0.20170001332E+02  0.95824981952E+02  0.91246840410E+02 0.  0.
         11    1    3    3    0    0 -0.36216577560E+02 -0.22741477179E+02  0.18004727520E+02  0.46400274652E+02  0.51100000000E-03 0.  1.
         22    1    1    0    0    0  0.48950360483E+01  0.20631309936E+02  0.20170001332E+02  0.29265018048E+02  0.00000000000E+00 0.  1.
</event>
<event>
 5    1  0.1044283E-009  0.9118800E+02  0.7815553E-02  0.1125453E+00
         25   -1    0    0    0    0  0.00000000000E+00  0.00000000000E+00  0.99999998245E-14  0.12509000000E+03  0.12509000000E+03 0.  0.
        -11    1    3    3    0    0 -0.12379776567E+02  0.72851554620E+01  0.33191324314E+02  0.36166232427E+02  0.51100000000E-03 0. -1.
         23    2    1    0    0    0  0.24672256326E+02 -0.20193108942E+02 -0.35848161988E+00  0.93205671717E+02  0.87582457435E+02 0.  0.
         11    1    3    3    0    0  0.37052032893E+02 -0.27478264404E+02 -0.33549805934E+02  0.57039439291E+02  0.51100000000E-03 0.  1.
         22    1    1    0    0    0 -0.24672256326E+02  0.20193108942E+02  0.35848161988E+00  0.31884328283E+02  0.00000000000E+00 0.  1.
</event>
<event>
 5    1  0.1044283E-009  0.9118800E+02  0.7815553E-02  0.1125453E+00
         25   -1    0    0    0    0  0.00000000000E+00  0.00000000000E+00  0.99999998245E-14  0.12509000000E+03  0.12509000000E+03 0.  0.
        -11    1    3    3    0    0 -0.37339077636E+02  0.11099076484E+01 -0.10446065009E+02  0.38788643804E+02  0.51100000000E-03 0. -1.
         23    2    1    0    0    0 -0.51468407111E+00 -0.25271555920E+02 -0.27998488548E+02  0.87369557276E+02  0.78807409166E+02 0.  0.
         11    1    3    3    0    0  0.36824393565E+02 -0.26381463568E+02 -0.17552423539E+02  0.48580913472E+02  0.51100000000E-03 0.  1.
         22    1    1    0    0    0  0.51468407111E+00  0.25271555920E+02  0.27998488548E+02  0.37720442724E+02  0.00000000000E+00 0.  1.
</event>
<event>
 5    1  0.1044283E-009  0.9118800E+02  0.7815553E-02  0.1125453E+00
         25   -1    0    0    0    0  0.00000000000E+00  0.00000000000E+00  0.99999998245E-14  0.12509000000E+03  0.12509000000E+03 0.  0.
        -11    1    3    3    0    0 -0.79366593023E+01 -0.59636619100E+02  0.13853278800E+02  0.61736781843E+02  0.51100000000E-03 0. -1.
         23    2    1    0    0    0 -0.10654389239E+02 -0.26809280609E+02  0.54582534828E+01  0.95729378959E+02  0.91115684314E+02 0.  0.
         11    1    3    3    0    0 -0.27177299365E+01  0.32827338491E+02 -0.83950253176E+01  0.33992597117E+02  0.51100000000E-03 0.  1.
         22    1    1    0    0    0  0.10654389239E+02  0.26809280609E+02 -0.54582534828E+01  0.29360621041E+02  0.00000000000E+00 0. -1.
</event>
<event>
 5    1  0.1044283E-009  0.9118800E+02  0.7815553E-02  0.1125453E+00
         25   -1    0    0    0    0  0.00000000000E+00  0.00000000000E+00  0.99999998245E-14  0.12509000000E+03  0.12509000000E+03 0.  0.
        -11    1    3    3    0    0  0.11007552861E+02  0.44568011953E+02  0.27026941659E+02  0.53272220576E+02  0.51100000000E-03 0. -1.
         23    2    1    0    0    0  0.28422108982E+02  0.18557954189E+02  0.70023444477E+01  0.90430992939E+02  0.83525551262E+02 0.  0.
         11    1    3    3    0    0  0.17414556121E+02 -0.26010057764E+02 -0.20024597212E+02  0.37158772363E+02  0.51100000000E-03 0.  1.
         22    1    1    0    0    0 -0.28422108982E+02 -0.18557954189E+02 -0.70023444477E+01  0.34659007061E+02  0.00000000000E+00 0.  1.
</event>
<event>
 5    1  0.1044283E-009  0.9118800E+02  0.7815553E-02  0.1125453E+00
         25   -1    0    0    0    0  0.00000000000E+00  0.00000000000E+00  0.99999998245E-14  0.12509000000E+03  0.12509000000E+03 0.  0.
        -11    1    3    3    0    0 -0.40892116194E+00  0.33539609166E+02  0.26715477626E+02  0.42881107082E+02  0.51100000000E-03 0.  1.
         23    2    1    0    0    0  0.29029534024E+02 -0.12823267742E+01 -0.58327867012E+00  0.96026304061E+02  0.91522416107E+02 0.  0.
         11    1    3    3    0    0  0.29438455186E+02 -0.34821935940E+02 -0.27298756296E+02  0.53145196979E+02  0.51100000000E-03 0. -1.
         22    1    1    0    0    0 -0.29029534024E+02  0.12823267742E+01  0.58327867012E+00  0.29063695939E+02  0.00000000000E+00 0. -1.
</event>
<event>
 5    1  0.1044283E-009  0.9118800E+02  0.7815553E-02  0.1125453E+00
         25   -1    0    0    0    0  0.00000000000E+00  0.00000000000E+00  0.99999998245E-14  0.12509000000E+03  0.12509000000E+03 0.  0.
        -11    1    3    3    0    0  0.22857983138E+02 -0.55056036235E+02 -0.65992010948E+01  0.59976695261E+02  0.51100000000E-03 0.  1.
         23    2    1    0    0    0  0.16317996259E+01 -0.26236265196E+02 -0.12033275568E+02  0.96179723240E+02  0.91731865021E+02 0.  0.
         11    1    3    3    0    0 -0.21226183512E+02  0.28819771040E+02 -0.54340744729E+01  0.36203027979E+02  0.51100000000E-03 0. -1.
         22    1    1    0    0    0 -0.16317996259E+01  0.26236265196E+02  0.12033275568E+02  0.28910276760E+02  0.00000000000E+00 0.  1.
</event>
<event>
 5    1  0.1044283E-009  0.9118800E+02  0.7815553E-02  0.1125453E+00
         25   -1    0    0    0    0  0.00000000000E+00  0.00000000000E+00  0.99999998245E-14  0.12509000000E+03  0.12509000000E+03 0.  0.
        -11    1    3    3    0    0 -0.29491578788E+02 -0.42616826594E+02  0.14798746942E+02  0.53897588440E+02  0.51100000000E-03 0.  1.
         23    2    1    0    0    0 -0.62880909221E+01 -0.17308184888E+02  0.28740771144E+02  0.90955775569E+02  0.84307815959E+02 0.  0.
         11    1    3    3    0    0  0.23203487866E+02  0.25308641706E+02  0.13942024202E+02  0.37058187129E+02  0.51100000000E-03 0. -1.
         22    1    1    0    0    0  0.62880909221E+01  0.17308184888E+02 -0.28740771144E+02  0.34134224431E+02  0.00000000000E+00 0.  1.
</event>
<event>
 5    1  0.1044283E-009  0.9118800E+02  0.7815553E-02  0.1125453E+00
         25   -1    0    0    0    0  0.00000000000E+00  0.00000000000E+00  0.99999998245E-14  0.12509000000E+03  0.12509000000E+03 0.  0.
        -11    1    3    3    0    0  0.12487372114E+02  0.10520092976E+02  0.55369934914E+02  0.57727259689E+02  0.51100000000E-03 0. -1.
         23    2    1    0    0    0  0.13186299205E+02  0.18656060248E+02  0.17927025905E+02  0.96050280158E+02  0.91555180028E+02 0.  0.
         11    1    3    3    0    0  0.69892709114E+00  0.81359672723E+01 -0.37442909009E+02  0.38323020469E+02  0.51100000000E-03 0.  1.
         22    1    1    0    0    0 -0.13186299205E+02 -0.18656060248E+02 -0.17927025905E+02  0.29039719842E+02  0.00000000000E+00 0. -1.
</event>
<event>
 5    1  0.1044283E-009  0.9118800E+02  0.7815553E-02  0.1125453E+00
         25   -1    0    0    0    0  0.00000000000E+00  0.00000000000E+00  0.99999998245E-14  0.12509000000E+03  0.12509000000E+03 0.  0.
        -11    1    3    3    0    0 -0.16379318636E+02 -0.82288683692E+01  0.35775463106E+02  0.40198011323E+02  0.51100000000E-03 0.  1.
         23    2    1    0    0    0 -0.73671087117E+01 -0.23128406133E+02 -0.16791962480E+02  0.95574453843E+02  0.90902743427E+02 0.  0.
         11    1    3    3    0    0  0.90122099240E+01 -0.14899537763E+02 -0.52567425586E+02  0.55376442521E+02  0.51100000000E-03 0. -1.
         22    1    1    0    0    0  0.73671087117E+01  0.23128406133E+02  0.16791962480E+02  0.29515546157E+02  0.00000000000E+00 0. -1.
</event>
<event>
 5    1  0.1044283E-009  0.9118800E+02  0.7815553E-02  0.1125453E+00
         25   -1    0    0    0    0  0.00000000000E+00  0.00000000000E+00  0.99999998245E-14  0.12509000000E+03  0.12509000000E+03 0.  0.
        -11    1    3    3    0    0 -0.18171416205E+02  0.44909566206E+02 -0.78205061479E+01  0.49073718224E+02  0.51100000000E-03 0.  1.
         23    2    1    0    0    0 -0.22671468743E+02  0.30091729594E+02 -0.30554734963E+02  0.76581242918E+02  0.59258647076E+02 0.  0.
         11    1    3    3    0    0 -0.45000525374E+01 -0.14817836611E+02 -0.22734228816E+02  0.27507524694E+02  0.51100000000E-03 0. -1.
         22    1    1    0    0    0  0.22671468743E+02 -0.30091729594E+02  0.30554734963E+02  0.48508757082E+02  0.00000000000E+00 0.  1.
</event>
<event>
 5    1  0.1044283E-009  0.9118800E+02  0.7815553E-02  0.1125453E+00
         25   -1    0    0    0    0  0.00000000000E+00  0.00000000000E+00  0.99999998245E-14  0.12509000000E+03  0.12509000000E+03 0.  0.
        -11    1    3    3    0    0  0.37753977614E+02  0.26887008268E+02 -0.12669801659E+02  0.48049952275E+02  0.51100000000E-03 0. -1.
         23    2    1    0    0    0  0.21183460179E+02 -0.16094077013E+02 -0.15673642019E+02  0.94212478172E+02  0.89008818042E+02 0.  0.
         11    1    3    3    0    0 -0.16570517435E+02 -0.42981085282E+02 -0.30038403599E+01  0.46162525897E+02  0.51100000000E-03 0.  1.
         22    1    1    0    0    0 -0.21183460179E+02  0.16094077013E+02  0.15673642019E+02  0.30877521828E+02  0.00000000000E+00 0.  1.
</event>
<event>
 5    1  0.1044283E-009  0.9118800E+02  0.7815553E-02  0.1125453E+00
         25   -1    0    0    0    0  0.00000000000E+00  0.00000000000E+00  0.99999998245E-14  0.12509000000E+03  0.12509000000E+03 0.  0.
        -11    1    3    3    0    0 -0.14829784940E+02  0.49230245326E+02 -0.11088862157E+02  0.52597551658E+02  0.51100000000E-03 0.  1.
         23    2    1    0    0    0  0.18096557147E+02  0.24288622990E+02 -0.34398261462E+01  0.94606315983E+02  0.89560594196E+02 0.  0.
         11    1    3    3    0    0  0.32926342086E+02 -0.24941622336E+02  0.76490360110E+01  0.42008764325E+02  0.51100000000E-03 0. -1.
         22    1    1    0    0    0 -0.18096557147E+02 -0.24288622990E+02  0.34398261462E+01  0.30483684017E+02  0.00000000000E+00 0. -1.
</event>
<event>
 5    1  0.1044283E-009  0.9118800E+02  0.7815553E-02  0.1125453E+00
         25   -1    0    0    0    0  0.00000000000E+00  0.00000000000E+00  0.99999998245E-14  0.12509000000E+03  0.12509000000E+03 0.  0.
        -11    1    3    3    0    0  0.23372686942E+02 -0.45234291477E+02  0.27556579135E+02  0.57894634244E+02  0.51100000000E-03 0.  1.
         23    2    1    0    0    0  0.14208761767E+02 -0.98898859489E+01  0.25243155455E+02  0.94480922059E+02  0.89385283916E+02 0.  0.
         11    1    3    3    0    0 -0.91639251755E+01  0.35344405528E+02 -0.23134236800E+01  0.36586287816E+02  0.51100000000E-03 0. -1.
         22    1    1    0    0    0 -0.14208761767E+02  0.98898859489E+01 -0.25243155455E+02  0.30609077941E+02  0.00000000000E+00 0.  1.
</event>
<event>
 5    1  0.1044283E-009  0.9118800E+02  0.7815553E-02  0.1125453E+00
         25   -1    0    0    0    0  0.00000000000E+00  0.00000000000E+00  0.99999998245E-14  0.12509000000E+03  0.12509000000E+03 0.  0.
        -11    1    3    3    0    0  0.33602057230E+02 -0.39523467223E+02  0.30949748301E+02  0.60407695135E+02  0.51100000000E-03 0.  1.
         23    2    1    0    0    0  0.11741050758E+02 -0.26218291769E+02  0.68571013087E+01  0.95555766735E+02  0.90877024719E+02 0.  0.
         11    1    3    3    0    0 -0.21861006472E+02  0.13305175454E+02 -0.24092646992E+02  0.35148071600E+02  0.51100000000E-03 0. -1.
         22    1    1    0    0    0 -0.11741050758E+02  0.26218291769E+02 -0.68571013087E+01  0.29534233265E+02  0.00000000000E+00 0.  1.
</event>
<event>
 5    1  0.1044283E-009  0.9118800E+02  0.7815553E-02  0.1125453E+00
         25   -1    0    0    0    0  0.00000000000E+00  0.00000000000E+00  0.99999998245E-14  0.12509000000E+03  0.12509000000E+03 0.  0.
        -11    1    3    3    0    0  0.29923691750E+02 -0.26383236388E+02  0.16491319394E+02  0.43167882805E+02  0.51100000000E-03 0.  1.
         23    2    1    0    0    0  0.24105225428E+02  0.13664150296E+02 -0.14197116804E+02  0.93955950765E+02  0.88647569974E+02 0.  0.
         11    1    3    3    0    0 -0.58184663222E+01  0.40047386684E+02 -0.30688436198E+02  0.50788067960E+02  0.51100000000E-03 0. -1.
         22    1    1    0    0    0 -0.24105225428E+02 -0.13664150296E+02  0.14197116804E+02  0.31134049235E+02  0.00000000000E+00 0. -1.
</event>
<event>
 5    1  0.1044283E-009  0.9118800E+02  0.7815553E-02  0.1125453E+00
         25   -1    0    0    0    0  0.00000000000E+00  0.00000000000E+00  0.99999998245E-14  0.12509000000E+03  0.12509000000E+03 0.  0.
        -11    1    3    3    0    0 -0.20760170401E+02  0.51177689642E+02  0.25011281885E+02  0.60627591193E+02  0.51100000000E-03 0.  1.
         23    2    1    0    0    0  0.69477512296E+00  0.27306219362E+02  0.11707609530E+02  0.95371647939E+02  0.90623235328E+02 0.  0.
         11    1    3    3    0    0  0.21454945524E+02 -0.23871470280E+02 -0.13303672354E+02  0.34744056746E+02  0.51100000000E-03 0. -1.
         22    1    1    0    0    0 -0.69477512296E+00 -0.27306219362E+02 -0.11707609530E+02  0.29718352061E+02  0.00000000000E+00 0.  1.
</event>
<event>
 5    1  0.1044283E-009  0.9118800E+02  0.7815553E-02  0.1125453E+00
         25   -1    0    0    0    0  0.00000000000E+00  0.00000000000E+00  0.99999998245E-14  0.12509000000E+03  0.12509000000E+03 0.  0.
        -11    1    3    3    0    0  0.36993127822E+02  0.21541913946E+02  0.67165412394E+01  0.43331945364E+02  0.51100000000E-03 0. -1.
         23    2    1    0    0    0  0.67610945717E+01  0.14207309588E+01 -0.29602174568E+02  0.94692309045E+02  0.89680620966E+02 0.  0.
         11    1    3    3    0    0 -0.30232033251E+02 -0.20121182987E+02 -0.36318715807E+02  0.51360363681E+02  0.51100000000E-03 0.  1.
         22    1    1    0    0    0 -0.67610945717E+01 -0.14207309588E+01  0.29602174568E+02  0.30397690955E+02  0.00000000000E+00 0.  1.
</event>
<event>
 5    1  0.1044283E-009  0.9118800E+02  0.7815553E-02  0.1125453E+00
         25   -1    0    0    0    0  0.00000000000E+00  0.00000000000E+00  0.99999998245E-14  0.12509000000E+03  0.12509000000E+03 0.  0.
        -11    1    3    3    0    0  0.16532171815E+02  0.26906551421E+01  0.38649805481E+02  0.42123150333E+02  0.51100000000E-03 0.  1.
         23    2    1    0    0    0 -0.20707560689E+02  0.20834255805E+02  0.54408681252E+01  0.95215724602E+02  0.90407753433E+02 0.  0.
         11    1    3    3    0    0 -0.37239732504E+02  0.18143600663E+02 -0.33208937355E+02  0.53092574269E+02  0.51100000000E-03 0. -1.
         22    1    1    0    0    0  0.20707560689E+02 -0.20834255805E+02 -0.54408681252E+01  0.29874275398E+02  0.00000000000E+00 0. -1.
</event>
<event>
 5    1  0.1044283E-009  0.9118800E+02  0.7815553E-02  0.1125453E+00
         25   -1    0    0    0    0  0.00000000000E+00  0.00000000000E+00  0.99999998245E-14  0.12509000000E+03  0.12509000000E+03 0.  0.
        -11    1    3    3    0    0 -0.25163012951E+02 -0.51655351972E+02 -0.80872244835E+01  0.58024613814E+02  0.51100000000E-03 0.  1.
         23    2    1    0    0    0 -0.20767390457E+01 -0.23240572974E+02 -0.17613948716E+02  0.95854947980E+02  0.91287911498E+02 0.  0.
         11    1    3    3    0    0  0.23086273905E+02  0.28414778998E+02 -0.95267242323E+01  0.37830334167E+02  0.51100000000E-03 0. -1.
         22    1    1    0    0    0  0.20767390457E+01  0.23240572974E+02  0.17613948716E+02  0.29235052020E+02  0.00000000000E+00 0.  1.
</event>
<event>
 5    1  0.1044283E-009  0.9118800E+02  0.7815553E-02  0.1125453E+00
         25   -1    0    0    0    0  0.00000000000E+00  0.00000000000E+00  0.99999998245E-14  0.12509000000E+03  0.12509000000E+03 0.  0.
        -11    1    3    3    0    0  0.41991882938E+01  0.38753196269E+02 -0.93371634439E+01  0.40082739737E+02  0.51100000000E-03 0. -1.
         23    2    1    0    0    0  0.10680711828E+02 -0.42814077868E+01  0.26332745560E+02  0.96352889037E+02  0.91967699108E+02 0.  0.
         11    1    3    3    0    0  0.64815235343E+01 -0.43034604056E+02  0.35669909004E+02  0.56270149299E+02  0.51100000000E-03 0.  1.
         22    1    1    0    0    0 -0.10680711828E+02  0.42814077868E+01 -0.26332745560E+02  0.28737110963E+02  0.00000000000E+00 0.  1.
</event>
<event>
 5    1  0.1044283E-009  0.9118800E+02  0.7815553E-02  0.1125453E+00
         25   -1    0    0    0    0  0.00000000000E+00  0.00000000000E+00  0.99999998245E-14  0.12509000000E+03  0.12509000000E+03 0.  0.
        -11    1    3    3    0    0  0.32043010769E+02 -0.19390198362E+02 -0.48736079438E+01  0.37768854713E+02  0.51100000000E-03 0.  1.
         23    2    1    0    0    0 -0.40369023468E+00  0.27988981167E+02  0.66050817669E+01  0.96329382175E+02  0.91935720655E+02 0.  0.
         11    1    3    3    0    0 -0.32446701004E+02  0.47379179529E+02  0.11478689711E+02  0.58560527462E+02  0.51100000000E-03 0. -1.
         22    1    1    0    0    0  0.40369023468E+00 -0.27988981167E+02 -0.66050817669E+01  0.28760617825E+02  0.00000000000E+00 0. -1.
</event>
<event>
 5    1  0.1044283E-009  0.9118800E+02  0.7815553E-02  0.1125453E+00
         25   -1    0    0    0    0  0.00000000000E+00  0.00000000000E+00  0.99999998245E-14  0.12509000000E+03  0.12509000000E+03 0.  0.
        -11    1    3    3    0    0 -0.24522891169E+01 -0.24204956209E+02  0.51692635021E+02  0.57131621215E+02  0.51100000000E-03 0. -1.
         23    2    1    0    0    0 -0.13239683069E+02 -0.21698931571E+02  0.14743909366E+02  0.95704362309E+02  0.91081333228E+02 0.  0.
         11    1    3    3    0    0 -0.10787393953E+02  0.25060246380E+01 -0.36948725655E+02  0.38572741095E+02  0.51100000000E-03 0.  1.
         22    1    1    0    0    0  0.13239683069E+02  0.21698931571E+02 -0.14743909366E+02  0.29385637691E+02  0.00000000000E+00 0. -1.
</event>
<event>
 5    1  0.1044283E-009  0.9118800E+02  0.7815553E-02  0.1125453E+00
         25   -1    0    0    0    0  0.00000000000E+00  0.00000000000E+00  0.99999998245E-14  0.12509000000E+03  0.12509000000E+03 0.  0.
        -11    1    3    3    0    0  0.29002303824E+02  0.64718492425E+01 -0.21306441063E+02  0.36564776640E+02  0.51100000000E-03 0.  1.
         23    2    1    0    0    0 -0.26931914173E+02 -0.59413858371E+01 -0.13481809076E+02  0.94391673618E+02  0.89260298037E+02 0.  0.
         11    1    3    3    0    0 -0.55934217997E+02 -0.12413235080E+02  0.78246319869E+01  0.57826896978E+02  0.51100000000E-03 0. -1.
         22    1    1    0    0    0  0.26931914173E+02  0.59413858371E+01  0.13481809076E+02  0.30698326382E+02  0.00000000000E+00 0. -1.
</event>
<event>
 5    1  0.1044283E-009  0.9118800E+02  0.7815553E-02  0.1125453E+00
         25   -1    0    0    0    0  0.00000000000E+00  0.00000000000E+00  0.99999998245E-14  0.12509000000E+03  0.12509000000E+03 0.  0.
        -11    1    3    3    0    0  0.31065014069E+02  0.14786742140E+02 -0.22811249121E+02  0.41279970070E+02  0.51100000000E-03 0. -1.
         23    2    1    0    0    0 -0.21392282316E+02  0.18186440982E+02 -0.77940038783E+01  0.95950286982E+02  0.91418459280E+02 0.  0.
         11    1    3    3    0    0 -0.52457296386E+02  0.33996988420E+01  0.15017245243E+02  0.54670316912E+02  0.51100000000E-03 0.  1.
         22    1    1    0    0    0  0.21392282316E+02 -0.18186440982E+02  0.77940038783E+01  0.29139713018E+02  0.00000000000E+00 0.  1.
</event>
<event>
 5    1  0.1044283E-009  0.9118800E+02  0.7815553E-02  0.1125453E+00
         25   -1    0    0    0    0  0.00000000000E+00  0.00000000000E+00  0.99999998245E-14  0.12509000000E+03  0.12509000000E+03 0.  0.
        -11    1    3    3    0    0  0.14937478465E+02  0.46311028406E+01 -0.31108553521E+02  0.34818349744E+02  0.51100000000E-03 0.  1.
         23    2    1    0    0    0 -0.13500462356E+02  0.21351175922E+02  0.18066012768E+02  0.94033341866E+02  0.88756708863E+02 0.  0.
         11    1    3    3    0    0 -0.28437940822E+02  0.16720073081E+02  0.49174566290E+02  0.59214992123E+02  0.51100000000E-03 0. -1.
         22    1    1    0    0    0  0.13500462356E+02 -0.21351175922E+02 -0.18066012768E+02  0.31056658134E+02  0.00000000000E+00 0. -1.
</event>
<event>
 5    1  0.1044283E-009  0.9118800E+02  0.7815553E-02  0.1125453E+00
         25   -1    0    0    0    0  0.00000000000E+00  0.00000000000E+00  0.99999998245E-14  0.12509000000E+03  0.12509000000E+03 0.  0.
        -11    1    3    3    0    0 -0.38515285365E+02  0.28066353142E+02 -0.51592837137E+01  0.47935014281E+02  0.51100000000E-03 0. -1.
         23    2    1    0    0    0 -0.60261919254E+01  0.12493537331E+02  0.26034327195E+02  0.95591022786E+02  0.90925540859E+02 0.  0.
         11    1    3    3    0    0  0.32489093439E+02 -0.15572815811E+02  0.31193610909E+02  0.47656008505E+02  0.51100000000E-03 0.  1.
         22    1    1    0    0    0  0.60261919254E+01 -0.12493537331E+02 -0.26034327195E+02  0.29498977214E+02  0.00000000000E+00 0. -1.
</event>
<event>
 5    1  0.1044283E-009  0.9118800E+02  0.7815553E-02  0.1125453E+00
         25   -1    0    0    0    0  0.00000000000E+00  0.00000000000E+00  0.99999998245E-14  0.12509000000E+03  0.12509000000E+03 0.  0.
        -11    1    3    3    0    0 -0.16232727205E+01  0.51476938247E+02 -0.15062715974E+02  0.53659999984E+02  0.51100000000E-03 0. -1.
         23    2    1    0    0    0 -0.85502042325E+01  0.11355744669E+02 -0.25681743943E+02  0.95736790612E+02  0.91125858983E+02 0.  0.
         11    1    3    3    0    0 -0.69269315119E+01 -0.40121193577E+02 -0.10619027969E+02  0.42076790628E+02  0.51100000000E-03 0.  1.
         22    1    1    0    0    0  0.85502042325E+01 -0.11355744669E+02  0.25681743943E+02  0.29353209388E+02  0.00000000000E+00 0. -1.
</event>
<event>
 5    1  0.1044283E-009  0.9118800E+02  0.7815553E-02  0.1125453E+00
         25   -1    0    0    0    0  0.00000000000E+00  0.00000000000E+00  0.99999998245E-14  0.12509000000E+03  0.12509000000E+03 0.  0.
        -11    1    3    3    0    0 -0.37518604362E+02 -0.33318384539E+02  0.16177041761E+02  0.52720556730E+02  0.51100000000E-03 0.  1.
         23    2    1    0    0    0 -0.47751143036E+01 -0.83613551999E+01  0.27939266722E+02  0.95538069397E+02  0.90852661500E+02 0.  0.
         11    1    3    3    0    0  0.32743490059E+02  0.24957029339E+02  0.11762224962E+02  0.42817512667E+02  0.51100000000E-03 0. -1.
         22    1    1    0    0    0  0.47751143036E+01  0.83613551999E+01 -0.27939266722E+02  0.29551930603E+02  0.00000000000E+00 0.  1.
</event>
<event>
 5    1  0.1044283E-009  0.9118800E+02  0.7815553E-02  0.1125453E+00
         25   -1    0    0    0    0  0.00000000000E+00  0.00000000000E+00  0.99999998245E-14  0.12509000000E+03  0.12509000000E+03 0.  0.
        -11    1    3    3    0    0 -0.23422593563E+02  0.25426419343E+02  0.15459195277E+01  0.34605065486E+02  0.51100000000E-03 0. -1.
         23    2    1    0    0    0 -0.16455010469E+02 -0.30206879950E+02  0.90308099571E-01  0.90691873286E+02  0.83915342809E+02 0.  0.
         11    1    3    3    0    0  0.69675830947E+01 -0.55633299293E+02 -0.14556114282E+01  0.56086807801E+02  0.51100000000E-03 0.  1.
         22    1    1    0    0    0  0.16455010469E+02  0.30206879950E+02 -0.90308099571E-01  0.34398126714E+02  0.00000000000E+00 0.  1.
</event>
<event>
 5    1  0.1044283E-009  0.9118800E+02  0.7815553E-02  0.1125453E+00
         25   -1    0    0    0    0  0.00000000000E+00  0.00000000000E+00  0.99999998245E-14  0.12509000000E+03  0.12509000000E+03 0.  0.
        -11    1    3    3    0    0 -0.11016728547E+02  0.24874976482E+02  0.35484346237E+02  0.44713214948E+02  0.51100000000E-03 0. -1.
         23    2    1    0    0    0  0.20324935500E+01 -0.21520749680E+02  0.20787393974E+02  0.95100177643E+02  0.90247738712E+02 0.  0.
         11    1    3    3    0    0  0.13049222097E+02 -0.46395726162E+02 -0.14696952264E+02  0.50386962694E+02  0.51100000000E-03 0.  1.
         22    1    1    0    0    0 -0.20324935500E+01  0.21520749680E+02 -0.20787393974E+02  0.29989822357E+02  0.00000000000E+00 0.  1.
</event>
<event>
 5    1  0.1044283E-009  0.9118800E+02  0.7815553E-02  0.1125453E+00
         25   -1    0    0    0    0  0.00000000000E+00  0.00000000000E+00  0.99999998245E-14  0.12509000000E+03  0.12509000000E+03 0.  0.
        -11    1    3    3    0    0 -0.17860683104E+02 -0.28105322011E+02  0.23083272477E+02  0.40518521626E+02  0.51100000000E-03 0. -1.
         23    2    1    0    0    0 -0.18033374041E+02  0.20284468500E+02 -0.64281212510E+01  0.97197653658E+02  0.93109617614E+02 0.  0.
         11    1    3    3    0    0 -0.17269093647E+00  0.48389790511E+02 -0.29511393728E+02  0.56679132032E+02  0.51100000000E-03 0.  1.
         22    1    1    0    0    0  0.18033374041E+02 -0.20284468500E+02  0.64281212510E+01  0.27892346342E+02  0.00000000000E+00 0.  1.
</event>
<event>
 5    1  0.1044283E-009  0.9118800E+02  0.7815553E-02  0.1125453E+00
         25   -1    0    0    0    0  0.00000000000E+00  0.00000000000E+00  0.99999998245E-14  0.12509000000E+03  0.12509000000E+03 0.  0.
        -11    1    3    3    0    0 -0.20541682527E+02 -0.29267861183E+02 -0.44506806233E+02  0.57091367303E+02  0.51100000000E-03 0.  1.
         23    2    1    0    0    0  0.86640327244E+01 -0.17564270914E+02 -0.21062934055E+02  0.96328632390E+02  0.91934700475E+02 0.  0.
         11    1    3    3    0    0  0.29205715252E+02  0.11703590269E+02  0.23443872178E+02  0.39237265087E+02  0.51100000000E-03 0. -1.
         22    1    1    0    0    0 -0.86640327244E+01  0.17564270914E+02  0.21062934055E+02  0.28761367610E+02  0.00000000000E+00 0.  1.
</event>
<event>
 5    1  0.1044283E-009  0.9118800E+02  0.7815553E-02  0.1125453E+00
         25   -1    0    0    0    0  0.00000000000E+00  0.00000000000E+00  0.99999998245E-14  0.12509000000E+03  0.12509000000E+03 0.  0.
        -11    1    3    3    0    0 -0.97716193048E+01  0.15691336789E+02 -0.34399189774E+02  0.39051336103E+02  0.51100000000E-03 0. -1.
         23    2    1    0    0    0 -0.11296312896E+02  0.17619536192E+02  0.21546838022E+02  0.95051342084E+02  0.90180023634E+02 0.  0.
         11    1    3    3    0    0 -0.15246935911E+01  0.19281994024E+01  0.55946027796E+02  0.56000005981E+02  0.51100000000E-03 0.  1.
         22    1    1    0    0    0  0.11296312896E+02 -0.17619536192E+02 -0.21546838022E+02  0.30038657916E+02  0.00000000000E+00 0.  1.
</event>
<event>
 5    1  0.1044283E-009  0.9118800E+02  0.7815553E-02  0.1125453E+00
         25   -1    0    0    0    0  0.00000000000E+00  0.00000000000E+00  0.99999998245E-14  0.12509000000E+03  0.12509000000E+03 0.  0.
        -11    1    3    3    0    0  0.31215566742E+02  0.20684882354E+02 -0.20381733774E+02  0.42634387962E+02  0.51100000000E-03 0.  1.
         23    2    1    0    0    0 -0.17644793419E+02  0.19550163573E+02  0.58647098964E+01  0.98109591317E+02  0.94326822568E+02 0.  0.
         11    1    3    3    0    0 -0.48860360160E+02 -0.11347187816E+01  0.26246443670E+02  0.55475203355E+02  0.51100000000E-03 0. -1.
         22    1    1    0    0    0  0.17644793419E+02 -0.19550163573E+02 -0.58647098964E+01  0.26980408683E+02  0.00000000000E+00 0. -1.
</event>
<event>
 5    1  0.1044283E-009  0.9118800E+02  0.7815553E-02  0.1125453E+00
         25   -1    0    0    0    0  0.00000000000E+00  0.00000000000E+00  0.99999998245E-14  0.12509000000E+03  0.12509000000E+03 0.  0.
        -11    1    3    3    0    0 -0.63728828416E+00 -0.34810683307E+02  0.84510541322E+01  0.35827505144E+02  0.51100000000E-03 0. -1.
         23    2    1    0    0    0 -0.15329575665E+02  0.23287671877E+02 -0.36725469512E+01  0.96968848661E+02  0.92801715814E+02 0.  0.
         11    1    3    3    0    0 -0.14692287381E+02  0.58098355184E+02 -0.12123601083E+02  0.61141343517E+02  0.51100000000E-03 0.  1.
         22    1    1    0    0    0  0.15329575665E+02 -0.23287671877E+02  0.36725469512E+01  0.28121151339E+02  0.00000000000E+00 0.  1.
</event>
<event>
 5    1  0.1044283E-009  0.9118800E+02  0.7815553E-02  0.1125453E+00
         25   -1    0    0    0    0  0.00000000000E+00  0.00000000000E+00  0.99999998245E-14  0.12509000000E+03  0.12509000000E+03 0.  0.
        -11    1    3    3    0    0  0.17106118517E+02  0.59477952145E+02 -0.73260666676E+01  0.62321082590E+02  0.51100000000E-03 0. -1.
         23    2    1    0    0    0  0.10437912552E+02  0.27221259150E+02 -0.65366034717E+00  0.95928823069E+02  0.91389084991E+02 0.  0.
         11    1    3    3    0    0 -0.66682059647E+01 -0.32256692995E+02  0.66724063204E+01  0.33607740480E+02  0.51100000000E-03 0.  1.
         22    1    1    0    0    0 -0.10437912552E+02 -0.27221259150E+02  0.65366034717E+00  0.29161176931E+02  0.00000000000E+00 0. -1.
</event>
<event>
 5    1  0.1044283E-009  0.9118800E+02  0.7815553E-02  0.1125453E+00
         25   -1    0    0    0    0  0.00000000000E+00  0.00000000000E+00  0.99999998245E-14  0.12509000000E+03  0.12509000000E+03 0.  0.
        -11    1    3    3    0    0 -0.41043320849E+02  0.44554666623E+02 -0.31989337383E+01  0.60662226150E+02  0.51100000000E-03 0. -1.
         23    2    1    0    0    0 -0.10812643625E+02  0.27424954894E+02  0.50952387098E+00  0.95606088664E+02  0.90946265245E+02 0.  0.
         11    1    3    3    0    0  0.30230677224E+02 -0.17129711729E+02  0.37084576093E+01  0.34943862514E+02  0.51100000000E-03 0.  1.
         22    1    1    0    0    0  0.10812643625E+02 -0.27424954894E+02 -0.50952387098E+00  0.29483911336E+02  0.00000000000E+00 0. -1.
</event>
<event>
 5    1  0.1044283E-009  0.9118800E+02  0.7815553E-02  0.1125453E+00
         25   -1    0    0    0    0  0.00000000000E+00  0.00000000000E+00  0.99999998245E-14  0.12509000000E+03  0.12509000000E+03 0.  0.
        -11    1    3    3    0    0  0.61077101178E+01 -0.34815617442E+02 -0.65977742685E+01  0.35957780331E+02  0.51100000000E-03 0.  1.
         23    2    1    0    0    0 -0.24038957827E+02  0.16550170172E+02  0.20553497564E+00  0.95904012425E+02  0.91355118786E+02 0.  0.
         11    1    3    3    0    0 -0.30146667944E+02  0.51365787614E+02  0.68033092442E+01  0.59946232094E+02  0.51100000000E-03 0. -1.
         22    1    1    0    0    0  0.24038957827E+02 -0.16550170172E+02 -0.20553497564E+00  0.29185987575E+02  0.00000000000E+00 0. -1.
</event>
<event>
 5    1  0.1044283E-009  0.9118800E+02  0.7815553E-02  0.1125453E+00
         25   -1    0    0    0    0  0.00000000000E+00  0.00000000000E+00  0.99999998245E-14  0.12509000000E+03  0.12509000000E+03 0.  0.
        -11    1    3    3    0    0 -0.50054498257E+00 -0.52062138661E+01  0.11728118824E+02  0.12841494442E+02  0.51100000000E-03 0.  1.
         23    2    1    0    0    0  0.96964147636E+01  0.29275087246E+02 -0.39218124125E+02  0.75198994274E+02  0.56265231603E+02 0.  0.
         11    1    3    3    0    0  0.10196959746E+02  0.34481301112E+02 -0.50946242949E+02  0.62357499832E+02  0.51100000000E-03 0. -1.
         22    1    1    0    0    0 -0.96964147636E+01 -0.29275087246E+02  0.39218124125E+02  0.49891005726E+02  0.00000000000E+00 0. -1.
</event>
<event>
 5    1  0.1044283E-009  0.9118800E+02  0.7815553E-02  0.1125453E+00
         25   -1    0    0    0    0  0.00000000000E+00  0.00000000000E+00  0.99999998245E-14  0.12509000000E+03  0.12509000000E+03 0.  0.
        -11    1    3    3    0    0  0.53664513987E+01  0.56655929841E+01  0.57695358727E+02  0.58220719365E+02  0.51100000000E-03 0.  1.
         23    2    1    0    0    0 -0.67863707452E+01  0.16115316015E+02  0.25708865814E+02  0.93998135797E+02  0.88707077022E+02 0.  0.
         11    1    3    3    0    0 -0.12152822144E+02  0.10449723030E+02 -0.31986492913E+02  0.35777416432E+02  0.51100000000E-03 0. -1.
         22    1    1    0    0    0  0.67863707452E+01 -0.16115316015E+02 -0.25708865814E+02  0.31091864203E+02  0.00000000000E+00 0.  1.
</event>
<event>
 5    1  0.1044283E-009  0.9118800E+02  0.7815553E-02  0.1125453E+00
         25   -1    0    0    0    0  0.00000000000E+00  0.00000000000E+00  0.99999998245E-14  0.12509000000E+03  0.12509000000E+03 0.  0.
        -11    1    3    3    0    0 -0.18498282143E+02  0.69228430896E+00  0.38499277151E+02  0.42718380602E+02  0.51100000000E-03 0. -1.
         23    2    1    0    0    0  0.59430779604E+01 -0.24413393473E+02 -0.59023760344E+01  0.99279691994E+02  0.95865975420E+02 0.  0.
         11    1    3    3    0    0  0.24441360104E+02 -0.25105677782E+02 -0.44401653185E+02  0.56561311393E+02  0.51100000000E-03 0.  1.
         22    1    1    0    0    0 -0.59430779604E+01  0.24413393473E+02  0.59023760344E+01  0.25810308006E+02  0.00000000000E+00 0. -1.
</event>
<event>
 5    1  0.1044283E-009  0.9118800E+02  0.7815553E-02  0.1125453E+00
         25   -1    0    0    0    0  0.00000000000E+00  0.00000000000E+00  0.99999998245E-14  0.12509000000E+03  0.12509000000E+03 0.  0.
        -11    1    3    3    0    0  0.97707794943E+01  0.18785182875E+02  0.28801142013E+02  0.35747125886E+02  0.51100000000E-03 0. -1.
         23    2    1    0    0    0 -0.12074410036E+02 -0.24755627056E+02 -0.75520991319E+01  0.96530121675E+02  0.92208447230E+02 0.  0.
         11    1    3    3    0    0 -0.21845189530E+02 -0.43540809931E+02 -0.36353241145E+02  0.60782995789E+02  0.51100000000E-03 0.  1.
         22    1    1    0    0    0  0.12074410036E+02  0.24755627056E+02  0.75520991319E+01  0.28559878325E+02  0.00000000000E+00 0.  1.
</event>
<event>
 5    1  0.1044283E-009  0.9118800E+02  0.7815553E-02  0.1125453E+00
         25   -1    0    0    0    0  0.00000000000E+00  0.00000000000E+00  0.99999998245E-14  0.12509000000E+03  0.12509000000E+03 0.  0.
        -11    1    3    3    0    0 -0.26081887905E+02 -0.35225115993E+02 -0.10771076874E+02  0.45134130885E+02  0.51100000000E-03 0. -1.
         23    2    1    0    0    0  0.63638670400E+00  0.57641965094E+01 -0.27608820652E+02  0.96878691501E+02  0.92680110809E+02 0.  0.
         11    1    3    3    0    0  0.26718274609E+02  0.40989312502E+02 -0.16837743778E+02  0.51744560616E+02  0.51100000000E-03 0.  1.
         22    1    1    0    0    0 -0.63638670400E+00 -0.57641965094E+01  0.27608820652E+02  0.28211308499E+02  0.00000000000E+00 0. -1.
</event>
<event>
 5    1  0.1044283E-009  0.9118800E+02  0.7815553E-02  0.1125453E+00
         25   -1    0    0    0    0  0.00000000000E+00  0.00000000000E+00  0.99999998245E-14  0.12509000000E+03  0.12509000000E+03 0.  0.
        -11    1    3    3    0    0  0.58827932717E+01  0.47666419619E+01 -0.40169732362E+02  0.40877078303E+02  0.51100000000E-03 0.  1.
         23    2    1    0    0    0 -0.26929316760E+02  0.17238807890E+02 -0.15324905315E+01  0.93078859348E+02  0.87401149487E+02 0.  0.
         11    1    3    3    0    0 -0.32812110031E+02  0.12472165928E+02  0.38637241831E+02  0.52201781045E+02  0.51100000000E-03 0. -1.
         22    1    1    0    0    0  0.26929316760E+02 -0.17238807890E+02  0.15324905315E+01  0.32011140652E+02  0.00000000000E+00 0. -1.
</event>
<event>
 5    1  0.1044283E-009  0.9118800E+02  0.7815553E-02  0.1125453E+00
         25   -1    0    0    0    0  0.00000000000E+00  0.00000000000E+00  0.99999998245E-14  0.12509000000E+03  0.12509000000E+03 0.  0.
        -11    1    3    3    0    0 -0.85869917915E+00 -0.60027744416E+02 -0.46047916031E+01  0.60210228118E+02  0.51100000000E-03 0. -1.
         23    2    1    0    0    0 -0.28224593777E+01 -0.26985965255E+02 -0.13917802943E+02  0.94595511376E+02  0.89545502042E+02 0.  0.
         11    1    3    3    0    0 -0.19637601985E+01  0.33041779161E+02 -0.93130113401E+01  0.34385283258E+02  0.51100000000E-03 0.  1.
         22    1    1    0    0    0  0.28224593777E+01  0.26985965255E+02  0.13917802943E+02  0.30494488624E+02  0.00000000000E+00 0. -1.
</event>
<event>
 5    1  0.1044283E-009  0.9118800E+02  0.7815553E-02  0.1125453E+00
         25   -1    0    0    0    0  0.00000000000E+00  0.00000000000E+00  0.99999998245E-14  0.12509000000E+03  0.12509000000E+03 0.  0.
        -11    1    3    3    0    0 -0.20090868650E+02 -0.39249017112E+01  0.47221019772E+02  0.51467198924E+02  0.51100000000E-03 0.  1.
         23    2    1    0    0    0 -0.27117436166E+02 -0.31638121774E+01  0.14826634649E+01  0.97748395390E+02  0.93846606005E+02 0.  0.
         11    1    3    3    0    0 -0.70265675162E+01  0.76108953381E+00 -0.45738356307E+02  0.46281196466E+02  0.51100000000E-03 0. -1.
         22    1    1    0    0    0  0.27117436166E+02  0.31638121774E+01 -0.14826634649E+01  0.27341604610E+02  0.00000000000E+00 0. -1.
</event>
<event>
 5    1  0.1044283E-009  0.9118800E+02  0.7815553E-02  0.1125453E+00
         25   -1    0    0    0    0  0.00000000000E+00  0.00000000000E+00  0.99999998245E-14  0.12509000000E+03  0.12509000000E+03 0.  0.
        -11    1    3    3    0    0 -0.37514172908E+02  0.29897437594E+02  0.36237250821E+02  0.60119117517E+02  0.51100000000E-03 0.  1.
         23    2    1    0    0    0 -0.13373608941E+02  0.67396578666E+01  0.25969820794E+02  0.95111541128E+02  0.90263487964E+02 0.  0.
         11    1    3    3    0    0  0.24140563967E+02 -0.23157779727E+02 -0.10267430027E+02  0.34992423611E+02  0.51100000000E-03 0. -1.
         22    1    1    0    0    0  0.13373608941E+02 -0.67396578666E+01 -0.25969820794E+02  0.29978458872E+02  0.00000000000E+00 0.  1.
</event>
<event>
 5    1  0.1044283E-009  0.9118800E+02  0.7815553E-02  0.1125453E+00
         25   -1    0    0    0    0  0.00000000000E+00  0.00000000000E+00  0.99999998245E-14  0.12509000000E+03  0.12509000000E+03 0.  0.
        -11    1    3    3    0    0 -0.43553588092E+02 -0.42627135773E+01 -0.24034057072E+02  0.49927163572E+02  0.51100000000E-03 0.  1.
         23    2    1    0    0    0  0.16447980005E+01 -0.71481554993E+01 -0.28709560626E+02  0.95458254205E+02  0.90742701839E+02 0.  0.
         11    1    3    3    0    0  0.45198386093E+02 -0.28854419220E+01 -0.46755035538E+01  0.45531090633E+02  0.51100000000E-03 0. -1.
         22    1    1    0    0    0 -0.16447980005E+01  0.71481554993E+01  0.28709560626E+02  0.29631745795E+02  0.00000000000E+00 0.  1.
</event>
<event>
 5    1  0.1044283E-009  0.9118800E+02  0.7815553E-02  0.1125453E+00
         25   -1    0    0    0    0  0.00000000000E+00  0.00000000000E+00  0.99999998245E-14  0.12509000000E+03  0.12509000000E+03 0.  0.
        -11    1    3    3    0    0 -0.12516364894E+02  0.39644119599E+02  0.11508550647E+02  0.43136554651E+02  0.51100000000E-03 0. -1.
         23    2    1    0    0    0 -0.22276431970E+02  0.24928937621E+01 -0.21683855168E+02  0.93902766786E+02  0.88572490620E+02 0.  0.
         11    1    3    3    0    0 -0.97600670752E+01 -0.37151225836E+02 -0.33192405815E+02  0.50766212135E+02  0.51100000000E-03 0.  1.
         22    1    1    0    0    0  0.22276431970E+02 -0.24928937621E+01  0.21683855168E+02  0.31187233214E+02  0.00000000000E+00 0. -1.
</event>
<event>
 5    1  0.1044283E-009  0.9118800E+02  0.7815553E-02  0.1125453E+00
         25   -1    0    0    0    0  0.00000000000E+00  0.00000000000E+00  0.99999998245E-14  0.12509000000E+03  0.12509000000E+03 0.  0.
        -11    1    3    3    0    0 -0.52882358898E+02 -0.21247526714E+02 -0.15104440843E+02  0.58958845032E+02  0.51100000000E-03 0.  1.
         23    2    1    0    0    0 -0.24059608006E+02 -0.13924173509E+02  0.74821399551E+01  0.96302333134E+02  0.91898909697E+02 0.  0.
         11    1    3    3    0    0  0.28822750892E+02  0.73233532051E+01  0.22586580799E+02  0.37343488102E+02  0.51100000000E-03 0. -1.
         22    1    1    0    0    0  0.24059608006E+02  0.13924173509E+02 -0.74821399551E+01  0.28787666866E+02  0.00000000000E+00 0.  1.
</event>
<event>
 5    1  0.1044283E-009  0.9118800E+02  0.7815553E-02  0.1125453E+00
         25   -1    0    0    0    0  0.00000000000E+00  0.00000000000E+00  0.99999998245E-14  0.12509000000E+03  0.12509000000E+03 0.  0.
        -11    1    3    3    0    0  0.43867604250E+01 -0.58037926751E+02  0.17118315153E+02  0.60668618927E+02  0.51100000000E-03 0. -1.
         23    2    1    0    0    0 -0.85325203563E+01 -0.30181193760E+02  0.97229071478E+01  0.92253385013E+02  0.86211621970E+02 0.  0.
         11    1    3    3    0    0 -0.12919280781E+02  0.27856732992E+02 -0.73954080050E+01  0.31584766086E+02  0.51100000000E-03 0.  1.
         22    1    1    0    0    0  0.85325203563E+01  0.30181193760E+02 -0.97229071478E+01  0.32836614987E+02  0.00000000000E+00 0. -1.
</event>
<event>
 5    1  0.1044283E-009  0.9118800E+02  0.7815553E-02  0.1125453E+00
         25   -1    0    0    0    0  0.00000000000E+00  0.00000000000E+00  0.99999998245E-14  0.12509000000E+03  0.12509000000E+03 0.  0.
        -11    1    3    3    0    0 -0.41851349146E+02 -0.40819225321E+02 -0.52730354942E+01  0.58698803094E+02  0.51100000000E-03 0.  1.
         23    2    1    0    0    0 -0.26798086109E+02 -0.10876556961E+02  0.85201378420E+01  0.94939881272E+02  0.90025281986E+02 0.  0.
         11    1    3    3    0    0  0.15053263037E+02  0.29942668360E+02  0.13793173336E+02  0.36241078178E+02  0.51100000000E-03 0. -1.
         22    1    1    0    0    0  0.26798086109E+02  0.10876556961E+02 -0.85201378420E+01  0.30150118728E+02  0.00000000000E+00 0.  1.
</event>
<event>
 5    1  0.1044283E-009  0.9118800E+02  0.7815553E-02  0.1125453E+00
         25   -1    0    0    0    0  0.00000000000E+00  0.00000000000E+00  0.99999998245E-14  0.12509000000E+03  0.12509000000E+03 0.  0.
        -11    1    3    3    0    0 -0.69389172639E+01 -0.32808149508E+02  0.24395064516E+02  0.41468571472E+02  0.51100000000E-03 0. -1.
         23    2    1    0    0    0  0.13237687551E+02 -0.12999732182E+02 -0.22314796888E+02  0.96069669735E+02  0.91581667786E+02 0.  0.
         11    1    3    3    0    0  0.20176604815E+02  0.19808417326E+02 -0.46709861404E+02  0.54601098263E+02  0.51100000000E-03 0.  1.
         22    1    1    0    0    0 -0.13237687551E+02  0.12999732182E+02  0.22314796888E+02  0.29020330265E+02  0.00000000000E+00 0.  1.
</event>
<event>
 5    1  0.1044283E-009  0.9118800E+02  0.7815553E-02  0.1125453E+00
         25   -1    0    0    0    0  0.00000000000E+00  0.00000000000E+00  0.99999998245E-14  0.12509000000E+03  0.12509000000E+03 0.  0.
        -11    1    3    3    0    0 -0.47253407918E+02  0.36702620119E+02 -0.15235521254E+01  0.59852218796E+02  0.51100000000E-03 0. -1.
         23    2    1    0    0    0 -0.23486687393E+02  0.29206941315E+02 -0.10213069223E+02  0.86244450852E+02  0.77000835152E+02 0.  0.
         11    1    3    3    0    0  0.23766720525E+02 -0.74956788044E+01 -0.86895170974E+01  0.26392232056E+02  0.51100000000E-03 0.  1.
         22    1    1    0    0    0  0.23486687393E+02 -0.29206941315E+02  0.10213069223E+02  0.38845549148E+02  0.00000000000E+00 0. -1.
</event>
<event>
 5    1  0.1044283E-009  0.9118800E+02  0.7815553E-02  0.1125453E+00
         25   -1    0    0    0    0  0.00000000000E+00  0.00000000000E+00  0.99999998245E-14  0.12509000000E+03  0.12509000000E+03 0.  0.
        -11    1    3    3    0    0 -0.38737571840E+02  0.65925162618E+01  0.35367599759E+02  0.52867077238E+02  0.51100000000E-03 0.  1.
         23    2    1    0    0    0 -0.17660318201E+02  0.24863818352E+02  0.48549373377E+01  0.94208505241E+02  0.89003234443E+02 0.  0.
         11    1    3    3    0    0  0.21077253639E+02  0.18271302090E+02 -0.30512662422E+02  0.41341428003E+02  0.51100000000E-03 0. -1.
         22    1    1    0    0    0  0.17660318201E+02 -0.24863818352E+02 -0.48549373377E+01  0.30881494759E+02  0.00000000000E+00 0. -1.
</event>
<event>
 5    1  0.1044283E-009  0.9118800E+02  0.7815553E-02  0.1125453E+00
         25   -1    0    0    0    0  0.00000000000E+00  0.00000000000E+00  0.99999998245E-14  0.12509000000E+03  0.12509000000E+03 0.  0.
        -11    1    3    3    0    0 -0.75825800250E+01  0.21679204791E+02  0.22409170211E+02  0.32088227593E+02  0.51100000000E-03 0.  1.
         23    2    1    0    0    0  0.11303089362E+02 -0.22462554308E+02 -0.17444091933E+02  0.94485710782E+02  0.89391985231E+02 0.  0.
         11    1    3    3    0    0  0.18885669387E+02 -0.44141759099E+02 -0.39853262144E+02  0.62397483189E+02  0.51100000000E-03 0. -1.
         22    1    1    0    0    0 -0.11303089362E+02  0.22462554308E+02  0.17444091933E+02  0.30604289218E+02  0.00000000000E+00 0. -1.
</event>
<event>
 5    1  0.1044283E-009  0.9118800E+02  0.7815553E-02  0.1125453E+00
         25   -1    0    0    0    0  0.00000000000E+00  0.00000000000E+00  0.99999998245E-14  0.12509000000E+03  0.12509000000E+03 0.  0.
        -11    1    3    3    0    0  0.13333732557E+02 -0.34444480641E+02  0.80871136502E+01  0.37810211292E+02  0.51100000000E-03 0. -1.
         23    2    1    0    0    0  0.18429110904E+02  0.15725816119E+02 -0.18303172578E+02  0.94726542559E+02  0.89728358491E+02 0.  0.
         11    1    3    3    0    0  0.50953783473E+01  0.50170296760E+02 -0.26390286229E+02  0.56916331267E+02  0.51100000000E-03 0.  1.
         22    1    1    0    0    0 -0.18429110904E+02 -0.15725816119E+02  0.18303172578E+02  0.30363457441E+02  0.00000000000E+00 0. -1.
</event>
<event>
 5    1  0.1044283E-009  0.9118800E+02  0.7815553E-02  0.1125453E+00
         25   -1    0    0    0    0  0.00000000000E+00  0.00000000000E+00  0.99999998245E-14  0.12509000000E+03  0.12509000000E+03 0.  0.
        -11    1    3    3    0    0 -0.40795023108E+02 -0.35448740406E+02 -0.20845951560E+02  0.57925821561E+02  0.51100000000E-03 0.  1.
         23    2    1    0    0    0 -0.13702563369E+02 -0.25769228280E+02  0.36052183599E+01  0.95682331469E+02  0.91051071310E+02 0.  0.
         11    1    3    3    0    0  0.27092459739E+02  0.96795121259E+01  0.24451169920E+02  0.37756509908E+02  0.51100000000E-03 0. -1.
         22    1    1    0    0    0  0.13702563369E+02  0.25769228280E+02 -0.36052183599E+01  0.29407668531E+02  0.00000000000E+00 0.  1.
</event>
<event>
 5    1  0.1044283E-009  0.9118800E+02  0.7815553E-02  0.1125453E+00
         25   -1    0    0    0    0  0.00000000000E+00  0.00000000000E+00  0.99999998245E-14  0.12509000000E+03  0.12509000000E+03 0.  0.
        -11    1    3    3    0    0  0.11038014899E+02  0.26777026811E+02  0.42413633849E+02  0.51359159595E+02  0.51100000000E-03 0. -1.
         23    2    1    0    0    0  0.41599568159E+01 -0.13547101686E+02  0.26084639632E+02  0.95404353140E+02  0.90668368070E+02 0.  0.
         11    1    3    3    0    0 -0.68780580836E+01 -0.40324128497E+02 -0.16328994217E+02  0.44045193545E+02  0.51100000000E-03 0.  1.
         22    1    1    0    0    0 -0.41599568159E+01  0.13547101686E+02 -0.26084639632E+02  0.29685646860E+02  0.00000000000E+00 0. -1.
</event>
<event>
 5    1  0.1044283E-009  0.9118800E+02  0.7815553E-02  0.1125453E+00
         25   -1    0    0    0    0  0.00000000000E+00  0.00000000000E+00  0.99999998245E-14  0.12509000000E+03  0.12509000000E+03 0.  0.
        -11    1    3    3    0    0 -0.25228924430E+02 -0.18113882823E+02 -0.27626965181E+02  0.41567542436E+02  0.51100000000E-03 0.  1.
         23    2    1    0    0    0  0.24164050192E+02  0.18880619154E+01 -0.15811430870E+02  0.96150970202E+02  0.91692647607E+02 0.  0.
         11    1    3    3    0    0  0.49392974622E+02  0.20001944738E+02  0.11815534312E+02  0.54583427766E+02  0.51100000000E-03 0. -1.
         22    1    1    0    0    0 -0.24164050192E+02 -0.18880619154E+01  0.15811430870E+02  0.28939029798E+02  0.00000000000E+00 0. -1.
</event>
<event>
 5    1  0.1044283E-009  0.9118800E+02  0.7815553E-02  0.1125453E+00
         25   -1    0    0    0    0  0.00000000000E+00  0.00000000000E+00  0.99999998245E-14  0.12509000000E+03  0.12509000000E+03 0.  0.
        -11    1    3    3    0    0  0.28488644380E+02  0.21132928002E+02 -0.74994212510E+01  0.36255273050E+02  0.51100000000E-03 0.  1.
         23    2    1    0    0    0 -0.88912220873E-01 -0.28890973060E+02  0.63530854656E+01  0.95508621995E+02  0.90812107953E+02 0.  0.
         11    1    3    3    0    0 -0.28577556601E+02 -0.50023901061E+02  0.13852506717E+02  0.59253348946E+02  0.51100000000E-03 0. -1.
         22    1    1    0    0    0  0.88912220873E-01  0.28890973060E+02 -0.63530854656E+01  0.29581378005E+02  0.00000000000E+00 0. -1.
</event>
<event>
 5    1  0.1044283E-009  0.9118800E+02  0.7815553E-02  0.1125453E+00
         25   -1    0    0    0    0  0.00000000000E+00  0.00000000000E+00  0.99999998245E-14  0.12509000000E+03  0.12509000000E+03 0.  0.
        -11    1    3    3    0    0 -0.44984785646E+02  0.48176289890E+01 -0.42817346667E+02  0.62290975787E+02  0.51100000000E-03 0. -1.
         23    2    1    0    0    0 -0.19122171148E+02  0.45878282507E+01 -0.22695828764E+02  0.95059911077E+02  0.90191909023E+02 0.  0.
         11    1    3    3    0    0  0.25862614498E+02 -0.22980073833E+00  0.20121517903E+02  0.32768935290E+02  0.51100000000E-03 0.  1.
         22    1    1    0    0    0  0.19122171148E+02 -0.45878282507E+01  0.22695828764E+02  0.30030088923E+02  0.00000000000E+00 0. -1.
</event>
<event>
 5    1  0.1044283E-009  0.9118800E+02  0.7815553E-02  0.1125453E+00
         25   -1    0    0    0    0  0.00000000000E+00  0.00000000000E+00  0.99999998245E-14  0.12509000000E+03  0.12509000000E+03 0.  0.
        -11    1    3    3    0    0  0.47753468533E+01  0.15281320162E+01  0.13902873696E+02  0.14779344447E+02  0.51100000000E-03 0. -1.
         23    2    1    0    0    0 -0.48182968490E+02 -0.62095363736E+01 -0.13166397169E+02  0.74756007421E+02  0.55271600634E+02 0.  0.
         11    1    3    3    0    0 -0.52958315343E+02 -0.77376683898E+01 -0.27069270865E+02  0.59976662974E+02  0.51100000000E-03 0.  1.
         22    1    1    0    0    0  0.48182968490E+02  0.62095363736E+01  0.13166397169E+02  0.50333992579E+02  0.00000000000E+00 0.  1.
</event>
<event>
 5    1  0.1044283E-009  0.9118800E+02  0.7815553E-02  0.1125453E+00
         25   -1    0    0    0    0  0.00000000000E+00  0.00000000000E+00  0.99999998245E-14  0.12509000000E+03  0.12509000000E+03 0.  0.
        -11    1    3    3    0    0  0.10614911872E+01  0.15619211298E+02 -0.82663143814E+01  0.17703628973E+02  0.51100000000E-03 0.  1.
         23    2    1    0    0    0 -0.48000708554E+01 -0.41582826164E+02 -0.23361069604E+02  0.77153461899E+02  0.60454486996E+02 0.  0.
         11    1    3    3    0    0 -0.58615620426E+01 -0.57202037462E+02 -0.15094755223E+02  0.59449832926E+02  0.51100000000E-03 0. -1.
         22    1    1    0    0    0  0.48000708554E+01  0.41582826164E+02  0.23361069604E+02  0.47936538101E+02  0.00000000000E+00 0. -1.
</event>
<event>
 5    1  0.1044283E-009  0.9118800E+02  0.7815553E-02  0.1125453E+00
         25   -1    0    0    0    0  0.00000000000E+00  0.00000000000E+00  0.99999998245E-14  0.12509000000E+03  0.12509000000E+03 0.  0.
        -11    1    3    3    0    0 -0.25125127173E+02 -0.18155360624E+02 -0.12152652437E+02  0.33295286399E+02  0.51100000000E-03 0. -1.
         23    2    1    0    0    0  0.24019492254E+02  0.11016723600E+02  0.12885775491E+02  0.95690213997E+02  0.91061900034E+02 0.  0.
         11    1    3    3    0    0  0.49144619428E+02  0.29172084223E+02  0.25038427928E+02  0.62394927598E+02  0.51100000000E-03 0.  1.
         22    1    1    0    0    0 -0.24019492254E+02 -0.11016723600E+02 -0.12885775491E+02  0.29399786003E+02  0.00000000000E+00 0.  1.
</event>
<event>
 5    1  0.1044283E-009  0.9118800E+02  0.7815553E-02  0.1125453E+00
         25   -1    0    0    0    0  0.00000000000E+00  0.00000000000E+00  0.99999998245E-14  0.12509000000E+03  0.12509000000E+03 0.  0.
        -11    1    3    3    0    0  0.12968309703E+02 -0.52832751990E+02  0.48697885785E+01  0.54618601048E+02  0.51100000000E-03 0.  1.
         23    2    1    0    0    0 -0.14032893238E+02 -0.22303169583E+02  0.12238167026E+02  0.96036150027E+02  0.91535872279E+02 0.  0.
         11    1    3    3    0    0 -0.27001202941E+02  0.30529582407E+02  0.73683784475E+01  0.41417548979E+02  0.51100000000E-03 0. -1.
         22    1    1    0    0    0  0.14032893238E+02  0.22303169583E+02 -0.12238167026E+02  0.29053849973E+02  0.00000000000E+00 0.  1.
</event>
<event>
 5    1  0.1044283E-009  0.9118800E+02  0.7815553E-02  0.1125453E+00
         25   -1    0    0    0    0  0.00000000000E+00  0.00000000000E+00  0.99999998245E-14  0.12509000000E+03  0.12509000000E+03 0.  0.
        -11    1    3    3    0    0 -0.17353015855E+02  0.99418483337E+01  0.25705112905E+02  0.32568701805E+02  0.51100000000E-03 0.  1.
         23    2    1    0    0    0  0.53641588932E+01 -0.89570236922E+01 -0.28737839265E+02  0.94514423478E+02  0.89432155099E+02 0.  0.
         11    1    3    3    0    0  0.22717174748E+02 -0.18898872026E+02 -0.54442952170E+02  0.61945721673E+02  0.51100000000E-03 0. -1.
         22    1    1    0    0    0 -0.53641588932E+01  0.89570236922E+01  0.28737839265E+02  0.30575576522E+02  0.00000000000E+00 0. -1.
</event>
<event>
 5    1  0.1044283E-009  0.9118800E+02  0.7815553E-02  0.1125453E+00
         25   -1    0    0    0    0  0.00000000000E+00  0.00000000000E+00  0.99999998245E-14  0.12509000000E+03  0.12509000000E+03 0.  0.
        -11    1    3    3    0    0  0.55528433581E+02  0.24893514940E+02  0.22391906492E+01  0.60894236156E+02  0.51100000000E-03 0. -1.
         23    2    1    0    0    0  0.21766073568E+02  0.11995984194E+01 -0.48811147398E+01  0.10275110397E+03  0.10029338508E+03 0.  0.
         11    1    3    3    0    0 -0.33762360013E+02 -0.23693916521E+02 -0.71203053890E+01  0.41856867809E+02  0.51100000000E-03 0.  1.
         22    1    1    0    0    0 -0.21766073568E+02 -0.11995984194E+01  0.48811147398E+01  0.22338896035E+02  0.00000000000E+00 0. -1.
</event>
<event>
 5    1  0.1044283E-009  0.9118800E+02  0.7815553E-02  0.1125453E+00
         25   -1    0    0    0    0  0.00000000000E+00  0.00000000000E+00  0.99999998245E-14  0.12509000000E+03  0.12509000000E+03 0.  0.
        -11    1    3    3    0    0  0.47192229511E+01 -0.32295943686E+02  0.17299144670E+02  0.36939943834E+02  0.51100000000E-03 0.  1.
         23    2    1    0    0    0 -0.21315245835E+02  0.19141813566E+02  0.80821852075E+01  0.95323064495E+02  0.90556149296E+02 0.  0.
         11    1    3    3    0    0 -0.26034468786E+02  0.51437757253E+02 -0.92169594624E+01  0.58383120662E+02  0.51100000000E-03 0. -1.
         22    1    1    0    0    0  0.21315245835E+02 -0.19141813566E+02 -0.80821852075E+01  0.29766935505E+02  0.00000000000E+00 0. -1.
</event>
<event>
 5    1  0.1044283E-009  0.9118800E+02  0.7815553E-02  0.1125453E+00
         25   -1    0    0    0    0  0.00000000000E+00  0.00000000000E+00  0.99999998245E-14  0.12509000000E+03  0.12509000000E+03 0.  0.
        -11    1    3    3    0    0 -0.16129179198E+02 -0.10239863167E+01  0.36813093531E+02  0.40204512497E+02  0.51100000000E-03 0. -1.
         23    2    1    0    0    0 -0.22434044102E+02 -0.68820410504E+01 -0.17891185037E+02  0.95581639730E+02  0.90912631288E+02 0.  0.
         11    1    3    3    0    0 -0.63048649045E+01 -0.58580547337E+01 -0.54704278568E+02  0.55377127233E+02  0.51100000000E-03 0.  1.
         22    1    1    0    0    0  0.22434044102E+02  0.68820410504E+01  0.17891185037E+02  0.29508360270E+02  0.00000000000E+00 0.  1.
</event>
<event>
 5    1  0.1044283E-009  0.9118800E+02  0.7815553E-02  0.1125453E+00
         25   -1    0    0    0    0  0.00000000000E+00  0.00000000000E+00  0.99999998245E-14  0.12509000000E+03  0.12509000000E+03 0.  0.
        -11    1    3    3    0    0 -0.35709796442E+02 -0.32088755880E+02 -0.93229631457E+01  0.48905985911E+02  0.51100000000E-03 0.  1.
         23    2    1    0    0    0 -0.23948545868E+02  0.13372927335E+02 -0.10070764815E+02  0.95870343283E+02  0.91309004937E+02 0.  0.
         11    1    3    3    0    0  0.11761250574E+02  0.45461683215E+02 -0.74780166915E+00  0.46964357372E+02  0.51100000000E-03 0. -1.
         22    1    1    0    0    0  0.23948545868E+02 -0.13372927335E+02  0.10070764815E+02  0.29219656717E+02  0.00000000000E+00 0.  1.
</event>
<event>
 5    1  0.1044283E-009  0.9118800E+02  0.7815553E-02  0.1125453E+00
         25   -1    0    0    0    0  0.00000000000E+00  0.00000000000E+00  0.99999998245E-14  0.12509000000E+03  0.12509000000E+03 0.  0.
        -11    1    3    3    0    0  0.27903488328E+02  0.30922348231E+02  0.39973936431E+02  0.57729644681E+02  0.51100000000E-03 0.  1.
         23    2    1    0    0    0  0.10883529100E+02  0.27132439550E+02  0.70005629371E+01  0.95029588109E+02  0.90149843334E+02 0.  0.
         11    1    3    3    0    0 -0.17019959228E+02 -0.37899086813E+01 -0.32973373493E+02  0.37299943428E+02  0.51100000000E-03 0. -1.
         22    1    1    0    0    0 -0.10883529100E+02 -0.27132439550E+02 -0.70005629371E+01  0.30060411891E+02  0.00000000000E+00 0.  1.
</event>
<event>
 5    1  0.1044283E-009  0.9118800E+02  0.7815553E-02  0.1125453E+00
         25   -1    0    0    0    0  0.00000000000E+00  0.00000000000E+00  0.99999998245E-14  0.12509000000E+03  0.12509000000E+03 0.  0.
        -11    1    3    3    0    0  0.19567032296E+02  0.37882495481E+02 -0.31353306246E+01  0.42752573199E+02  0.51100000000E-03 0.  1.
         23    2    1    0    0    0  0.11653867333E+02 -0.10213603463E+02 -0.24603162327E+02  0.96013447316E+02  0.91504842219E+02 0.  0.
         11    1    3    3    0    0 -0.79131649628E+01 -0.48096098945E+02 -0.21467831702E+02  0.53260874117E+02  0.51100000000E-03 0. -1.
         22    1    1    0    0    0 -0.11653867333E+02  0.10213603463E+02  0.24603162327E+02  0.29076552684E+02  0.00000000000E+00 0. -1.
</event>
<event>
 5    1  0.1044283E-009  0.9118800E+02  0.7815553E-02  0.1125453E+00
         25   -1    0    0    0    0  0.00000000000E+00  0.00000000000E+00  0.99999998245E-14  0.12509000000E+03  0.12509000000E+03 0.  0.
        -11    1    3    3    0    0 -0.22477138180E+02 -0.47537379933E+02 -0.69245000946E+01  0.53037467261E+02  0.51100000000E-03 0. -1.
         23    2    1    0    0    0  0.66948104935E+01 -0.24309753316E+02  0.14459474999E+02  0.96023507073E+02  0.91518593190E+02 0.  0.
         11    1    3    3    0    0  0.29171948673E+02  0.23227626617E+02  0.21383975094E+02  0.42986039812E+02  0.51100000000E-03 0.  1.
         22    1    1    0    0    0 -0.66948104935E+01  0.24309753316E+02 -0.14459474999E+02  0.29066492927E+02  0.00000000000E+00 0. -1.
</event>
<event>
 5    1  0.1044283E-009  0.9118800E+02  0.7815553E-02  0.1125453E+00
         25   -1    0    0    0    0  0.00000000000E+00  0.00000000000E+00  0.99999998245E-14  0.12509000000E+03  0.12509000000E+03 0.  0.
        -11    1    3    3    0    0 -0.27340080159E+02  0.43493471463E+02 -0.10697553153E+02  0.52474752851E+02  0.51100000000E-03 0. -1.
         23    2    1    0    0    0  0.22268918309E+01  0.16725124831E+02 -0.25071172780E+02  0.94869931297E+02  0.89928034071E+02 0.  0.
         11    1    3    3    0    0  0.29566971990E+02 -0.26768346632E+02 -0.14373619627E+02  0.42395178446E+02  0.51100000000E-03 0.  1.
         22    1    1    0    0    0 -0.22268918309E+01 -0.16725124831E+02  0.25071172780E+02  0.30220068703E+02  0.00000000000E+00 0. -1.
</event>
<event>
 5    1  0.1044283E-009  0.9118800E+02  0.7815553E-02  0.1125453E+00
         25   -1    0    0    0    0  0.00000000000E+00  0.00000000000E+00  0.99999998245E-14  0.12509000000E+03  0.12509000000E+03 0.  0.
        -11    1    3    3    0    0  0.40898777263E+02  0.40852638506E+02  0.14042933758E+02  0.59488251305E+02  0.51100000000E-03 0. -1.
         23    2    1    0    0    0  0.23031108936E+02  0.19190556919E+02 -0.66665013621E+01  0.94379225114E+02  0.89242850913E+02 0.  0.
         11    1    3    3    0    0 -0.17867668327E+02 -0.21662081587E+02 -0.20709435120E+02  0.34890973809E+02  0.51100000000E-03 0.  1.
         22    1    1    0    0    0 -0.23031108936E+02 -0.19190556919E+02  0.66665013621E+01  0.30710774886E+02  0.00000000000E+00 0. -1.
</event>
<event>
 5    1  0.1044283E-009  0.9118800E+02  0.7815553E-02  0.1125453E+00
         25   -1    0    0    0    0  0.00000000000E+00  0.00000000000E+00  0.99999998245E-14  0.12509000000E+03  0.12509000000E+03 0.  0.
        -11    1    3    3    0    0  0.30047900769E+02 -0.30664192182E+02  0.40470193767E+02  0.59000047513E+02  0.51100000000E-03 0. -1.
         23    2    1    0    0    0  0.29174554427E+02 -0.17342533784E+02  0.14536897243E+02  0.88167926853E+02  0.80064622899E+02 0.  0.
         11    1    3    3    0    0 -0.87334634196E+00  0.13321658398E+02 -0.25933296524E+02  0.29167879339E+02  0.51100000000E-03 0.  1.
         22    1    1    0    0    0 -0.29174554427E+02  0.17342533784E+02 -0.14536897243E+02  0.36922073147E+02  0.00000000000E+00 0. -1.
</event>
<event>
 5    1  0.1044283E-009  0.9118800E+02  0.7815553E-02  0.1125453E+00
         25   -1    0    0    0    0  0.00000000000E+00  0.00000000000E+00  0.99999998245E-14  0.12509000000E+03  0.12509000000E+03 0.  0.
        -11    1    3    3    0    0  0.38030669828E+02 -0.83944731740E+01  0.94778364850E+01  0.40082769517E+02  0.51100000000E-03 0. -1.
         23    2    1    0    0    0 -0.81093019326E-01  0.30157477425E+02  0.54633731325E+01  0.94441534023E+02  0.89330145427E+02 0.  0.
         11    1    3    3    0    0 -0.38111762848E+02  0.38551950599E+02 -0.40144633525E+01  0.54358764506E+02  0.51100000000E-03 0.  1.
         22    1    1    0    0    0  0.81093019326E-01 -0.30157477425E+02 -0.54633731325E+01  0.30648465977E+02  0.00000000000E+00 0.  1.
</event>
<event>
 5    1  0.1044283E-009  0.9118800E+02  0.7815553E-02  0.1125453E+00
         25   -1    0    0    0    0  0.00000000000E+00  0.00000000000E+00  0.99999998245E-14  0.12509000000E+03  0.12509000000E+03 0.  0.
        -11    1    3    3    0    0 -0.17249301737E+02  0.48945886940E+02 -0.22123177388E+02  0.56415186225E+02  0.51100000000E-03 0.  1.
         23    2    1    0    0    0 -0.25034486786E+02  0.17842843480E+02 -0.19719033388E+01  0.94284464866E+02  0.89109928292E+02 0.  0.
         11    1    3    3    0    0 -0.77851850493E+01 -0.31103043461E+02  0.20151274049E+02  0.37869278642E+02  0.51100000000E-03 0. -1.
         22    1    1    0    0    0  0.25034486786E+02 -0.17842843480E+02  0.19719033388E+01  0.30805535134E+02  0.00000000000E+00 0.  1.
</event>
<event>
 5    1  0.1044283E-009  0.9118800E+02  0.7815553E-02  0.1125453E+00
         25   -1    0    0    0    0  0.00000000000E+00  0.00000000000E+00  0.99999998245E-14  0.12509000000E+03  0.12509000000E+03 0.  0.
        -11    1    3    3    0    0 -0.38515661549E+02 -0.92685085422E+01  0.25013979545E+01  0.39694060351E+02  0.51100000000E-03 0.  1.
         23    2    1    0    0    0 -0.29376588250E+02  0.21727109367E+02  0.26506724922E+02  0.79949578151E+02  0.65986948420E+02 0.  0.
         11    1    3    3    0    0  0.91390732983E+01  0.30995617909E+02  0.24005326967E+02  0.40255517800E+02  0.51100000000E-03 0. -1.
         22    1    1    0    0    0  0.29376588250E+02 -0.21727109367E+02 -0.26506724922E+02  0.45140421849E+02  0.00000000000E+00 0. -1.
</event>
<event>
 5    1  0.1044283E-009  0.9118800E+02  0.7815553E-02  0.1125453E+00
         25   -1    0    0    0    0  0.00000000000E+00  0.00000000000E+00  0.99999998245E-14  0.12509000000E+03  0.12509000000E+03 0.  0.
        -11    1    3    3    0    0  0.31455983261E+02 -0.37190933125E+02 -0.29804753398E+01  0.48800897770E+02  0.51100000000E-03 0.  1.
         23    2    1    0    0    0 -0.94860309528E+01 -0.15020844637E+02 -0.19968614536E+02  0.98362558608E+02  0.94661696650E+02 0.  0.
         11    1    3    3    0    0 -0.40942014214E+02  0.22170088488E+02 -0.16988139196E+02  0.49561660838E+02  0.51100000000E-03 0. -1.
         22    1    1    0    0    0  0.94860309528E+01  0.15020844637E+02  0.19968614536E+02  0.26727441392E+02  0.00000000000E+00 0. -1.
</event>
<event>
 5    1  0.1044283E-009  0.9118800E+02  0.7815553E-02  0.1125453E+00
         25   -1    0    0    0    0  0.00000000000E+00  0.00000000000E+00  0.99999998245E-14  0.12509000000E+03  0.12509000000E+03 0.  0.
        -11    1    3    3    0    0 -0.32074960327E+02 -0.23959804938E+02 -0.99305265272E+01  0.41249129566E+02  0.51100000000E-03 0. -1.
         23    2    1    0    0    0 -0.58058920353E+01  0.23134189646E+02 -0.17230060791E+02  0.95665960377E+02  0.91028577200E+02 0.  0.
         11    1    3    3    0    0  0.26269068292E+02  0.47093994583E+02 -0.72995342640E+01  0.54416830810E+02  0.51100000000E-03 0.  1.
         22    1    1    0    0    0  0.58058920353E+01 -0.23134189646E+02  0.17230060791E+02  0.29424039623E+02  0.00000000000E+00 0.  1.
</event>
<event>
 5    1  0.1044283E-009  0.9118800E+02  0.7815553E-02  0.1125453E+00
         25   -1    0    0    0    0  0.00000000000E+00  0.00000000000E+00  0.99999998245E-14  0.12509000000E+03  0.12509000000E+03 0.  0.
        -11    1    3    3    0    0 -0.52750575282E+01  0.48657958338E+01 -0.48953634558E+02  0.49476868714E+02  0.51100000000E-03 0. -1.
         23    2    1    0    0    0 -0.22184186884E+02  0.17370981883E+02 -0.75431822690E+01  0.95921716574E+02  0.91379357365E+02 0.  0.
         11    1    3    3    0    0 -0.16909129355E+02  0.12505186050E+02  0.41410452289E+02  0.46444847860E+02  0.51100000000E-03 0.  1.
         22    1    1    0    0    0  0.22184186884E+02 -0.17370981883E+02  0.75431822690E+01  0.29168283426E+02  0.00000000000E+00 0. -1.
</event>
<event>
 5    1  0.1044283E-009  0.9118800E+02  0.7815553E-02  0.1125453E+00
         25   -1    0    0    0    0  0.00000000000E+00  0.00000000000E+00  0.99999998245E-14  0.12509000000E+03  0.12509000000E+03 0.  0.
        -11    1    3    3    0    0 -0.69213245895E+01  0.49349211077E+02 -0.10505175639E+02  0.50927478668E+02  0.51100000000E-03 0. -1.
         23    2    1    0    0    0 -0.16325768131E+02  0.75399306780E+01 -0.23306316408E+02  0.95652512944E+02  0.91010096079E+02 0.  0.
         11    1    3    3    0    0 -0.94044435411E+01 -0.41809280399E+02 -0.12801140769E+02  0.44725034276E+02  0.51100000000E-03 0.  1.
         22    1    1    0    0    0  0.16325768131E+02 -0.75399306780E+01  0.23306316408E+02  0.29437487056E+02  0.00000000000E+00 0. -1.
</event>
<event>
 5    1  0.1044283E-009  0.9118800E+02  0.7815553E-02  0.1125453E+00
         25   -1    0    0    0    0  0.00000000000E+00  0.00000000000E+00  0.99999998245E-14  0.12509000000E+03  0.12509000000E+03 0.  0.
        -11    1    3    3    0    0  0.17727954803E+02 -0.34415269699E+01 -0.40002623498E+02  0.43890025933E+02  0.51100000000E-03 0.  1.
         23    2    1    0    0    0 -0.10835890959E+01 -0.26386614311E+02  0.54065430304E+01  0.98133399924E+02  0.94358390687E+02 0.  0.
         11    1    3    3    0    0 -0.18811543899E+02 -0.22945087341E+02  0.45409166528E+02  0.54243373992E+02  0.51100000000E-03 0. -1.
         22    1    1    0    0    0  0.10835890959E+01  0.26386614311E+02 -0.54065430304E+01  0.26956600076E+02  0.00000000000E+00 0. -1.
</event>
<event>
 5    1  0.1044283E-009  0.9118800E+02  0.7815553E-02  0.1125453E+00
         25   -1    0    0    0    0  0.00000000000E+00  0.00000000000E+00  0.99999998245E-14  0.12509000000E+03  0.12509000000E+03 0.  0.
        -11    1    3    3    0    0  0.28971439722E+02  0.22025865845E+02 -0.17996154445E+02  0.40599811094E+02  0.51100000000E-03 0.  1.
         23    2    1    0    0    0  0.67860056449E+01  0.89920355966E+00  0.28222208274E+02  0.96049485550E+02  0.91554094364E+02 0.  0.
         11    1    3    3    0    0 -0.22185434077E+02 -0.21126662285E+02  0.46218362720E+02  0.55449674456E+02  0.51100000000E-03 0. -1.
         22    1    1    0    0    0 -0.67860056449E+01 -0.89920355966E+00 -0.28222208274E+02  0.29040514450E+02  0.00000000000E+00 0. -1.
</event>
<event>
 5    1  0.1044283E-009  0.9118800E+02  0.7815553E-02  0.1125453E+00
         25   -1    0    0    0    0  0.00000000000E+00  0.00000000000E+00  0.99999998245E-14  0.12509000000E+03  0.12509000000E+03 0.  0.
        -11    1    3    3    0    0 -0.34072584145E+01 -0.13912107046E+02  0.58914855919E+02  0.60630985318E+02  0.51100000000E-03 0. -1.
         23    2    1    0    0    0  0.25375167269E+01  0.37958265574E+01  0.27764697768E+02  0.96952378698E+02  0.92779512839E+02 0.  0.
         11    1    3    3    0    0  0.59447751414E+01  0.17707933603E+02 -0.31150158151E+02  0.36321393380E+02  0.51100000000E-03 0.  1.
         22    1    1    0    0    0 -0.25375167269E+01 -0.37958265574E+01 -0.27764697768E+02  0.28137621302E+02  0.00000000000E+00 0. -1.
</event>
<event>
 5    1  0.1044283E-009  0.9118800E+02  0.7815553E-02  0.1125453E+00
         25   -1    0    0    0    0  0.00000000000E+00  0.00000000000E+00  0.99999998245E-14  0.12509000000E+03  0.12509000000E+03 0.  0.
        -11    1    3    3    0    0 -0.24071006889E+02 -0.13923305070E+02 -0.35791112762E+02  0.45324116646E+02  0.51100000000E-03 0.  1.
         23    2    1    0    0    0 -0.45976188766E+01 -0.16700552250E+02  0.16484428694E+02  0.10117801693E+03  0.98311790628E+02 0.  0.
         11    1    3    3    0    0  0.19473388013E+02 -0.27772471803E+01  0.52275541456E+02  0.55853900288E+02  0.51100000000E-03 0. -1.
         22    1    1    0    0    0  0.45976188766E+01  0.16700552250E+02 -0.16484428694E+02  0.23911983067E+02  0.00000000000E+00 0. -1.
</event>
<event>
 5    1  0.1044283E-009  0.9118800E+02  0.7815553E-02  0.1125453E+00
         25   -1    0    0    0    0  0.00000000000E+00  0.00000000000E+00  0.99999998245E-14  0.12509000000E+03  0.12509000000E+03 0.  0.
        -11    1    3    3    0    0 -0.38181028181E+02  0.80707211215E+00  0.11651101235E+01  0.38207326002E+02  0.51100000000E-03 0.  1.
         23    2    1    0    0    0  0.13184059299E+02 -0.83781435348E+01 -0.24247443009E+02  0.96246435706E+02  0.91822792296E+02 0.  0.
         11    1    3    3    0    0  0.51365087480E+02 -0.91852156469E+01 -0.25412553133E+02  0.58039109704E+02  0.51100000000E-03 0. -1.
         22    1    1    0    0    0 -0.13184059299E+02  0.83781435348E+01  0.24247443009E+02  0.28843564294E+02  0.00000000000E+00 0. -1.
</event>
<event>
 5    1  0.1044283E-009  0.9118800E+02  0.7815553E-02  0.1125453E+00
         25   -1    0    0    0    0  0.00000000000E+00  0.00000000000E+00  0.99999998245E-14  0.12509000000E+03  0.12509000000E+03 0.  0.
        -11    1    3    3    0    0 -0.35769274842E+01 -0.34743293351E+02  0.13223246817E+01  0.34951958256E+02  0.51100000000E-03 0. -1.
         23    2    1    0    0    0  0.19010545131E+02  0.16263338860E+02  0.19225053464E+02  0.93538459661E+02  0.88056480386E+02 0.  0.
         11    1    3    3    0    0  0.22587472615E+02  0.51006632212E+02  0.17902728782E+02  0.58586501405E+02  0.51100000000E-03 0.  1.
         22    1    1    0    0    0 -0.19010545131E+02 -0.16263338860E+02 -0.19225053464E+02  0.31551540339E+02  0.00000000000E+00 0.  1.
</event>
<event>
 5    1  0.1044283E-009  0.9118800E+02  0.7815553E-02  0.1125453E+00
         25   -1    0    0    0    0  0.00000000000E+00  0.00000000000E+00  0.99999998245E-14  0.12509000000E+03  0.12509000000E+03 0.  0.
        -11    1    3    3    0    0  0.22913614009E+02  0.12793416868E+02 -0.38434089562E+02  0.46539063837E+02  0.51100000000E-03 0. -1.
         23    2    1    0    0    0 -0.15284648768E+02 -0.13212083148E+02 -0.21055794881E+02  0.95909079398E+02  0.91362056587E+02 0.  0.
         11    1    3    3    0    0 -0.38198262777E+02 -0.26005500016E+02  0.17378294681E+02  0.49370015561E+02  0.51100000000E-03 0.  1.
         22    1    1    0    0    0  0.15284648768E+02  0.13212083148E+02  0.21055794881E+02  0.29180920602E+02  0.00000000000E+00 0. -1.
</event>
<event>
 5    1  0.1044283E-009  0.9118800E+02  0.7815553E-02  0.1125453E+00
         25   -1    0    0    0    0  0.00000000000E+00  0.00000000000E+00  0.99999998245E-14  0.12509000000E+03  0.12509000000E+03 0.  0.
        -11    1    3    3    0    0 -0.15963718610E+02  0.49598058943E+02 -0.28638703102E+02  0.59455723681E+02  0.51100000000E-03 0.  1.
         23    2    1    0    0    0 -0.18932815106E+02  0.22064577580E+02 -0.55946356758E+01  0.95482618826E+02  0.90776282574E+02 0.  0.
         11    1    3    3    0    0 -0.29690964963E+01 -0.27533481363E+02  0.23044067426E+02  0.36026895145E+02  0.51100000000E-03 0. -1.
         22    1    1    0    0    0  0.18932815106E+02 -0.22064577580E+02  0.55946356758E+01  0.29607381174E+02  0.00000000000E+00 0.  1.
</event>
<event>
 5    1  0.1044283E-009  0.9118800E+02  0.7815553E-02  0.1125453E+00
         25   -1    0    0    0    0  0.00000000000E+00  0.00000000000E+00  0.99999998245E-14  0.12509000000E+03  0.12509000000E+03 0.  0.
        -11    1    3    3    0    0  0.14578041638E+02  0.32198424561E+02 -0.19685656802E+02  0.40457173977E+02  0.51100000000E-03 0.  1.
         23    2    1    0    0    0  0.81415487636E+01 -0.23130187824E+02 -0.14975052813E+02  0.96357742661E+02  0.91974300535E+02 0.  0.
         11    1    3    3    0    0 -0.64364928741E+01 -0.55328612385E+02  0.47106039884E+01  0.55900568684E+02  0.51100000000E-03 0. -1.
         22    1    1    0    0    0 -0.81415487636E+01  0.23130187824E+02  0.14975052813E+02  0.28732257339E+02  0.00000000000E+00 0. -1.
</event>
<event>
 5    1  0.1044283E-009  0.9118800E+02  0.7815553E-02  0.1125453E+00
         25   -1    0    0    0    0  0.00000000000E+00  0.00000000000E+00  0.99999998245E-14  0.12509000000E+03  0.12509000000E+03 0.  0.
        -11    1    3    3    0    0  0.15223208631E+02 -0.46522428803E+02  0.10839100364E+02  0.50135501989E+02  0.51100000000E-03 0. -1.
         23    2    1    0    0    0 -0.47823756453E+01 -0.94837766406E+01  0.27654554440E+02  0.95465896343E+02  0.90753236015E+02 0.  0.
         11    1    3    3    0    0 -0.20005584276E+02  0.37038652163E+02  0.16815454076E+02  0.45330394354E+02  0.51100000000E-03 0.  1.
         22    1    1    0    0    0  0.47823756453E+01  0.94837766406E+01 -0.27654554440E+02  0.29624103657E+02  0.00000000000E+00 0.  1.
</event>
<event>
 5    1  0.1044283E-009  0.9118800E+02  0.7815553E-02  0.1125453E+00
         25   -1    0    0    0    0  0.00000000000E+00  0.00000000000E+00  0.99999998245E-14  0.12509000000E+03  0.12509000000E+03 0.  0.
        -11    1    3    3    0    0  0.38462075213E+02 -0.43295347565E+02  0.11493842850E+02  0.59041737561E+02  0.51100000000E-03 0. -1.
         23    2    1    0    0    0  0.23101905385E+02 -0.15112368944E+02 -0.76879321718E+01  0.96433656399E+02  0.92077489420E+02 0.  0.
         11    1    3    3    0    0 -0.15360169828E+02  0.28182978622E+02 -0.19181775022E+02  0.37391918838E+02  0.51100000000E-03 0.  1.
         22    1    1    0    0    0 -0.23101905385E+02  0.15112368944E+02  0.76879321718E+01  0.28656343601E+02  0.00000000000E+00 0. -1.
</event>
<event>
 5    1  0.1044283E-009  0.9118800E+02  0.7815553E-02  0.1125453E+00
         25   -1    0    0    0    0  0.00000000000E+00  0.00000000000E+00  0.99999998245E-14  0.12509000000E+03  0.12509000000E+03 0.  0.
        -11    1    3    3    0    0 -0.11390652869E+02  0.42114263544E+02  0.31942854422E+00  0.43628662614E+02  0.51100000000E-03 0.  1.
         23    2    1    0    0    0 -0.23801850225E+02 -0.51811404009E+01 -0.16870658931E+02  0.95459079955E+02  0.90743840138E+02 0.  0.
         11    1    3    3    0    0 -0.12411197356E+02 -0.47295403944E+02 -0.17190087475E+02  0.51830417341E+02  0.51100000000E-03 0. -1.
         22    1    1    0    0    0  0.23801850225E+02  0.51811404009E+01  0.16870658931E+02  0.29630920045E+02  0.00000000000E+00 0.  1.
</event>
<event>
 5    1  0.1044283E-009  0.9118800E+02  0.7815553E-02  0.1125453E+00
         25   -1    0    0    0    0  0.00000000000E+00  0.00000000000E+00  0.99999998245E-14  0.12509000000E+03  0.12509000000E+03 0.  0.
        -11    1    3    3    0    0  0.50285035894E+02  0.32004338392E+02 -0.91976935395E+01  0.60311359440E+02  0.51100000000E-03 0.  1.
         23    2    1    0    0    0  0.30694698833E+02  0.60142829148E+01 -0.13918435318E+01  0.93780682475E+02  0.88399904082E+02 0.  0.
         11    1    3    3    0    0 -0.19590337061E+02 -0.25990055477E+02  0.78058500078E+01  0.33469323035E+02  0.51100000000E-03 0. -1.
         22    1    1    0    0    0 -0.30694698833E+02 -0.60142829148E+01  0.13918435318E+01  0.31309317525E+02  0.00000000000E+00 0.  1.
</event>
<event>
 5    1  0.1044283E-009  0.9118800E+02  0.7815553E-02  0.1125453E+00
         25   -1    0    0    0    0  0.00000000000E+00  0.00000000000E+00  0.99999998245E-14  0.12509000000E+03  0.12509000000E+03 0.  0.
        -11    1    3    3    0    0  0.32390528891E+02  0.34623194656E+01  0.12323465928E+02  0.34828175816E+02  0.51100000000E-03 0.  1.
         23    2    1    0    0    0 -0.16277231676E+02 -0.85170943109E+01 -0.22636656808E+02  0.95936828681E+02  0.91400042119E+02 0.  0.
         11    1    3    3    0    0 -0.48667760567E+02 -0.11979413777E+02 -0.34960122735E+02  0.61108652865E+02  0.51100000000E-03 0. -1.
         22    1    1    0    0    0  0.16277231676E+02  0.85170943109E+01  0.22636656808E+02  0.29153171319E+02  0.00000000000E+00 0. -1.
</event>
<event>
 5    1  0.1044283E-009  0.9118800E+02  0.7815553E-02  0.1125453E+00
         25   -1    0    0    0    0  0.00000000000E+00  0.00000000000E+00  0.99999998245E-14  0.12509000000E+03  0.12509000000E+03 0.  0.
        -11    1    3    3    0    0  0.37282882805E+02  0.69697276529E+01  0.15110147988E+02  0.40827772733E+02  0.51100000000E-03 0.  1.
         23    2    1    0    0    0  0.68323437409E+01 -0.98785704667E+01 -0.27048546581E+02  0.95494545153E+02  0.90792715602E+02 0.  0.
         11    1    3    3    0    0 -0.30450539064E+02 -0.16848298120E+02 -0.42158694569E+02  0.54666772420E+02  0.51100000000E-03 0. -1.
         22    1    1    0    0    0 -0.68323437409E+01  0.98785704667E+01  0.27048546581E+02  0.29595454847E+02  0.00000000000E+00 0.  1.
</event>
<event>
 5    1  0.1044283E-009  0.9118800E+02  0.7815553E-02  0.1125453E+00
         25   -1    0    0    0    0  0.00000000000E+00  0.00000000000E+00  0.99999998245E-14  0.12509000000E+03  0.12509000000E+03 0.  0.
        -11    1    3    3    0    0  0.18999475651E+02  0.43362957524E+02 -0.39944901823E+02  0.61942887745E+02  0.51100000000E-03 0. -1.
         23    2    1    0    0    0  0.13753684758E+02  0.16268299852E+02 -0.16879904157E+02  0.97909996526E+02  0.94061760726E+02 0.  0.
         11    1    3    3    0    0 -0.52457908929E+01 -0.27094657672E+02  0.23064997666E+02  0.35967108781E+02  0.51100000000E-03 0.  1.
         22    1    1    0    0    0 -0.13753684758E+02 -0.16268299852E+02  0.16879904157E+02  0.27180003474E+02  0.00000000000E+00 0. -1.
</event>
<event>
 5    1  0.1044283E-009  0.9118800E+02  0.7815553E-02  0.1125453E+00
         25   -1    0    0    0    0  0.00000000000E+00  0.00000000000E+00  0.99999998245E-14  0.12509000000E+03  0.12509000000E+03 0.  0.
        -11    1    3    3    0    0  0.25782177182E+02  0.30468462493E+02  0.18685911805E+02  0.44070524925E+02  0.51100000000E-03 0.  1.
         23    2    1    0    0    0  0.21690222373E+02 -0.19164928209E+02  0.87332945707E+01  0.94857060118E+02  0.89910128463E+02 0.  0.
         11    1    3    3    0    0 -0.40919548085E+01 -0.49633390703E+02 -0.99526172340E+01  0.50786535192E+02  0.51100000000E-03 0. -1.
         22    1    1    0    0    0 -0.21690222373E+02  0.19164928209E+02 -0.87332945707E+01  0.30232939882E+02  0.00000000000E+00 0.  1.
</event>
<event>
 5    1  0.1044283E-009  0.9118800E+02  0.7815553E-02  0.1125453E+00
         25   -1    0    0    0    0  0.00000000000E+00  0.00000000000E+00  0.99999998245E-14  0.12509000000E+03  0.12509000000E+03 0.  0.
        -11    1    3    3    0    0  0.20868387842E+02  0.21390922916E+02  0.23602947204E+02  0.38080970461E+02  0.51100000000E-03 0.  1.
         23    2    1    0    0    0 -0.27364678218E+02 -0.63384499341E+01  0.69905466346E+01  0.96144027849E+02  0.91683176140E+02 0.  0.
         11    1    3    3    0    0 -0.48233066060E+02 -0.27729372850E+02 -0.16612400569E+02  0.58063057387E+02  0.51100000000E-03 0. -1.
         22    1    1    0    0    0  0.27364678218E+02  0.63384499341E+01 -0.69905466346E+01  0.28945972151E+02  0.00000000000E+00 0. -1.
</event>
<event>
 5    1  0.1044283E-009  0.9118800E+02  0.7815553E-02  0.1125453E+00
         25   -1    0    0    0    0  0.00000000000E+00  0.00000000000E+00  0.99999998245E-14  0.12509000000E+03  0.12509000000E+03 0.  0.
        -11    1    3    3    0    0 -0.18540704842E+02  0.25584600975E+02 -0.44208938794E+02  0.54339302652E+02  0.51100000000E-03 0. -1.
         23    2    1    0    0    0 -0.48067859247E+01  0.29718297223E+02 -0.70487713599E+01  0.94171274954E+02  0.88950893576E+02 0.  0.
         11    1    3    3    0    0  0.13733918917E+02  0.41336962482E+01  0.37160167434E+02  0.39831972302E+02  0.51100000000E-03 0.  1.
         22    1    1    0    0    0  0.48067859247E+01 -0.29718297223E+02  0.70487713599E+01  0.30918725046E+02  0.00000000000E+00 0. -1.
</event>
<event>
 5    1  0.1044283E-009  0.9118800E+02  0.7815553E-02  0.1125453E+00
         25   -1    0    0    0    0  0.00000000000E+00  0.00000000000E+00  0.99999998245E-14  0.12509000000E+03  0.12509000000E+03 0.  0.
        -11    1    3    3    0    0  0.37046755291E+02  0.35235005948E+01  0.16055672998E+02  0.40529763998E+02  0.51100000000E-03 0.  1.
         23    2    1    0    0    0 -0.12381618443E+02  0.25836470603E+02  0.78983524358E+01  0.95371122839E+02  0.90622510514E+02 0.  0.
         11    1    3    3    0    0 -0.49428373734E+02  0.22312970008E+02 -0.81573205626E+01  0.54841358841E+02  0.51100000000E-03 0. -1.
         22    1    1    0    0    0  0.12381618443E+02 -0.25836470603E+02 -0.78983524358E+01  0.29718877161E+02  0.00000000000E+00 0. -1.
</event>
<event>
 5    1  0.1044283E-009  0.9118800E+02  0.7815553E-02  0.1125453E+00
         25   -1    0    0    0    0  0.00000000000E+00  0.00000000000E+00  0.99999998245E-14  0.12509000000E+03  0.12509000000E+03 0.  0.
        -11    1    3    3    0    0  0.57468615538E+01  0.33845811853E+02 -0.21145575704E+02  0.40319979785E+02  0.51100000000E-03 0.  1.
         23    2    1    0    0    0 -0.34366557407E+02  0.19011568985E+02 -0.11558693781E+02  0.84149757876E+02  0.73519237791E+02 0.  0.
         11    1    3    3    0    0 -0.40113418961E+02 -0.14834242869E+02  0.95868819230E+01  0.43829778091E+02  0.51100000000E-03 0. -1.
         22    1    1    0    0    0  0.34366557407E+02 -0.19011568985E+02  0.11558693781E+02  0.40940242124E+02  0.00000000000E+00 0. -1.
</event>
<event>
 5    1  0.1044283E-009  0.9118800E+02  0.7815553E-02  0.1125453E+00
         25   -1    0    0    0    0  0.00000000000E+00  0.00000000000E+00  0.99999998245E-14  0.12509000000E+03  0.12509000000E+03 0.  0.
        -11    1    3    3    0    0  0.31280604431E+02 -0.23628628831E+02  0.53548871322E+01  0.39565933965E+02  0.51100000000E-03 0. -1.
         23    2    1    0    0    0  0.15464930339E+01  0.25457024620E+02  0.11166476103E+02  0.97248629133E+02  0.93178076480E+02 0.  0.
         11    1    3    3    0    0 -0.29734111397E+02  0.49085653451E+02  0.58115889704E+01  0.57682695169E+02  0.51100000000E-03 0.  1.
         22    1    1    0    0    0 -0.15464930339E+01 -0.25457024620E+02 -0.11166476103E+02  0.27841370867E+02  0.00000000000E+00 0.  1.
</event>
<event>
 5    1  0.1044283E-009  0.9118800E+02  0.7815553E-02  0.1125453E+00
         25   -1    0    0    0    0  0.00000000000E+00  0.00000000000E+00  0.99999998245E-14  0.12509000000E+03  0.12509000000E+03 0.  0.
        -11    1    3    3    0    0 -0.53939767245E+02 -0.21636596365E+02  0.18693557414E+02  0.61049896656E+02  0.51100000000E-03 0.  1.
         23    2    1    0    0    0 -0.28253090937E+02 -0.15308294292E+02  0.87799113744E+00  0.92944208828E+02  0.87208222460E+02 0.  0.
         11    1    3    3    0    0  0.25686676308E+02  0.63283020723E+01 -0.17815566277E+02  0.31894312171E+02  0.51100000000E-03 0. -1.
         22    1    1    0    0    0  0.28253090937E+02  0.15308294292E+02 -0.87799113744E+00  0.32145791172E+02  0.00000000000E+00 0.  1.
</event>
<event>
 5    1  0.1044283E-009  0.9118800E+02  0.7815553E-02  0.1125453E+00
         25   -1    0    0    0    0  0.00000000000E+00  0.00000000000E+00  0.99999998245E-14  0.12509000000E+03  0.12509000000E+03 0.  0.
        -11    1    3    3    0    0  0.11757144262E+02  0.27121560764E+02 -0.17256843378E+02  0.34228761928E+02  0.51100000000E-03 0.  1.
         23    2    1    0    0    0 -0.15805439990E+02 -0.21139733641E+02  0.10901387772E+02  0.96532329804E+02  0.92211442730E+02 0.  0.
         11    1    3    3    0    0 -0.27562584252E+02 -0.48261294405E+02  0.28158231151E+02  0.62303567876E+02  0.51100000000E-03 0. -1.
         22    1    1    0    0    0  0.15805439990E+02  0.21139733641E+02 -0.10901387772E+02  0.28557670196E+02  0.00000000000E+00 0. -1.
</event>
<event>
 5    1  0.1044283E-009  0.9118800E+02  0.7815553E-02  0.1125453E+00
         25   -1    0    0    0    0  0.00000000000E+00  0.00000000000E+00  0.99999998245E-14  0.12509000000E+03  0.12509000000E+03 0.  0.
        -11    1    3    3    0    0 -0.20453496748E+02  0.36469187132E+01 -0.38012903865E+02  0.43320046235E+02  0.51100000000E-03 0. -1.
         23    2    1    0    0    0  0.22013006104E+02  0.15562440638E+02 -0.70026456399E+01  0.97236830660E+02  0.93162235882E+02 0.  0.
         11    1    3    3    0    0  0.42466502852E+02  0.11915521925E+02  0.31010258225E+02  0.53916784424E+02  0.51100000000E-03 0.  1.
         22    1    1    0    0    0 -0.22013006104E+02 -0.15562440638E+02  0.70026456399E+01  0.27853169340E+02  0.00000000000E+00 0.  1.
</event>
<event>
 5    1  0.1044283E-009  0.9118800E+02  0.7815553E-02  0.1125453E+00
         25   -1    0    0    0    0  0.00000000000E+00  0.00000000000E+00  0.99999998245E-14  0.12509000000E+03  0.12509000000E+03 0.  0.
        -11    1    3    3    0    0 -0.30491280183E+02  0.20440207282E+02 -0.41634505630E+02  0.55506326669E+02  0.51100000000E-03 0. -1.
         23    2    1    0    0    0 -0.27634620184E+02 -0.52216431459E+01 -0.12864822444E+02  0.94163612458E+02  0.88940117297E+02 0.  0.
         11    1    3    3    0    0  0.28566599983E+01 -0.25661850428E+02  0.28769683186E+02  0.38657285790E+02  0.51100000000E-03 0.  1.
         22    1    1    0    0    0  0.27634620184E+02  0.52216431459E+01  0.12864822444E+02  0.30926387542E+02  0.00000000000E+00 0. -1.
</event>
<event>
 5    1  0.1044283E-009  0.9118800E+02  0.7815553E-02  0.1125453E+00
         25   -1    0    0    0    0  0.00000000000E+00  0.00000000000E+00  0.99999998245E-14  0.12509000000E+03  0.12509000000E+03 0.  0.
        -11    1    3    3    0    0  0.66511094035E+01  0.21228206033E+02  0.31237489572E+02  0.38349116583E+02  0.51100000000E-03 0. -1.
         23    2    1    0    0    0 -0.24410523952E+02 -0.71291817161E+01 -0.10476618152E+02  0.97586210453E+02  0.93630176925E+02 0.  0.
         11    1    3    3    0    0 -0.31061633356E+02 -0.28357387749E+02 -0.41714107724E+02  0.59237093870E+02  0.51100000000E-03 0.  1.
         22    1    1    0    0    0  0.24410523952E+02  0.71291817161E+01  0.10476618152E+02  0.27503789547E+02  0.00000000000E+00 0.  1.
</event>
<event>
 5    1  0.1044283E-009  0.9118800E+02  0.7815553E-02  0.1125453E+00
         25   -1    0    0    0    0  0.00000000000E+00  0.00000000000E+00  0.99999998245E-14  0.12509000000E+03  0.12509000000E+03 0.  0.
        -11    1    3    3    0    0  0.12758100787E+02  0.36008433344E+01  0.47222462110E+02  0.49047896351E+02  0.51100000000E-03 0. -1.
         23    2    1    0    0    0 -0.21098548738E+02 -0.96947898713E+01  0.19056333753E+02  0.95051997976E+02  0.90180933426E+02 0.  0.
         11    1    3    3    0    0 -0.33856649525E+02 -0.13295633206E+02 -0.28166128358E+02  0.46004101625E+02  0.51100000000E-03 0.  1.
         22    1    1    0    0    0  0.21098548738E+02  0.96947898713E+01 -0.19056333753E+02  0.30038002024E+02  0.00000000000E+00 0. -1.
</event>
<event>
 5    1  0.1044283E-009  0.9118800E+02  0.7815553E-02  0.1125453E+00
         25   -1    0    0    0    0  0.00000000000E+00  0.00000000000E+00  0.99999998245E-14  0.12509000000E+03  0.12509000000E+03 0.  0.
        -11    1    3    3    0    0 -0.44563921980E+02 -0.21982491430E+02 -0.19999610115E+01  0.49731005580E+02  0.51100000000E-03 0.  1.
         23    2    1    0    0    0 -0.19446882963E+02  0.10717689806E+02  0.18874848123E+02  0.95947075929E+02  0.91414065417E+02 0.  0.
         11    1    3    3    0    0  0.25117039017E+02  0.32700181236E+02  0.20874809134E+02  0.46216070349E+02  0.51100000000E-03 0. -1.
         22    1    1    0    0    0  0.19446882963E+02 -0.10717689806E+02 -0.18874848123E+02  0.29142924071E+02  0.00000000000E+00 0. -1.
</event>
<event>
 5    1  0.1044283E-009  0.9118800E+02  0.7815553E-02  0.1125453E+00
         25   -1    0    0    0    0  0.00000000000E+00  0.00000000000E+00  0.99999998245E-14  0.12509000000E+03  0.12509000000E+03 0.  0.
        -11    1    3    3    0    0 -0.35095040818E+02  0.29225922210E+02 -0.24902358248E+02  0.52018687657E+02  0.51100000000E-03 0. -1.
         23    2    1    0    0    0 -0.16861380761E+02  0.12969868113E+02  0.15178841235E+02  0.98957245433E+02  0.95444306076E+02 0.  0.
         11    1    3    3    0    0  0.18233660057E+02 -0.16256054096E+02  0.40081199482E+02  0.46938557776E+02  0.51100000000E-03 0.  1.
         22    1    1    0    0    0  0.16861380761E+02 -0.12969868113E+02 -0.15178841235E+02  0.26132754567E+02  0.00000000000E+00 0. -1.
</event>
<event>
 5    1  0.1044283E-009  0.9118800E+02  0.7815553E-02  0.1125453E+00
         25   -1    0    0    0    0  0.00000000000E+00  0.00000000000E+00  0.99999998245E-14  0.12509000000E+03  0.12509000000E+03 0.  0.
        -11    1    3    3    0    0 -0.31956270843E+02 -0.55748012762E+01 -0.49273324507E+02  0.58992729753E+02  0.51100000000E-03 0.  1.
         23    2    1    0    0    0 -0.19190304469E+02 -0.27019821450E+01 -0.51182017979E+01  0.10504593647E+03  0.10311587795E+03 0.  0.
         11    1    3    3    0    0  0.12765966374E+02  0.28728191312E+01  0.44155122709E+02  0.46053206717E+02  0.51100000000E-03 0. -1.
         22    1    1    0    0    0  0.19190304469E+02  0.27019821450E+01  0.51182017979E+01  0.20044063530E+02  0.00000000000E+00 0.  1.
</event>
<event>
 5    1  0.1044283E-009  0.9118800E+02  0.7815553E-02  0.1125453E+00
         25   -1    0    0    0    0  0.00000000000E+00  0.00000000000E+00  0.99999998245E-14  0.12509000000E+03  0.12509000000E+03 0.  0.
        -11    1    3    3    0    0 -0.10332917849E+02 -0.19983235317E+02  0.42892319942E+02  0.48433975629E+02  0.51100000000E-03 0. -1.
         23    2    1    0    0    0 -0.53969340397E+01  0.20876008474E+02  0.20734285952E+02  0.95176036023E+02  0.90352822824E+02 0.  0.
         11    1    3    3    0    0  0.49359838091E+01  0.40859243791E+02 -0.22158033990E+02  0.46742060394E+02  0.51100000000E-03 0.  1.
         22    1    1    0    0    0  0.53969340397E+01 -0.20876008474E+02 -0.20734285952E+02  0.29913963977E+02  0.00000000000E+00 0.  1.
</event>
<event>
 5    1  0.1044283E-009  0.9118800E+02  0.7815553E-02  0.1125453E+00
         25   -1    0    0    0    0  0.00000000000E+00  0.00000000000E+00  0.99999998245E-14  0.12509000000E+03  0.12509000000E+03 0.  0.
        -11    1    3    3    0    0 -0.63461771558E+01  0.50567282455E+02 -0.22379690574E+02  0.55661248367E+02  0.51100000000E-03 0.  1.
         23    2    1    0    0    0  0.61873250206E+01  0.28471578289E+02  0.76224536716E+01  0.94973300958E+02  0.90071706622E+02 0.  0.
         11    1    3    3    0    0  0.12533502176E+02 -0.22095704166E+02  0.30002144245E+02  0.39312052591E+02  0.51100000000E-03 0. -1.
         22    1    1    0    0    0 -0.61873250206E+01 -0.28471578289E+02 -0.76224536716E+01  0.30116699042E+02  0.00000000000E+00 0.  1.
</event>
<event>
 5    1  0.1044283E-009  0.9118800E+02  0.7815553E-02  0.1125453E+00
         25   -1    0    0    0    0  0.00000000000E+00  0.00000000000E+00  0.99999998245E-14  0.12509000000E+03  0.12509000000E+03 0.  0.
        -11    1    3    3    0    0 -0.23760065163E+02 -0.41060398619E+01 -0.35393792205E+01  0.24370627103E+02  0.51100000000E-03 0.  1.
         23    2    1    0    0    0  0.31497754945E+02  0.12543073960E+02 -0.21657802174E+02  0.84859443629E+02  0.74716982722E+02 0.  0.
         11    1    3    3    0    0  0.55257820107E+02  0.16649113822E+02 -0.18118422954E+02  0.60488816525E+02  0.51100000000E-03 0. -1.
         22    1    1    0    0    0 -0.31497754945E+02 -0.12543073960E+02  0.21657802174E+02  0.40230556371E+02  0.00000000000E+00 0. -1.
</event>
<event>
 5    1  0.1044283E-009  0.9118800E+02  0.7815553E-02  0.1125453E+00
         25   -1    0    0    0    0  0.00000000000E+00  0.00000000000E+00  0.99999998245E-14  0.12509000000E+03  0.12509000000E+03 0.  0.
        -11    1    3    3    0    0  0.10932437980E+02  0.34676245627E+02  0.22959361989E+02  0.43001075733E+02  0.51100000000E-03 0.  1.
         23    2    1    0    0    0 -0.16066064175E+02  0.20016132483E+02 -0.17663489219E+02  0.93932932919E+02  0.88615083692E+02 0.  0.
         11    1    3    3    0    0 -0.26998502155E+02 -0.14660113144E+02 -0.40622851208E+02  0.50931857187E+02  0.51100000000E-03 0. -1.
         22    1    1    0    0    0  0.16066064175E+02 -0.20016132483E+02  0.17663489219E+02  0.31157067081E+02  0.00000000000E+00 0. -1.
</event>
<event>
 5    1  0.1044283E-009  0.9118800E+02  0.7815553E-02  0.1125453E+00
         25   -1    0    0    0    0  0.00000000000E+00  0.00000000000E+00  0.99999998245E-14  0.12509000000E+03  0.12509000000E+03 0.  0.
        -11    1    3    3    0    0 -0.41220792562E+01  0.29000912773E+02  0.21715703055E+02  0.36463903226E+02  0.51100000000E-03 0.  1.
         23    2    1    0    0    0  0.45356468358E+01 -0.27843791135E+02  0.42313864599E+01  0.96563636258E+02  0.92253901918E+02 0.  0.
         11    1    3    3    0    0  0.86577260920E+01 -0.56844703907E+02 -0.17484316596E+02  0.60099733032E+02  0.51100000000E-03 0. -1.
         22    1    1    0    0    0 -0.45356468358E+01  0.27843791135E+02 -0.42313864599E+01  0.28526363742E+02  0.00000000000E+00 0. -1.
</event>
<event>
 5    1  0.1044283E-009  0.9118800E+02  0.7815553E-02  0.1125453E+00
         25   -1    0    0    0    0  0.00000000000E+00  0.00000000000E+00  0.99999998245E-14  0.12509000000E+03  0.12509000000E+03 0.  0.
        -11    1    3    3    0    0 -0.29842572752E+02 -0.21229811103E+02 -0.66015491672E+01  0.37213767339E+02  0.51100000000E-03 0.  1.
         23    2    1    0    0    0  0.38874003792E+01  0.27663555945E+02 -0.54719298211E+01  0.96623770443E+02  0.92335403770E+02 0.  0.
         11    1    3    3    0    0  0.33729973131E+02  0.48893367048E+02  0.11296193461E+01  0.59410003104E+02  0.51100000000E-03 0. -1.
         22    1    1    0    0    0 -0.38874003792E+01 -0.27663555945E+02  0.54719298211E+01  0.28466229557E+02  0.00000000000E+00 0. -1.
</event>
<event>
 5    1  0.1044283E-009  0.9118800E+02  0.7815553E-02  0.1125453E+00
         25   -1    0    0    0    0  0.00000000000E+00  0.00000000000E+00  0.99999998245E-14  0.12509000000E+03  0.12509000000E+03 0.  0.
        -11    1    3    3    0    0  0.13710964203E+02  0.53594261531E+02  0.86158808832E+01  0.55987220079E+02  0.51100000000E-03 0.  1.
         23    2    1    0    0    0  0.59919833417E+01  0.17371506811E+02  0.22940645264E+02  0.95697036244E+02  0.91071271142E+02 0.  0.
         11    1    3    3    0    0 -0.77189808613E+01 -0.36222754720E+02  0.14324764381E+02  0.39709816165E+02  0.51100000000E-03 0. -1.
         22    1    1    0    0    0 -0.59919833417E+01 -0.17371506811E+02 -0.22940645264E+02  0.29392963756E+02  0.00000000000E+00 0.  1.
</event>
<event>
 5    1  0.1044283E-009  0.9118800E+02  0.7815553E-02  0.1125453E+00
         25   -1    0    0    0    0  0.00000000000E+00  0.00000000000E+00  0.99999998245E-14  0.12509000000E+03  0.12509000000E+03 0.  0.
        -11    1    3    3    0    0  0.11667399065E+02 -0.16422554510E+02 -0.40694572540E+02  0.45407892839E+02  0.51100000000E-03 0.  1.
         23    2    1    0    0    0 -0.17791443683E+02 -0.56434498053E+01 -0.44333836957E+02  0.76987265220E+02  0.60109615809E+02 0.  0.
         11    1    3    3    0    0 -0.29458842747E+02  0.10779104704E+02 -0.36392644165E+01  0.31579372381E+02  0.51100000000E-03 0. -1.
         22    1    1    0    0    0  0.17791443683E+02  0.56434498053E+01  0.44333836957E+02  0.48102734780E+02  0.00000000000E+00 0. -1.
</event>
<event>
 5    1  0.1044283E-009  0.9118800E+02  0.7815553E-02  0.1125453E+00
         25   -1    0    0    0    0  0.00000000000E+00  0.00000000000E+00  0.99999998245E-14  0.12509000000E+03  0.12509000000E+03 0.  0.
        -11    1    3    3    0    0 -0.41113331439E+01  0.60466216385E+02  0.15109389968E+02  0.62460868147E+02  0.51100000000E-03 0.  1.
         23    2    1    0    0    0 -0.20432440112E+01  0.27751330684E+02  0.45903297463E+01  0.96887476567E+02  0.92691967222E+02 0.  0.
         11    1    3    3    0    0  0.20680891327E+01 -0.32714885701E+02 -0.10519060221E+02  0.34426608420E+02  0.51100000000E-03 0. -1.
         22    1    1    0    0    0  0.20432440112E+01 -0.27751330684E+02 -0.45903297463E+01  0.28202523433E+02  0.00000000000E+00 0.  1.
</event>
<event>
 5    1  0.1044283E-009  0.9118800E+02  0.7815553E-02  0.1125453E+00
         25   -1    0    0    0    0  0.00000000000E+00  0.00000000000E+00  0.99999998245E-14  0.12509000000E+03  0.12509000000E+03 0.  0.
        -11    1    3    3    0    0  0.31717309134E+02  0.26917284428E+02  0.83641317473E+01  0.42432141118E+02  0.51100000000E-03 0.  1.
         23    2    1    0    0    0  0.13600575570E+02 -0.23373641997E+02  0.10867790212E+02  0.95945332218E+02  0.91411679310E+02 0.  0.
         11    1    3    3    0    0 -0.18116733564E+02 -0.50290926425E+02  0.25036584643E+01  0.53513191100E+02  0.51100000000E-03 0. -1.
         22    1    1    0    0    0 -0.13600575570E+02  0.23373641997E+02 -0.10867790212E+02  0.29144667782E+02  0.00000000000E+00 0. -1.
</event>
<event>
 5    1  0.1044283E-009  0.9118800E+02  0.7815553E-02  0.1125453E+00
         25   -1    0    0    0    0  0.00000000000E+00  0.00000000000E+00  0.99999998245E-14  0.12509000000E+03  0.12509000000E+03 0.  0.
        -11    1    3    3    0    0  0.19086954209E+02 -0.48861619394E+02 -0.73597980848E+01  0.52971089274E+02  0.51100000000E-03 0.  1.
         23    2    1    0    0    0 -0.57379408059E+01 -0.23708103493E+02  0.16525633334E+02  0.95626553274E+02  0.90974408478E+02 0.  0.
         11    1    3    3    0    0 -0.24824895015E+02  0.25153515901E+02  0.23885431419E+02  0.42655464000E+02  0.51100000000E-03 0. -1.
         22    1    1    0    0    0  0.57379408059E+01  0.23708103493E+02 -0.16525633334E+02  0.29463446726E+02  0.00000000000E+00 0.  1.
</event>
<event>
 5    1  0.1044283E-009  0.9118800E+02  0.7815553E-02  0.1125453E+00
         25   -1    0    0    0    0  0.00000000000E+00  0.00000000000E+00  0.99999998245E-14  0.12509000000E+03  0.12509000000E+03 0.  0.
        -11    1    3    3    0    0  0.15753187486E+02 -0.35133211260E+02  0.15305440945E+02  0.41433826425E+02  0.51100000000E-03 0. -1.
         23    2    1    0    0    0 -0.24270243896E+02 -0.11364906554E+01  0.19244989443E+02  0.94094742807E+02  0.88843202641E+02 0.  0.
         11    1    3    3    0    0 -0.40023431383E+02  0.33996720605E+02  0.39395484975E+01  0.52660916382E+02  0.51100000000E-03 0.  1.
         22    1    1    0    0    0  0.24270243896E+02  0.11364906554E+01 -0.19244989443E+02  0.30995257193E+02  0.00000000000E+00 0.  1.
</event>
<event>
 5    1  0.1044283E-009  0.9118800E+02  0.7815553E-02  0.1125453E+00
         25   -1    0    0    0    0  0.00000000000E+00  0.00000000000E+00  0.99999998245E-14  0.12509000000E+03  0.12509000000E+03 0.  0.
        -11    1    3    3    0    0 -0.72472722470E+01  0.54928512755E+00 -0.43341532937E+02  0.43946708031E+02  0.51100000000E-03 0.  1.
         23    2    1    0    0    0  0.15055916502E+02  0.25081777511E+02 -0.37350972788E+01  0.95598863424E+02  0.90936326908E+02 0.  0.
         11    1    3    3    0    0  0.22303188750E+02  0.24532492383E+02  0.39606435658E+02  0.51652155393E+02  0.51100000000E-03 0. -1.
         22    1    1    0    0    0 -0.15055916502E+02 -0.25081777511E+02  0.37350972788E+01  0.29491136576E+02  0.00000000000E+00 0. -1.
</event>
<event>
 5    1  0.1044283E-009  0.9118800E+02  0.7815553E-02  0.1125453E+00
         25   -1    0    0    0    0  0.00000000000E+00  0.00000000000E+00  0.99999998245E-14  0.12509000000E+03  0.12509000000E+03 0.  0.
        -11    1    3    3    0    0 -0.20090317954E+02  0.30525272891E+02 -0.99283979429E+01  0.37868010861E+02  0.51100000000E-03 0. -1.
         23    2    1    0    0    0  0.80030618773E+00 -0.47539598052E+01  0.29766434747E+02  0.94935709072E+02  0.90019484534E+02 0.  0.
         11    1    3    3    0    0  0.20890624142E+02 -0.35279232696E+02  0.39694832690E+02  0.57067698212E+02  0.51100000000E-03 0.  1.
         22    1    1    0    0    0 -0.80030618773E+00  0.47539598052E+01 -0.29766434747E+02  0.30154290928E+02  0.00000000000E+00 0.  1.
</event>
<event>
 5    1  0.1044283E-009  0.9118800E+02  0.7815553E-02  0.1125453E+00
         25   -1    0    0    0    0  0.00000000000E+00  0.00000000000E+00  0.99999998245E-14  0.12509000000E+03  0.12509000000E+03 0.  0.
        -11    1    3    3    0    0  0.30330907318E+02  0.28440615577E+02 -0.13566945536E+02  0.43736650129E+02  0.51100000000E-03 0. -1.
         23    2    1    0    0    0  0.13760561275E+02 -0.42064285771E+01  0.24578722017E+02  0.96609117570E+02  0.92315550877E+02 0.  0.
         11    1    3    3    0    0 -0.16570346042E+02 -0.32647044154E+02  0.38145667553E+02  0.52872467441E+02  0.51100000000E-03 0.  1.
         22    1    1    0    0    0 -0.13760561275E+02  0.42064285771E+01 -0.24578722017E+02  0.28480882430E+02  0.00000000000E+00 0.  1.
</event>
<event>
 5    1  0.1044283E-009  0.9118800E+02  0.7815553E-02  0.1125453E+00
         25   -1    0    0    0    0  0.00000000000E+00  0.00000000000E+00  0.99999998245E-14  0.12509000000E+03  0.12509000000E+03 0.  0.
        -11    1    3    3    0    0 -0.44399251039E+02  0.17820747667E+02  0.51116651174E+01  0.48114464153E+02  0.51100000000E-03 0.  1.
         23    2    1    0    0    0 -0.10385814826E+02  0.83662261419E+01 -0.26449453045E+02  0.95468513612E+02  0.90756843464E+02 0.  0.
         11    1    3    3    0    0  0.34013436213E+02 -0.94545215251E+01 -0.31561118162E+02  0.47354049459E+02  0.51100000000E-03 0. -1.
         22    1    1    0    0    0  0.10385814826E+02 -0.83662261419E+01  0.26449453045E+02  0.29621486388E+02  0.00000000000E+00 0. -1.
</event>
<event>
 5    1  0.1044283E-009  0.9118800E+02  0.7815553E-02  0.1125453E+00
         25   -1    0    0    0    0  0.00000000000E+00  0.00000000000E+00  0.99999998245E-14  0.12509000000E+03  0.12509000000E+03 0.  0.
        -11    1    3    3    0    0 -0.26378210338E+02  0.31991815963E+02 -0.23833341575E+02  0.47825876261E+02  0.51100000000E-03 0. -1.
         23    2    1    0    0    0 -0.13437112369E+02 -0.16964244188E+02 -0.13727803123E+02  0.99462004600E+02  0.96103570229E+02 0.  0.
         11    1    3    3    0    0  0.12941097969E+02 -0.48956060150E+02  0.10105538452E+02  0.51636128338E+02  0.51100000000E-03 0.  1.
         22    1    1    0    0    0  0.13437112369E+02  0.16964244188E+02  0.13727803123E+02  0.25627995400E+02  0.00000000000E+00 0.  1.
</event>
<event>
 5    1  0.1044283E-009  0.9118800E+02  0.7815553E-02  0.1125453E+00
         25   -1    0    0    0    0  0.00000000000E+00  0.00000000000E+00  0.99999998245E-14  0.12509000000E+03  0.12509000000E+03 0.  0.
        -11    1    3    3    0    0  0.74675998205E-01  0.54301450022E+01 -0.43951964647E+02  0.44286197035E+02  0.51100000000E-03 0.  1.
         23    2    1    0    0    0 -0.24177538809E+02 -0.18159168299E+02 -0.76697633453E+01  0.93894903495E+02  0.88561384680E+02 0.  0.
         11    1    3    3    0    0 -0.24252214807E+02 -0.23589313301E+02  0.36282201302E+02  0.49608706460E+02  0.51100000000E-03 0. -1.
         22    1    1    0    0    0  0.24177538809E+02  0.18159168299E+02  0.76697633453E+01  0.31195096505E+02  0.00000000000E+00 0.  1.
</event>
<event>
 5    1  0.1044283E-009  0.9118800E+02  0.7815553E-02  0.1125453E+00
         25   -1    0    0    0    0  0.00000000000E+00  0.00000000000E+00  0.99999998245E-14  0.12509000000E+03  0.12509000000E+03 0.  0.
        -11    1    3    3    0    0 -0.12189302154E+02 -0.22836653791E+02 -0.29780924960E+02  0.39458780203E+02  0.51100000000E-03 0. -1.
         23    2    1    0    0    0  0.28272944757E+02  0.52689407189E+01 -0.14410653759E+01  0.96294204978E+02  0.91887845232E+02 0.  0.
         11    1    3    3    0    0  0.40462246911E+02  0.28105594510E+02  0.28339859584E+02  0.56835424775E+02  0.51100000000E-03 0.  1.
         22    1    1    0    0    0 -0.28272944757E+02 -0.52689407189E+01  0.14410653759E+01  0.28795795022E+02  0.00000000000E+00 0.  1.
</event>
<event>
 5    1  0.1044283E-009  0.9118800E+02  0.7815553E-02  0.1125453E+00
         25   -1    0    0    0    0  0.00000000000E+00  0.00000000000E+00  0.99999998245E-14  0.12509000000E+03  0.12509000000E+03 0.  0.
        -11    1    3    3    0    0  0.36740354966E+02 -0.98571650496E+01  0.32946884815E+02  0.50324095671E+02  0.51100000000E-03 0. -1.
         23    2    1    0    0    0  0.13176894387E+02  0.23079144074E+02  0.11766580125E+02  0.96025763476E+02  0.91521677249E+02 0.  0.
         11    1    3    3    0    0 -0.23563460579E+02  0.32936309124E+02 -0.21180304691E+02  0.45701667805E+02  0.51100000000E-03 0.  1.
         22    1    1    0    0    0 -0.13176894387E+02 -0.23079144074E+02 -0.11766580125E+02  0.29064236524E+02  0.00000000000E+00 0.  1.
</event>
<event>
 5    1  0.1044283E-009  0.9118800E+02  0.7815553E-02  0.1125453E+00
         25   -1    0    0    0    0  0.00000000000E+00  0.00000000000E+00  0.99999998245E-14  0.12509000000E+03  0.12509000000E+03 0.  0.
        -11    1    3    3    0    0  0.34286202823E+02  0.25988861034E+02 -0.13647112116E+02  0.45135443625E+02  0.51100000000E-03 0.  1.
         23    2    1    0    0    0 -0.15108058678E+02  0.51759852033E+01 -0.20425362775E+02  0.99162414221E+02  0.95712824061E+02 0.  0.
         11    1    3    3    0    0 -0.49394261501E+02 -0.20812875830E+02 -0.67782506594E+01  0.54026970596E+02  0.51100000000E-03 0. -1.
         22    1    1    0    0    0  0.15108058678E+02 -0.51759852033E+01  0.20425362775E+02  0.25927585779E+02  0.00000000000E+00 0.  1.
</event>
<event>
 5    1  0.1044283E-009  0.9118800E+02  0.7815553E-02  0.1125453E+00
         25   -1    0    0    0    0  0.00000000000E+00  0.00000000000E+00  0.99999998245E-14  0.12509000000E+03  0.12509000000E+03 0.  0.
        -11    1    3    3    0    0 -0.43635539672E+01 -0.32022252492E+02  0.49087715135E+01  0.32688855837E+02  0.51100000000E-03 0. -1.
         23    2    1    0    0    0 -0.34967214119E+01  0.25651855582E+02 -0.16697440423E+02  0.94283356689E+02  0.89108372651E+02 0.  0.
         11    1    3    3    0    0  0.86683255525E+00  0.57674108074E+02 -0.21606211936E+02  0.61594500852E+02  0.51100000000E-03 0.  1.
         22    1    1    0    0    0  0.34967214119E+01 -0.25651855582E+02  0.16697440423E+02  0.30806643311E+02  0.00000000000E+00 0.  1.
</event>
<event>
 5    1  0.1044283E-009  0.9118800E+02  0.7815553E-02  0.1125453E+00
         25   -1    0    0    0    0  0.00000000000E+00  0.00000000000E+00  0.99999998245E-14  0.12509000000E+03  0.12509000000E+03 0.  0.
        -11    1    3    3    0    0  0.12918884924E+02 -0.39485101917E+02  0.88083781847E+01  0.42468322166E+02  0.51100000000E-03 0.  1.
         23    2    1    0    0    0  0.20543426036E+02  0.13215066210E+02  0.15536943314E+02  0.96140614242E+02  0.91678518591E+02 0.  0.
         11    1    3    3    0    0  0.76245411115E+01  0.52700168127E+02  0.67285651290E+01  0.53672292076E+02  0.51100000000E-03 0. -1.
         22    1    1    0    0    0 -0.20543426036E+02 -0.13215066210E+02 -0.15536943314E+02  0.28949385758E+02  0.00000000000E+00 0. -1.
</event>
<event>
 5    1  0.1044283E-009  0.9118800E+02  0.7815553E-02  0.1125453E+00
         25   -1    0    0    0    0  0.00000000000E+00  0.00000000000E+00  0.99999998245E-14  0.12509000000E+03  0.12509000000E+03 0.  0.
        -11    1    3    3    0    0  0.32188695261E+02 -0.98820934423E+01 -0.10075517620E+02  0.35146606222E+02  0.51100000000E-03 0. -1.
         23    2    1    0    0    0 -0.15435255340E+02  0.20116560109E+02  0.13726391426E+02  0.96257086176E+02  0.91837300262E+02 0.  0.
         11    1    3    3    0    0 -0.47623950600E+02  0.29998653551E+02  0.23801909046E+02  0.61110479953E+02  0.51100000000E-03 0.  1.
         22    1    1    0    0    0  0.15435255340E+02 -0.20116560109E+02 -0.13726391426E+02  0.28832913824E+02  0.00000000000E+00 0.  1.
</event>
<event>
 5    1  0.1044283E-009  0.9118800E+02  0.7815553E-02  0.1125453E+00
         25   -1    0    0    0    0  0.00000000000E+00  0.00000000000E+00  0.99999998245E-14  0.12509000000E+03  0.12509000000E+03 0.  0.
        -11    1    3    3    0    0  0.11600056196E+02  0.32374043220E+02 -0.70994703818E+01  0.35114704300E+02  0.51100000000E-03 0. -1.
         23    2    1    0    0    0 -0.25600853771E+02 -0.13569873551E+02  0.55977429967E+01  0.95579325513E+02  0.90909447017E+02 0.  0.
         11    1    3    3    0    0 -0.37200909967E+02 -0.45943916770E+02  0.12697213379E+02  0.60464621213E+02  0.51100000000E-03 0.  1.
         22    1    1    0    0    0  0.25600853771E+02  0.13569873551E+02 -0.55977429967E+01  0.29510674487E+02  0.00000000000E+00 0.  1.
</event>
<event>
 5    1  0.1044283E-009  0.9118800E+02  0.7815553E-02  0.1125453E+00
         25   -1    0    0    0    0  0.00000000000E+00  0.00000000000E+00  0.99999998245E-14  0.12509000000E+03  0.12509000000E+03 0.  0.
        -11    1    3    3    0    0  0.19589417867E+02  0.13529911880E+02  0.32665911985E+02  0.40421103571E+02  0.51100000000E-03 0. -1.
         23    2    1    0    0    0 -0.27713592556E+02  0.60048694083E+01  0.34547173233E+01  0.96523643202E+02  0.92199658113E+02 0.  0.
         11    1    3    3    0    0 -0.47303010422E+02 -0.75250424722E+01 -0.29211194661E+02  0.56102539631E+02  0.51100000000E-03 0.  1.
         22    1    1    0    0    0  0.27713592556E+02 -0.60048694083E+01 -0.34547173233E+01  0.28566356798E+02  0.00000000000E+00 0.  1.
</event>
<event>
 5    1  0.1044283E-009  0.9118800E+02  0.7815553E-02  0.1125453E+00
         25   -1    0    0    0    0  0.00000000000E+00  0.00000000000E+00  0.99999998245E-14  0.12509000000E+03  0.12509000000E+03 0.  0.
        -11    1    3    3    0    0  0.18949958718E+02  0.54969578826E+02 -0.28009860800E+01  0.58211691738E+02  0.51100000000E-03 0. -1.
         23    2    1    0    0    0 -0.12276469902E+01  0.25653395816E+02 -0.14403297730E+02  0.95644137481E+02  0.90998583587E+02 0.  0.
         11    1    3    3    0    0 -0.20177605708E+02 -0.29316183010E+02 -0.11602311650E+02  0.37432445743E+02  0.51100000000E-03 0.  1.
         22    1    1    0    0    0  0.12276469902E+01 -0.25653395816E+02  0.14403297730E+02  0.29445862519E+02  0.00000000000E+00 0. -1.
</event>
<event>
 5    1  0.1044283E-009  0.9118800E+02  0.7815553E-02  0.1125453E+00
         25   -1    0    0    0    0  0.00000000000E+00  0.00000000000E+00  0.99999998245E-14  0.12509000000E+03  0.12509000000E+03 0.  0.
        -11    1    3    3    0    0  0.44055117180E+02 -0.19545522288E+02 -0.10810470224E+01  0.48208396096E+02  0.51100000000E-03 0. -1.
         23    2    1    0    0    0  0.54007726557E+01 -0.13899096939E+02  0.25564090567E+02  0.95494798235E+02  0.90793064286E+02 0.  0.
         11    1    3    3    0    0 -0.38654344524E+02  0.56464253485E+01  0.26645137589E+02  0.47286402139E+02  0.51100000000E-03 0.  1.
         22    1    1    0    0    0 -0.54007726557E+01  0.13899096939E+02 -0.25564090567E+02  0.29595201765E+02  0.00000000000E+00 0.  1.
</event>
<event>
 5    1  0.1044283E-009  0.9118800E+02  0.7815553E-02  0.1125453E+00
         25   -1    0    0    0    0  0.00000000000E+00  0.00000000000E+00  0.99999998245E-14  0.12509000000E+03  0.12509000000E+03 0.  0.
        -11    1    3    3    0    0  0.47631199154E+02 -0.36576373817E+02 -0.25941012214E+01  0.60110661416E+02  0.51100000000E-03 0. -1.
         23    2    1    0    0    0  0.28394342589E+02 -0.26252599729E+02  0.97745694116E+01  0.85202910726E+02  0.75289814088E+02 0.  0.
         11    1    3    3    0    0 -0.19236856565E+02  0.10323774088E+02  0.12368670633E+02  0.25092249310E+02  0.51100000000E-03 0.  1.
         22    1    1    0    0    0 -0.28394342589E+02  0.26252599729E+02 -0.97745694116E+01  0.39887089274E+02  0.00000000000E+00 0. -1.
</event>
<event>
 5    1  0.1044283E-009  0.9118800E+02  0.7815553E-02  0.1125453E+00
         25   -1    0    0    0    0  0.00000000000E+00  0.00000000000E+00  0.99999998245E-14  0.12509000000E+03  0.12509000000E+03 0.  0.
        -11    1    3    3    0    0 -0.14226548648E+02  0.98690153141E+01  0.32635903572E+02  0.36944476609E+02  0.51100000000E-03 0. -1.
         23    2    1    0    0    0  0.29088873199E+01  0.21404205551E+02 -0.21332468769E+02  0.94730884986E+02  0.89734412048E+02 0.  0.
         11    1    3    3    0    0  0.17135435968E+02  0.11535190237E+02 -0.53968372341E+02  0.57786408376E+02  0.51100000000E-03 0.  1.
         22    1    1    0    0    0 -0.29088873199E+01 -0.21404205551E+02  0.21332468769E+02  0.30359115014E+02  0.00000000000E+00 0.  1.
</event>
<event>
 5    1  0.1044283E-009  0.9118800E+02  0.7815553E-02  0.1125453E+00
         25   -1    0    0    0    0  0.00000000000E+00  0.00000000000E+00  0.99999998245E-14  0.12509000000E+03  0.12509000000E+03 0.  0.
        -11    1    3    3    0    0  0.17321754262E+02  0.16554890069E+02  0.21607777667E+02  0.32264587583E+02  0.51100000000E-03 0. -1.
         23    2    1    0    0    0 -0.18486975250E+02 -0.87063129840E+01 -0.22675493284E+02  0.94565483045E+02  0.89503544333E+02 0.  0.
         11    1    3    3    0    0 -0.35808729512E+02 -0.25261203053E+02 -0.44283270951E+02  0.62300895462E+02  0.51100000000E-03 0.  1.
         22    1    1    0    0    0  0.18486975250E+02  0.87063129840E+01  0.22675493284E+02  0.30524516955E+02  0.00000000000E+00 0.  1.
</event>
<event>
 5    1  0.1044283E-009  0.9118800E+02  0.7815553E-02  0.1125453E+00
         25   -1    0    0    0    0  0.00000000000E+00  0.00000000000E+00  0.99999998245E-14  0.12509000000E+03  0.12509000000E+03 0.  0.
        -11    1    3    3    0    0 -0.38551527065E+02 -0.11788853613E+02 -0.37051695494E+02  0.54754227671E+02  0.51100000000E-03 0. -1.
         23    2    1    0    0    0 -0.25614211722E+02  0.12280946347E+02 -0.61119036493E+01  0.96033763982E+02  0.91532611527E+02 0.  0.
         11    1    3    3    0    0  0.12937315343E+02  0.24069799960E+02  0.30939791845E+02  0.41279536311E+02  0.51100000000E-03 0.  1.
         22    1    1    0    0    0  0.25614211722E+02 -0.12280946347E+02  0.61119036493E+01  0.29056236018E+02  0.00000000000E+00 0. -1.
</event>
<event>
 5    1  0.1044283E-009  0.9118800E+02  0.7815553E-02  0.1125453E+00
         25   -1    0    0    0    0  0.00000000000E+00  0.00000000000E+00  0.99999998245E-14  0.12509000000E+03  0.12509000000E+03 0.  0.
        -11    1    3    3    0    0  0.16727994505E+02 -0.38101301969E+02  0.90767915263E+01  0.42590176761E+02  0.51100000000E-03 0. -1.
         23    2    1    0    0    0 -0.10452922870E+02  0.20018518906E+01  0.28410068000E+02  0.94751856166E+02  0.89763641167E+02 0.  0.
         11    1    3    3    0    0 -0.27180917375E+02  0.40103153860E+02  0.19333276474E+02  0.52161679405E+02  0.51100000000E-03 0.  1.
         22    1    1    0    0    0  0.10452922870E+02 -0.20018518906E+01 -0.28410068000E+02  0.30338143834E+02  0.00000000000E+00 0.  1.
</event>
<event>
 5    1  0.1044283E-009  0.9118800E+02  0.7815553E-02  0.1125453E+00
         25   -1    0    0    0    0  0.00000000000E+00  0.00000000000E+00  0.99999998245E-14  0.12509000000E+03  0.12509000000E+03 0.  0.
        -11    1    3    3    0    0 -0.40025321074E+01 -0.45524704689E+01 -0.42123108108E+02  0.42557038050E+02  0.51100000000E-03 0.  1.
         23    2    1    0    0    0  0.18516499744E+02 -0.19509296712E+02  0.57954802448E+01  0.97575258274E+02  0.93615543662E+02 0.  0.
         11    1    3    3    0    0  0.22519031851E+02 -0.14956826243E+02  0.47918588352E+02  0.55018220225E+02  0.51100000000E-03 0. -1.
         22    1    1    0    0    0 -0.18516499744E+02  0.19509296712E+02 -0.57954802448E+01  0.27514741726E+02  0.00000000000E+00 0. -1.
</event>
<event>
 5    1  0.1044283E-009  0.9118800E+02  0.7815553E-02  0.1125453E+00
         25   -1    0    0    0    0  0.00000000000E+00  0.00000000000E+00  0.99999998245E-14  0.12509000000E+03  0.12509000000E+03 0.  0.
        -11    1    3    3    0    0 -0.36399859224E+02 -0.46673864031E+02 -0.84075136970E+01  0.59783656813E+02  0.51100000000E-03 0. -1.
         23    2    1    0    0    0 -0.39712074590E+01 -0.25829184852E+02 -0.49911757790E+01  0.98484941939E+02  0.94823281288E+02 0.  0.
         11    1    3    3    0    0  0.32428651765E+02  0.20844679179E+02  0.34163379180E+01  0.38701285126E+02  0.51100000000E-03 0.  1.
         22    1    1    0    0    0  0.39712074590E+01  0.25829184852E+02  0.49911757790E+01  0.26605058061E+02  0.00000000000E+00 0. -1.
</event>
<event>
 5    1  0.1044283E-009  0.9118800E+02  0.7815553E-02  0.1125453E+00
         25   -1    0    0    0    0  0.00000000000E+00  0.00000000000E+00  0.99999998245E-14  0.12509000000E+03  0.12509000000E+03 0.  0.
        -11    1    3    3    0    0  0.38943931453E+01 -0.43871092239E+02 -0.35409019195E+02  0.56512278956E+02  0.51100000000E-03 0. -1.
         23    2    1    0    0    0  0.12311261675E+02 -0.30674147428E+02 -0.37550471605E+01  0.91824840093E+02  0.85587559812E+02 0.  0.
         11    1    3    3    0    0  0.84168685298E+01  0.13196944811E+02  0.31653972035E+02  0.35312561137E+02  0.51100000000E-03 0.  1.
         22    1    1    0    0    0 -0.12311261675E+02  0.30674147428E+02  0.37550471605E+01  0.33265159907E+02  0.00000000000E+00 0. -1.
</event>
<event>
 5    1  0.1044283E-009  0.9118800E+02  0.7815553E-02  0.1125453E+00
         25   -1    0    0    0    0  0.00000000000E+00  0.00000000000E+00  0.99999998245E-14  0.12509000000E+03  0.12509000000E+03 0.  0.
        -11    1    3    3    0    0 -0.12331210557E+02 -0.26896242439E+02 -0.26514689051E+02  0.39730282492E+02  0.51100000000E-03 0. -1.
         23    2    1    0    0    0  0.24980958503E+02  0.11404226318E+02 -0.61427412693E+01  0.96950384936E+02  0.92776824710E+02 0.  0.
         11    1    3    3    0    0  0.37312169060E+02  0.38300468757E+02  0.20371947782E+02  0.57220102444E+02  0.51100000000E-03 0.  1.
         22    1    1    0    0    0 -0.24980958503E+02 -0.11404226318E+02  0.61427412693E+01  0.28139615064E+02  0.00000000000E+00 0.  1.
</event>
<event>
 5    1  0.1044283E-009  0.9118800E+02  0.7815553E-02  0.1125453E+00
         25   -1    0    0    0    0  0.00000000000E+00  0.00000000000E+00  0.99999998245E-14  0.12509000000E+03  0.12509000000E+03 0.  0.
        -11    1    3    3    0    0 -0.26630248434E+02 -0.76021742834E+01  0.53277121655E+02  0.60045107024E+02  0.51100000000E-03 0. -1.
         23    2    1    0    0    0 -0.23617073661E+02 -0.46047874123E+01  0.19417038541E+02  0.94170885829E+02  0.88950346355E+02 0.  0.
         11    1    3    3    0    0  0.30131747726E+01  0.29973868711E+01 -0.33860083114E+02  0.34125778805E+02  0.51100000000E-03 0.  1.
         22    1    1    0    0    0  0.23617073661E+02  0.46047874123E+01 -0.19417038541E+02  0.30919114171E+02  0.00000000000E+00 0. -1.
</event>
<event>
 5    1  0.1044283E-009  0.9118800E+02  0.7815553E-02  0.1125453E+00
         25   -1    0    0    0    0  0.00000000000E+00  0.00000000000E+00  0.99999998245E-14  0.12509000000E+03  0.12509000000E+03 0.  0.
        -11    1    3    3    0    0 -0.39646826720E+02 -0.81742475561E+01 -0.45873888380E+02  0.61180902473E+02  0.51100000000E-03 0.  1.
         23    2    1    0    0    0 -0.23697788637E+02 -0.27238728289E+01 -0.13496242201E+02  0.97682825337E+02  0.93759165647E+02 0.  0.
         11    1    3    3    0    0  0.15949038084E+02  0.54503747273E+01  0.32377646178E+02  0.36501922864E+02  0.51100000000E-03 0. -1.
         22    1    1    0    0    0  0.23697788637E+02  0.27238728289E+01  0.13496242201E+02  0.27407174663E+02  0.00000000000E+00 0.  1.
</event>
<event>
 5    1  0.1044283E-009  0.9118800E+02  0.7815553E-02  0.1125453E+00
         25   -1    0    0    0    0  0.00000000000E+00  0.00000000000E+00  0.99999998245E-14  0.12509000000E+03  0.12509000000E+03 0.  0.
        -11    1    3    3    0    0  0.22887867298E+02  0.32920626540E+02  0.99613350215E+01  0.41314045032E+02  0.51100000000E-03 0. -1.
         23    2    1    0    0    0  0.88190271175E+01 -0.20848010274E+02  0.16217200980E+02  0.97243772620E+02  0.93171556465E+02 0.  0.
         11    1    3    3    0    0 -0.14068840180E+02 -0.53768636814E+02  0.62558659582E+01  0.55929727588E+02  0.51100000000E-03 0.  1.
         22    1    1    0    0    0 -0.88190271175E+01  0.20848010274E+02 -0.16217200980E+02  0.27846227380E+02  0.00000000000E+00 0.  1.
</event>
<event>
 5    1  0.1044283E-009  0.9118800E+02  0.7815553E-02  0.1125453E+00
         25   -1    0    0    0    0  0.00000000000E+00  0.00000000000E+00  0.99999998245E-14  0.12509000000E+03  0.12509000000E+03 0.  0.
        -11    1    3    3    0    0 -0.29400099939E+02 -0.10279425943E+01  0.49130038904E+02  0.57264153406E+02  0.51100000000E-03 0.  1.
         23    2    1    0    0    0 -0.13788701330E+02 -0.18268864696E+02  0.18896258593E+02  0.95409226923E+02  0.90675091903E+02 0.  0.
         11    1    3    3    0    0  0.15611398609E+02 -0.17240922102E+02 -0.30233780311E+02  0.38145073517E+02  0.51100000000E-03 0. -1.
         22    1    1    0    0    0  0.13788701330E+02  0.18268864696E+02 -0.18896258593E+02  0.29680773077E+02  0.00000000000E+00 0.  1.
</event>
<event>
 5    1  0.1044283E-009  0.9118800E+02  0.7815553E-02  0.1125453E+00
         25   -1    0    0    0    0  0.00000000000E+00  0.00000000000E+00  0.99999998245E-14  0.12509000000E+03  0.12509000000E+03 0.  0.
        -11    1    3    3    0    0  0.70539252147E+01 -0.36860686002E+02 -0.11883941902E+02  0.39366179760E+02  0.51100000000E-03 0.  1.
         23    2    1    0    0    0 -0.24673913617E+02  0.10934036014E+02 -0.83399261989E+01  0.96842707639E+02  0.92631530793E+02 0.  0.
         11    1    3    3    0    0 -0.31727838831E+02  0.47794722016E+02  0.35440157028E+01  0.57476527879E+02  0.51100000000E-03 0. -1.
         22    1    1    0    0    0  0.24673913617E+02 -0.10934036014E+02  0.83399261989E+01  0.28247292361E+02  0.00000000000E+00 0. -1.
</event>
<event>
 5    1  0.1044283E-009  0.9118800E+02  0.7815553E-02  0.1125453E+00
         25   -1    0    0    0    0  0.00000000000E+00  0.00000000000E+00  0.99999998245E-14  0.12509000000E+03  0.12509000000E+03 0.  0.
        -11    1    3    3    0    0  0.35175256443E+01  0.54312462377E+02  0.10964478982E+01  0.54437291945E+02  0.51100000000E-03 0.  1.
         23    2    1    0    0    0  0.86146739087E+01  0.19444781133E+02 -0.20321874041E+02  0.95674176293E+02  0.91039866679E+02 0.  0.
         11    1    3    3    0    0  0.50971482644E+01 -0.34867681244E+02 -0.21418321939E+02  0.41236884348E+02  0.51100000000E-03 0. -1.
         22    1    1    0    0    0 -0.86146739087E+01 -0.19444781133E+02  0.20321874041E+02  0.29415823707E+02  0.00000000000E+00 0.  1.
</event>
<event>
 5    1  0.1044283E-009  0.9118800E+02  0.7815553E-02  0.1125453E+00
         25   -1    0    0    0    0  0.00000000000E+00  0.00000000000E+00  0.99999998245E-14  0.12509000000E+03  0.12509000000E+03 0.  0.
        -11    1    3    3    0    0  0.31963427146E+02 -0.41788907398E+02 -0.26295471403E+02  0.58816879151E+02  0.51100000000E-03 0. -1.
         23    2    1    0    0    0  0.53778416962E+01 -0.17811277279E+02 -0.24043116598E+02  0.94688779048E+02  0.89675697055E+02 0.  0.
         11    1    3    3    0    0 -0.26585585450E+02  0.23977630119E+02  0.22523548056E+01  0.35871899897E+02  0.51100000000E-03 0.  1.
         22    1    1    0    0    0 -0.53778416962E+01  0.17811277279E+02  0.24043116598E+02  0.30401220952E+02  0.00000000000E+00 0. -1.
</event>
<event>
 5    1  0.1044283E-009  0.9118800E+02  0.7815553E-02  0.1125453E+00
         25   -1    0    0    0    0  0.00000000000E+00  0.00000000000E+00  0.99999998245E-14  0.12509000000E+03  0.12509000000E+03 0.  0.
        -11    1    3    3    0    0  0.99840988124E+01  0.16822370556E+02  0.38041507938E+02  0.42776520507E+02  0.51100000000E-03 0.  1.
         23    2    1    0    0    0  0.71112923651E+01 -0.21014906323E+02  0.38419956923E+02  0.80724587156E+02  0.67440115025E+02 0.  0.
         11    1    3    3    0    0 -0.28728064474E+01 -0.37837276879E+02  0.37844898590E+00  0.37948066649E+02  0.51100000000E-03 0. -1.
         22    1    1    0    0    0 -0.71112923651E+01  0.21014906323E+02 -0.38419956923E+02  0.44365412844E+02  0.00000000000E+00 0. -1.
</event>
<event>
 5    1  0.1044283E-009  0.9118800E+02  0.7815553E-02  0.1125453E+00
         25   -1    0    0    0    0  0.00000000000E+00  0.00000000000E+00  0.99999998245E-14  0.12509000000E+03  0.12509000000E+03 0.  0.
        -11    1    3    3    0    0 -0.94483553978E+01  0.33556828897E+02  0.18076289717E+02  0.39269382928E+02  0.51100000000E-03 0.  1.
         23    2    1    0    0    0 -0.19792753088E+02 -0.20691614435E+02  0.73600616453E+01  0.95525384491E+02  0.90835194677E+02 0.  0.
         11    1    3    3    0    0 -0.10344397691E+02 -0.54248443332E+02 -0.10716228072E+02  0.56256001563E+02  0.51100000000E-03 0. -1.
         22    1    1    0    0    0  0.19792753088E+02  0.20691614435E+02 -0.73600616453E+01  0.29564615509E+02  0.00000000000E+00 0. -1.
</event>
<event>
 5    1  0.1044283E-009  0.9118800E+02  0.7815553E-02  0.1125453E+00
         25   -1    0    0    0    0  0.00000000000E+00  0.00000000000E+00  0.99999998245E-14  0.12509000000E+03  0.12509000000E+03 0.  0.
        -11    1    3    3    0    0  0.38952546495E+02 -0.35395909611E+02  0.69861684643E+01  0.53094047177E+02  0.51100000000E-03 0.  1.
         23    2    1    0    0    0 -0.56303134339E-01 -0.24007501184E+02  0.17867883180E+02  0.95163013308E+02  0.90334791577E+02 0.  0.
         11    1    3    3    0    0 -0.39008849629E+02  0.11388408427E+02  0.10881714716E+02  0.42068966131E+02  0.51100000000E-03 0. -1.
         22    1    1    0    0    0  0.56303134339E-01  0.24007501184E+02 -0.17867883180E+02  0.29926986692E+02  0.00000000000E+00 0.  1.
</event>
<event>
 5    1  0.1044283E-009  0.9118800E+02  0.7815553E-02  0.1125453E+00
         25   -1    0    0    0    0  0.00000000000E+00  0.00000000000E+00  0.99999998245E-14  0.12509000000E+03  0.12509000000E+03 0.  0.
        -11    1    3    3    0    0 -0.42329969965E+02 -0.14063124886E+02 -0.42734114663E+02  0.61772181401E+02  0.51100000000E-03 0. -1.
         23    2    1    0    0    0 -0.22227742585E+02 -0.11365092868E+02 -0.15589080785E+02  0.95657750408E+02  0.91017294494E+02 0.  0.
         11    1    3    3    0    0  0.20102227380E+02  0.26980320181E+01  0.27145033878E+02  0.33885569006E+02  0.51100000000E-03 0.  1.
         22    1    1    0    0    0  0.22227742585E+02  0.11365092868E+02  0.15589080785E+02  0.29432249592E+02  0.00000000000E+00 0. -1.
</event>
<event>
 5    1  0.1044283E-009  0.9118800E+02  0.7815553E-02  0.1125453E+00
         25   -1    0    0    0    0  0.00000000000E+00  0.00000000000E+00  0.99999998245E-14  0.12509000000E+03  0.12509000000E+03 0.  0.
        -11    1    3    3    0    0  0.33654125676E+01 -0.32214407566E+01  0.39406522111E+02  0.39680948419E+02  0.51100000000E-03 0. -1.
         23    2    1    0    0    0  0.11845500084E+02  0.24005757763E+02 -0.98244395222E+01  0.96574883133E+02  0.92269150652E+02 0.  0.
         11    1    3    3    0    0  0.84800875165E+01  0.27227198520E+02 -0.49230961634E+02  0.56893934713E+02  0.51100000000E-03 0.  1.
         22    1    1    0    0    0 -0.11845500084E+02 -0.24005757763E+02  0.98244395222E+01  0.28515116867E+02  0.00000000000E+00 0. -1.
</event>
<event>
 5    1  0.1044283E-009  0.9118800E+02  0.7815553E-02  0.1125453E+00
         25   -1    0    0    0    0  0.00000000000E+00  0.00000000000E+00  0.99999998245E-14  0.12509000000E+03  0.12509000000E+03 0.  0.
        -11    1    3    3    0    0  0.43665049234E+01  0.28037195626E+02 -0.36352099980E+02  0.46115354027E+02  0.51100000000E-03 0.  1.
         23    2    1    0    0    0 -0.29049209103E+02  0.96341342632E+01 -0.23946283758E+02  0.86230025755E+02  0.76977397613E+02 0.  0.
         11    1    3    3    0    0 -0.33415714026E+02 -0.18403061363E+02  0.12405816221E+02  0.40114671727E+02  0.51100000000E-03 0. -1.
         22    1    1    0    0    0  0.29049209103E+02 -0.96341342632E+01  0.23946283758E+02  0.38859974245E+02  0.00000000000E+00 0.  1.
</event>
<event>
 5    1  0.1044283E-009  0.9118800E+02  0.7815553E-02  0.1125453E+00
         25   -1    0    0    0    0  0.00000000000E+00  0.00000000000E+00  0.99999998245E-14  0.12509000000E+03  0.12509000000E+03 0.  0.
        -11    1    3    3    0    0 -0.13292152333E+02 -0.27785046244E+02  0.15946497040E+02  0.34684014712E+02  0.51100000000E-03 0.  1.
         23    2    1    0    0    0  0.25662706485E+01  0.28722322503E+01 -0.31499062813E+02  0.93356320395E+02  0.87797358368E+02 0.  0.
         11    1    3    3    0    0  0.15858422982E+02  0.30657278494E+02 -0.47445559854E+02  0.58672305683E+02  0.51100000000E-03 0. -1.
         22    1    1    0    0    0 -0.25662706485E+01 -0.28722322503E+01  0.31499062813E+02  0.31733679605E+02  0.00000000000E+00 0. -1.
</event>
<event>
 5    1  0.1044283E-009  0.9118800E+02  0.7815553E-02  0.1125453E+00
         25   -1    0    0    0    0  0.00000000000E+00  0.00000000000E+00  0.99999998245E-14  0.12509000000E+03  0.12509000000E+03 0.  0.
        -11    1    3    3    0    0 -0.45074759833E+02  0.57032012188E+01 -0.25886011036E+02  0.52290974802E+02  0.51100000000E-03 0. -1.
         23    2    1    0    0    0 -0.11674839150E+02 -0.20966751358E+02 -0.16257320447E+02  0.96103675641E+02  0.91628104160E+02 0.  0.
         11    1    3    3    0    0  0.33399920683E+02 -0.26669952577E+02  0.96286905887E+01  0.43812700839E+02  0.51100000000E-03 0.  1.
         22    1    1    0    0    0  0.11674839150E+02  0.20966751358E+02  0.16257320447E+02  0.28986324359E+02  0.00000000000E+00 0.  1.
</event>
<event>
 5    1  0.1044283E-009  0.9118800E+02  0.7815553E-02  0.1125453E+00
         25   -1    0    0    0    0  0.00000000000E+00  0.00000000000E+00  0.99999998245E-14  0.12509000000E+03  0.12509000000E+03 0.  0.
        -11    1    3    3    0    0 -0.15764229398E+02  0.45416381229E+02 -0.88646944530E+01  0.48884981543E+02  0.51100000000E-03 0. -1.
         23    2    1    0    0    0  0.21492810152E+02  0.19206523949E+02 -0.10355743988E+02  0.94462024488E+02  0.89358833847E+02 0.  0.
         11    1    3    3    0    0  0.37257039550E+02 -0.26209857280E+02 -0.14910495352E+01  0.45577042945E+02  0.51100000000E-03 0.  1.
         22    1    1    0    0    0 -0.21492810152E+02 -0.19206523949E+02  0.10355743988E+02  0.30627975512E+02  0.00000000000E+00 0. -1.
</event>
<event>
 5    1  0.1044283E-009  0.9118800E+02  0.7815553E-02  0.1125453E+00
         25   -1    0    0    0    0  0.00000000000E+00  0.00000000000E+00  0.99999998245E-14  0.12509000000E+03  0.12509000000E+03 0.  0.
        -11    1    3    3    0    0 -0.20605809795E+02  0.11847867233E+02 -0.28602446466E+02  0.37189666567E+02  0.51100000000E-03 0. -1.
         23    2    1    0    0    0  0.15877829461E+02  0.16647831402E+02  0.17505526803E+02  0.96181537097E+02  0.91734338450E+02 0.  0.
         11    1    3    3    0    0  0.36483639256E+02  0.47999641688E+01  0.46107973269E+02  0.58991870530E+02  0.51100000000E-03 0.  1.
         22    1    1    0    0    0 -0.15877829461E+02 -0.16647831402E+02 -0.17505526803E+02  0.28908462903E+02  0.00000000000E+00 0.  1.
</event>
<event>
 5    1  0.1044283E-009  0.9118800E+02  0.7815553E-02  0.1125453E+00
         25   -1    0    0    0    0  0.00000000000E+00  0.00000000000E+00  0.99999998245E-14  0.12509000000E+03  0.12509000000E+03 0.  0.
        -11    1    3    3    0    0  0.10988997576E+02 -0.35640552336E+02 -0.18404683729E+02  0.41590136114E+02  0.51100000000E-03 0. -1.
         23    2    1    0    0    0 -0.27176389664E+02 -0.96346935716E+01  0.84881245900E+01  0.95032858844E+02  0.90154381622E+02 0.  0.
         11    1    3    3    0    0 -0.38165387241E+02  0.26005858764E+02  0.26892808319E+02  0.53442722730E+02  0.51100000000E-03 0.  1.
         22    1    1    0    0    0  0.27176389664E+02  0.96346935716E+01 -0.84881245900E+01  0.30057141156E+02  0.00000000000E+00 0.  1.
</event>
<event>
 5    1  0.1044283E-009  0.9118800E+02  0.7815553E-02  0.1125453E+00
         25   -1    0    0    0    0  0.00000000000E+00  0.00000000000E+00  0.99999998245E-14  0.12509000000E+03  0.12509000000E+03 0.  0.
        -11    1    3    3    0    0 -0.10706244330E+02  0.37431167023E+02  0.14928563863E+02  0.41696258245E+02  0.51100000000E-03 0.  1.
         23    2    1    0    0    0 -0.22729402571E+02 -0.15419757919E+02  0.88287268172E+01  0.96239677771E+02  0.91813585513E+02 0.  0.
         11    1    3    3    0    0 -0.12023158241E+02 -0.52850924942E+02 -0.60998370453E+01  0.54543419526E+02  0.51100000000E-03 0. -1.
         22    1    1    0    0    0  0.22729402571E+02  0.15419757919E+02 -0.88287268172E+01  0.28850322229E+02  0.00000000000E+00 0. -1.
</event>
<event>
 5    1  0.1044283E-009  0.9118800E+02  0.7815553E-02  0.1125453E+00
         25   -1    0    0    0    0  0.00000000000E+00  0.00000000000E+00  0.99999998245E-14  0.12509000000E+03  0.12509000000E+03 0.  0.
        -11    1    3    3    0    0  0.20857461114E+02  0.34009211996E+02 -0.10401674293E+02  0.41229297994E+02  0.51100000000E-03 0. -1.
         23    2    1    0    0    0 -0.97639032883E+01  0.19201492670E+00 -0.31948245994E+02  0.91682499357E+02  0.85379269083E+02 0.  0.
         11    1    3    3    0    0 -0.30621364402E+02 -0.33817197069E+02 -0.21546571700E+02  0.50453201363E+02  0.51100000000E-03 0.  1.
         22    1    1    0    0    0  0.97639032883E+01 -0.19201492670E+00  0.31948245994E+02  0.33407500643E+02  0.00000000000E+00 0. -1.
</event>
<event>
 5    1  0.1044283E-009  0.9118800E+02  0.7815553E-02  0.1125453E+00
         25   -1    0    0    0    0  0.00000000000E+00  0.00000000000E+00  0.99999998245E-14  0.12509000000E+03  0.12509000000E+03 0.  0.
        -11    1    3    3    0    0 -0.57074220290E+01  0.40136015267E+02 -0.23420297152E+02  0.46818636318E+02  0.51100000000E-03 0. -1.
         23    2    1    0    0    0  0.58390445837E+01 -0.49019774840E+01 -0.30323447485E+02  0.93822840035E+02  0.88459538886E+02 0.  0.
         11    1    3    3    0    0  0.11546466613E+02 -0.45037992751E+02 -0.69031503330E+01  0.47004203717E+02  0.51100000000E-03 0.  1.
         22    1    1    0    0    0 -0.58390445837E+01  0.49019774840E+01  0.30323447485E+02  0.31267159965E+02  0.00000000000E+00 0.  1.
</event>
<event>
 5    1  0.1044283E-009  0.9118800E+02  0.7815553E-02  0.1125453E+00
         25   -1    0    0    0    0  0.00000000000E+00  0.00000000000E+00  0.99999998245E-14  0.12509000000E+03  0.12509000000E+03 0.  0.
        -11    1    3    3    0    0  0.49441689021E+01 -0.29856050201E+02 -0.29043386270E+02  0.41944568493E+02  0.51100000000E-03 0. -1.
         23    2    1    0    0    0 -0.39149198003E+01  0.21303796485E+02 -0.21782485396E+02  0.94371031728E+02  0.89231365661E+02 0.  0.
         11    1    3    3    0    0 -0.88590887024E+01  0.51159846686E+02  0.72609008740E+01  0.52426463235E+02  0.51100000000E-03 0.  1.
         22    1    1    0    0    0  0.39149198003E+01 -0.21303796485E+02  0.21782485396E+02  0.30718968272E+02  0.00000000000E+00 0. -1.
</event>
<event>
 5    1  0.1044283E-009  0.9118800E+02  0.7815553E-02  0.1125453E+00
         25   -1    0    0    0    0  0.00000000000E+00  0.00000000000E+00  0.99999998245E-14  0.12509000000E+03  0.12509000000E+03 0.  0.
        -11    1    3    3    0    0  0.89007403591E+01  0.44938579922E+02  0.40392475398E+02  0.61075782544E+02  0.51100000000E-03 0.  1.
         23    2    1    0    0    0 -0.29056901496E+01  0.17586050769E+02  0.24352763284E+02  0.94911045471E+02  0.89985205761E+02 0.  0.
         11    1    3    3    0    0 -0.11806430509E+02 -0.27352529152E+02 -0.16039712113E+02  0.33835262927E+02  0.51100000000E-03 0. -1.
         22    1    1    0    0    0  0.29056901496E+01 -0.17586050769E+02 -0.24352763284E+02  0.30178954529E+02  0.00000000000E+00 0.  1.
</event>
<event>
 5    1  0.1044283E-009  0.9118800E+02  0.7815553E-02  0.1125453E+00
         25   -1    0    0    0    0  0.00000000000E+00  0.00000000000E+00  0.99999998245E-14  0.12509000000E+03  0.12509000000E+03 0.  0.
        -11    1    3    3    0    0  0.37185939959E+01 -0.45505136458E+02  0.37145931429E+01  0.45807680446E+02  0.51100000000E-03 0.  1.
         23    2    1    0    0    0  0.28683261519E+02 -0.39643808612E+01 -0.66766913255E+01  0.95374280018E+02  0.90626868395E+02 0.  0.
         11    1    3    3    0    0  0.24964667523E+02  0.41540755596E+02 -0.10391284468E+02  0.49566599573E+02  0.51100000000E-03 0. -1.
         22    1    1    0    0    0 -0.28683261519E+02  0.39643808612E+01  0.66766913255E+01  0.29715719982E+02  0.00000000000E+00 0. -1.
</event>
<event>
 5    1  0.1044283E-009  0.9118800E+02  0.7815553E-02  0.1125453E+00
         25   -1    0    0    0    0  0.00000000000E+00  0.00000000000E+00  0.99999998245E-14  0.12509000000E+03  0.12509000000E+03 0.  0.
        -11    1    3    3    0    0  0.52678341325E+01 -0.55085713067E+02  0.81025919613E+01  0.55927076245E+02  0.51100000000E-03 0.  1.
         23    2    1    0    0    0  0.11303383045E+02 -0.15977321502E+02  0.19858815944E+02  0.97207858021E+02  0.93123325862E+02 0.  0.
         11    1    3    3    0    0  0.60355489120E+01  0.39108391565E+02  0.11756223983E+02  0.41280781776E+02  0.51100000000E-03 0. -1.
         22    1    1    0    0    0 -0.11303383045E+02  0.15977321502E+02 -0.19858815944E+02  0.27882141979E+02  0.00000000000E+00 0. -1.
</event>
<event>
 5    1  0.1044283E-009  0.9118800E+02  0.7815553E-02  0.1125453E+00
         25   -1    0    0    0    0  0.00000000000E+00  0.00000000000E+00  0.99999998245E-14  0.12509000000E+03  0.12509000000E+03 0.  0.
        -11    1    3    3    0    0  0.21016134102E+02 -0.28646607105E+02 -0.45725258857E+02  0.57906003912E+02  0.51100000000E-03 0. -1.
         23    2    1    0    0    0  0.25199008880E+01 -0.26661872656E+02 -0.13538588678E+02  0.95081688861E+02  0.90222108262E+02 0.  0.
         11    1    3    3    0    0 -0.18496233214E+02  0.19847344487E+01  0.32186670179E+02  0.37175684949E+02  0.51100000000E-03 0.  1.
         22    1    1    0    0    0 -0.25199008880E+01  0.26661872656E+02  0.13538588678E+02  0.30008311139E+02  0.00000000000E+00 0. -1.
</event>
<event>
 5    1  0.1044283E-009  0.9118800E+02  0.7815553E-02  0.1125453E+00
         25   -1    0    0    0    0  0.00000000000E+00  0.00000000000E+00  0.99999998245E-14  0.12509000000E+03  0.12509000000E+03 0.  0.
        -11    1    3    3    0    0 -0.27125940914E+02 -0.12218190041E+02 -0.49717997347E+02  0.57939452006E+02  0.51100000000E-03 0. -1.
         23    2    1    0    0    0 -0.20462741504E+02 -0.16644091299E+02 -0.12694654651E+02  0.95817080403E+02  0.91236007558E+02 0.  0.
         11    1    3    3    0    0  0.66631994105E+01 -0.44259012578E+01  0.37023342696E+02  0.37877628397E+02  0.51100000000E-03 0.  1.
         22    1    1    0    0    0  0.20462741504E+02  0.16644091299E+02  0.12694654651E+02  0.29272919597E+02  0.00000000000E+00 0. -1.
</event>
<event>
 5    1  0.1044283E-009  0.9118800E+02  0.7815553E-02  0.1125453E+00
         25   -1    0    0    0    0  0.00000000000E+00  0.00000000000E+00  0.99999998245E-14  0.12509000000E+03  0.12509000000E+03 0.  0.
        -11    1    3    3    0    0  0.80978626961E+00 -0.90132418705E+01  0.53577958224E+02  0.54336837325E+02  0.51100000000E-03 0.  1.
         23    2    1    0    0    0  0.21386783044E+02  0.32286019764E+01  0.19614029704E+02  0.95891908951E+02  0.91338544335E+02 0.  0.
         11    1    3    3    0    0  0.20576996774E+02  0.12241843847E+02 -0.33963928520E+02  0.41555071625E+02  0.51100000000E-03 0. -1.
         22    1    1    0    0    0 -0.21386783044E+02 -0.32286019764E+01 -0.19614029704E+02  0.29198091049E+02  0.00000000000E+00 0.  1.
</event>
<event>
 5    1  0.1044283E-009  0.9118800E+02  0.7815553E-02  0.1125453E+00
         25   -1    0    0    0    0  0.00000000000E+00  0.00000000000E+00  0.99999998245E-14  0.12509000000E+03  0.12509000000E+03 0.  0.
        -11    1    3    3    0    0 -0.46627416525E+02 -0.27165045910E+02 -0.10754765236E+01  0.53974182172E+02  0.51100000000E-03 0.  1.
         23    2    1    0    0    0 -0.17647498397E+02 -0.67489129110E+01 -0.22744327980E+02  0.95521664226E+02  0.90830071320E+02 0.  0.
         11    1    3    3    0    0  0.28979918128E+02  0.20416132999E+02 -0.21668851457E+02  0.41547482054E+02  0.51100000000E-03 0. -1.
         22    1    1    0    0    0  0.17647498397E+02  0.67489129110E+01  0.22744327980E+02  0.29568335774E+02  0.00000000000E+00 0.  1.
</event>
<event>
 5    1  0.1044283E-009  0.9118800E+02  0.7815553E-02  0.1125453E+00
         25   -1    0    0    0    0  0.00000000000E+00  0.00000000000E+00  0.99999998245E-14  0.12509000000E+03  0.12509000000E+03 0.  0.
        -11    1    3    3    0    0  0.13272284847E+02  0.29617502612E+02  0.36567713006E+01  0.32660710076E+02  0.51100000000E-03 0.  1.
         23    2    1    0    0    0 -0.23439790963E+02 -0.19686020976E+02 -0.21495855399E+01  0.94404760222E+02  0.89278635812E+02 0.  0.
         11    1    3    3    0    0 -0.36712075810E+02 -0.49303523588E+02 -0.58063568405E+01  0.61744050146E+02  0.51100000000E-03 0. -1.
         22    1    1    0    0    0  0.23439790963E+02  0.19686020976E+02  0.21495855399E+01  0.30685239778E+02  0.00000000000E+00 0. -1.
</event>
<event>
 5    1  0.1044283E-009  0.9118800E+02  0.7815553E-02  0.1125453E+00
         25   -1    0    0    0    0  0.00000000000E+00  0.00000000000E+00  0.99999998245E-14  0.12509000000E+03  0.12509000000E+03 0.  0.
        -11    1    3    3    0    0  0.27093982190E+02 -0.36643014695E+02 -0.42583694039E+02  0.62371190426E+02  0.51100000000E-03 0.  1.
         23    2    1    0    0    0  0.15248063474E+02 -0.15153430794E+02 -0.20569088275E+02  0.95337398484E+02  0.90575947429E+02 0.  0.
         11    1    3    3    0    0 -0.11845918716E+02  0.21489583901E+02  0.22014605765E+02  0.32966208058E+02  0.51100000000E-03 0. -1.
         22    1    1    0    0    0 -0.15248063474E+02  0.15153430794E+02  0.20569088275E+02  0.29752601516E+02  0.00000000000E+00 0.  1.
</event>
<event>
 5    1  0.1044283E-009  0.9118800E+02  0.7815553E-02  0.1125453E+00
         25   -1    0    0    0    0  0.00000000000E+00  0.00000000000E+00  0.99999998245E-14  0.12509000000E+03  0.12509000000E+03 0.  0.
        -11    1    3    3    0    0 -0.36081233044E+02  0.25437074512E+02 -0.35603563557E+02  0.56714318086E+02  0.51100000000E-03 0.  1.
         23    2    1    0    0    0 -0.12144334849E+02  0.25956250454E+02 -0.43186658336E+01  0.96109615580E+02  0.91636212961E+02 0.  0.
         11    1    3    3    0    0  0.23936898195E+02  0.51917594127E+00  0.31284897723E+02  0.39395297495E+02  0.51100000000E-03 0. -1.
         22    1    1    0    0    0  0.12144334849E+02 -0.25956250454E+02  0.43186658336E+01  0.28980384420E+02  0.00000000000E+00 0.  1.
</event>
<event>
 5    1  0.1044283E-009  0.9118800E+02  0.7815553E-02  0.1125453E+00
         25   -1    0    0    0    0  0.00000000000E+00  0.00000000000E+00  0.99999998245E-14  0.12509000000E+03  0.12509000000E+03 0.  0.
        -11    1    3    3    0    0  0.25908103302E+02 -0.25944653711E+02 -0.13962493728E+01  0.36692020733E+02  0.51100000000E-03 0.  1.
         23    2    1    0    0    0 -0.38470100315E+01  0.24744225248E+02 -0.13409639281E+02  0.96684109854E+02  0.92417111529E+02 0.  0.
         11    1    3    3    0    0 -0.29755113334E+02  0.50688878960E+02 -0.12013389909E+02  0.59992089121E+02  0.51100000000E-03 0. -1.
         22    1    1    0    0    0  0.38470100315E+01 -0.24744225248E+02  0.13409639281E+02  0.28405890146E+02  0.00000000000E+00 0. -1.
</event>
<event>
 5    1  0.1044283E-009  0.9118800E+02  0.7815553E-02  0.1125453E+00
         25   -1    0    0    0    0  0.00000000000E+00  0.00000000000E+00  0.99999998245E-14  0.12509000000E+03  0.12509000000E+03 0.  0.
        -11    1    3    3    0    0 -0.22698642752E+02  0.35571331939E+02  0.52020280679E+01  0.42515986817E+02  0.51100000000E-03 0. -1.
         23    2    1    0    0    0  0.18408064713E+02  0.16644338760E+02 -0.18998957385E+02  0.93835380486E+02  0.88477270471E+02 0.  0.
         11    1    3    3    0    0  0.41106707465E+02 -0.18926993179E+02 -0.24200985453E+02  0.51319393669E+02  0.51100000000E-03 0.  1.
         22    1    1    0    0    0 -0.18408064713E+02 -0.16644338760E+02  0.18998957385E+02  0.31254619514E+02  0.00000000000E+00 0. -1.
</event>
<event>
 5    1  0.1044283E-009  0.9118800E+02  0.7815553E-02  0.1125453E+00
         25   -1    0    0    0    0  0.00000000000E+00  0.00000000000E+00  0.99999998245E-14  0.12509000000E+03  0.12509000000E+03 0.  0.
        -11    1    3    3    0    0 -0.40041226442E+02  0.11254869993E+02 -0.29977233313E+02  0.51269936911E+02  0.51100000000E-03 0. -1.
         23    2    1    0    0    0 -0.14959494384E+02  0.24147980721E+02  0.50492001710E+01  0.96238555193E+02  0.91812056061E+02 0.  0.
         11    1    3    3    0    0  0.25081732058E+02  0.12893110728E+02  0.35026433484E+02  0.44968618282E+02  0.51100000000E-03 0.  1.
         22    1    1    0    0    0  0.14959494384E+02 -0.24147980721E+02 -0.50492001710E+01  0.28851444807E+02  0.00000000000E+00 0. -1.
</event>
<event>
 5    1  0.1044283E-009  0.9118800E+02  0.7815553E-02  0.1125453E+00
         25   -1    0    0    0    0  0.00000000000E+00  0.00000000000E+00  0.99999998245E-14  0.12509000000E+03  0.12509000000E+03 0.  0.
        -11    1    3    3    0    0  0.51109715368E+01 -0.19715423647E+02  0.32219877682E+02  0.38117456339E+02  0.51100000000E-03 0.  1.
         23    2    1    0    0    0 -0.52884813933E+01 -0.93443586345E+01 -0.25365150922E+02  0.97545927043E+02  0.93576342778E+02 0.  0.
         11    1    3    3    0    0 -0.10399452930E+02  0.10371065012E+02 -0.57585028604E+02  0.59428470705E+02  0.51100000000E-03 0. -1.
         22    1    1    0    0    0  0.52884813933E+01  0.93443586345E+01  0.25365150922E+02  0.27544072957E+02  0.00000000000E+00 0. -1.
</event>
<event>
 5    1  0.1044283E-009  0.9118800E+02  0.7815553E-02  0.1125453E+00
         25   -1    0    0    0    0  0.00000000000E+00  0.00000000000E+00  0.99999998245E-14  0.12509000000E+03  0.12509000000E+03 0.  0.
        -11    1    3    3    0    0  0.62961833269E+01 -0.48057977437E+02 -0.33402118163E+02  0.58863508372E+02  0.51100000000E-03 0.  1.
         23    2    1    0    0    0 -0.11866444800E+02 -0.22903237040E+02 -0.11464216020E+02  0.96862371193E+02  0.92658080732E+02 0.  0.
         11    1    3    3    0    0 -0.18162628127E+02  0.25154740397E+02  0.21937902143E+02  0.37998862820E+02  0.51100000000E-03 0. -1.
         22    1    1    0    0    0  0.11866444800E+02  0.22903237040E+02  0.11464216020E+02  0.28227628807E+02  0.00000000000E+00 0.  1.
</event>
<event>
 5    1  0.1044283E-009  0.9118800E+02  0.7815553E-02  0.1125453E+00
         25   -1    0    0    0    0  0.00000000000E+00  0.00000000000E+00  0.99999998245E-14  0.12509000000E+03  0.12509000000E+03 0.  0.
        -11    1    3    3    0    0  0.13828633585E+02  0.45774318717E+02 -0.29164062649E+02  0.56009480548E+02  0.51100000000E-03 0.  1.
         23    2    1    0    0    0  0.24388954453E+02  0.13164230506E+02 -0.82084687770E+01  0.96185034617E+02  0.91739107584E+02 0.  0.
         11    1    3    3    0    0  0.10560320869E+02 -0.32610088211E+02  0.20955593872E+02  0.40175554069E+02  0.51100000000E-03 0. -1.
         22    1    1    0    0    0 -0.24388954453E+02 -0.13164230506E+02  0.82084687770E+01  0.28904965383E+02  0.00000000000E+00 0.  1.
</event>
<event>
 5    1  0.1044283E-009  0.9118800E+02  0.7815553E-02  0.1125453E+00
         25   -1    0    0    0    0  0.00000000000E+00  0.00000000000E+00  0.99999998245E-14  0.12509000000E+03  0.12509000000E+03 0.  0.
        -11    1    3    3    0    0 -0.12509450277E+02  0.16228164300E+02  0.32411887503E+02  0.38345405391E+02  0.51100000000E-03 0.  1.
         23    2    1    0    0    0  0.67885125652E+01  0.28704998091E+01 -0.24286653647E+02  0.99709589890E+02  0.96425292837E+02 0.  0.
         11    1    3    3    0    0  0.19297962842E+02 -0.13357664491E+02 -0.56698541150E+02  0.61364184499E+02  0.51100000000E-03 0. -1.
         22    1    1    0    0    0 -0.67885125652E+01 -0.28704998091E+01  0.24286653647E+02  0.25380410110E+02  0.00000000000E+00 0. -1.
</event>
<event>
 5    1  0.1044283E-009  0.9118800E+02  0.7815553E-02  0.1125453E+00
         25   -1    0    0    0    0  0.00000000000E+00  0.00000000000E+00  0.99999998245E-14  0.12509000000E+03  0.12509000000E+03 0.  0.
        -11    1    3    3    0    0  0.16650619909E+02  0.30738663019E+02  0.10416116318E+02  0.36477445456E+02  0.51100000000E-03 0.  1.
         23    2    1    0    0    0 -0.29604868041E+02 -0.30517541003E+01 -0.25808614427E+01  0.95216562625E+02  0.90408912931E+02 0.  0.
         11    1    3    3    0    0 -0.46255487950E+02 -0.33790417119E+02 -0.12996977761E+02  0.58739117169E+02  0.51100000000E-03 0. -1.
         22    1    1    0    0    0  0.29604868041E+02  0.30517541003E+01  0.25808614427E+01  0.29873437375E+02  0.00000000000E+00 0. -1.
</event>
<event>
 5    1  0.1044283E-009  0.9118800E+02  0.7815553E-02  0.1125453E+00
         25   -1    0    0    0    0  0.00000000000E+00  0.00000000000E+00  0.99999998245E-14  0.12509000000E+03  0.12509000000E+03 0.  0.
        -11    1    3    3    0    0  0.83226660258E+01 -0.43101127650E+02  0.22467674856E+02  0.49312983972E+02  0.51100000000E-03 0.  1.
         23    2    1    0    0    0  0.18830712900E+02 -0.23033970919E+02 -0.13973200940E+02  0.92220410572E+02  0.86163763944E+02 0.  0.
         11    1    3    3    0    0  0.10508046874E+02  0.20067156732E+02 -0.36440875796E+02  0.42907426600E+02  0.51100000000E-03 0. -1.
         22    1    1    0    0    0 -0.18830712900E+02  0.23033970919E+02  0.13973200940E+02  0.32869589428E+02  0.00000000000E+00 0. -1.
</event>
<event>
 5    1  0.1044283E-009  0.9118800E+02  0.7815553E-02  0.1125453E+00
         25   -1    0    0    0    0  0.00000000000E+00  0.00000000000E+00  0.99999998245E-14  0.12509000000E+03  0.12509000000E+03 0.  0.
        -11    1    3    3    0    0 -0.41495147291E+00 -0.22142635079E+02  0.31096961700E+02  0.38177080824E+02  0.51100000000E-03 0.  1.
         23    2    1    0    0    0  0.18770192805E+02  0.18667037521E+02 -0.75454767929E+01  0.97563419250E+02  0.93599722905E+02 0.  0.
         11    1    3    3    0    0  0.19185144278E+02  0.40809672600E+02 -0.38642438493E+02  0.59386338426E+02  0.51100000000E-03 0. -1.
         22    1    1    0    0    0 -0.18770192805E+02 -0.18667037521E+02  0.75454767929E+01  0.27526580750E+02  0.00000000000E+00 0. -1.
</event>
<event>
 5    1  0.1044283E-009  0.9118800E+02  0.7815553E-02  0.1125453E+00
         25   -1    0    0    0    0  0.00000000000E+00  0.00000000000E+00  0.99999998245E-14  0.12509000000E+03  0.12509000000E+03 0.  0.
        -11    1    3    3    0    0 -0.27700787620E+02 -0.12442165735E+02 -0.53064517618E+02  0.61139055874E+02  0.51100000000E-03 0.  1.
         23    2    1    0    0    0 -0.13193071257E+02 -0.15064472039E+02 -0.23208991701E+02  0.94436244231E+02  0.89322737764E+02 0.  0.
         11    1    3    3    0    0  0.14507716363E+02 -0.26223063037E+01  0.29855525917E+02  0.33297188356E+02  0.51100000000E-03 0. -1.
         22    1    1    0    0    0  0.13193071257E+02  0.15064472039E+02  0.23208991701E+02  0.30653755769E+02  0.00000000000E+00 0.  1.
</event>
<event>
 5    1  0.1044283E-009  0.9118800E+02  0.7815553E-02  0.1125453E+00
         25   -1    0    0    0    0  0.00000000000E+00  0.00000000000E+00  0.99999998245E-14  0.12509000000E+03  0.12509000000E+03 0.  0.
        -11    1    3    3    0    0 -0.81443048767E+01 -0.43369850780E+01 -0.47943321894E+02  0.48823163109E+02  0.51100000000E-03 0.  1.
         23    2    1    0    0    0  0.25099579126E+02  0.38648572287E+00 -0.15083756814E+02  0.95804202023E+02  0.91218348824E+02 0.  0.
         11    1    3    3    0    0  0.33243884002E+02  0.47234708009E+01  0.32859565079E+02  0.46981038914E+02  0.51100000000E-03 0. -1.
         22    1    1    0    0    0 -0.25099579126E+02 -0.38648572287E+00  0.15083756814E+02  0.29285797977E+02  0.00000000000E+00 0.  1.
</event>
<event>
 5    1  0.1044283E-009  0.9118800E+02  0.7815553E-02  0.1125453E+00
         25   -1    0    0    0    0  0.00000000000E+00  0.00000000000E+00  0.99999998245E-14  0.12509000000E+03  0.12509000000E+03 0.  0.
        -11    1    3    3    0    0 -0.17043442363E+02 -0.26166528233E+02 -0.36806099109E+02  0.48268572169E+02  0.51100000000E-03 0.  1.
         23    2    1    0    0    0  0.38111876150E+01 -0.29456322314E+02  0.48740681957E+01  0.94990886789E+02  0.90096126203E+02 0.  0.
         11    1    3    3    0    0  0.20854629978E+02 -0.32897940819E+01  0.41680167305E+02  0.46722314620E+02  0.51100000000E-03 0. -1.
         22    1    1    0    0    0 -0.38111876150E+01  0.29456322314E+02 -0.48740681957E+01  0.30099113211E+02  0.00000000000E+00 0.  1.
</event>
<event>
 5    1  0.1044283E-009  0.9118800E+02  0.7815553E-02  0.1125453E+00
         25   -1    0    0    0    0  0.00000000000E+00  0.00000000000E+00  0.99999998245E-14  0.12509000000E+03  0.12509000000E+03 0.  0.
        -11    1    3    3    0    0  0.65226651762E+01  0.73322601758E+01  0.32184850668E+02  0.33647760892E+02  0.51100000000E-03 0. -1.
         23    2    1    0    0    0  0.25736742191E+02  0.12774005147E+01 -0.21843082039E+02  0.91309356376E+02  0.84830812081E+02 0.  0.
         11    1    3    3    0    0  0.19214077015E+02 -0.60548596610E+01 -0.54027932706E+02  0.57661595484E+02  0.51100000000E-03 0.  1.
         22    1    1    0    0    0 -0.25736742191E+02 -0.12774005147E+01  0.21843082039E+02  0.33780643624E+02  0.00000000000E+00 0.  1.
</event>
<event>
 5    1  0.1044283E-009  0.9118800E+02  0.7815553E-02  0.1125453E+00
         25   -1    0    0    0    0  0.00000000000E+00  0.00000000000E+00  0.99999998245E-14  0.12509000000E+03  0.12509000000E+03 0.  0.
        -11    1    3    3    0    0  0.31453723280E+02  0.33370143758E+02 -0.28628237757E+02  0.54059959304E+02  0.51100000000E-03 0.  1.
         23    2    1    0    0    0  0.18289910125E+02  0.14490616397E+01 -0.31424175776E+02  0.88701823140E+02  0.80894462191E+02 0.  0.
         11    1    3    3    0    0 -0.13163813155E+02 -0.31921082118E+02 -0.27959380192E+01  0.34641863836E+02  0.51100000000E-03 0. -1.
         22    1    1    0    0    0 -0.18289910125E+02 -0.14490616397E+01  0.31424175776E+02  0.36388176860E+02  0.00000000000E+00 0.  1.
</event>
<event>
 5    1  0.1044283E-009  0.9118800E+02  0.7815553E-02  0.1125453E+00
         25   -1    0    0    0    0  0.00000000000E+00  0.00000000000E+00  0.99999998245E-14  0.12509000000E+03  0.12509000000E+03 0.  0.
        -11    1    3    3    0    0 -0.43689151935E+02  0.18934421276E+02 -0.86824218947E+00  0.47623609172E+02  0.51100000000E-03 0.  1.
         23    2    1    0    0    0 -0.19108135339E+01  0.41193801217E+01 -0.26078949023E+02  0.98618655435E+02  0.94999511139E+02 0.  0.
         11    1    3    3    0    0  0.41778338401E+02 -0.14815041154E+02 -0.25210706834E+02  0.50995046262E+02  0.51100000000E-03 0. -1.
         22    1    1    0    0    0  0.19108135339E+01 -0.41193801217E+01  0.26078949023E+02  0.26471344565E+02  0.00000000000E+00 0.  1.
</event>
<event>
 5    1  0.1044283E-009  0.9118800E+02  0.7815553E-02  0.1125453E+00
         25   -1    0    0    0    0  0.00000000000E+00  0.00000000000E+00  0.99999998245E-14  0.12509000000E+03  0.12509000000E+03 0.  0.
        -11    1    3    3    0    0 -0.99324074162E+01  0.27371535859E+02 -0.76685655474E+01  0.30110805206E+02  0.51100000000E-03 0.  1.
         23    2    1    0    0    0  0.12435275234E+02  0.43598122333E+01 -0.44335427550E+02  0.78837711744E+02  0.63844425161E+02 0.  0.
         11    1    3    3    0    0  0.22367682650E+02 -0.23011723626E+02 -0.36666862003E+02  0.48726906538E+02  0.51100000000E-03 0. -1.
         22    1    1    0    0    0 -0.12435275234E+02 -0.43598122333E+01  0.44335427550E+02  0.46252288256E+02  0.00000000000E+00 0. -1.
</event>
<event>
 5    1  0.1044283E-009  0.9118800E+02  0.7815553E-02  0.1125453E+00
         25   -1    0    0    0    0  0.00000000000E+00  0.00000000000E+00  0.99999998245E-14  0.12509000000E+03  0.12509000000E+03 0.  0.
        -11    1    3    3    0    0  0.54499353626E+01  0.46061522501E+02  0.16324843628E+02  0.49171802593E+02  0.51100000000E-03 0.  1.
         23    2    1    0    0    0  0.18328508396E+02  0.13131601490E+02 -0.16288710139E+02  0.97274621957E+02  0.93212964877E+02 0.  0.
         11    1    3    3    0    0  0.12878573033E+02 -0.32929921011E+02 -0.32613553767E+02  0.48102819364E+02  0.51100000000E-03 0. -1.
         22    1    1    0    0    0 -0.18328508396E+02 -0.13131601490E+02  0.16288710139E+02  0.27815378043E+02  0.00000000000E+00 0.  1.
</event>
<event>
 5    1  0.1044283E-009  0.9118800E+02  0.7815553E-02  0.1125453E+00
         25   -1    0    0    0    0  0.00000000000E+00  0.00000000000E+00  0.99999998245E-14  0.12509000000E+03  0.12509000000E+03 0.  0.
        -11    1    3    3    0    0 -0.18331073504E+02  0.76228897649E+01  0.36811986998E+02  0.41824144835E+02  0.51100000000E-03 0.  1.
         23    2    1    0    0    0 -0.23999962898E+02 -0.20528380499E+02 -0.55722238980E+01  0.93020352291E+02  0.87317373049E+02 0.  0.
         11    1    3    3    0    0 -0.56688893935E+01 -0.28151270263E+02 -0.42384210896E+02  0.51196207456E+02  0.51100000000E-03 0. -1.
         22    1    1    0    0    0  0.23999962898E+02  0.20528380499E+02  0.55722238980E+01  0.32069647709E+02  0.00000000000E+00 0. -1.
</event>
<event>
 5    1  0.1044283E-009  0.9118800E+02  0.7815553E-02  0.1125453E+00
         25   -1    0    0    0    0  0.00000000000E+00  0.00000000000E+00  0.99999998245E-14  0.12509000000E+03  0.12509000000E+03 0.  0.
        -11    1    3    3    0    0 -0.25273840500E+02 -0.16277252604E+02 -0.32253434818E+02  0.44090815640E+02  0.51100000000E-03 0. -1.
         23    2    1    0    0    0  0.21360143946E+02  0.13473500045E+01 -0.20804884760E+02  0.95241811926E+02  0.90443841181E+02 0.  0.
         11    1    3    3    0    0  0.46633984446E+02  0.17624602608E+02  0.11448550058E+02  0.51150996286E+02  0.51100000000E-03 0.  1.
         22    1    1    0    0    0 -0.21360143946E+02 -0.13473500045E+01  0.20804884760E+02  0.29848188074E+02  0.00000000000E+00 0. -1.
</event>
<event>
 5    1  0.1044283E-009  0.9118800E+02  0.7815553E-02  0.1125453E+00
         25   -1    0    0    0    0  0.00000000000E+00  0.00000000000E+00  0.99999998245E-14  0.12509000000E+03  0.12509000000E+03 0.  0.
        -11    1    3    3    0    0  0.28740894332E+02 -0.10407727715E+02  0.53568724740E+02  0.61676316960E+02  0.51100000000E-03 0.  1.
         23    2    1    0    0    0  0.69371081657E+01 -0.73075295258E+01  0.27498596181E+02  0.95803548364E+02  0.91217452441E+02 0.  0.
         11    1    3    3    0    0 -0.21803786166E+02  0.31001981891E+01 -0.26070128559E+02  0.34127231405E+02  0.51100000000E-03 0. -1.
         22    1    1    0    0    0 -0.69371081657E+01  0.73075295258E+01 -0.27498596181E+02  0.29286451636E+02  0.00000000000E+00 0.  1.
</event>
<event>
 5    1  0.1044283E-009  0.9118800E+02  0.7815553E-02  0.1125453E+00
         25   -1    0    0    0    0  0.00000000000E+00  0.00000000000E+00  0.99999998245E-14  0.12509000000E+03  0.12509000000E+03 0.  0.
        -11    1    3    3    0    0  0.12502055047E+02  0.49606735225E+02  0.17683458895E+02  0.54127943605E+02  0.51100000000E-03 0. -1.
         23    2    1    0    0    0  0.48153391362E+00  0.98363583105E+01  0.26690735039E+02  0.96640375105E+02  0.92357895947E+02 0.  0.
         11    1    3    3    0    0 -0.12020521134E+02 -0.39770376915E+02  0.90072761441E+01  0.42512431500E+02  0.51100000000E-03 0.  1.
         22    1    1    0    0    0 -0.48153391362E+00 -0.98363583105E+01 -0.26690735039E+02  0.28449624895E+02  0.00000000000E+00 0.  1.
</event>
<event>
 5    1  0.1044283E-009  0.9118800E+02  0.7815553E-02  0.1125453E+00
         25   -1    0    0    0    0  0.00000000000E+00  0.00000000000E+00  0.99999998245E-14  0.12509000000E+03  0.12509000000E+03 0.  0.
        -11    1    3    3    0    0 -0.99183184266E+01 -0.34672995126E+02 -0.83237111421E+01  0.37011806209E+02  0.51100000000E-03 0. -1.
         23    2    1    0    0    0 -0.46918315361E+00  0.55991999645E+01  0.30700057453E+02  0.93879990376E+02  0.88540317892E+02 0.  0.
         11    1    3    3    0    0  0.94491352730E+01  0.40272195091E+02  0.39023768595E+02  0.56868184167E+02  0.51100000000E-03 0.  1.
         22    1    1    0    0    0  0.46918315361E+00 -0.55991999645E+01 -0.30700057453E+02  0.31210009624E+02  0.00000000000E+00 0.  1.
</event>
<event>
 5    1  0.1044283E-009  0.9118800E+02  0.7815553E-02  0.1125453E+00
         25   -1    0    0    0    0  0.00000000000E+00  0.00000000000E+00  0.99999998245E-14  0.12509000000E+03  0.12509000000E+03 0.  0.
        -11    1    3    3    0    0  0.24146596459E+02  0.41065279342E+02 -0.17212467919E+02  0.50652584733E+02  0.51100000000E-03 0. -1.
         23    2    1    0    0    0 -0.79304405439E+01  0.24762008782E+02  0.11473446138E+02  0.96670131379E+02  0.92398189205E+02 0.  0.
         11    1    3    3    0    0 -0.32077037003E+02 -0.16303270560E+02  0.28685914057E+02  0.46017546646E+02  0.51100000000E-03 0.  1.
         22    1    1    0    0    0  0.79304405439E+01 -0.24762008782E+02 -0.11473446138E+02  0.28419868621E+02  0.00000000000E+00 0. -1.
</event>
<event>
 5    1  0.1044283E-009  0.9118800E+02  0.7815553E-02  0.1125453E+00
         25   -1    0    0    0    0  0.00000000000E+00  0.00000000000E+00  0.99999998245E-14  0.12509000000E+03  0.12509000000E+03 0.  0.
        -11    1    3    3    0    0 -0.20039896509E+02  0.52887167263E+02  0.15672158875E+02  0.58687873341E+02  0.51100000000E-03 0. -1.
         23    2    1    0    0    0 -0.10228550389E+02  0.16141604055E+02 -0.89430286377E+01  0.10399136531E+03  0.10182854056E+03 0.  0.
         11    1    3    3    0    0  0.98113461200E+01 -0.36745563208E+02 -0.24615187513E+02  0.45303491970E+02  0.51100000000E-03 0.  1.
         22    1    1    0    0    0  0.10228550389E+02 -0.16141604055E+02  0.89430286377E+01  0.21098634689E+02  0.00000000000E+00 0. -1.
</event>
<event>
 5    1  0.1044283E-009  0.9118800E+02  0.7815553E-02  0.1125453E+00
         25   -1    0    0    0    0  0.00000000000E+00  0.00000000000E+00  0.99999998245E-14  0.12509000000E+03  0.12509000000E+03 0.  0.
        -11    1    3    3    0    0  0.11206772124E+02 -0.16593448112E+02 -0.52228685813E+02  0.55935408139E+02  0.51100000000E-03 0.  1.
         23    2    1    0    0    0  0.96442389823E+01  0.11895885661E+02 -0.27131949981E+02  0.93934484422E+02  0.88617273782E+02 0.  0.
         11    1    3    3    0    0 -0.15625331417E+01  0.28489333773E+02  0.25096735832E+02  0.37999076283E+02  0.51100000000E-03 0. -1.
         22    1    1    0    0    0 -0.96442389823E+01 -0.11895885661E+02  0.27131949981E+02  0.31155515578E+02  0.00000000000E+00 0.  1.
</event>
<event>
 5    1  0.1044283E-009  0.9118800E+02  0.7815553E-02  0.1125453E+00
         25   -1    0    0    0    0  0.00000000000E+00  0.00000000000E+00  0.99999998245E-14  0.12509000000E+03  0.12509000000E+03 0.  0.
        -11    1    3    3    0    0 -0.36712971154E+00 -0.42069491399E+02 -0.22660953977E+02  0.47785936490E+02  0.51100000000E-03 0.  1.
         23    2    1    0    0    0  0.84960898463E+01  0.41209417094E+01 -0.28393863472E+02  0.95167146090E+02  0.90340514216E+02 0.  0.
         11    1    3    3    0    0  0.88632195579E+01  0.46190433108E+02 -0.57329094947E+01  0.47381209600E+02  0.51100000000E-03 0. -1.
         22    1    1    0    0    0 -0.84960898463E+01 -0.41209417094E+01  0.28393863472E+02  0.29922853910E+02  0.00000000000E+00 0. -1.
</event>
<event>
 5    1  0.1044283E-009  0.9118800E+02  0.7815553E-02  0.1125453E+00
         25   -1    0    0    0    0  0.00000000000E+00  0.00000000000E+00  0.99999998245E-14  0.12509000000E+03  0.12509000000E+03 0.  0.
        -11    1    3    3    0    0 -0.15597353180E+02 -0.27001018717E+02 -0.11768587970E+02  0.33329147920E+02  0.51100000000E-03 0.  1.
         23    2    1    0    0    0  0.16223924768E+02  0.23557021398E+02  0.64193522933E+01  0.95775207217E+02  0.91178578853E+02 0.  0.
         11    1    3    3    0    0  0.31821277948E+02  0.50558040115E+02  0.18187940264E+02  0.62446059298E+02  0.51100000000E-03 0. -1.
         22    1    1    0    0    0 -0.16223924768E+02 -0.23557021398E+02 -0.64193522933E+01  0.29314792783E+02  0.00000000000E+00 0. -1.
</event>
<event>
 5    1  0.1044283E-009  0.9118800E+02  0.7815553E-02  0.1125453E+00
         25   -1    0    0    0    0  0.00000000000E+00  0.00000000000E+00  0.99999998245E-14  0.12509000000E+03  0.12509000000E+03 0.  0.
        -11    1    3    3    0    0  0.89469541146E+01  0.38264204386E+02  0.12089381418E+02  0.41113871973E+02  0.51100000000E-03 0.  1.
         23    2    1    0    0    0  0.30983592871E+01 -0.13750717529E+02  0.26212095840E+02  0.95328346296E+02  0.90563445034E+02 0.  0.
         11    1    3    3    0    0 -0.58485948275E+01 -0.52014921915E+02  0.14122714423E+02  0.54214474324E+02  0.51100000000E-03 0. -1.
         22    1    1    0    0    0 -0.30983592871E+01  0.13750717529E+02 -0.26212095840E+02  0.29761653704E+02  0.00000000000E+00 0. -1.
</event>
<event>
 5    1  0.1044283E-009  0.9118800E+02  0.7815553E-02  0.1125453E+00
         25   -1    0    0    0    0  0.00000000000E+00  0.00000000000E+00  0.99999998245E-14  0.12509000000E+03  0.12509000000E+03 0.  0.
        -11    1    3    3    0    0  0.46738308503E+01  0.41553834477E+01 -0.32611619405E+02  0.33205867356E+02  0.51100000000E-03 0.  1.
         23    2    1    0    0    0 -0.27389322999E-01 -0.18091068807E+02  0.24475278785E+02  0.94654382833E+02  0.89627704406E+02 0.  0.
         11    1    3    3    0    0 -0.47012201732E+01 -0.22246452255E+02  0.57086898190E+02  0.61448515476E+02  0.51100000000E-03 0. -1.
         22    1    1    0    0    0  0.27389322999E-01  0.18091068807E+02 -0.24475278785E+02  0.30435617167E+02  0.00000000000E+00 0. -1.
</event>
<event>
 5    1  0.1044283E-009  0.9118800E+02  0.7815553E-02  0.1125453E+00
         25   -1    0    0    0    0  0.00000000000E+00  0.00000000000E+00  0.99999998245E-14  0.12509000000E+03  0.12509000000E+03 0.  0.
        -11    1    3    3    0    0  0.11990461044E+02  0.33634217213E+02 -0.12602329718E+02  0.37866217637E+02  0.51100000000E-03 0.  1.
         23    2    1    0    0    0 -0.23786705344E+02 -0.28787025222E+00  0.17433636205E+02  0.95597256965E+02  0.90934117072E+02 0.  0.
         11    1    3    3    0    0 -0.35777166387E+02 -0.33922087466E+02  0.30035965923E+02  0.57731039328E+02  0.51100000000E-03 0. -1.
         22    1    1    0    0    0  0.23786705344E+02  0.28787025222E+00 -0.17433636205E+02  0.29492743035E+02  0.00000000000E+00 0. -1.
</event>
<event>
 5    1  0.1044283E-009  0.9118800E+02  0.7815553E-02  0.1125453E+00
         25   -1    0    0    0    0  0.00000000000E+00  0.00000000000E+00  0.99999998245E-14  0.12509000000E+03  0.12509000000E+03 0.  0.
        -11    1    3    3    0    0  0.27391135669E+02 -0.54475998691E+02 -0.54914154073E+01  0.61221437341E+02  0.51100000000E-03 0. -1.
         23    2    1    0    0    0  0.49389494865E+01 -0.29558785459E+02 -0.45728518524E+01  0.94774558491E+02  0.89795272388E+02 0.  0.
         11    1    3    3    0    0 -0.22452186182E+02  0.24917213232E+02  0.91856355487E+00  0.33553121150E+02  0.51100000000E-03 0.  1.
         22    1    1    0    0    0 -0.49389494865E+01  0.29558785459E+02  0.45728518524E+01  0.30315441509E+02  0.00000000000E+00 0. -1.
</event>
<event>
 5    1  0.1044283E-009  0.9118800E+02  0.7815553E-02  0.1125453E+00
         25   -1    0    0    0    0  0.00000000000E+00  0.00000000000E+00  0.99999998245E-14  0.12509000000E+03  0.12509000000E+03 0.  0.
        -11    1    3    3    0    0  0.65230954834E+01 -0.12104428227E+01  0.38968008897E+02  0.39528744783E+02  0.51100000000E-03 0. -1.
         23    2    1    0    0    0  0.26439691156E+02  0.57421696351E+01 -0.12599395365E+02  0.95244153654E+02  0.90447079894E+02 0.  0.
         11    1    3    3    0    0  0.19916595672E+02  0.69526124578E+01 -0.51567404261E+02  0.55715408871E+02  0.51100000000E-03 0.  1.
         22    1    1    0    0    0 -0.26439691156E+02 -0.57421696351E+01  0.12599395365E+02  0.29845846346E+02  0.00000000000E+00 0.  1.
</event>
<event>
 5    1  0.1044283E-009  0.9118800E+02  0.7815553E-02  0.1125453E+00
         25   -1    0    0    0    0  0.00000000000E+00  0.00000000000E+00  0.99999998245E-14  0.12509000000E+03  0.12509000000E+03 0.  0.
        -11    1    3    3    0    0 -0.20933791975E+02 -0.66765710170E+01 -0.31006886930E+02  0.38002990466E+02  0.51100000000E-03 0.  1.
         23    2    1    0    0    0  0.10992847850E+02  0.23935943167E+02  0.86062662941E+01  0.97380075809E+02  0.93354374648E+02 0.  0.
         11    1    3    3    0    0  0.31926639826E+02  0.30612514184E+02  0.39613153224E+02  0.59377085343E+02  0.51100000000E-03 0. -1.
         22    1    1    0    0    0 -0.10992847850E+02 -0.23935943167E+02 -0.86062662941E+01  0.27709924191E+02  0.00000000000E+00 0. -1.
</event>
<event>
 5    1  0.1044283E-009  0.9118800E+02  0.7815553E-02  0.1125453E+00
         25   -1    0    0    0    0  0.00000000000E+00  0.00000000000E+00  0.99999998245E-14  0.12509000000E+03  0.12509000000E+03 0.  0.
        -11    1    3    3    0    0  0.25235031685E+02 -0.29891340837E+02 -0.36816752728E+02  0.53719385355E+02  0.51100000000E-03 0. -1.
         23    2    1    0    0    0  0.25914664738E+02  0.44798052323E+01 -0.11641760045E+02  0.96329452711E+02  0.91935816629E+02 0.  0.
         11    1    3    3    0    0  0.67963305301E+00  0.34371146070E+02  0.25174992683E+02  0.42610067356E+02  0.51100000000E-03 0.  1.
         22    1    1    0    0    0 -0.25914664738E+02 -0.44798052323E+01  0.11641760045E+02  0.28760547289E+02  0.00000000000E+00 0. -1.
</event>
<event>
 5    1  0.1044283E-009  0.9118800E+02  0.7815553E-02  0.1125453E+00
         25   -1    0    0    0    0  0.00000000000E+00  0.00000000000E+00  0.99999998245E-14  0.12509000000E+03  0.12509000000E+03 0.  0.
        -11    1    3    3    0    0  0.16610229611E+02 -0.24191046687E+02 -0.35242587903E+00  0.29346731876E+02  0.51100000000E-03 0. -1.
         23    2    1    0    0    0 -0.14165257071E+02 -0.34138029918E+01  0.39002670049E+02  0.83454476349E+02  0.72326570449E+02 0.  0.
         11    1    3    3    0    0 -0.30775486682E+02  0.20777243695E+02  0.39355095928E+02  0.54107744472E+02  0.51100000000E-03 0.  1.
         22    1    1    0    0    0  0.14165257071E+02  0.34138029918E+01 -0.39002670049E+02  0.41635523651E+02  0.00000000000E+00 0.  1.
</event>
<event>
 5    1  0.1044283E-009  0.9118800E+02  0.7815553E-02  0.1125453E+00
         25   -1    0    0    0    0  0.00000000000E+00  0.00000000000E+00  0.99999998245E-14  0.12509000000E+03  0.12509000000E+03 0.  0.
        -11    1    3    3    0    0  0.33345834447E+02 -0.21442045247E+02  0.10345327648E+02  0.40972329488E+02  0.51100000000E-03 0.  1.
         23    2    1    0    0    0  0.91440816683E+01  0.27444516492E+02  0.33037981872E+01  0.95974183035E+02  0.91451150959E+02 0.  0.
         11    1    3    3    0    0 -0.24201752778E+02  0.48886561739E+02 -0.70415294605E+01  0.55001853547E+02  0.51100000000E-03 0. -1.
         22    1    1    0    0    0 -0.91440816683E+01 -0.27444516492E+02 -0.33037981872E+01  0.29115816965E+02  0.00000000000E+00 0. -1.
</event>
<event>
 5    1  0.1044283E-009  0.9118800E+02  0.7815553E-02  0.1125453E+00
         25   -1    0    0    0    0  0.00000000000E+00  0.00000000000E+00  0.99999998245E-14  0.12509000000E+03  0.12509000000E+03 0.  0.
        -11    1    3    3    0    0 -0.50902742485E+02 -0.24329450645E+02  0.24719876327E+02  0.61596133378E+02  0.51100000000E-03 0.  1.
         23    2    1    0    0    0 -0.18852662966E+02 -0.16239043807E+02  0.14935864153E+02  0.96069154343E+02  0.91580963816E+02 0.  0.
         11    1    3    3    0    0  0.32050079519E+02  0.80904068379E+01 -0.97840121740E+01  0.34473020965E+02  0.51100000000E-03 0. -1.
         22    1    1    0    0    0  0.18852662966E+02  0.16239043807E+02 -0.14935864153E+02  0.29020845657E+02  0.00000000000E+00 0.  1.
</event>
<event>
 5    1  0.1044283E-009  0.9118800E+02  0.7815553E-02  0.1125453E+00
         25   -1    0    0    0    0  0.00000000000E+00  0.00000000000E+00  0.99999998245E-14  0.12509000000E+03  0.12509000000E+03 0.  0.
        -11    1    3    3    0    0  0.58450264260E+01 -0.19197283592E+02 -0.32919607042E+02  0.38553865685E+02  0.51100000000E-03 0. -1.
         23    2    1    0    0    0 -0.27841626950E+02  0.69158738912E+01  0.54339308058E+01  0.95892172908E+02  0.91338905829E+02 0.  0.
         11    1    3    3    0    0 -0.33686653376E+02  0.26113157483E+02  0.38353537848E+02  0.57338307222E+02  0.51100000000E-03 0.  1.
         22    1    1    0    0    0  0.27841626950E+02 -0.69158738912E+01 -0.54339308058E+01  0.29197827092E+02  0.00000000000E+00 0.  1.
</event>
<event>
 5    1  0.1044283E-009  0.9118800E+02  0.7815553E-02  0.1125453E+00
         25   -1    0    0    0    0  0.00000000000E+00  0.00000000000E+00  0.99999998245E-14  0.12509000000E+03  0.12509000000E+03 0.  0.
        -11    1    3    3    0    0 -0.18264378636E+02 -0.47732012780E+02 -0.22722231287E+02  0.55930603125E+02  0.51100000000E-03 0. -1.
         23    2    1    0    0    0  0.94546482522E+01 -0.22996582142E+02 -0.19998508489E+02  0.93181168847E+02  0.87547454115E+02 0.  0.
         11    1    3    3    0    0  0.27719026888E+02  0.24735430638E+02  0.27237227976E+01  0.37250565722E+02  0.51100000000E-03 0.  1.
         22    1    1    0    0    0 -0.94546482522E+01  0.22996582142E+02  0.19998508489E+02  0.31908831153E+02  0.00000000000E+00 0. -1.
</event>
<event>
 5    1  0.1044283E-009  0.9118800E+02  0.7815553E-02  0.1125453E+00
         25   -1    0    0    0    0  0.00000000000E+00  0.00000000000E+00  0.99999998245E-14  0.12509000000E+03  0.12509000000E+03 0.  0.
        -11    1    3    3    0    0 -0.59520466813E+01 -0.22375357791E+02  0.23831624955E+02  0.33226944552E+02  0.51100000000E-03 0.  1.
         23    2    1    0    0    0  0.43272349010E+01  0.20947428799E+02 -0.20071969160E+02  0.95757361504E+02  0.91154092619E+02 0.  0.
         11    1    3    3    0    0  0.10279281582E+02  0.43322786590E+02 -0.43903594115E+02  0.62530416952E+02  0.51100000000E-03 0. -1.
         22    1    1    0    0    0 -0.43272349010E+01 -0.20947428799E+02  0.20071969160E+02  0.29332638496E+02  0.00000000000E+00 0. -1.
</event>
<event>
 5    1  0.1044283E-009  0.9118800E+02  0.7815553E-02  0.1125453E+00
         25   -1    0    0    0    0  0.00000000000E+00  0.00000000000E+00  0.99999998245E-14  0.12509000000E+03  0.12509000000E+03 0.  0.
        -11    1    3    3    0    0  0.26186358388E+02 -0.97083031346E+01  0.45158415674E+02  0.53096695018E+02  0.51100000000E-03 0. -1.
         23    2    1    0    0    0  0.22960844780E+02  0.66610527014E+00 -0.25056387399E+01  0.10198324093E+03  0.99331058163E+02 0.  0.
         11    1    3    3    0    0 -0.32255136079E+01  0.10374408405E+02 -0.47664054414E+02  0.48886545912E+02  0.51100000000E-03 0.  1.
         22    1    1    0    0    0 -0.22960844780E+02 -0.66610527014E+00  0.25056387399E+01  0.23106759070E+02  0.00000000000E+00 0.  1.
</event>
<event>
 5    1  0.1044283E-009  0.9118800E+02  0.7815553E-02  0.1125453E+00
         25   -1    0    0    0    0  0.00000000000E+00  0.00000000000E+00  0.99999998245E-14  0.12509000000E+03  0.12509000000E+03 0.  0.
        -11    1    3    3    0    0 -0.48357642003E+02 -0.23099993158E+01  0.11455477901E+02  0.49749629256E+02  0.51100000000E-03 0.  1.
         23    2    1    0    0    0 -0.97171320192E+01 -0.25811369518E+02  0.12081263789E+02  0.94980094889E+02  0.90081141419E+02 0.  0.
         11    1    3    3    0    0  0.38640509983E+02 -0.23501370202E+02  0.62578588860E+00  0.45230465633E+02  0.51100000000E-03 0. -1.
         22    1    1    0    0    0  0.97171320192E+01  0.25811369518E+02 -0.12081263789E+02  0.30109905111E+02  0.00000000000E+00 0.  1.
</event>
<event>
 5    1  0.1044283E-009  0.9118800E+02  0.7815553E-02  0.1125453E+00
         25   -1    0    0    0    0  0.00000000000E+00  0.00000000000E+00  0.99999998245E-14  0.12509000000E+03  0.12509000000E+03 0.  0.
        -11    1    3    3    0    0 -0.22152855234E+02  0.26001945462E+02  0.35630420005E+02  0.49359669699E+02  0.51100000000E-03 0. -1.
         23    2    1    0    0    0 -0.10750862277E+02 -0.16266056236E+02  0.23027837249E+02  0.94916387132E+02  0.89992630991E+02 0.  0.
         11    1    3    3    0    0  0.11401992956E+02 -0.42268001697E+02 -0.12602582757E+02  0.45556717433E+02  0.51100000000E-03 0.  1.
         22    1    1    0    0    0  0.10750862277E+02  0.16266056236E+02 -0.23027837249E+02  0.30173612868E+02  0.00000000000E+00 0. -1.
</event>
<event>
 5    1  0.1044283E-009  0.9118800E+02  0.7815553E-02  0.1125453E+00
         25   -1    0    0    0    0  0.00000000000E+00  0.00000000000E+00  0.99999998245E-14  0.12509000000E+03  0.12509000000E+03 0.  0.
        -11    1    3    3    0    0 -0.34857974666E+02  0.82329151818E+01 -0.23555368955E+02  0.42868574703E+02  0.51100000000E-03 0. -1.
         23    2    1    0    0    0 -0.15601253317E+01 -0.28840523914E+02 -0.70916733619E+01  0.95349427683E+02  0.90592558843E+02 0.  0.
         11    1    3    3    0    0  0.33297849334E+02 -0.37073439096E+02  0.16463695593E+02  0.52480852980E+02  0.51100000000E-03 0.  1.
         22    1    1    0    0    0  0.15601253317E+01  0.28840523914E+02  0.70916733619E+01  0.29740572317E+02  0.00000000000E+00 0. -1.
</event>
<event>
 5    1  0.1044283E-009  0.9118800E+02  0.7815553E-02  0.1125453E+00
         25   -1    0    0    0    0  0.00000000000E+00  0.00000000000E+00  0.99999998245E-14  0.12509000000E+03  0.12509000000E+03 0.  0.
        -11    1    3    3    0    0 -0.52040484520E+02 -0.76521676947E+01 -0.25082684893E+02  0.58274426477E+02  0.51100000000E-03 0.  1.
         23    2    1    0    0    0 -0.30198255527E+02 -0.76474984622E+01  0.29354453016E+01  0.93800453683E+02  0.88427876840E+02 0.  0.
         11    1    3    3    0    0  0.21842228993E+02  0.46692325140E-02  0.28018130194E+02  0.35526027206E+02  0.51100000000E-03 0. -1.
         22    1    1    0    0    0  0.30198255527E+02  0.76474984622E+01 -0.29354453016E+01  0.31289546317E+02  0.00000000000E+00 0.  1.
</event>
<event>
 5    1  0.1044283E-009  0.9118800E+02  0.7815553E-02  0.1125453E+00
         25   -1    0    0    0    0  0.00000000000E+00  0.00000000000E+00  0.99999998245E-14  0.12509000000E+03  0.12509000000E+03 0.  0.
        -11    1    3    3    0    0 -0.67568630873E+01  0.44030460829E+02 -0.12742960311E+02  0.46332706778E+02  0.51100000000E-03 0. -1.
         23    2    1    0    0    0  0.23930363807E+02  0.59981771177E+01 -0.16601571884E+02  0.95353614381E+02  0.90598339642E+02 0.  0.
         11    1    3    3    0    0  0.30687226894E+02 -0.38032283711E+02 -0.38586115730E+01  0.49020907604E+02  0.51100000000E-03 0.  1.
         22    1    1    0    0    0 -0.23930363807E+02 -0.59981771177E+01  0.16601571884E+02  0.29736385619E+02  0.00000000000E+00 0.  1.
</event>
<event>
 5    1  0.1044283E-009  0.9118800E+02  0.7815553E-02  0.1125453E+00
         25   -1    0    0    0    0  0.00000000000E+00  0.00000000000E+00  0.99999998245E-14  0.12509000000E+03  0.12509000000E+03 0.  0.
        -11    1    3    3    0    0  0.32676231903E+02 -0.25891093852E+02 -0.35417965381E+02  0.54703904287E+02  0.51100000000E-03 0.  1.
         23    2    1    0    0    0 -0.42418281657E+01 -0.96744845350E+01 -0.27275274358E+02  0.95840566698E+02  0.91268202987E+02 0.  0.
         11    1    3    3    0    0 -0.36918060069E+02  0.16216609317E+02  0.81426910232E+01  0.41136662411E+02  0.51100000000E-03 0. -1.
         22    1    1    0    0    0  0.42418281657E+01  0.96744845350E+01  0.27275274358E+02  0.29249433302E+02  0.00000000000E+00 0.  1.
</event>
<event>
 5    1  0.1044283E-009  0.9118800E+02  0.7815553E-02  0.1125453E+00
         25   -1    0    0    0    0  0.00000000000E+00  0.00000000000E+00  0.99999998245E-14  0.12509000000E+03  0.12509000000E+03 0.  0.
        -11    1    3    3    0    0  0.26041051810E+00  0.27737779303E+02 -0.25983346021E+02  0.38007716125E+02  0.51100000000E-03 0. -1.
         23    2    1    0    0    0 -0.11566099553E+02  0.23773137394E+02  0.23914612810E+02  0.89441080994E+02  0.82029638199E+02 0.  0.
         11    1    3    3    0    0 -0.11826510071E+02 -0.39646419088E+01  0.49897958832E+02  0.51433364869E+02  0.51100000000E-03 0.  1.
         22    1    1    0    0    0  0.11566099553E+02 -0.23773137394E+02 -0.23914612810E+02  0.35648919006E+02  0.00000000000E+00 0.  1.
</event>
<event>
 5    1  0.1044283E-009  0.9118800E+02  0.7815553E-02  0.1125453E+00
         25   -1    0    0    0    0  0.00000000000E+00  0.00000000000E+00  0.99999998245E-14  0.12509000000E+03  0.12509000000E+03 0.  0.
        -11    1    3    3    0    0 -0.15763277078E+01  0.84950961210E+01  0.34436811817E+02  0.35504161384E+02  0.51100000000E-03 0.  1.
         23    2    1    0    0    0  0.30287931609E+02 -0.22624540250E+02  0.19972210288E+02  0.82333505681E+02  0.70361128127E+02 0.  0.
         11    1    3    3    0    0  0.31864259317E+02 -0.31119636371E+02 -0.14464601530E+02  0.46829344298E+02  0.51100000000E-03 0. -1.
         22    1    1    0    0    0 -0.30287931609E+02  0.22624540250E+02 -0.19972210288E+02  0.42756494319E+02  0.00000000000E+00 0. -1.
</event>
<event>
 5    1  0.1044283E-009  0.9118800E+02  0.7815553E-02  0.1125453E+00
         25   -1    0    0    0    0  0.00000000000E+00  0.00000000000E+00  0.99999998245E-14  0.12509000000E+03  0.12509000000E+03 0.  0.
        -11    1    3    3    0    0 -0.23957556393E+02  0.50786681040E+02 -0.10028094481E+02  0.57042213830E+02  0.51100000000E-03 0.  1.
         23    2    1    0    0    0 -0.42657128852E+01  0.29203854786E+02  0.11585125772E+02  0.93383903111E+02  0.87836648275E+02 0.  0.
         11    1    3    3    0    0  0.19691843508E+02 -0.21582826254E+02  0.21613220253E+02  0.36341689281E+02  0.51100000000E-03 0. -1.
         22    1    1    0    0    0  0.42657128852E+01 -0.29203854786E+02 -0.11585125772E+02  0.31706096889E+02  0.00000000000E+00 0.  1.
</event>
<event>
 5    1  0.1044283E-009  0.9118800E+02  0.7815553E-02  0.1125453E+00
         25   -1    0    0    0    0  0.00000000000E+00  0.00000000000E+00  0.99999998245E-14  0.12509000000E+03  0.12509000000E+03 0.  0.
        -11    1    3    3    0    0  0.11869369443E+02  0.20161809615E+02 -0.38455266976E+02  0.45013198690E+02  0.51100000000E-03 0. -1.
         23    2    1    0    0    0  0.89218260465E+01 -0.24177570072E+02 -0.12985388740E+02  0.96232172720E+02  0.91803359803E+02 0.  0.
         11    1    3    3    0    0 -0.29475433963E+01 -0.44339379687E+02  0.25469878235E+02  0.51218974030E+02  0.51100000000E-03 0.  1.
         22    1    1    0    0    0 -0.89218260465E+01  0.24177570072E+02  0.12985388740E+02  0.28857827280E+02  0.00000000000E+00 0. -1.
</event>
<event>
 5    1  0.1044283E-009  0.9118800E+02  0.7815553E-02  0.1125453E+00
         25   -1    0    0    0    0  0.00000000000E+00  0.00000000000E+00  0.99999998245E-14  0.12509000000E+03  0.12509000000E+03 0.  0.
        -11    1    3    3    0    0  0.26313772308E+02 -0.37948308063E+02  0.26021497722E+02  0.53005726501E+02  0.51100000000E-03 0.  1.
         23    2    1    0    0    0  0.20037314456E+02  0.48744293584E+01  0.19376832601E+02  0.96793080135E+02  0.92564489348E+02 0.  0.
         11    1    3    3    0    0 -0.62764578521E+01  0.42822737422E+02 -0.66446651208E+01  0.43787353634E+02  0.51100000000E-03 0. -1.
         22    1    1    0    0    0 -0.20037314456E+02 -0.48744293584E+01 -0.19376832601E+02  0.28296919865E+02  0.00000000000E+00 0.  1.
</event>
<event>
 5    1  0.1044283E-009  0.9118800E+02  0.7815553E-02  0.1125453E+00
         25   -1    0    0    0    0  0.00000000000E+00  0.00000000000E+00  0.99999998245E-14  0.12509000000E+03  0.12509000000E+03 0.  0.
        -11    1    3    3    0    0 -0.77934748843E+01 -0.46829772594E+02  0.27583997004E+02  0.54905762384E+02  0.51100000000E-03 0.  1.
         23    2    1    0    0    0  0.98855780360E+01 -0.91438860872E+01  0.25099333088E+02  0.96606463925E+02  0.92311955048E+02 0.  0.
         11    1    3    3    0    0  0.17679052920E+02  0.37685886507E+02 -0.24846639165E+01  0.41700701541E+02  0.51100000000E-03 0. -1.
         22    1    1    0    0    0 -0.98855780360E+01  0.91438860872E+01 -0.25099333088E+02  0.28483536075E+02  0.00000000000E+00 0.  1.
</event>
<event>
 5    1  0.1044283E-009  0.9118800E+02  0.7815553E-02  0.1125453E+00
         25   -1    0    0    0    0  0.00000000000E+00  0.00000000000E+00  0.99999998245E-14  0.12509000000E+03  0.12509000000E+03 0.  0.
        -11    1    3    3    0    0  0.45434883163E+02 -0.14729989847E+02 -0.24439237129E+02  0.53652376654E+02  0.51100000000E-03 0.  1.
         23    2    1    0    0    0  0.20804959637E+02 -0.18834230930E+02  0.92096119968E+01  0.95553724789E+02  0.90874213987E+02 0.  0.
         11    1    3    3    0    0 -0.24629923526E+02 -0.41042410823E+01  0.33648849126E+02  0.41901348135E+02  0.51100000000E-03 0. -1.
         22    1    1    0    0    0 -0.20804959637E+02  0.18834230930E+02 -0.92096119968E+01  0.29536275211E+02  0.00000000000E+00 0. -1.
</event>
<event>
 5    1  0.1044283E-009  0.9118800E+02  0.7815553E-02  0.1125453E+00
         25   -1    0    0    0    0  0.00000000000E+00  0.00000000000E+00  0.99999998245E-14  0.12509000000E+03  0.12509000000E+03 0.  0.
        -11    1    3    3    0    0  0.20577130095E+02  0.38683550603E+02 -0.14981916515E+02  0.46306513504E+02  0.51100000000E-03 0. -1.
         23    2    1    0    0    0  0.32869458236E+01  0.16569127682E+02  0.24853743561E+02  0.95039233387E+02  0.90163225923E+02 0.  0.
         11    1    3    3    0    0 -0.17290184271E+02 -0.22114422920E+02  0.39835660077E+02  0.48732719883E+02  0.51100000000E-03 0.  1.
         22    1    1    0    0    0 -0.32869458236E+01 -0.16569127682E+02 -0.24853743561E+02  0.30050766613E+02  0.00000000000E+00 0.  1.
</event>
<event>
 5    1  0.1044283E-009  0.9118800E+02  0.7815553E-02  0.1125453E+00
         25   -1    0    0    0    0  0.00000000000E+00  0.00000000000E+00  0.99999998245E-14  0.12509000000E+03  0.12509000000E+03 0.  0.
        -11    1    3    3    0    0  0.16581004350E+02  0.47217901888E+02  0.49300981361E+01  0.50286835573E+02  0.51100000000E-03 0. -1.
         23    2    1    0    0    0  0.92584767268E+01  0.15179352187E+02 -0.24780709894E+02  0.94590562186E+02  0.89538588037E+02 0.  0.
         11    1    3    3    0    0 -0.73225276235E+01 -0.32038549701E+02 -0.29710808030E+02  0.44303726613E+02  0.51100000000E-03 0.  1.
         22    1    1    0    0    0 -0.92584767268E+01 -0.15179352187E+02  0.24780709894E+02  0.30499437814E+02  0.00000000000E+00 0. -1.
</event>
<event>
 5    1  0.1044283E-009  0.9118800E+02  0.7815553E-02  0.1125453E+00
         25   -1    0    0    0    0  0.00000000000E+00  0.00000000000E+00  0.99999998245E-14  0.12509000000E+03  0.12509000000E+03 0.  0.
        -11    1    3    3    0    0  0.17560974292E+02  0.19391865062E+02 -0.42136057112E+02  0.49597172882E+02  0.51100000000E-03 0.  1.
         23    2    1    0    0    0  0.10993526449E+02  0.27358670640E+02  0.25826238357E+01  0.95492290142E+02  0.90789608699E+02 0.  0.
         11    1    3    3    0    0 -0.65674478424E+01  0.79668055776E+01  0.44718680948E+02  0.45895117259E+02  0.51100000000E-03 0. -1.
         22    1    1    0    0    0 -0.10993526449E+02 -0.27358670640E+02 -0.25826238357E+01  0.29597709858E+02  0.00000000000E+00 0. -1.
</event>
<event>
 5    1  0.1044283E-009  0.9118800E+02  0.7815553E-02  0.1125453E+00
         25   -1    0    0    0    0  0.00000000000E+00  0.00000000000E+00  0.99999998245E-14  0.12509000000E+03  0.12509000000E+03 0.  0.
        -11    1    3    3    0    0 -0.32299771116E+02 -0.97323963647E+01 -0.20190228345E+02  0.39314629262E+02  0.51100000000E-03 0. -1.
         23    2    1    0    0    0 -0.40484564942E+01 -0.36884527630E+00  0.28456974235E+02  0.96344123263E+02  0.91955775554E+02 0.  0.
         11    1    3    3    0    0  0.28251314622E+02  0.93635510884E+01  0.48647202580E+02  0.57029494000E+02  0.51100000000E-03 0.  1.
         22    1    1    0    0    0  0.40484564942E+01  0.36884527630E+00 -0.28456974235E+02  0.28745876737E+02  0.00000000000E+00 0.  1.
</event>
<event>
 5    1  0.1044283E-009  0.9118800E+02  0.7815553E-02  0.1125453E+00
         25   -1    0    0    0    0  0.00000000000E+00  0.00000000000E+00  0.99999998245E-14  0.12509000000E+03  0.12509000000E+03 0.  0.
        -11    1    3    3    0    0 -0.15249520613E+02 -0.14652370523E+02  0.56600266421E+02  0.60422098606E+02  0.51100000000E-03 0.  1.
         23    2    1    0    0    0 -0.61125922224E+01  0.42158146867E+01  0.29417350485E+02  0.94749970556E+02  0.89761013439E+02 0.  0.
         11    1    3    3    0    0  0.91369283905E+01  0.18868185210E+02 -0.27182915936E+02  0.34327871949E+02  0.51100000000E-03 0. -1.
         22    1    1    0    0    0  0.61125922224E+01 -0.42158146867E+01 -0.29417350485E+02  0.30340029444E+02  0.00000000000E+00 0.  1.
</event>
<event>
 5    1  0.1044283E-009  0.9118800E+02  0.7815553E-02  0.1125453E+00
         25   -1    0    0    0    0  0.00000000000E+00  0.00000000000E+00  0.99999998245E-14  0.12509000000E+03  0.12509000000E+03 0.  0.
        -11    1    3    3    0    0 -0.88270455447E+01 -0.39050392961E+02  0.40033741827E+02  0.56617580382E+02  0.51100000000E-03 0. -1.
         23    2    1    0    0    0 -0.32143996501E+01  0.38636091214E+00  0.26057048380E+02  0.98832593233E+02  0.95280795940E+02 0.  0.
         11    1    3    3    0    0  0.56126458946E+01  0.39436753873E+02 -0.13976693447E+02  0.42215012850E+02  0.51100000000E-03 0.  1.
         22    1    1    0    0    0  0.32143996501E+01 -0.38636091214E+00 -0.26057048380E+02  0.26257406767E+02  0.00000000000E+00 0. -1.
</event>
<event>
 5    1  0.1044283E-009  0.9118800E+02  0.7815553E-02  0.1125453E+00
         25   -1    0    0    0    0  0.00000000000E+00  0.00000000000E+00  0.99999998245E-14  0.12509000000E+03  0.12509000000E+03 0.  0.
        -11    1    3    3    0    0 -0.44177613589E+02 -0.46971750461E+01 -0.35362316628E+02  0.56782201731E+02  0.51100000000E-03 0. -1.
         23    2    1    0    0    0 -0.20651540080E+02  0.16740144272E+02 -0.17177320231E+02  0.93439109519E+02  0.87915233716E+02 0.  0.
         11    1    3    3    0    0  0.23526073509E+02  0.21437319318E+02  0.18184996397E+02  0.36656907787E+02  0.51100000000E-03 0.  1.
         22    1    1    0    0    0  0.20651540080E+02 -0.16740144272E+02  0.17177320231E+02  0.31650890481E+02  0.00000000000E+00 0.  1.
</event>
<event>
 5    1  0.1044283E-009  0.9118800E+02  0.7815553E-02  0.1125453E+00
         25   -1    0    0    0    0  0.00000000000E+00  0.00000000000E+00  0.99999998245E-14  0.12509000000E+03  0.12509000000E+03 0.  0.
        -11    1    3    3    0    0 -0.27835558946E+02  0.11852424021E+02 -0.48708200857E+02  0.57339228526E+02  0.51100000000E-03 0.  1.
         23    2    1    0    0    0 -0.21280239727E+02 -0.93161128895E+01 -0.15865269330E+02  0.96959139133E+02  0.92788627149E+02 0.  0.
         11    1    3    3    0    0  0.65553192184E+01 -0.21168536910E+02  0.32842931526E+02  0.39619910607E+02  0.51100000000E-03 0. -1.
         22    1    1    0    0    0  0.21280239727E+02  0.93161128895E+01  0.15865269330E+02  0.28130860867E+02  0.00000000000E+00 0.  1.
</event>
<event>
 5    1  0.1044283E-009  0.9118800E+02  0.7815553E-02  0.1125453E+00
         25   -1    0    0    0    0  0.00000000000E+00  0.00000000000E+00  0.99999998245E-14  0.12509000000E+03  0.12509000000E+03 0.  0.
        -11    1    3    3    0    0  0.84231482385E+01  0.54192251350E+02  0.25453286488E+02  0.60461717854E+02  0.51100000000E-03 0.  1.
         23    2    1    0    0    0 -0.34678805791E+01  0.36454219214E+02  0.91042890874E+01  0.87356402583E+02  0.78786526121E+02 0.  0.
         11    1    3    3    0    0 -0.11891028818E+02 -0.17738032136E+02 -0.16348997401E+02  0.26894684729E+02  0.51100000000E-03 0. -1.
         22    1    1    0    0    0  0.34678805791E+01 -0.36454219214E+02 -0.91042890874E+01  0.37733597417E+02  0.00000000000E+00 0.  1.
</event>
<event>
 5    1  0.1044283E-009  0.9118800E+02  0.7815553E-02  0.1125453E+00
         25   -1    0    0    0    0  0.00000000000E+00  0.00000000000E+00  0.99999998245E-14  0.12509000000E+03  0.12509000000E+03 0.  0.
        -11    1    3    3    0    0  0.57772456859E+02 -0.13235409628E+02  0.17291438716E+02  0.61739992653E+02  0.51100000000E-03 0.  1.
         23    2    1    0    0    0  0.26516308334E+02 -0.12736584519E+02  0.54207152869E+01  0.95178140361E+02  0.90355736152E+02 0.  0.
         11    1    3    3    0    0 -0.31256148526E+02  0.49882510941E+00 -0.11870723429E+02  0.33438147708E+02  0.51100000000E-03 0. -1.
         22    1    1    0    0    0 -0.26516308334E+02  0.12736584519E+02 -0.54207152869E+01  0.29911859639E+02  0.00000000000E+00 0.  1.
</event>
<event>
 5    1  0.1044283E-009  0.9118800E+02  0.7815553E-02  0.1125453E+00
         25   -1    0    0    0    0  0.00000000000E+00  0.00000000000E+00  0.99999998245E-14  0.12509000000E+03  0.12509000000E+03 0.  0.
        -11    1    3    3    0    0  0.41732794164E+01 -0.37777998125E+02  0.22859576794E+02  0.44352605953E+02  0.51100000000E-03 0.  1.
         23    2    1    0    0    0 -0.14853989671E+02 -0.15190372486E+02 -0.19673750961E+02  0.96134086920E+02  0.91669612008E+02 0.  0.
         11    1    3    3    0    0 -0.19027269087E+02  0.22587625639E+02 -0.42533327755E+02  0.51781480967E+02  0.51100000000E-03 0. -1.
         22    1    1    0    0    0  0.14853989671E+02  0.15190372486E+02  0.19673750961E+02  0.28955913080E+02  0.00000000000E+00 0. -1.
</event>
<event>
 5    1  0.1044283E-009  0.9118800E+02  0.7815553E-02  0.1125453E+00
         25   -1    0    0    0    0  0.00000000000E+00  0.00000000000E+00  0.99999998245E-14  0.12509000000E+03  0.12509000000E+03 0.  0.
        -11    1    3    3    0    0 -0.28586964300E+02  0.30762091362E+02  0.13297885299E+02  0.44049455690E+02  0.51100000000E-03 0.  1.
         23    2    1    0    0    0 -0.23856615351E+02 -0.16180450643E+01 -0.22293508783E+02  0.92398155456E+02  0.86421423455E+02 0.  0.
         11    1    3    3    0    0  0.47303489491E+01 -0.32380136426E+02 -0.35591394082E+02  0.48348699766E+02  0.51100000000E-03 0. -1.
         22    1    1    0    0    0  0.23856615351E+02  0.16180450643E+01  0.22293508783E+02  0.32691844544E+02  0.00000000000E+00 0. -1.
</event>
<event>
 5    1  0.1044283E-009  0.9118800E+02  0.7815553E-02  0.1125453E+00
         25   -1    0    0    0    0  0.00000000000E+00  0.00000000000E+00  0.99999998245E-14  0.12509000000E+03  0.12509000000E+03 0.  0.
        -11    1    3    3    0    0  0.28108831840E+02 -0.19665370336E+02  0.17665781042E+02  0.38586435933E+02  0.51100000000E-03 0.  1.
         23    2    1    0    0    0 -0.60207578979E+01 -0.13907286173E+02 -0.26417763750E+02  0.94634124115E+02  0.89599425618E+02 0.  0.
         11    1    3    3    0    0 -0.34129589738E+02  0.57580841636E+01 -0.44083544792E+02  0.56047688183E+02  0.51100000000E-03 0. -1.
         22    1    1    0    0    0  0.60207578979E+01  0.13907286173E+02  0.26417763750E+02  0.30455875885E+02  0.00000000000E+00 0. -1.
</event>
<event>
 5    1  0.1044283E-009  0.9118800E+02  0.7815553E-02  0.1125453E+00
         25   -1    0    0    0    0  0.00000000000E+00  0.00000000000E+00  0.99999998245E-14  0.12509000000E+03  0.12509000000E+03 0.  0.
        -11    1    3    3    0    0  0.28826632233E+02 -0.18537446102E+02  0.18114889401E+02  0.38765459525E+02  0.51100000000E-03 0. -1.
         23    2    1    0    0    0 -0.49175407514E+01 -0.16461452341E+02 -0.25742531710E+02  0.94141016833E+02  0.88908331957E+02 0.  0.
         11    1    3    3    0    0 -0.33744172984E+02  0.20759937614E+01 -0.43857421111E+02  0.55375557309E+02  0.51100000000E-03 0.  1.
         22    1    1    0    0    0  0.49175407514E+01  0.16461452341E+02  0.25742531710E+02  0.30948983167E+02  0.00000000000E+00 0.  1.
</event>
<event>
 5    1  0.1044283E-009  0.9118800E+02  0.7815553E-02  0.1125453E+00
         25   -1    0    0    0    0  0.00000000000E+00  0.00000000000E+00  0.99999998245E-14  0.12509000000E+03  0.12509000000E+03 0.  0.
        -11    1    3    3    0    0  0.10988844195E+02 -0.85398977825E+00  0.37287085860E+02  0.38882010846E+02  0.51100000000E-03 0.  1.
         23    2    1    0    0    0 -0.23165861349E+02  0.11880690148E+02 -0.87694121016E+01  0.97618004822E+02  0.93672644601E+02 0.  0.
         11    1    3    3    0    0 -0.34154705544E+02  0.12734679926E+02 -0.46056497961E+02  0.58735993976E+02  0.51100000000E-03 0. -1.
         22    1    1    0    0    0  0.23165861349E+02 -0.11880690148E+02  0.87694121016E+01  0.27471995178E+02  0.00000000000E+00 0. -1.
</event>
<event>
 5    1  0.1044283E-009  0.9118800E+02  0.7815553E-02  0.1125453E+00
         25   -1    0    0    0    0  0.00000000000E+00  0.00000000000E+00  0.99999998245E-14  0.12509000000E+03  0.12509000000E+03 0.  0.
        -11    1    3    3    0    0 -0.54683650939E+02 -0.20499283082E+02  0.13807269819E+02  0.60009690776E+02  0.51100000000E-03 0.  1.
         23    2    1    0    0    0 -0.23769435359E+02 -0.32810221776E+01  0.17213974514E+02  0.95559133396E+02  0.90881658727E+02 0.  0.
         11    1    3    3    0    0  0.30914215580E+02  0.17218260905E+02  0.34067046942E+01  0.35549442620E+02  0.51100000000E-03 0. -1.
         22    1    1    0    0    0  0.23769435359E+02  0.32810221776E+01 -0.17213974514E+02  0.29530866604E+02  0.00000000000E+00 0.  1.
</event>
<event>
 5    1  0.1044283E-009  0.9118800E+02  0.7815553E-02  0.1125453E+00
         25   -1    0    0    0    0  0.00000000000E+00  0.00000000000E+00  0.99999998245E-14  0.12509000000E+03  0.12509000000E+03 0.  0.
        -11    1    3    3    0    0  0.41892948482E+00 -0.50103603721E+02 -0.32151212954E+02  0.59533579620E+02  0.51100000000E-03 0.  1.
         23    2    1    0    0    0 -0.11325642943E+02 -0.19229409404E+02 -0.21132036505E+02  0.94355600039E+02  0.89209729950E+02 0.  0.
         11    1    3    3    0    0 -0.11744572428E+02  0.30874194316E+02  0.11019176449E+02  0.34822020419E+02  0.51100000000E-03 0. -1.
         22    1    1    0    0    0  0.11325642943E+02  0.19229409404E+02  0.21132036505E+02  0.30734399961E+02  0.00000000000E+00 0.  1.
</event>
<event>
 5    1  0.1044283E-009  0.9118800E+02  0.7815553E-02  0.1125453E+00
         25   -1    0    0    0    0  0.00000000000E+00  0.00000000000E+00  0.99999998245E-14  0.12509000000E+03  0.12509000000E+03 0.  0.
        -11    1    3    3    0    0  0.53770735165E+02 -0.11248618897E+02 -0.11211959089E+02  0.56067204444E+02  0.51100000000E-03 0. -1.
         23    2    1    0    0    0  0.25069319710E+02  0.14494956192E+02 -0.32496267973E+00  0.96130025095E+02  0.91664069178E+02 0.  0.
         11    1    3    3    0    0 -0.28701415455E+02  0.25743575088E+02  0.10886996409E+02  0.40062820651E+02  0.51100000000E-03 0.  1.
         22    1    1    0    0    0 -0.25069319710E+02 -0.14494956192E+02  0.32496267973E+00  0.28959974905E+02  0.00000000000E+00 0. -1.
</event>
<event>
 5    1  0.1044283E-009  0.9118800E+02  0.7815553E-02  0.1125453E+00
         25   -1    0    0    0    0  0.00000000000E+00  0.00000000000E+00  0.99999998245E-14  0.12509000000E+03  0.12509000000E+03 0.  0.
        -11    1    3    3    0    0  0.37349028042E+01  0.38977865078E+02 -0.26651648687E+02  0.47365956582E+02  0.51100000000E-03 0.  1.
         23    2    1    0    0    0 -0.25329388743E+02  0.11781190795E+02  0.29906893886E+01  0.96995185289E+02  0.92837208896E+02 0.  0.
         11    1    3    3    0    0 -0.29064291547E+02 -0.27196674283E+02  0.29642338075E+02  0.49629228707E+02  0.51100000000E-03 0. -1.
         22    1    1    0    0    0  0.25329388743E+02 -0.11781190795E+02 -0.29906893886E+01  0.28094814711E+02  0.00000000000E+00 0. -1.
</event>
<event>
 5    1  0.1044283E-009  0.9118800E+02  0.7815553E-02  0.1125453E+00
         25   -1    0    0    0    0  0.00000000000E+00  0.00000000000E+00  0.99999998245E-14  0.12509000000E+03  0.12509000000E+03 0.  0.
        -11    1    3    3    0    0  0.66873460583E+01 -0.55522365803E+02 -0.46116571086E+01  0.56113466149E+02  0.51100000000E-03 0.  1.
         23    2    1    0    0    0 -0.16821873274E+02 -0.22122278503E+02 -0.43604754386E+01  0.96958445250E+02  0.92787691708E+02 0.  0.
         11    1    3    3    0    0 -0.23509219332E+02  0.33400087300E+02  0.25118167005E+00  0.40844979101E+02  0.51100000000E-03 0. -1.
         22    1    1    0    0    0  0.16821873274E+02  0.22122278503E+02  0.43604754386E+01  0.28131554750E+02  0.00000000000E+00 0.  1.
</event>
<event>
 5    1  0.1044283E-009  0.9118800E+02  0.7815553E-02  0.1125453E+00
         25   -1    0    0    0    0  0.00000000000E+00  0.00000000000E+00  0.99999998245E-14  0.12509000000E+03  0.12509000000E+03 0.  0.
        -11    1    3    3    0    0 -0.63775880969E+01 -0.51984347929E+02  0.53041474236E+00  0.52376783020E+02  0.51100000000E-03 0. -1.
         23    2    1    0    0    0  0.18443545553E+02 -0.17467001008E+02  0.12825199909E+02  0.96633959350E+02  0.92349206007E+02 0.  0.
         11    1    3    3    0    0  0.24821133650E+02  0.34517346921E+02  0.12294785166E+02  0.44257176330E+02  0.51100000000E-03 0.  1.
         22    1    1    0    0    0 -0.18443545553E+02  0.17467001008E+02 -0.12825199909E+02  0.28456040650E+02  0.00000000000E+00 0. -1.
</event>
<event>
 5    1  0.1044283E-009  0.9118800E+02  0.7815553E-02  0.1125453E+00
         25   -1    0    0    0    0  0.00000000000E+00  0.00000000000E+00  0.99999998245E-14  0.12509000000E+03  0.12509000000E+03 0.  0.
        -11    1    3    3    0    0  0.22477735646E+01  0.11464290564E+02 -0.34024780196E+02  0.35974548110E+02  0.51100000000E-03 0.  1.
         23    2    1    0    0    0  0.13387830922E+02 -0.19140614031E+02  0.16784854632E+02  0.96326681914E+02  0.91932046542E+02 0.  0.
         11    1    3    3    0    0  0.11140057358E+02 -0.30604904594E+02  0.50809634828E+02  0.60352133804E+02  0.51100000000E-03 0. -1.
         22    1    1    0    0    0 -0.13387830922E+02  0.19140614031E+02 -0.16784854632E+02  0.28763318086E+02  0.00000000000E+00 0. -1.
</event>
<event>
 5    1  0.1044283E-009  0.9118800E+02  0.7815553E-02  0.1125453E+00
         25   -1    0    0    0    0  0.00000000000E+00  0.00000000000E+00  0.99999998245E-14  0.12509000000E+03  0.12509000000E+03 0.  0.
        -11    1    3    3    0    0  0.17931532671E+02  0.34943919665E+02  0.38548791850E+02  0.55032960477E+02  0.51100000000E-03 0. -1.
         23    2    1    0    0    0 -0.73558065794E+01  0.26718965155E+02  0.65965668211E+01  0.96602710146E+02  0.92306868240E+02 0.  0.
         11    1    3    3    0    0 -0.25287339251E+02 -0.82249545098E+01 -0.31952225029E+02  0.41569749670E+02  0.51100000000E-03 0.  1.
         22    1    1    0    0    0  0.73558065794E+01 -0.26718965155E+02 -0.65965668211E+01  0.28487289854E+02  0.00000000000E+00 0. -1.
</event>
<event>
 5    1  0.1044283E-009  0.9118800E+02  0.7815553E-02  0.1125453E+00
         25   -1    0    0    0    0  0.00000000000E+00  0.00000000000E+00  0.99999998245E-14  0.12509000000E+03  0.12509000000E+03 0.  0.
        -11    1    3    3    0    0 -0.56335750426E+02 -0.45946679433E+01  0.11009004767E+02  0.57584945392E+02  0.51100000000E-03 0. -1.
         23    2    1    0    0    0 -0.25613926266E+02 -0.64340618155E+01 -0.12069058661E+02  0.96053255224E+02  0.91559244711E+02 0.  0.
         11    1    3    3    0    0  0.30721824160E+02 -0.18393938722E+01 -0.23078063428E+02  0.38468309832E+02  0.51100000000E-03 0.  1.
         22    1    1    0    0    0  0.25613926266E+02  0.64340618155E+01  0.12069058661E+02  0.29036744776E+02  0.00000000000E+00 0.  1.
</event>
<event>
 5    1  0.1044283E-009  0.9118800E+02  0.7815553E-02  0.1125453E+00
         25   -1    0    0    0    0  0.00000000000E+00  0.00000000000E+00  0.99999998245E-14  0.12509000000E+03  0.12509000000E+03 0.  0.
        -11    1    3    3    0    0 -0.15198732164E+02 -0.17440549725E+01 -0.36574463048E+02  0.39645107323E+02  0.51100000000E-03 0.  1.
         23    2    1    0    0    0  0.91830626977E+01 -0.27246783320E+02  0.67866645301E+01  0.95547240189E+02  0.90865287380E+02 0.  0.
         11    1    3    3    0    0  0.24381794862E+02 -0.25502728347E+02  0.43361127578E+02  0.55902132866E+02  0.51100000000E-03 0. -1.
         22    1    1    0    0    0 -0.91830626977E+01  0.27246783320E+02 -0.67866645301E+01  0.29542759811E+02  0.00000000000E+00 0. -1.
</event>
<event>
 5    1  0.1044283E-009  0.9118800E+02  0.7815553E-02  0.1125453E+00
         25   -1    0    0    0    0  0.00000000000E+00  0.00000000000E+00  0.99999998245E-14  0.12509000000E+03  0.12509000000E+03 0.  0.
        -11    1    3    3    0    0  0.11973859111E+02  0.58486871399E+02 -0.16466380670E+02  0.61929226708E+02  0.51100000000E-03 0. -1.
         23    2    1    0    0    0  0.41743688477E+01  0.28924680814E+02 -0.18773052913E+01  0.95805417186E+02  0.91220015192E+02 0.  0.
         11    1    3    3    0    0 -0.77994902636E+01 -0.29562190586E+02  0.14589075379E+02  0.33876190477E+02  0.51100000000E-03 0.  1.
         22    1    1    0    0    0 -0.41743688477E+01 -0.28924680814E+02  0.18773052913E+01  0.29284582814E+02  0.00000000000E+00 0. -1.
</event>
<event>
 5    1  0.1044283E-009  0.9118800E+02  0.7815553E-02  0.1125453E+00
         25   -1    0    0    0    0  0.00000000000E+00  0.00000000000E+00  0.99999998245E-14  0.12509000000E+03  0.12509000000E+03 0.  0.
        -11    1    3    3    0    0 -0.29959099487E+02 -0.47484591398E+01 -0.27981225541E+02  0.41267959597E+02  0.51100000000E-03 0. -1.
         23    2    1    0    0    0 -0.10801218209E+02  0.19801841511E+02  0.17606070446E+02  0.96476140447E+02  0.92135187181E+02 0.  0.
         11    1    3    3    0    0  0.19157881278E+02  0.24550300650E+02  0.45587295986E+02  0.55208180850E+02  0.51100000000E-03 0.  1.
         22    1    1    0    0    0  0.10801218209E+02 -0.19801841511E+02 -0.17606070446E+02  0.28613859553E+02  0.00000000000E+00 0.  1.
</event>
<event>
 5    1  0.1044283E-009  0.9118800E+02  0.7815553E-02  0.1125453E+00
         25   -1    0    0    0    0  0.00000000000E+00  0.00000000000E+00  0.99999998245E-14  0.12509000000E+03  0.12509000000E+03 0.  0.
        -11    1    3    3    0    0 -0.41973749261E+02  0.10222341782E+02  0.40346221692E+01  0.43388593834E+02  0.51100000000E-03 0.  1.
         23    2    1    0    0    0 -0.53274030855E+01 -0.17317387375E+02  0.25340213808E+02  0.93938763027E+02  0.88623313152E+02 0.  0.
         11    1    3    3    0    0  0.36646346176E+02 -0.27539729158E+02  0.21305591639E+02  0.50550169193E+02  0.51100000000E-03 0. -1.
         22    1    1    0    0    0  0.53274030855E+01  0.17317387375E+02 -0.25340213808E+02  0.31151236973E+02  0.00000000000E+00 0. -1.
</event>
<event>
 5    1  0.1044283E-009  0.9118800E+02  0.7815553E-02  0.1125453E+00
         25   -1    0    0    0    0  0.00000000000E+00  0.00000000000E+00  0.99999998245E-14  0.12509000000E+03  0.12509000000E+03 0.  0.
        -11    1    3    3    0    0 -0.14929727068E+02 -0.33538612169E+02  0.28264935426E+01  0.36820161903E+02  0.51100000000E-03 0.  1.
         23    2    1    0    0    0  0.31264076284E+02 -0.64232753088E+01  0.11664022076E+02  0.91108382284E+02  0.84533939810E+02 0.  0.
         11    1    3    3    0    0  0.46193803353E+02  0.27115336861E+02  0.88375285334E+01  0.54288220381E+02  0.51100000000E-03 0. -1.
         22    1    1    0    0    0 -0.31264076284E+02  0.64232753088E+01 -0.11664022076E+02  0.33981617716E+02  0.00000000000E+00 0. -1.
</event>
<event>
 5    1  0.1044283E-009  0.9118800E+02  0.7815553E-02  0.1125453E+00
         25   -1    0    0    0    0  0.00000000000E+00  0.00000000000E+00  0.99999998245E-14  0.12509000000E+03  0.12509000000E+03 0.  0.
        -11    1    3    3    0    0  0.29019062880E+02  0.34082104484E+02  0.30437735906E+02  0.54130874959E+02  0.51100000000E-03 0.  1.
         23    2    1    0    0    0 -0.18570084955E+01  0.32452638498E+02  0.10458954768E+02  0.90943082703E+02  0.84288981075E+02 0.  0.
         11    1    3    3    0    0 -0.30876071376E+02 -0.16294659860E+01 -0.19978781137E+02  0.36812207744E+02  0.51100000000E-03 0. -1.
         22    1    1    0    0    0  0.18570084955E+01 -0.32452638498E+02 -0.10458954768E+02  0.34146917297E+02  0.00000000000E+00 0.  1.
</event>
<event>
 5    1  0.1044283E-009  0.9118800E+02  0.7815553E-02  0.1125453E+00
         25   -1    0    0    0    0  0.00000000000E+00  0.00000000000E+00  0.99999998245E-14  0.12509000000E+03  0.12509000000E+03 0.  0.
        -11    1    3    3    0    0  0.50044236486E+02 -0.18317118987E+02 -0.82840700520E+00  0.53297548836E+02  0.51100000000E-03 0. -1.
         23    2    1    0    0    0  0.24377680640E+02  0.14261981427E+02  0.80704631449E+01  0.95716409770E+02  0.91097877562E+02 0.  0.
         11    1    3    3    0    0 -0.25666555846E+02  0.32579100414E+02  0.88988701501E+01  0.42418860934E+02  0.51100000000E-03 0.  1.
         22    1    1    0    0    0 -0.24377680640E+02 -0.14261981427E+02 -0.80704631449E+01  0.29373590230E+02  0.00000000000E+00 0. -1.
</event>
<event>
 5    1  0.1044283E-009  0.9118800E+02  0.7815553E-02  0.1125453E+00
         25   -1    0    0    0    0  0.00000000000E+00  0.00000000000E+00  0.99999998245E-14  0.12509000000E+03  0.12509000000E+03 0.  0.
        -11    1    3    3    0    0  0.13520630110E+02  0.95612965922E+01  0.50429190132E+02  0.53078517771E+02  0.51100000000E-03 0. -1.
         23    2    1    0    0    0 -0.16711077842E+02 -0.52058837542E+01  0.20750082190E+02  0.97943595833E+02  0.94106432859E+02 0.  0.
         11    1    3    3    0    0 -0.30231707952E+02 -0.14767180346E+02 -0.29679107942E+02  0.44865078063E+02  0.51100000000E-03 0.  1.
         22    1    1    0    0    0  0.16711077842E+02  0.52058837542E+01 -0.20750082190E+02  0.27146404167E+02  0.00000000000E+00 0. -1.
</event>
<event>
 5    1  0.1044283E-009  0.9118800E+02  0.7815553E-02  0.1125453E+00
         25   -1    0    0    0    0  0.00000000000E+00  0.00000000000E+00  0.99999998245E-14  0.12509000000E+03  0.12509000000E+03 0.  0.
        -11    1    3    3    0    0  0.65414308183E+01 -0.19777900118E+02 -0.79681224630E+01  0.22303511519E+02  0.51100000000E-03 0. -1.
         23    2    1    0    0    0  0.33294869342E+02  0.30207309099E+02  0.29409631924E+01  0.80038039865E+02  0.66154430793E+02 0.  0.
         11    1    3    3    0    0  0.26753438523E+02  0.49985209217E+02  0.10909085655E+02  0.57734528346E+02  0.51100000000E-03 0.  1.
         22    1    1    0    0    0 -0.33294869342E+02 -0.30207309099E+02 -0.29409631924E+01  0.45051960135E+02  0.00000000000E+00 0.  1.
</event>
<event>
 5    1  0.1044283E-009  0.9118800E+02  0.7815553E-02  0.1125453E+00
         25   -1    0    0    0    0  0.00000000000E+00  0.00000000000E+00  0.99999998245E-14  0.12509000000E+03  0.12509000000E+03 0.  0.
        -11    1    3    3    0    0  0.24626039741E+02 -0.71101516528E+01 -0.27826816120E+02  0.37832892904E+02  0.51100000000E-03 0.  1.
         23    2    1    0    0    0 -0.22451830907E+02 -0.18940063935E+02  0.33529414171E+01  0.95525613500E+02  0.90835510047E+02 0.  0.
         11    1    3    3    0    0 -0.47077870649E+02 -0.11829912282E+02  0.31179757537E+02  0.57692720596E+02  0.51100000000E-03 0. -1.
         22    1    1    0    0    0  0.22451830907E+02  0.18940063935E+02 -0.33529414171E+01  0.29564386500E+02  0.00000000000E+00 0. -1.
</event>
<event>
 5    1  0.1044283E-009  0.9118800E+02  0.7815553E-02  0.1125453E+00
         25   -1    0    0    0    0  0.00000000000E+00  0.00000000000E+00  0.99999998245E-14  0.12509000000E+03  0.12509000000E+03 0.  0.
        -11    1    3    3    0    0 -0.23269499407E+02  0.24866212853E+02  0.16358465040E+02  0.37780914798E+02  0.51100000000E-03 0. -1.
         23    2    1    0    0    0  0.21617764395E+02 -0.11618954054E+02  0.16303623331E+02  0.95625852898E+02  0.90973445455E+02 0.  0.
         11    1    3    3    0    0  0.44887263802E+02 -0.36485166907E+02 -0.54841709047E-01  0.57844938099E+02  0.51100000000E-03 0.  1.
         22    1    1    0    0    0 -0.21617764395E+02  0.11618954054E+02 -0.16303623331E+02  0.29464147102E+02  0.00000000000E+00 0.  1.
</event>
<event>
 5    1  0.1044283E-009  0.9118800E+02  0.7815553E-02  0.1125453E+00
         25   -1    0    0    0    0  0.00000000000E+00  0.00000000000E+00  0.99999998245E-14  0.12509000000E+03  0.12509000000E+03 0.  0.
        -11    1    3    3    0    0  0.26034197493E+02 -0.62103241339E+01 -0.51335651796E+02  0.57893840005E+02  0.51100000000E-03 0.  1.
         23    2    1    0    0    0  0.88639140296E+01 -0.19646637148E+02 -0.25163825761E+02  0.91957275239E+02  0.85780901251E+02 0.  0.
         11    1    3    3    0    0 -0.17170283464E+02 -0.13436313014E+02  0.26171826036E+02  0.34063435234E+02  0.51100000000E-03 0. -1.
         22    1    1    0    0    0 -0.88639140296E+01  0.19646637148E+02  0.25163825761E+02  0.33132724761E+02  0.00000000000E+00 0.  1.
</event>
<event>
 5    1  0.1044283E-009  0.9118800E+02  0.7815553E-02  0.1125453E+00
         25   -1    0    0    0    0  0.00000000000E+00  0.00000000000E+00  0.99999998245E-14  0.12509000000E+03  0.12509000000E+03 0.  0.
        -11    1    3    3    0    0 -0.39977197299E+02  0.44433164852E+02 -0.60428863754E+01  0.60074944183E+02  0.51100000000E-03 0. -1.
         23    2    1    0    0    0 -0.23503293806E+02  0.16678883388E+02  0.78603335741E+01  0.95217356751E+02  0.90410011680E+02 0.  0.
         11    1    3    3    0    0  0.16473903493E+02 -0.27754281464E+02  0.13903219949E+02  0.35142412568E+02  0.51100000000E-03 0.  1.
         22    1    1    0    0    0  0.23503293806E+02 -0.16678883388E+02 -0.78603335741E+01  0.29872643249E+02  0.00000000000E+00 0. -1.
</event>
<event>
 5    1  0.1044283E-009  0.9118800E+02  0.7815553E-02  0.1125453E+00
         25   -1    0    0    0    0  0.00000000000E+00  0.00000000000E+00  0.99999998245E-14  0.12509000000E+03  0.12509000000E+03 0.  0.
        -11    1    3    3    0    0  0.35757061892E+02 -0.38944130313E+02  0.71126706612E+00  0.52874555904E+02  0.51100000000E-03 0. -1.
         23    2    1    0    0    0  0.31518984637E+02 -0.15120770631E+01 -0.99113557391E+01  0.92014816824E+02  0.85864770267E+02 0.  0.
         11    1    3    3    0    0 -0.42380772559E+01  0.37432053250E+02 -0.10622622805E+02  0.39140260919E+02  0.51100000000E-03 0.  1.
         22    1    1    0    0    0 -0.31518984637E+02  0.15120770631E+01  0.99113557391E+01  0.33075183176E+02  0.00000000000E+00 0. -1.
</event>
<event>
 5    1  0.1044283E-009  0.9118800E+02  0.7815553E-02  0.1125453E+00
         25   -1    0    0    0    0  0.00000000000E+00  0.00000000000E+00  0.99999998245E-14  0.12509000000E+03  0.12509000000E+03 0.  0.
        -11    1    3    3    0    0  0.44057802117E+02 -0.19171746879E+02 -0.39420251394E+02  0.62149835286E+02  0.51100000000E-03 0. -1.
         23    2    1    0    0    0  0.19068815155E+02 -0.66260299815E+01 -0.22626953777E+02  0.94766691771E+02  0.89784312924E+02 0.  0.
         11    1    3    3    0    0 -0.24988986963E+02  0.12545716897E+02  0.16793297617E+02  0.32616856485E+02  0.51100000000E-03 0.  1.
         22    1    1    0    0    0 -0.19068815155E+02  0.66260299815E+01  0.22626953777E+02  0.30323308229E+02  0.00000000000E+00 0. -1.
</event>
<event>
 5    1  0.1044283E-009  0.9118800E+02  0.7815553E-02  0.1125453E+00
         25   -1    0    0    0    0  0.00000000000E+00  0.00000000000E+00  0.99999998245E-14  0.12509000000E+03  0.12509000000E+03 0.  0.
        -11    1    3    3    0    0  0.29049225514E+02  0.13536183481E+02 -0.39486643804E+02  0.50855489432E+02  0.51100000000E-03 0.  1.
         23    2    1    0    0    0  0.24983734005E+02  0.12677682809E+02  0.59227054633E+01  0.96454549135E+02  0.92105868448E+02 0.  0.
         11    1    3    3    0    0 -0.40654915090E+01 -0.85850067147E+00  0.45409349267E+02  0.45599059703E+02  0.51100000000E-03 0. -1.
         22    1    1    0    0    0 -0.24983734005E+02 -0.12677682809E+02 -0.59227054633E+01  0.28635450865E+02  0.00000000000E+00 0.  1.
</event>
<event>
 5    1  0.1044283E-009  0.9118800E+02  0.7815553E-02  0.1125453E+00
         25   -1    0    0    0    0  0.00000000000E+00  0.00000000000E+00  0.99999998245E-14  0.12509000000E+03  0.12509000000E+03 0.  0.
        -11    1    3    3    0    0 -0.39571386371E+02 -0.40883448004E+02 -0.43765618442E+01  0.57065797409E+02  0.51100000000E-03 0.  1.
         23    2    1    0    0    0 -0.28896600454E+02 -0.36561425102E+01 -0.89935140890E+00  0.95949139875E+02  0.91416889654E+02 0.  0.
         11    1    3    3    0    0  0.10674785917E+02  0.37227305494E+02  0.34772104353E+01  0.38883342466E+02  0.51100000000E-03 0. -1.
         22    1    1    0    0    0  0.28896600454E+02  0.36561425102E+01  0.89935140890E+00  0.29140860125E+02  0.00000000000E+00 0.  1.
</event>
<event>
 5    1  0.1044283E-009  0.9118800E+02  0.7815553E-02  0.1125453E+00
         25   -1    0    0    0    0  0.00000000000E+00  0.00000000000E+00  0.99999998245E-14  0.12509000000E+03  0.12509000000E+03 0.  0.
        -11    1    3    3    0    0 -0.12505087020E+02  0.37572316443E+02  0.12405881891E+02  0.41496530819E+02  0.51100000000E-03 0. -1.
         23    2    1    0    0    0 -0.25914764406E+02 -0.10449684259E+02 -0.89679721360E+01  0.95743868406E+02  0.91135574271E+02 0.  0.
         11    1    3    3    0    0 -0.13409677385E+02 -0.48022000702E+02 -0.21373854027E+02  0.54247337586E+02  0.51100000000E-03 0.  1.
         22    1    1    0    0    0  0.25914764406E+02  0.10449684259E+02  0.89679721360E+01  0.29346131594E+02  0.00000000000E+00 0.  1.
</event>
<event>
 5    1  0.1044283E-009  0.9118800E+02  0.7815553E-02  0.1125453E+00
         25   -1    0    0    0    0  0.00000000000E+00  0.00000000000E+00  0.99999998245E-14  0.12509000000E+03  0.12509000000E+03 0.  0.
        -11    1    3    3    0    0 -0.22804311003E+02 -0.89811720739E+01  0.41254685248E+02  0.47985905298E+02  0.51100000000E-03 0.  1.
         23    2    1    0    0    0  0.16115869588E+02 -0.19031385796E+02  0.16208243825E+02  0.95347403177E+02  0.90589763367E+02 0.  0.
         11    1    3    3    0    0  0.38920180591E+02 -0.10050213722E+02 -0.25046441423E+02  0.47361497879E+02  0.51100000000E-03 0. -1.
         22    1    1    0    0    0 -0.16115869588E+02  0.19031385796E+02 -0.16208243825E+02  0.29742596823E+02  0.00000000000E+00 0. -1.
</event>
<event>
 5    1  0.1044283E-009  0.9118800E+02  0.7815553E-02  0.1125453E+00
         25   -1    0    0    0    0  0.00000000000E+00  0.00000000000E+00  0.99999998245E-14  0.12509000000E+03  0.12509000000E+03 0.  0.
        -11    1    3    3    0    0  0.25262236415E+02  0.16282011247E+02  0.20219951359E+02  0.36223347611E+02  0.51100000000E-03 0.  1.
         23    2    1    0    0    0 -0.42486126583E+01 -0.30389885077E+02  0.21276770787E+01  0.94330890223E+02  0.89175075083E+02 0.  0.
         11    1    3    3    0    0 -0.29510849073E+02 -0.46671896324E+02 -0.18092274280E+02  0.58107542612E+02  0.51100000000E-03 0. -1.
         22    1    1    0    0    0  0.42486126583E+01  0.30389885077E+02 -0.21276770787E+01  0.30759109777E+02  0.00000000000E+00 0. -1.
</event>
<event>
 5    1  0.1044283E-009  0.9118800E+02  0.7815553E-02  0.1125453E+00
         25   -1    0    0    0    0  0.00000000000E+00  0.00000000000E+00  0.99999998245E-14  0.12509000000E+03  0.12509000000E+03 0.  0.
        -11    1    3    3    0    0  0.32659198462E+01 -0.45392301722E+02  0.24301304684E+02  0.51591478925E+02  0.51100000000E-03 0.  1.
         23    2    1    0    0    0 -0.14838535578E+01 -0.26599686066E+02 -0.14349354000E+02  0.94830306009E+02  0.89872898348E+02 0.  0.
         11    1    3    3    0    0 -0.47497734040E+01  0.18792615657E+02 -0.38650658684E+02  0.43238827084E+02  0.51100000000E-03 0. -1.
         22    1    1    0    0    0  0.14838535578E+01  0.26599686066E+02  0.14349354000E+02  0.30259693991E+02  0.00000000000E+00 0.  1.
</event>
<event>
 5    1  0.1044283E-009  0.9118800E+02  0.7815553E-02  0.1125453E+00
         25   -1    0    0    0    0  0.00000000000E+00  0.00000000000E+00  0.99999998245E-14  0.12509000000E+03  0.12509000000E+03 0.  0.
        -11    1    3    3    0    0 -0.46324732882E+01 -0.30935939630E+02 -0.39873318494E+02  0.50679124870E+02  0.51100000000E-03 0. -1.
         23    2    1    0    0    0 -0.14466106395E+02 -0.25474900812E+02  0.35907043296E+01  0.95575055257E+02  0.90903571020E+02 0.  0.
         11    1    3    3    0    0 -0.98336331067E+01  0.54610388177E+01  0.43464022824E+02  0.44895930387E+02  0.51100000000E-03 0.  1.
         22    1    1    0    0    0  0.14466106395E+02  0.25474900812E+02 -0.35907043296E+01  0.29514944743E+02  0.00000000000E+00 0.  1.
</event>
<event>
 5    1  0.1044283E-009  0.9118800E+02  0.7815553E-02  0.1125453E+00
         25   -1    0    0    0    0  0.00000000000E+00  0.00000000000E+00  0.99999998245E-14  0.12509000000E+03  0.12509000000E+03 0.  0.
        -11    1    3    3    0    0 -0.15056887925E+02  0.30269972898E+02  0.20009434793E+02  0.39285603142E+02  0.51100000000E-03 0.  1.
         23    2    1    0    0    0 -0.22700881271E+02 -0.20506164353E+02 -0.28065779278E+00  0.94497328398E+02  0.89408240776E+02 0.  0.
         11    1    3    3    0    0 -0.76439933460E+01 -0.50776137251E+02 -0.20290092586E+02  0.55211725256E+02  0.51100000000E-03 0. -1.
         22    1    1    0    0    0  0.22700881271E+02  0.20506164353E+02  0.28065779278E+00  0.30592671602E+02  0.00000000000E+00 0. -1.
</event>
<event>
 5    1  0.1044283E-009  0.9118800E+02  0.7815553E-02  0.1125453E+00
         25   -1    0    0    0    0  0.00000000000E+00  0.00000000000E+00  0.99999998245E-14  0.12509000000E+03  0.12509000000E+03 0.  0.
        -11    1    3    3    0    0  0.31015574549E+02  0.19618216946E+02 -0.28125274644E+02  0.46237121178E+02  0.51100000000E-03 0.  1.
         23    2    1    0    0    0  0.11971106463E+02 -0.21409546940E+02  0.18356613628E+01  0.10049232241E+03  0.97435420257E+02 0.  0.
         11    1    3    3    0    0 -0.19044468085E+02 -0.41027763887E+02  0.29960936007E+02  0.54255201233E+02  0.51100000000E-03 0. -1.
         22    1    1    0    0    0 -0.11971106463E+02  0.21409546940E+02 -0.18356613628E+01  0.24597677589E+02  0.00000000000E+00 0. -1.
</event>
<event>
 5    1  0.1044283E-009  0.9118800E+02  0.7815553E-02  0.1125453E+00
         25   -1    0    0    0    0  0.00000000000E+00  0.00000000000E+00  0.99999998245E-14  0.12509000000E+03  0.12509000000E+03 0.  0.
        -11    1    3    3    0    0 -0.62156748667E+02  0.49268278024E+01  0.31571671852E+01  0.62431584490E+02  0.51100000000E-03 0.  1.
         23    2    1    0    0    0 -0.28203045517E+02  0.45115681682E+01  0.28200454706E+01  0.96389500349E+02  0.92017482563E+02 0.  0.
         11    1    3    3    0    0  0.33953703150E+02 -0.41525963424E+00 -0.33712171460E+00  0.33957915859E+02  0.51100000000E-03 0. -1.
         22    1    1    0    0    0  0.28203045517E+02 -0.45115681682E+01 -0.28200454706E+01  0.28700499651E+02  0.00000000000E+00 0.  1.
</event>
<event>
 5    1  0.1044283E-009  0.9118800E+02  0.7815553E-02  0.1125453E+00
         25   -1    0    0    0    0  0.00000000000E+00  0.00000000000E+00  0.99999998245E-14  0.12509000000E+03  0.12509000000E+03 0.  0.
        -11    1    3    3    0    0  0.38502522006E+02  0.39721805604E+02 -0.16797170569E+02  0.57813588201E+02  0.51100000000E-03 0. -1.
         23    2    1    0    0    0  0.17984991857E+02  0.31439017155E+02  0.45825012308E+01  0.88581493467E+02  0.80708177625E+02 0.  0.
         11    1    3    3    0    0 -0.20517530149E+02 -0.82827884493E+01  0.21379671800E+02  0.30767905266E+02  0.51100000000E-03 0.  1.
         22    1    1    0    0    0 -0.17984991857E+02 -0.31439017155E+02 -0.45825012308E+01  0.36508506533E+02  0.00000000000E+00 0. -1.
</event>
<event>
 5    1  0.1044283E-009  0.9118800E+02  0.7815553E-02  0.1125453E+00
         25   -1    0    0    0    0  0.00000000000E+00  0.00000000000E+00  0.99999998245E-14  0.12509000000E+03  0.12509000000E+03 0.  0.
        -11    1    3    3    0    0  0.41397972937E+01  0.16765071534E+02  0.42321527402E+02  0.45709049728E+02  0.51100000000E-03 0. -1.
         23    2    1    0    0    0 -0.10507725302E+02  0.25774005934E+02 -0.56667357754E+01  0.96685360111E+02  0.92418803782E+02 0.  0.
         11    1    3    3    0    0 -0.14647522595E+02  0.90089343997E+01 -0.47988263177E+02  0.50976310383E+02  0.51100000000E-03 0.  1.
         22    1    1    0    0    0  0.10507725302E+02 -0.25774005934E+02  0.56667357754E+01  0.28404639889E+02  0.00000000000E+00 0. -1.
</event>
<event>
 5    1  0.1044283E-009  0.9118800E+02  0.7815553E-02  0.1125453E+00
         25   -1    0    0    0    0  0.00000000000E+00  0.00000000000E+00  0.99999998245E-14  0.12509000000E+03  0.12509000000E+03 0.  0.
        -11    1    3    3    0    0 -0.12673762066E+02 -0.13814403544E+02  0.30648034726E+02  0.35927204497E+02  0.51100000000E-03 0. -1.
         23    2    1    0    0    0  0.99285442506E+01 -0.72111389584E+01 -0.25488049474E+02  0.96801889741E+02  0.92576393727E+02 0.  0.
         11    1    3    3    0    0  0.22602306317E+02  0.66032645852E+01 -0.56136084200E+02  0.60874685244E+02  0.51100000000E-03 0.  1.
         22    1    1    0    0    0 -0.99285442506E+01  0.72111389584E+01  0.25488049474E+02  0.28288110259E+02  0.00000000000E+00 0.  1.
</event>
<event>
 5    1  0.1044283E-009  0.9118800E+02  0.7815553E-02  0.1125453E+00
         25   -1    0    0    0    0  0.00000000000E+00  0.00000000000E+00  0.99999998245E-14  0.12509000000E+03  0.12509000000E+03 0.  0.
        -11    1    3    3    0    0 -0.11642431153E+02 -0.21138265515E+01  0.35453260662E+02  0.37375769660E+02  0.51100000000E-03 0.  1.
         23    2    1    0    0    0  0.87576856192E+00 -0.39431315098E+02  0.25981179293E+02  0.77860589053E+02  0.61900355970E+02 0.  0.
         11    1    3    3    0    0  0.12518199715E+02 -0.37317488547E+02 -0.94720813691E+01  0.40484819393E+02  0.51100000000E-03 0. -1.
         22    1    1    0    0    0 -0.87576856192E+00  0.39431315098E+02 -0.25981179293E+02  0.47229410947E+02  0.00000000000E+00 0.  1.
</event>
<event>
 5    1  0.1044283E-009  0.9118800E+02  0.7815553E-02  0.1125453E+00
         25   -1    0    0    0    0  0.00000000000E+00  0.00000000000E+00  0.99999998245E-14  0.12509000000E+03  0.12509000000E+03 0.  0.
        -11    1    3    3    0    0 -0.69905048333E+01  0.25475626247E+02  0.28004418707E+02  0.38498339676E+02  0.51100000000E-03 0.  1.
         23    2    1    0    0    0 -0.10086411666E+02 -0.54541284578E+01 -0.23662740535E+02  0.98795352119E+02  0.95231891156E+02 0.  0.
         11    1    3    3    0    0 -0.30959068325E+01 -0.30929754704E+02 -0.51667159242E+02  0.60297012443E+02  0.51100000000E-03 0. -1.
         22    1    1    0    0    0  0.10086411666E+02  0.54541284578E+01  0.23662740535E+02  0.26294647881E+02  0.00000000000E+00 0. -1.
</event>
<event>
 5    1  0.1044283E-009  0.9118800E+02  0.7815553E-02  0.1125453E+00
         25   -1    0    0    0    0  0.00000000000E+00  0.00000000000E+00  0.99999998245E-14  0.12509000000E+03  0.12509000000E+03 0.  0.
        -11    1    3    3    0    0  0.11670260642E+02 -0.31941722117E+01  0.37220687074E+02  0.39137926185E+02  0.51100000000E-03 0.  1.
         23    2    1    0    0    0  0.53918706232E+00 -0.27187946292E+02 -0.12272634717E+02  0.95255578451E+02  0.90462879220E+02 0.  0.
         11    1    3    3    0    0 -0.11131073579E+02 -0.23993774081E+02 -0.49493321791E+02  0.56117652266E+02  0.51100000000E-03 0. -1.
         22    1    1    0    0    0 -0.53918706232E+00  0.27187946292E+02  0.12272634717E+02  0.29834421549E+02  0.00000000000E+00 0. -1.
</event>
<event>
 5    1  0.1044283E-009  0.9118800E+02  0.7815553E-02  0.1125453E+00
         25   -1    0    0    0    0  0.00000000000E+00  0.00000000000E+00  0.99999998245E-14  0.12509000000E+03  0.12509000000E+03 0.  0.
        -11    1    3    3    0    0  0.22193594228E+02  0.30178229978E+02 -0.16663768413E+02  0.40999541063E+02  0.51100000000E-03 0. -1.
         23    2    1    0    0    0 -0.20804620508E+02  0.24173282333E+02  0.96524069417E+01  0.91768103700E+02  0.85504596857E+02 0.  0.
         11    1    3    3    0    0 -0.42998214736E+02 -0.60049476448E+01  0.26316175355E+02  0.50768562638E+02  0.51100000000E-03 0.  1.
         22    1    1    0    0    0  0.20804620508E+02 -0.24173282333E+02 -0.96524069417E+01  0.33321896300E+02  0.00000000000E+00 0.  1.
</event>
<event>
 5    1  0.1044283E-009  0.9118800E+02  0.7815553E-02  0.1125453E+00
         25   -1    0    0    0    0  0.00000000000E+00  0.00000000000E+00  0.99999998245E-14  0.12509000000E+03  0.12509000000E+03 0.  0.
        -11    1    3    3    0    0  0.23700136175E+02  0.29208138879E+02  0.84705678888E+01  0.38555963898E+02  0.51100000000E-03 0.  1.
         23    2    1    0    0    0 -0.26881290784E+02  0.57583409710E+01 -0.75797331255E+01  0.96573081527E+02  0.92266708170E+02 0.  0.
         11    1    3    3    0    0 -0.50581426958E+02 -0.23449797908E+02 -0.16050301014E+02  0.58017117629E+02  0.51100000000E-03 0. -1.
         22    1    1    0    0    0  0.26881290784E+02 -0.57583409710E+01  0.75797331255E+01  0.28516918473E+02  0.00000000000E+00 0. -1.
</event>
<event>
 5    1  0.1044283E-009  0.9118800E+02  0.7815553E-02  0.1125453E+00
         25   -1    0    0    0    0  0.00000000000E+00  0.00000000000E+00  0.99999998245E-14  0.12509000000E+03  0.12509000000E+03 0.  0.
        -11    1    3    3    0    0  0.12092789759E+02 -0.36590120898E+02  0.77102322309E+01  0.39300384131E+02  0.51100000000E-03 0.  1.
         23    2    1    0    0    0 -0.88744501152E+01  0.96514228023E+01 -0.22983243736E+02  0.98629929713E+02  0.95014355313E+02 0.  0.
         11    1    3    3    0    0 -0.20967239874E+02  0.46241543701E+02 -0.30693475967E+02  0.59329545582E+02  0.51100000000E-03 0. -1.
         22    1    1    0    0    0  0.88744501152E+01 -0.96514228023E+01  0.22983243736E+02  0.26460070287E+02  0.00000000000E+00 0. -1.
</event>
<event>
 5    1  0.1044283E-009  0.9118800E+02  0.7815553E-02  0.1125453E+00
         25   -1    0    0    0    0  0.00000000000E+00  0.00000000000E+00  0.99999998245E-14  0.12509000000E+03  0.12509000000E+03 0.  0.
        -11    1    3    3    0    0 -0.40473854649E+02  0.13348992977E+01  0.31205323083E+02  0.51124231586E+02  0.51100000000E-03 0.  1.
         23    2    1    0    0    0 -0.10394780045E+02 -0.24992108944E+02  0.11714957035E+02  0.95595980606E+02  0.90932361281E+02 0.  0.
         11    1    3    3    0    0  0.30079074604E+02 -0.26327008242E+02 -0.19490366047E+02  0.44471749020E+02  0.51100000000E-03 0. -1.
         22    1    1    0    0    0  0.10394780045E+02  0.24992108944E+02 -0.11714957035E+02  0.29494019394E+02  0.00000000000E+00 0. -1.
</event>
<event>
 5    1  0.1044283E-009  0.9118800E+02  0.7815553E-02  0.1125453E+00
         25   -1    0    0    0    0  0.00000000000E+00  0.00000000000E+00  0.99999998245E-14  0.12509000000E+03  0.12509000000E+03 0.  0.
        -11    1    3    3    0    0  0.14853785476E+02  0.52673022858E+02  0.26592602422E+02  0.60846107384E+02  0.51100000000E-03 0.  1.
         23    2    1    0    0    0  0.11444670365E+02  0.16687167256E+02  0.18017357668E+02  0.97996325311E+02  0.94176496889E+02 0.  0.
         11    1    3    3    0    0 -0.34091151105E+01 -0.35985855602E+02 -0.85752447537E+01  0.37150217928E+02  0.51100000000E-03 0. -1.
         22    1    1    0    0    0 -0.11444670365E+02 -0.16687167256E+02 -0.18017357668E+02  0.27093674689E+02  0.00000000000E+00 0.  1.
</event>
<event>
 5    1  0.1044283E-009  0.9118800E+02  0.7815553E-02  0.1125453E+00
         25   -1    0    0    0    0  0.00000000000E+00  0.00000000000E+00  0.99999998245E-14  0.12509000000E+03  0.12509000000E+03 0.  0.
        -11    1    3    3    0    0 -0.33581835003E+02  0.12255583151E+01  0.25658544599E+02  0.42280049037E+02  0.51100000000E-03 0.  1.
         23    2    1    0    0    0 -0.82640706207E+01  0.24534266523E+02 -0.14700213330E+02  0.95318850056E+02  0.90550327481E+02 0.  0.
         11    1    3    3    0    0  0.25317764382E+02  0.23308708208E+02 -0.40358757929E+02  0.53038801019E+02  0.51100000000E-03 0. -1.
         22    1    1    0    0    0  0.82640706207E+01 -0.24534266523E+02  0.14700213330E+02  0.29771149944E+02  0.00000000000E+00 0.  1.
</event>
<event>
 5    1  0.1044283E-009  0.9118800E+02  0.7815553E-02  0.1125453E+00
         25   -1    0    0    0    0  0.00000000000E+00  0.00000000000E+00  0.99999998245E-14  0.12509000000E+03  0.12509000000E+03 0.  0.
        -11    1    3    3    0    0 -0.28928230493E+02 -0.51002629809E+02 -0.10455774558E+01  0.58644726953E+02  0.51100000000E-03 0.  1.
         23    2    1    0    0    0 -0.37032607510E+01 -0.22207608276E+02 -0.13423959960E+02  0.98877508578E+02  0.95339745102E+02 0.  0.
         11    1    3    3    0    0  0.25224969742E+02  0.28795021533E+02 -0.12378382505E+02  0.40232781625E+02  0.51100000000E-03 0. -1.
         22    1    1    0    0    0  0.37032607510E+01  0.22207608276E+02  0.13423959960E+02  0.26212491422E+02  0.00000000000E+00 0.  1.
</event>
<event>
 5    1  0.1044283E-009  0.9118800E+02  0.7815553E-02  0.1125453E+00
         25   -1    0    0    0    0  0.00000000000E+00  0.00000000000E+00  0.99999998245E-14  0.12509000000E+03  0.12509000000E+03 0.  0.
        -11    1    3    3    0    0 -0.38380524159E+02 -0.42156370724E+01  0.17104424825E+02  0.42230292203E+02  0.51100000000E-03 0.  1.
         23    2    1    0    0    0  0.12497053068E+02  0.10955369118E+01  0.27889530468E+02  0.94508920126E+02  0.89424457153E+02 0.  0.
         11    1    3    3    0    0  0.50877577227E+02  0.53111739843E+01  0.10785105643E+02  0.52278627924E+02  0.51100000000E-03 0. -1.
         22    1    1    0    0    0 -0.12497053068E+02 -0.10955369118E+01 -0.27889530468E+02  0.30581079874E+02  0.00000000000E+00 0. -1.
</event>
<event>
 5    1  0.1044283E-009  0.9118800E+02  0.7815553E-02  0.1125453E+00
         25   -1    0    0    0    0  0.00000000000E+00  0.00000000000E+00  0.99999998245E-14  0.12509000000E+03  0.12509000000E+03 0.  0.
        -11    1    3    3    0    0 -0.12638941676E+02  0.14915107525E+00  0.36082223311E+02  0.38232079881E+02  0.51100000000E-03 0.  1.
         23    2    1    0    0    0  0.22871461563E+02 -0.16667229592E+02 -0.63755870862E+01  0.96080546248E+02  0.91596522643E+02 0.  0.
         11    1    3    3    0    0  0.35510403239E+02 -0.16816380667E+02 -0.42457810397E+02  0.57848466366E+02  0.51100000000E-03 0. -1.
         22    1    1    0    0    0 -0.22871461563E+02  0.16667229592E+02  0.63755870862E+01  0.29009453752E+02  0.00000000000E+00 0. -1.
</event>
<event>
 5    1  0.1044283E-009  0.9118800E+02  0.7815553E-02  0.1125453E+00
         25   -1    0    0    0    0  0.00000000000E+00  0.00000000000E+00  0.99999998245E-14  0.12509000000E+03  0.12509000000E+03 0.  0.
        -11    1    3    3    0    0 -0.29927989098E+02 -0.98400422619E+01  0.31575697882E+02  0.44604211238E+02  0.51100000000E-03 0.  1.
         23    2    1    0    0    0 -0.22857110691E+02  0.21413742626E+02 -0.51549196238E+01  0.93347771365E+02  0.87785177223E+02 0.  0.
         11    1    3    3    0    0  0.70708784065E+01  0.31253784888E+02 -0.36730617506E+02  0.48743560127E+02  0.51100000000E-03 0. -1.
         22    1    1    0    0    0  0.22857110691E+02 -0.21413742626E+02  0.51549196238E+01  0.31742228635E+02  0.00000000000E+00 0. -1.
</event>
<event>
 5    1  0.1044283E-009  0.9118800E+02  0.7815553E-02  0.1125453E+00
         25   -1    0    0    0    0  0.00000000000E+00  0.00000000000E+00  0.99999998245E-14  0.12509000000E+03  0.12509000000E+03 0.  0.
        -11    1    3    3    0    0  0.33405321103E+02  0.98482558763E+00  0.10320575299E+02  0.34977130159E+02  0.51100000000E-03 0.  1.
         23    2    1    0    0    0 -0.12846892947E+02  0.27369072826E+02 -0.11796234841E+02  0.92636033183E+02  0.86765054496E+02 0.  0.
         11    1    3    3    0    0 -0.46252214049E+02  0.26384247239E+02 -0.22116810140E+02  0.57658903023E+02  0.51100000000E-03 0. -1.
         22    1    1    0    0    0  0.12846892947E+02 -0.27369072826E+02  0.11796234841E+02  0.32453966817E+02  0.00000000000E+00 0. -1.
</event>
<event>
 5    1  0.1044283E-009  0.9118800E+02  0.7815553E-02  0.1125453E+00
         25   -1    0    0    0    0  0.00000000000E+00  0.00000000000E+00  0.99999998245E-14  0.12509000000E+03  0.12509000000E+03 0.  0.
        -11    1    3    3    0    0  0.16903920847E+02  0.36217496785E+02 -0.15309561216E+02  0.42799909793E+02  0.51100000000E-03 0.  1.
         23    2    1    0    0    0  0.14857057191E+02  0.11082842429E+01  0.24809163476E+02  0.96151184635E+02  0.91692940143E+02 0.  0.
         11    1    3    3    0    0 -0.20468636562E+01 -0.35109212542E+02  0.40118724692E+02  0.53351274843E+02  0.51100000000E-03 0. -1.
         22    1    1    0    0    0 -0.14857057191E+02 -0.11082842429E+01 -0.24809163476E+02  0.28938815365E+02  0.00000000000E+00 0. -1.
</event>
<event>
 5    1  0.1044283E-009  0.9118800E+02  0.7815553E-02  0.1125453E+00
         25   -1    0    0    0    0  0.00000000000E+00  0.00000000000E+00  0.99999998245E-14  0.12509000000E+03  0.12509000000E+03 0.  0.
        -11    1    3    3    0    0  0.79293754953E+00 -0.35522778033E+02 -0.13607599757E+02  0.38048170529E+02  0.51100000000E-03 0.  1.
         23    2    1    0    0    0 -0.30629803809E+02 -0.13576676352E+02  0.17389955385E+02  0.87341866663E+02  0.78763443943E+02 0.  0.
         11    1    3    3    0    0 -0.31422741358E+02  0.21946101681E+02  0.30997555142E+02  0.49293696134E+02  0.51100000000E-03 0. -1.
         22    1    1    0    0    0  0.30629803809E+02  0.13576676352E+02 -0.17389955385E+02  0.37748133337E+02  0.00000000000E+00 0. -1.
</event>
<event>
 5    1  0.1044283E-009  0.9118800E+02  0.7815553E-02  0.1125453E+00
         25   -1    0    0    0    0  0.00000000000E+00  0.00000000000E+00  0.99999998245E-14  0.12509000000E+03  0.12509000000E+03 0.  0.
        -11    1    3    3    0    0 -0.15191118404E+02 -0.47367652764E+02  0.16120353084E+02  0.52290825109E+02  0.51100000000E-03 0.  1.
         23    2    1    0    0    0  0.17946793756E+02 -0.19279122150E+02  0.12651141551E+02  0.95869744362E+02  0.91308184434E+02 0.  0.
         11    1    3    3    0    0  0.33137912159E+02  0.28088530614E+02 -0.34692115331E+01  0.43578919253E+02  0.51100000000E-03 0. -1.
         22    1    1    0    0    0 -0.17946793756E+02  0.19279122150E+02 -0.12651141551E+02  0.29220255638E+02  0.00000000000E+00 0.  1.
</event>
<event>
 5    1  0.1044283E-009  0.9118800E+02  0.7815553E-02  0.1125453E+00
         25   -1    0    0    0    0  0.00000000000E+00  0.00000000000E+00  0.99999998245E-14  0.12509000000E+03  0.12509000000E+03 0.  0.
        -11    1    3    3    0    0 -0.85029329173E+01 -0.33355670697E+02 -0.93826803230E+01  0.35678219213E+02  0.51100000000E-03 0. -1.
         23    2    1    0    0    0  0.24315826625E+02  0.11858599326E+02  0.11993239198E+02  0.95497372728E+02  0.90796611220E+02 0.  0.
         11    1    3    3    0    0  0.32818759542E+02  0.45214270024E+02  0.21375919521E+02  0.59819153515E+02  0.51100000000E-03 0.  1.
         22    1    1    0    0    0 -0.24315826625E+02 -0.11858599326E+02 -0.11993239198E+02  0.29592627272E+02  0.00000000000E+00 0.  1.
</event>
<event>
 5    1  0.1044283E-009  0.9118800E+02  0.7815553E-02  0.1125453E+00
         25   -1    0    0    0    0  0.00000000000E+00  0.00000000000E+00  0.99999998245E-14  0.12509000000E+03  0.12509000000E+03 0.  0.
        -11    1    3    3    0    0  0.15585830966E+02  0.15203577667E+01  0.58254867845E+02  0.60322957840E+02  0.51100000000E-03 0.  1.
         23    2    1    0    0    0 -0.55377268648E-01 -0.84449006710E+01  0.28323142417E+02  0.95534631446E+02  0.90847927854E+02 0.  0.
         11    1    3    3    0    0 -0.15641208235E+02 -0.99652584377E+01 -0.29931725428E+02  0.35211673607E+02  0.51100000000E-03 0. -1.
         22    1    1    0    0    0  0.55377268648E-01  0.84449006710E+01 -0.28323142417E+02  0.29555368554E+02  0.00000000000E+00 0.  1.
</event>
<event>
 5    1  0.1044283E-009  0.9118800E+02  0.7815553E-02  0.1125453E+00
         25   -1    0    0    0    0  0.00000000000E+00  0.00000000000E+00  0.99999998245E-14  0.12509000000E+03  0.12509000000E+03 0.  0.
        -11    1    3    3    0    0  0.14820746115E+02 -0.56044355597E+02  0.21536592533E+02  0.61842130686E+02  0.51100000000E-03 0. -1.
         23    2    1    0    0    0  0.72475696515E+01 -0.23698062660E+02  0.16184816958E+02  0.95491457136E+02  0.90788460976E+02 0.  0.
         11    1    3    3    0    0 -0.75731764637E+01  0.32346292936E+02 -0.53517755747E+01  0.33649326450E+02  0.51100000000E-03 0.  1.
         22    1    1    0    0    0 -0.72475696515E+01  0.23698062660E+02 -0.16184816958E+02  0.29598542864E+02  0.00000000000E+00 0. -1.
</event>
<event>
 5    1  0.1044283E-009  0.9118800E+02  0.7815553E-02  0.1125453E+00
         25   -1    0    0    0    0  0.00000000000E+00  0.00000000000E+00  0.99999998245E-14  0.12509000000E+03  0.12509000000E+03 0.  0.
        -11    1    3    3    0    0 -0.19535904688E+02  0.19008063052E+02 -0.17765633546E+02  0.32535761379E+02  0.51100000000E-03 0.  1.
         23    2    1    0    0    0  0.11060970837E+02 -0.11330623852E+02  0.26442650292E+02  0.94268873038E+02  0.89088038236E+02 0.  0.
         11    1    3    3    0    0  0.30596875525E+02 -0.30338686904E+02  0.44208283838E+02  0.61733111659E+02  0.51100000000E-03 0. -1.
         22    1    1    0    0    0 -0.11060970837E+02  0.11330623852E+02 -0.26442650292E+02  0.30821126962E+02  0.00000000000E+00 0. -1.
</event>
<event>
 5    1  0.1044283E-009  0.9118800E+02  0.7815553E-02  0.1125453E+00
         25   -1    0    0    0    0  0.00000000000E+00  0.00000000000E+00  0.99999998245E-14  0.12509000000E+03  0.12509000000E+03 0.  0.
        -11    1    3    3    0    0  0.15601319321E+02 -0.35464576492E+02 -0.31786236915E+01  0.38874683268E+02  0.51100000000E-03 0. -1.
         23    2    1    0    0    0  0.17552376019E+02  0.20603896017E+02  0.95229054597E+01  0.96396931788E+02  0.92027584424E+02 0.  0.
         11    1    3    3    0    0  0.19510566976E+01  0.56068472510E+02  0.12701529151E+02  0.57522248520E+02  0.51100000000E-03 0.  1.
         22    1    1    0    0    0 -0.17552376019E+02 -0.20603896017E+02 -0.95229054597E+01  0.28693068212E+02  0.00000000000E+00 0.  1.
</event>
<event>
 5    1  0.1044283E-009  0.9118800E+02  0.7815553E-02  0.1125453E+00
         25   -1    0    0    0    0  0.00000000000E+00  0.00000000000E+00  0.99999998245E-14  0.12509000000E+03  0.12509000000E+03 0.  0.
        -11    1    3    3    0    0  0.15101654524E+02 -0.30383287839E+02  0.17270792085E+02  0.38072094883E+02  0.51100000000E-03 0. -1.
         23    2    1    0    0    0  0.78118253078E+01  0.25331016325E+02  0.15696007714E+02  0.94283350379E+02  0.89108363793E+02 0.  0.
         11    1    3    3    0    0 -0.72898292159E+01  0.55714304164E+02 -0.15747843710E+01  0.56211255497E+02  0.51100000000E-03 0.  1.
         22    1    1    0    0    0 -0.78118253078E+01 -0.25331016325E+02 -0.15696007714E+02  0.30806649621E+02  0.00000000000E+00 0.  1.
</event>
<event>
 5    1  0.1044283E-009  0.9118800E+02  0.7815553E-02  0.1125453E+00
         25   -1    0    0    0    0  0.00000000000E+00  0.00000000000E+00  0.99999998245E-14  0.12509000000E+03  0.12509000000E+03 0.  0.
        -11    1    3    3    0    0 -0.12541114213E+02  0.54960372781E+02 -0.78304936088E+01  0.56914310611E+02  0.51100000000E-03 0. -1.
         23    2    1    0    0    0  0.11922825003E+02  0.27491703387E+02  0.22084969129E+01  0.95042954059E+02  0.90168387734E+02 0.  0.
         11    1    3    3    0    0  0.24463939216E+02 -0.27468669394E+02  0.10038990522E+02  0.38128643448E+02  0.51100000000E-03 0.  1.
         22    1    1    0    0    0 -0.11922825003E+02 -0.27491703387E+02 -0.22084969129E+01  0.30047045941E+02  0.00000000000E+00 0. -1.
</event>
<event>
 5    1  0.1044283E-009  0.9118800E+02  0.7815553E-02  0.1125453E+00
         25   -1    0    0    0    0  0.00000000000E+00  0.00000000000E+00  0.99999998245E-14  0.12509000000E+03  0.12509000000E+03 0.  0.
        -11    1    3    3    0    0 -0.35763222764E+01 -0.54438150125E+02  0.10222276926E+02  0.55504929654E+02  0.51100000000E-03 0. -1.
         23    2    1    0    0    0 -0.20710345245E+02 -0.17801382827E+02 -0.18623886658E+01  0.97717091454E+02  0.93804871089E+02 0.  0.
         11    1    3    3    0    0 -0.17134022968E+02  0.36636767298E+02 -0.12084665592E+02  0.42212161801E+02  0.51100000000E-03 0.  1.
         22    1    1    0    0    0  0.20710345245E+02  0.17801382827E+02  0.18623886658E+01  0.27372908546E+02  0.00000000000E+00 0. -1.
</event>
<event>
 5    1  0.1044283E-009  0.9118800E+02  0.7815553E-02  0.1125453E+00
         25   -1    0    0    0    0  0.00000000000E+00  0.00000000000E+00  0.99999998245E-14  0.12509000000E+03  0.12509000000E+03 0.  0.
        -11    1    3    3    0    0 -0.23410511108E+02  0.22947008402E+02  0.13706866474E+02  0.35531611471E+02  0.51100000000E-03 0.  1.
         23    2    1    0    0    0  0.13614285977E+02  0.78209802424E+01 -0.27793907444E+02  0.93167941708E+02  0.87528552807E+02 0.  0.
         11    1    3    3    0    0  0.37024797085E+02 -0.15126028160E+02 -0.41500773918E+02  0.57636330236E+02  0.51100000000E-03 0. -1.
         22    1    1    0    0    0 -0.13614285977E+02 -0.78209802424E+01  0.27793907444E+02  0.31922058292E+02  0.00000000000E+00 0. -1.
</event>
<event>
 5    1  0.1044283E-009  0.9118800E+02  0.7815553E-02  0.1125453E+00
         25   -1    0    0    0    0  0.00000000000E+00  0.00000000000E+00  0.99999998245E-14  0.12509000000E+03  0.12509000000E+03 0.  0.
        -11    1    3    3    0    0 -0.38472334917E+02 -0.34979957184E+02  0.15573833165E+02  0.54279482664E+02  0.51100000000E-03 0. -1.
         23    2    1    0    0    0 -0.11632864977E+02 -0.44856194468E+01  0.26031026789E+02  0.96227243980E+02  0.91796643723E+02 0.  0.
         11    1    3    3    0    0  0.26839469940E+02  0.30494337737E+02  0.10457193624E+02  0.41947761316E+02  0.51100000000E-03 0.  1.
         22    1    1    0    0    0  0.11632864977E+02  0.44856194468E+01 -0.26031026789E+02  0.28862756020E+02  0.00000000000E+00 0. -1.
</event>
<event>
 5    1  0.1044283E-009  0.9118800E+02  0.7815553E-02  0.1125453E+00
         25   -1    0    0    0    0  0.00000000000E+00  0.00000000000E+00  0.99999998245E-14  0.12509000000E+03  0.12509000000E+03 0.  0.
        -11    1    3    3    0    0  0.29170226480E+02  0.17786179267E+02  0.37489275620E+02  0.50721751474E+02  0.51100000000E-03 0. -1.
         23    2    1    0    0    0  0.11401197183E+02  0.25242321868E+02 -0.46003342702E+01  0.97012870769E+02  0.92861035472E+02 0.  0.
         11    1    3    3    0    0 -0.17769029297E+02  0.74561426007E+01 -0.42089609890E+02  0.46291119295E+02  0.51100000000E-03 0.  1.
         22    1    1    0    0    0 -0.11401197183E+02 -0.25242321868E+02  0.46003342702E+01  0.28077129231E+02  0.00000000000E+00 0. -1.
</event>
<event>
 5    1  0.1044283E-009  0.9118800E+02  0.7815553E-02  0.1125453E+00
         25   -1    0    0    0    0  0.00000000000E+00  0.00000000000E+00  0.99999998245E-14  0.12509000000E+03  0.12509000000E+03 0.  0.
        -11    1    3    3    0    0  0.30021727498E+02 -0.82204798354E+01  0.30792080645E+02  0.43783931315E+02  0.51100000000E-03 0. -1.
         23    2    1    0    0    0 -0.11606010034E+02  0.21084052485E+02  0.13164993962E+02  0.97657285878E+02  0.93725085654E+02 0.  0.
         11    1    3    3    0    0 -0.41627737532E+02  0.29304532320E+02 -0.17627086683E+02  0.53873354562E+02  0.51100000000E-03 0.  1.
         22    1    1    0    0    0  0.11606010034E+02 -0.21084052485E+02 -0.13164993962E+02  0.27432714122E+02  0.00000000000E+00 0. -1.
</event>
<event>
 5    1  0.1044283E-009  0.9118800E+02  0.7815553E-02  0.1125453E+00
         25   -1    0    0    0    0  0.00000000000E+00  0.00000000000E+00  0.99999998245E-14  0.12509000000E+03  0.12509000000E+03 0.  0.
        -11    1    3    3    0    0 -0.73664068476E+01 -0.92265657770E+01  0.56834174388E+02  0.58047539522E+02  0.51100000000E-03 0. -1.
         23    2    1    0    0    0 -0.14966155559E+02 -0.15002252218E+02  0.20531630430E+02  0.95584047517E+02  0.90915944190E+02 0.  0.
         11    1    3    3    0    0 -0.75997487111E+01 -0.57756864409E+01 -0.36302543959E+02  0.37536507995E+02  0.51100000000E-03 0.  1.
         22    1    1    0    0    0  0.14966155559E+02  0.15002252218E+02 -0.20531630430E+02  0.29505952483E+02  0.00000000000E+00 0. -1.
</event>
<event>
 5    1  0.1044283E-009  0.9118800E+02  0.7815553E-02  0.1125453E+00
         25   -1    0    0    0    0  0.00000000000E+00  0.00000000000E+00  0.99999998245E-14  0.12509000000E+03  0.12509000000E+03 0.  0.
        -11    1    3    3    0    0 -0.22768843493E+02 -0.12747152956E+00  0.28154829156E+02  0.36209541395E+02  0.51100000000E-03 0. -1.
         23    2    1    0    0    0  0.19940450077E+02  0.16882376422E+02 -0.11140073583E+02  0.96686876539E+02  0.92420856263E+02 0.  0.
         11    1    3    3    0    0  0.42709293570E+02  0.17009847951E+02 -0.39294902739E+02  0.60477335144E+02  0.51100000000E-03 0.  1.
         22    1    1    0    0    0 -0.19940450077E+02 -0.16882376422E+02  0.11140073583E+02  0.28403123461E+02  0.00000000000E+00 0.  1.
</event>
<event>
 5    1  0.1044283E-009  0.9118800E+02  0.7815553E-02  0.1125453E+00
         25   -1    0    0    0    0  0.00000000000E+00  0.00000000000E+00  0.99999998245E-14  0.12509000000E+03  0.12509000000E+03 0.  0.
        -11    1    3    3    0    0 -0.20818435265E+02  0.42968662169E+02  0.11372060370E+02  0.49081941005E+02  0.51100000000E-03 0.  1.
         23    2    1    0    0    0  0.18985459391E+02  0.23612804054E+02 -0.44671413768E-01  0.94791251196E+02  0.89818523280E+02 0.  0.
         11    1    3    3    0    0  0.39803894656E+02 -0.19355858116E+02 -0.11416731784E+02  0.45709310191E+02  0.51100000000E-03 0. -1.
         22    1    1    0    0    0 -0.18985459391E+02 -0.23612804054E+02  0.44671413768E-01  0.30298748804E+02  0.00000000000E+00 0. -1.
</event>
<event>
 5    1  0.1044283E-009  0.9118800E+02  0.7815553E-02  0.1125453E+00
         25   -1    0    0    0    0  0.00000000000E+00  0.00000000000E+00  0.99999998245E-14  0.12509000000E+03  0.12509000000E+03 0.  0.
        -11    1    3    3    0    0 -0.29256339828E+02 -0.21375448742E+02 -0.20851013384E+02  0.41804401544E+02  0.51100000000E-03 0.  1.
         23    2    1    0    0    0 -0.54024428062E+01  0.26524329584E+02 -0.84437131521E+01  0.96734705258E+02  0.92485568936E+02 0.  0.
         11    1    3    3    0    0  0.23853897022E+02  0.47899778325E+02  0.12407300232E+02  0.54930303713E+02  0.51100000000E-03 0. -1.
         22    1    1    0    0    0  0.54024428062E+01 -0.26524329584E+02  0.84437131521E+01  0.28355294742E+02  0.00000000000E+00 0. -1.
</event>
<event>
 5    1  0.1044283E-009  0.9118800E+02  0.7815553E-02  0.1125453E+00
         25   -1    0    0    0    0  0.00000000000E+00  0.00000000000E+00  0.99999998245E-14  0.12509000000E+03  0.12509000000E+03 0.  0.
        -11    1    3    3    0    0 -0.43020682568E+02 -0.22498566909E+02  0.29232107979E+02  0.56669928346E+02  0.51100000000E-03 0. -1.
         23    2    1    0    0    0 -0.11707479299E+02 -0.22089656121E+00  0.27571404044E+02  0.95135097434E+02  0.90296127137E+02 0.  0.
         11    1    3    3    0    0  0.31313203269E+02  0.22277670348E+02 -0.16607039358E+01  0.38465169087E+02  0.51100000000E-03 0.  1.
         22    1    1    0    0    0  0.11707479299E+02  0.22089656121E+00 -0.27571404044E+02  0.29954902566E+02  0.00000000000E+00 0. -1.
</event>
<event>
 5    1  0.1044283E-009  0.9118800E+02  0.7815553E-02  0.1125453E+00
         25   -1    0    0    0    0  0.00000000000E+00  0.00000000000E+00  0.99999998245E-14  0.12509000000E+03  0.12509000000E+03 0.  0.
        -11    1    3    3    0    0 -0.77999550506E+01 -0.28729383510E+02 -0.20779528201E+02  0.36304346409E+02  0.51100000000E-03 0.  1.
         23    2    1    0    0    0  0.12540138678E+02  0.25019441261E+02 -0.98535364931E+00  0.97086456637E+02  0.92960107688E+02 0.  0.
         11    1    3    3    0    0  0.20340093729E+02  0.53748824772E+02  0.19794174552E+02  0.60782110227E+02  0.51100000000E-03 0. -1.
         22    1    1    0    0    0 -0.12540138678E+02 -0.25019441261E+02  0.98535364931E+00  0.28003543363E+02  0.00000000000E+00 0. -1.
</event>
<event>
 5    1  0.1044283E-009  0.9118800E+02  0.7815553E-02  0.1125453E+00
         25   -1    0    0    0    0  0.00000000000E+00  0.00000000000E+00  0.99999998245E-14  0.12509000000E+03  0.12509000000E+03 0.  0.
        -11    1    3    3    0    0 -0.48436031869E+01  0.45975842463E+02  0.81082457408E+01  0.46935937524E+02  0.51100000000E-03 0. -1.
         23    2    1    0    0    0  0.87606045469E+01  0.51395041250E+01 -0.22935824371E+02  0.10000584695E+03  0.96808856463E+02 0.  0.
         11    1    3    3    0    0  0.13604207734E+02 -0.40836338338E+02 -0.31044070112E+02  0.53069909425E+02  0.51100000000E-03 0.  1.
         22    1    1    0    0    0 -0.87606045469E+01 -0.51395041250E+01  0.22935824371E+02  0.25084153051E+02  0.00000000000E+00 0.  1.
</event>
<event>
 5    1  0.1044283E-009  0.9118800E+02  0.7815553E-02  0.1125453E+00
         25   -1    0    0    0    0  0.00000000000E+00  0.00000000000E+00  0.99999998245E-14  0.12509000000E+03  0.12509000000E+03 0.  0.
        -11    1    3    3    0    0 -0.37350691856E+02 -0.28817418218E+02  0.38981138185E+01  0.47336170804E+02  0.51100000000E-03 0.  1.
         23    2    1    0    0    0 -0.24793669267E+01 -0.30612202507E+02  0.22611078283E+02  0.86951894858E+02  0.78141646742E+02 0.  0.
         11    1    3    3    0    0  0.34871324929E+02 -0.17947842898E+01  0.18712964465E+02  0.39615724053E+02  0.51100000000E-03 0. -1.
         22    1    1    0    0    0  0.24793669267E+01  0.30612202507E+02 -0.22611078283E+02  0.38138105142E+02  0.00000000000E+00 0.  1.
</event>
<event>
 5    1  0.1044283E-009  0.9118800E+02  0.7815553E-02  0.1125453E+00
         25   -1    0    0    0    0  0.00000000000E+00  0.00000000000E+00  0.99999998245E-14  0.12509000000E+03  0.12509000000E+03 0.  0.
        -11    1    3    3    0    0  0.29373382142E+02  0.20160729107E+02 -0.47952800035E+02  0.59738778093E+02  0.51100000000E-03 0. -1.
         23    2    1    0    0    0  0.95395067574E+01  0.20507926076E+02 -0.15867223666E+02  0.97461282911E+02  0.93463124593E+02 0.  0.
         11    1    3    3    0    0 -0.19833875385E+02  0.34719696913E+00  0.32085576369E+02  0.37722504817E+02  0.51100000000E-03 0.  1.
         22    1    1    0    0    0 -0.95395067574E+01 -0.20507926076E+02  0.15867223666E+02  0.27628717089E+02  0.00000000000E+00 0. -1.
</event>
<event>
 5    1  0.1044283E-009  0.9118800E+02  0.7815553E-02  0.1125453E+00
         25   -1    0    0    0    0  0.00000000000E+00  0.00000000000E+00  0.99999998245E-14  0.12509000000E+03  0.12509000000E+03 0.  0.
        -11    1    3    3    0    0  0.26535523748E+02 -0.21521866374E+02 -0.38660045491E+02  0.51593835585E+02  0.51100000000E-03 0.  1.
         23    2    1    0    0    0  0.21763619936E+02  0.13469828932E+02 -0.82490057802E+01  0.98198783208E+02  0.94445028895E+02 0.  0.
         11    1    3    3    0    0 -0.47719038112E+01  0.34991695306E+02  0.30411039711E+02  0.46604947623E+02  0.51100000000E-03 0. -1.
         22    1    1    0    0    0 -0.21763619936E+02 -0.13469828932E+02  0.82490057802E+01  0.26891216792E+02  0.00000000000E+00 0. -1.
</event>
<event>
 5    1  0.1044283E-009  0.9118800E+02  0.7815553E-02  0.1125453E+00
         25   -1    0    0    0    0  0.00000000000E+00  0.00000000000E+00  0.99999998245E-14  0.12509000000E+03  0.12509000000E+03 0.  0.
        -11    1    3    3    0    0 -0.35688633452E+00 -0.51847503681E+02  0.82864231555E+01  0.52506721615E+02  0.51100000000E-03 0.  1.
         23    2    1    0    0    0  0.52872294587E+01 -0.12584662348E+02  0.25826438750E+02  0.95878128094E+02  0.91319669220E+02 0.  0.
         11    1    3    3    0    0  0.56441157932E+01  0.39262841333E+02  0.17540015594E+02  0.43371406479E+02  0.51100000000E-03 0. -1.
         22    1    1    0    0    0 -0.52872294587E+01  0.12584662348E+02 -0.25826438750E+02  0.29211871906E+02  0.00000000000E+00 0.  1.
</event>
<event>
 5    1  0.1044283E-009  0.9118800E+02  0.7815553E-02  0.1125453E+00
         25   -1    0    0    0    0  0.00000000000E+00  0.00000000000E+00  0.99999998245E-14  0.12509000000E+03  0.12509000000E+03 0.  0.
        -11    1    3    3    0    0  0.27269197544E+02 -0.36917496076E+01  0.35686738419E+02  0.45064192538E+02  0.51100000000E-03 0. -1.
         23    2    1    0    0    0  0.23837197325E+02  0.12543368490E+02 -0.12034243805E+02  0.95587947642E+02  0.90921310159E+02 0.  0.
         11    1    3    3    0    0 -0.34320002197E+01  0.16235118098E+02 -0.47720982224E+02  0.50523755104E+02  0.51100000000E-03 0.  1.
         22    1    1    0    0    0 -0.23837197325E+02 -0.12543368490E+02  0.12034243805E+02  0.29502052358E+02  0.00000000000E+00 0.  1.
</event>
<event>
 5    1  0.1044283E-009  0.9118800E+02  0.7815553E-02  0.1125453E+00
         25   -1    0    0    0    0  0.00000000000E+00  0.00000000000E+00  0.99999998245E-14  0.12509000000E+03  0.12509000000E+03 0.  0.
        -11    1    3    3    0    0 -0.42359133085E+02  0.36511733234E+02  0.14275464769E+02  0.57716476972E+02  0.51100000000E-03 0.  1.
         23    2    1    0    0    0 -0.28518623804E+02  0.19192837951E+01  0.64653895816E+01  0.95784764693E+02  0.91191690032E+02 0.  0.
         11    1    3    3    0    0  0.13840509281E+02 -0.34592449439E+02 -0.78100751872E+01  0.38068287721E+02  0.51100000000E-03 0. -1.
         22    1    1    0    0    0  0.28518623804E+02 -0.19192837951E+01 -0.64653895816E+01  0.29305235307E+02  0.00000000000E+00 0.  1.
</event>
<event>
 5    1  0.1044283E-009  0.9118800E+02  0.7815553E-02  0.1125453E+00
         25   -1    0    0    0    0  0.00000000000E+00  0.00000000000E+00  0.99999998245E-14  0.12509000000E+03  0.12509000000E+03 0.  0.
        -11    1    3    3    0    0  0.12945144168E+02 -0.15772631300E+02  0.28789915398E+02  0.35287559912E+02  0.51100000000E-03 0. -1.
         23    2    1    0    0    0  0.13078429748E+02  0.14432890931E+02 -0.22820750349E+02  0.95087661561E+02  0.90230388836E+02 0.  0.
         11    1    3    3    0    0  0.13328557997E+00  0.30205522231E+02 -0.51610665746E+02  0.59800101650E+02  0.51100000000E-03 0.  1.
         22    1    1    0    0    0 -0.13078429748E+02 -0.14432890931E+02  0.22820750349E+02  0.30002338439E+02  0.00000000000E+00 0.  1.
</event>
<event>
 5    1  0.1044283E-009  0.9118800E+02  0.7815553E-02  0.1125453E+00
         25   -1    0    0    0    0  0.00000000000E+00  0.00000000000E+00  0.99999998245E-14  0.12509000000E+03  0.12509000000E+03 0.  0.
        -11    1    3    3    0    0  0.60422690595E+00 -0.32283834588E+02  0.35825292196E+02  0.48229271476E+02  0.51100000000E-03 0. -1.
         23    2    1    0    0    0  0.26821588983E+02 -0.33791393059E+01  0.23824529323E+02  0.89056343296E+02  0.81440824319E+02 0.  0.
         11    1    3    3    0    0  0.26217362077E+02  0.28904695282E+02 -0.12000762874E+02  0.40827071820E+02  0.51100000000E-03 0.  1.
         22    1    1    0    0    0 -0.26821588983E+02  0.33791393059E+01 -0.23824529323E+02  0.36033656704E+02  0.00000000000E+00 0.  1.
</event>
<event>
 5    1  0.1044283E-009  0.9118800E+02  0.7815553E-02  0.1125453E+00
         25   -1    0    0    0    0  0.00000000000E+00  0.00000000000E+00  0.99999998245E-14  0.12509000000E+03  0.12509000000E+03 0.  0.
        -11    1    3    3    0    0 -0.54028023857E+02  0.22762247094E+02  0.29529417067E+01  0.58701508666E+02  0.51100000000E-03 0.  1.
         23    2    1    0    0    0 -0.18888971098E+02  0.19243782191E+02  0.12623413405E+02  0.95316405186E+02  0.90546949973E+02 0.  0.
         11    1    3    3    0    0  0.35139052759E+02 -0.35184649027E+01  0.96704716984E+01  0.36614896520E+02  0.51100000000E-03 0. -1.
         22    1    1    0    0    0  0.18888971098E+02 -0.19243782191E+02 -0.12623413405E+02  0.29773594814E+02  0.00000000000E+00 0. -1.
</event>
<event>
 5    1  0.1044283E-009  0.9118800E+02  0.7815553E-02  0.1125453E+00
         25   -1    0    0    0    0  0.00000000000E+00  0.00000000000E+00  0.99999998245E-14  0.12509000000E+03  0.12509000000E+03 0.  0.
        -11    1    3    3    0    0 -0.31706365258E+02  0.66149187607E+01 -0.82871325229E+01  0.33432429074E+02  0.51100000000E-03 0. -1.
         23    2    1    0    0    0  0.25859416766E+02 -0.88182345926E+01  0.10344674372E+02  0.95875568897E+02  0.91316163557E+02 0.  0.
         11    1    3    3    0    0  0.57565782024E+02 -0.15433153353E+02  0.18631806895E+02  0.62443139823E+02  0.51100000000E-03 0.  1.
         22    1    1    0    0    0 -0.25859416766E+02  0.88182345926E+01 -0.10344674372E+02  0.29214431103E+02  0.00000000000E+00 0.  1.
</event>
<event>
 5    1  0.1044283E-009  0.9118800E+02  0.7815553E-02  0.1125453E+00
         25   -1    0    0    0    0  0.00000000000E+00  0.00000000000E+00  0.99999998245E-14  0.12509000000E+03  0.12509000000E+03 0.  0.
        -11    1    3    3    0    0  0.48790507186E+02  0.29134271591E+02 -0.23799523800E+02  0.61609550444E+02  0.51100000000E-03 0. -1.
         23    2    1    0    0    0  0.28182729389E+02  0.14450906539E+02 -0.52453733505E+01  0.92986902374E+02  0.87269439874E+02 0.  0.
         11    1    3    3    0    0 -0.20607777797E+02 -0.14683365052E+02  0.18554150449E+02  0.31377351930E+02  0.51100000000E-03 0.  1.
         22    1    1    0    0    0 -0.28182729389E+02 -0.14450906539E+02  0.52453733505E+01  0.32103097626E+02  0.00000000000E+00 0. -1.
</event>
<event>
 5    1  0.1044283E-009  0.9118800E+02  0.7815553E-02  0.1125453E+00
         25   -1    0    0    0    0  0.00000000000E+00  0.00000000000E+00  0.99999998245E-14  0.12509000000E+03  0.12509000000E+03 0.  0.
        -11    1    3    3    0    0  0.13737406957E+02  0.13914063018E+02  0.43010962089E+02  0.47246802639E+02  0.51100000000E-03 0.  1.
         23    2    1    0    0    0  0.23253299429E+02  0.16591852950E+02 -0.48477192261E+01  0.96115771790E+02  0.91644616244E+02 0.  0.
         11    1    3    3    0    0  0.95158924723E+01  0.26777899315E+01 -0.47858681315E+02  0.48868969151E+02  0.51100000000E-03 0. -1.
         22    1    1    0    0    0 -0.23253299429E+02 -0.16591852950E+02  0.48477192261E+01  0.28974228210E+02  0.00000000000E+00 0.  1.
</event>
<event>
 5    1  0.1044283E-009  0.9118800E+02  0.7815553E-02  0.1125453E+00
         25   -1    0    0    0    0  0.00000000000E+00  0.00000000000E+00  0.99999998245E-14  0.12509000000E+03  0.12509000000E+03 0.  0.
        -11    1    3    3    0    0 -0.36085855637E+02 -0.17725951537E+02  0.24936327597E+02  0.47309816838E+02  0.51100000000E-03 0. -1.
         23    2    1    0    0    0 -0.16121608203E+02  0.21428591343E+02 -0.83913113650E+00  0.98261005999E+02  0.94527405449E+02 0.  0.
         11    1    3    3    0    0  0.19964247434E+02  0.39154542881E+02 -0.25775458733E+02  0.50951189161E+02  0.51100000000E-03 0.  1.
         22    1    1    0    0    0  0.16121608203E+02 -0.21428591343E+02  0.83913113650E+00  0.26828994001E+02  0.00000000000E+00 0.  1.
</event>
<event>
 5    1  0.1044283E-009  0.9118800E+02  0.7815553E-02  0.1125453E+00
         25   -1    0    0    0    0  0.00000000000E+00  0.00000000000E+00  0.99999998245E-14  0.12509000000E+03  0.12509000000E+03 0.  0.
        -11    1    3    3    0    0 -0.33359306747E+02 -0.83188821454E+01 -0.12928549935E+02  0.36731383727E+02  0.51100000000E-03 0. -1.
         23    2    1    0    0    0  0.12741529333E+02 -0.11640215151E+02  0.23746535898E+02  0.95734606192E+02  0.91122860343E+02 0.  0.
         11    1    3    3    0    0  0.46100836080E+02 -0.33213330060E+01  0.36675085832E+02  0.59003222465E+02  0.51100000000E-03 0.  1.
         22    1    1    0    0    0 -0.12741529333E+02  0.11640215151E+02 -0.23746535898E+02  0.29355393808E+02  0.00000000000E+00 0.  1.
</event>
<event>
 5    1  0.1044283E-009  0.9118800E+02  0.7815553E-02  0.1125453E+00
         25   -1    0    0    0    0  0.00000000000E+00  0.00000000000E+00  0.99999998245E-14  0.12509000000E+03  0.12509000000E+03 0.  0.
        -11    1    3    3    0    0  0.58215701347E+01 -0.22818673800E+02  0.39677159255E+02  0.46139565664E+02  0.51100000000E-03 0.  1.
         23    2    1    0    0    0  0.93969146199E+00  0.22138640036E+02  0.19154414822E+02  0.95800172246E+02  0.91212822523E+02 0.  0.
         11    1    3    3    0    0 -0.48818786727E+01  0.44957313836E+02 -0.20522744434E+02  0.49660606582E+02  0.51100000000E-03 0. -1.
         22    1    1    0    0    0 -0.93969146199E+00 -0.22138640036E+02 -0.19154414822E+02  0.29289827754E+02  0.00000000000E+00 0. -1.
</event>
<event>
 5    1  0.1044283E-009  0.9118800E+02  0.7815553E-02  0.1125453E+00
         25   -1    0    0    0    0  0.00000000000E+00  0.00000000000E+00  0.99999998245E-14  0.12509000000E+03  0.12509000000E+03 0.  0.
        -11    1    3    3    0    0  0.81329380724E+01  0.31952765997E+02  0.16085349664E+02  0.36685997473E+02  0.51100000000E-03 0. -1.
         23    2    1    0    0    0 -0.43506564372E+01  0.23557043240E+02 -0.30883167699E+02  0.86005059873E+02  0.76610950777E+02 0.  0.
         11    1    3    3    0    0 -0.12483594510E+02 -0.83957227567E+01 -0.46968517362E+02  0.49319062399E+02  0.51100000000E-03 0.  1.
         22    1    1    0    0    0  0.43506564372E+01 -0.23557043240E+02  0.30883167699E+02  0.39084940127E+02  0.00000000000E+00 0.  1.
</event>
<event>
 5    1  0.1044283E-009  0.9118800E+02  0.7815553E-02  0.1125453E+00
         25   -1    0    0    0    0  0.00000000000E+00  0.00000000000E+00  0.99999998245E-14  0.12509000000E+03  0.12509000000E+03 0.  0.
        -11    1    3    3    0    0  0.22432123352E+02  0.29055582812E+02 -0.24063634289E+02  0.43891748041E+02  0.51100000000E-03 0. -1.
         23    2    1    0    0    0  0.35751957227E+02 -0.35792932348E+01  0.39861645872E+01  0.88938882538E+02  0.81260208794E+02 0.  0.
         11    1    3    3    0    0  0.13319833876E+02 -0.32634876047E+02  0.28049798877E+02  0.45047134497E+02  0.51100000000E-03 0.  1.
         22    1    1    0    0    0 -0.35751957227E+02  0.35792932348E+01 -0.39861645872E+01  0.36151117462E+02  0.00000000000E+00 0.  1.
</event>
<event>
 5    1  0.1044283E-009  0.9118800E+02  0.7815553E-02  0.1125453E+00
         25   -1    0    0    0    0  0.00000000000E+00  0.00000000000E+00  0.99999998245E-14  0.12509000000E+03  0.12509000000E+03 0.  0.
        -11    1    3    3    0    0  0.16463960340E+02  0.21284325408E+02  0.31371396665E+02  0.41330969347E+02  0.51100000000E-03 0.  1.
         23    2    1    0    0    0  0.22089406539E+02 -0.15271068454E+02 -0.96412061124E+01  0.96557557619E+02  0.92245659329E+02 0.  0.
         11    1    3    3    0    0  0.56254461989E+01 -0.36555393862E+02 -0.41012602778E+02  0.55226588272E+02  0.51100000000E-03 0. -1.
         22    1    1    0    0    0 -0.22089406539E+02  0.15271068454E+02  0.96412061124E+01  0.28532442381E+02  0.00000000000E+00 0. -1.
</event>
<event>
 5    1  0.1044283E-009  0.9118800E+02  0.7815553E-02  0.1125453E+00
         25   -1    0    0    0    0  0.00000000000E+00  0.00000000000E+00  0.99999998245E-14  0.12509000000E+03  0.12509000000E+03 0.  0.
        -11    1    3    3    0    0  0.24015497767E+02  0.33396617281E+02  0.21998680046E+02  0.46647830634E+02  0.51100000000E-03 0. -1.
         23    2    1    0    0    0 -0.17949689844E+02  0.22504146056E+02 -0.20581285785E+01  0.96230619403E+02  0.91801243250E+02 0.  0.
         11    1    3    3    0    0 -0.41965187611E+02 -0.10892471225E+02 -0.24056808625E+02  0.49582788769E+02  0.51100000000E-03 0.  1.
         22    1    1    0    0    0  0.17949689844E+02 -0.22504146056E+02  0.20581285785E+01  0.28859380597E+02  0.00000000000E+00 0.  1.
</event>
<event>
 5    1  0.1044283E-009  0.9118800E+02  0.7815553E-02  0.1125453E+00
         25   -1    0    0    0    0  0.00000000000E+00  0.00000000000E+00  0.99999998245E-14  0.12509000000E+03  0.12509000000E+03 0.  0.
        -11    1    3    3    0    0  0.41722963972E+02  0.53515333204E+01 -0.39024564102E+02  0.57379101031E+02  0.51100000000E-03 0.  1.
         23    2    1    0    0    0  0.10454641015E+02 -0.12396580242E+02 -0.23490801195E+02  0.96545430268E+02  0.92229212532E+02 0.  0.
         11    1    3    3    0    0 -0.31268322957E+02 -0.17748113562E+02  0.15533762908E+02  0.39166329237E+02  0.51100000000E-03 0. -1.
         22    1    1    0    0    0 -0.10454641015E+02  0.12396580242E+02  0.23490801195E+02  0.28544569732E+02  0.00000000000E+00 0.  1.
</event>
<event>
 5    1  0.1044283E-009  0.9118800E+02  0.7815553E-02  0.1125453E+00
         25   -1    0    0    0    0  0.00000000000E+00  0.00000000000E+00  0.99999998245E-14  0.12509000000E+03  0.12509000000E+03 0.  0.
        -11    1    3    3    0    0 -0.37129621181E+02  0.22000333681E+02  0.38945806936E+02  0.58132601260E+02  0.51100000000E-03 0. -1.
         23    2    1    0    0    0 -0.16859680902E+02  0.25169172288E+02  0.10871944052E+02  0.92904052115E+02  0.87150603315E+02 0.  0.
         11    1    3    3    0    0  0.20269940279E+02  0.31688386069E+01 -0.28073862884E+02  0.34771450855E+02  0.51100000000E-03 0.  1.
         22    1    1    0    0    0  0.16859680902E+02 -0.25169172288E+02 -0.10871944052E+02  0.32185947885E+02  0.00000000000E+00 0. -1.
</event>
<event>
 5    1  0.1044283E-009  0.9118800E+02  0.7815553E-02  0.1125453E+00
         25   -1    0    0    0    0  0.00000000000E+00  0.00000000000E+00  0.99999998245E-14  0.12509000000E+03  0.12509000000E+03 0.  0.
        -11    1    3    3    0    0  0.61112663318E+01 -0.59543735133E+01 -0.18122045258E+02  0.20030243751E+02  0.51100000000E-03 0. -1.
         23    2    1    0    0    0  0.32013496127E+01  0.21702795985E+01  0.43079487211E+02  0.81837243195E+02  0.69473256744E+02 0.  0.
         11    1    3    3    0    0 -0.29099167191E+01  0.81246531119E+01  0.61201532469E+02  0.61806999444E+02  0.51100000000E-03 0.  1.
         22    1    1    0    0    0 -0.32013496127E+01 -0.21702795985E+01 -0.43079487211E+02  0.43252756805E+02  0.00000000000E+00 0.  1.
</event>
<event>
 5    1  0.1044283E-009  0.9118800E+02  0.7815553E-02  0.1125453E+00
         25   -1    0    0    0    0  0.00000000000E+00  0.00000000000E+00  0.99999998245E-14  0.12509000000E+03  0.12509000000E+03 0.  0.
        -11    1    3    3    0    0  0.25147758498E+01  0.91050486870E+01  0.44539042364E+02  0.45529685965E+02  0.51100000000E-03 0. -1.
         23    2    1    0    0    0  0.21911139145E+02  0.19816874141E+02 -0.30052470858E+00  0.95545172458E+02  0.90862440786E+02 0.  0.
         11    1    3    3    0    0  0.19396363296E+02  0.10711825454E+02 -0.44839567072E+02  0.50015486493E+02  0.51100000000E-03 0.  1.
         22    1    1    0    0    0 -0.21911139145E+02 -0.19816874141E+02  0.30052470858E+00  0.29544827542E+02  0.00000000000E+00 0.  1.
</event>
<event>
 5    1  0.1044283E-009  0.9118800E+02  0.7815553E-02  0.1125453E+00
         25   -1    0    0    0    0  0.00000000000E+00  0.00000000000E+00  0.99999998245E-14  0.12509000000E+03  0.12509000000E+03 0.  0.
        -11    1    3    3    0    0  0.21824555053E+02  0.21207857480E+02 -0.18636912016E+02  0.35684995613E+02  0.51100000000E-03 0. -1.
         23    2    1    0    0    0 -0.25839618098E+02  0.28586930153E+01  0.13265339968E+02  0.95903920550E+02  0.91354992985E+02 0.  0.
         11    1    3    3    0    0 -0.47664173150E+02 -0.18349164465E+02  0.31902251984E+02  0.60218924937E+02  0.51100000000E-03 0.  1.
         22    1    1    0    0    0  0.25839618098E+02 -0.28586930153E+01 -0.13265339968E+02  0.29186079450E+02  0.00000000000E+00 0.  1.
</event>
<event>
 5    1  0.1044283E-009  0.9118800E+02  0.7815553E-02  0.1125453E+00
         25   -1    0    0    0    0  0.00000000000E+00  0.00000000000E+00  0.99999998245E-14  0.12509000000E+03  0.12509000000E+03 0.  0.
        -11    1    3    3    0    0 -0.54352307120E+01  0.36725674925E+02  0.12725420452E+02  0.39246060407E+02  0.51100000000E-03 0. -1.
         23    2    1    0    0    0  0.28917704776E+02  0.13156291229E+02 -0.15672120758E+02  0.89664909774E+02  0.82370255720E+02 0.  0.
         11    1    3    3    0    0  0.34352935488E+02 -0.23569383696E+02 -0.28397541210E+02  0.50418849367E+02  0.51100000000E-03 0.  1.
         22    1    1    0    0    0 -0.28917704776E+02 -0.13156291229E+02  0.15672120758E+02  0.35425090226E+02  0.00000000000E+00 0.  1.
</event>
<event>
 5    1  0.1044283E-009  0.9118800E+02  0.7815553E-02  0.1125453E+00
         25   -1    0    0    0    0  0.00000000000E+00  0.00000000000E+00  0.99999998245E-14  0.12509000000E+03  0.12509000000E+03 0.  0.
        -11    1    3    3    0    0  0.13943481760E+02  0.17740699478E+02  0.28277182330E+02  0.36176679538E+02  0.51100000000E-03 0. -1.
         23    2    1    0    0    0  0.26591083995E+02  0.23595249503E+02 -0.18519893697E+02  0.85004990212E+02  0.74960258479E+02 0.  0.
         11    1    3    3    0    0  0.12647602235E+02  0.58545500254E+01 -0.46797076028E+02  0.48828310674E+02  0.51100000000E-03 0.  1.
         22    1    1    0    0    0 -0.26591083995E+02 -0.23595249503E+02  0.18519893697E+02  0.40085009788E+02  0.00000000000E+00 0.  1.
</event>
<event>
 5    1  0.1044283E-009  0.9118800E+02  0.7815553E-02  0.1125453E+00
         25   -1    0    0    0    0  0.00000000000E+00  0.00000000000E+00  0.99999998245E-14  0.12509000000E+03  0.12509000000E+03 0.  0.
        -11    1    3    3    0    0  0.48624971032E+02  0.10741359388E+02  0.33544986243E+02  0.60041907962E+02  0.51100000000E-03 0.  1.
         23    2    1    0    0    0  0.26057582120E+02 -0.67027516570E+01  0.12907591230E+02  0.95248244403E+02  0.90452737299E+02 0.  0.
         11    1    3    3    0    0 -0.22567388912E+02 -0.17444111045E+02 -0.20637395013E+02  0.35206336442E+02  0.51100000000E-03 0. -1.
         22    1    1    0    0    0 -0.26057582120E+02  0.67027516570E+01 -0.12907591230E+02  0.29841755597E+02  0.00000000000E+00 0.  1.
</event>
<event>
 5    1  0.1044283E-009  0.9118800E+02  0.7815553E-02  0.1125453E+00
         25   -1    0    0    0    0  0.00000000000E+00  0.00000000000E+00  0.99999998245E-14  0.12509000000E+03  0.12509000000E+03 0.  0.
        -11    1    3    3    0    0 -0.66572979718E+01 -0.51075468412E+02 -0.18730344538E+02  0.54807379946E+02  0.51100000000E-03 0. -1.
         23    2    1    0    0    0  0.18901207783E+02 -0.22365207185E+02 -0.72542053472E+01  0.94922440548E+02  0.90001044862E+02 0.  0.
         11    1    3    3    0    0  0.25558505755E+02  0.28710261226E+02  0.11476139191E+02  0.40115060602E+02  0.51100000000E-03 0.  1.
         22    1    1    0    0    0 -0.18901207783E+02  0.22365207185E+02  0.72542053472E+01  0.30167559452E+02  0.00000000000E+00 0. -1.
</event>
<event>
 5    1  0.1044283E-009  0.9118800E+02  0.7815553E-02  0.1125453E+00
         25   -1    0    0    0    0  0.00000000000E+00  0.00000000000E+00  0.99999998245E-14  0.12509000000E+03  0.12509000000E+03 0.  0.
        -11    1    3    3    0    0 -0.15557668132E+02 -0.40854007605E+01 -0.28803685748E+02  0.32990663073E+02  0.51100000000E-03 0.  1.
         23    2    1    0    0    0  0.16643319934E+02  0.29038115808E+01  0.24304381472E+02  0.95490419279E+02  0.90787030986E+02 0.  0.
         11    1    3    3    0    0  0.32200988066E+02  0.69892123412E+01  0.53108067221E+02  0.62499756205E+02  0.51100000000E-03 0. -1.
         22    1    1    0    0    0 -0.16643319934E+02 -0.29038115808E+01 -0.24304381472E+02  0.29599580721E+02  0.00000000000E+00 0. -1.
</event>
<event>
 5    1  0.1044283E-009  0.9118800E+02  0.7815553E-02  0.1125453E+00
         25   -1    0    0    0    0  0.00000000000E+00  0.00000000000E+00  0.99999998245E-14  0.12509000000E+03  0.12509000000E+03 0.  0.
        -11    1    3    3    0    0 -0.55169276361E+01  0.11278083392E+02 -0.35974132200E+02  0.38102097624E+02  0.51100000000E-03 0. -1.
         23    2    1    0    0    0  0.32132452825E+01  0.25148665513E+02  0.17665270677E+02  0.94189480418E+02  0.88976491901E+02 0.  0.
         11    1    3    3    0    0  0.87301729186E+01  0.13870582121E+02  0.53639402877E+02  0.56087382795E+02  0.51100000000E-03 0.  1.
         22    1    1    0    0    0 -0.32132452825E+01 -0.25148665513E+02 -0.17665270677E+02  0.30900519582E+02  0.00000000000E+00 0.  1.
</event>
<event>
 5    1  0.1044283E-009  0.9118800E+02  0.7815553E-02  0.1125453E+00
         25   -1    0    0    0    0  0.00000000000E+00  0.00000000000E+00  0.99999998245E-14  0.12509000000E+03  0.12509000000E+03 0.  0.
        -11    1    3    3    0    0  0.72111496894E+01 -0.21429784129E+02 -0.43914169521E+02  0.49393224360E+02  0.51100000000E-03 0. -1.
         23    2    1    0    0    0  0.52868850284E+01  0.18873936454E+02 -0.23099981236E+02  0.94795020817E+02  0.89823773068E+02 0.  0.
         11    1    3    3    0    0 -0.19242646610E+01  0.40303720584E+02  0.20814188285E+02  0.45401796458E+02  0.51100000000E-03 0.  1.
         22    1    1    0    0    0 -0.52868850284E+01 -0.18873936454E+02  0.23099981236E+02  0.30294979183E+02  0.00000000000E+00 0. -1.
</event>
<event>
 5    1  0.1044283E-009  0.9118800E+02  0.7815553E-02  0.1125453E+00
         25   -1    0    0    0    0  0.00000000000E+00  0.00000000000E+00  0.99999998245E-14  0.12509000000E+03  0.12509000000E+03 0.  0.
        -11    1    3    3    0    0 -0.14404068062E+02  0.31153641442E+02  0.42776786141E+02  0.54844142665E+02  0.51100000000E-03 0.  1.
         23    2    1    0    0    0 -0.24255382850E+02  0.14713928894E+02  0.63297253490E+01  0.96023030366E+02  0.91517941613E+02 0.  0.
         11    1    3    3    0    0 -0.98513147878E+01 -0.16439712548E+02 -0.36447060792E+02  0.41178887702E+02  0.51100000000E-03 0. -1.
         22    1    1    0    0    0  0.24255382850E+02 -0.14713928894E+02 -0.63297253490E+01  0.29066969634E+02  0.00000000000E+00 0.  1.
</event>
<event>
 5    1  0.1044283E-009  0.9118800E+02  0.7815553E-02  0.1125453E+00
         25   -1    0    0    0    0  0.00000000000E+00  0.00000000000E+00  0.99999998245E-14  0.12509000000E+03  0.12509000000E+03 0.  0.
        -11    1    3    3    0    0  0.54360909288E+02  0.26872686218E+02  0.10983772889E+02  0.61627047555E+02  0.51100000000E-03 0.  1.
         23    2    1    0    0    0  0.24663220214E+02  0.10013722170E+02  0.12223745647E+02  0.95798891782E+02  0.91211066466E+02 0.  0.
         11    1    3    3    0    0 -0.29697689074E+02 -0.16858964049E+02  0.12399727578E+01  0.34171844226E+02  0.51100000000E-03 0. -1.
         22    1    1    0    0    0 -0.24663220214E+02 -0.10013722170E+02 -0.12223745647E+02  0.29291108218E+02  0.00000000000E+00 0.  1.
</event>
<event>
 5    1  0.1044283E-009  0.9118800E+02  0.7815553E-02  0.1125453E+00
         25   -1    0    0    0    0  0.00000000000E+00  0.00000000000E+00  0.99999998245E-14  0.12509000000E+03  0.12509000000E+03 0.  0.
        -11    1    3    3    0    0  0.13437749549E+02  0.36900656916E+02  0.88225204218E+01  0.40250074045E+02  0.51100000000E-03 0.  1.
         23    2    1    0    0    0 -0.16064438406E+01 -0.13282638303E+02  0.26386140316E+02  0.95505586150E+02  0.90807926102E+02 0.  0.
         11    1    3    3    0    0 -0.15044193390E+02 -0.50183295219E+02  0.17563619894E+02  0.55255512104E+02  0.51100000000E-03 0. -1.
         22    1    1    0    0    0  0.16064438406E+01  0.13282638303E+02 -0.26386140316E+02  0.29584413850E+02  0.00000000000E+00 0. -1.
</event>
<event>
 5    1  0.1044283E-009  0.9118800E+02  0.7815553E-02  0.1125453E+00
         25   -1    0    0    0    0  0.00000000000E+00  0.00000000000E+00  0.99999998245E-14  0.12509000000E+03  0.12509000000E+03 0.  0.
        -11    1    3    3    0    0  0.34277011662E+01  0.52939597444E+01 -0.39240407604E+02  0.39743989914E+02  0.51100000000E-03 0. -1.
         23    2    1    0    0    0  0.31794218082E+02 -0.88170014592E+01  0.23327258688E+01  0.92013521527E+02  0.85862883224E+02 0.  0.
         11    1    3    3    0    0  0.28366516916E+02 -0.14110961204E+02  0.41573133473E+02  0.52269531613E+02  0.51100000000E-03 0.  1.
         22    1    1    0    0    0 -0.31794218082E+02  0.88170014592E+01 -0.23327258688E+01  0.33076478473E+02  0.00000000000E+00 0.  1.
</event>
<event>
 5    1  0.1044283E-009  0.9118800E+02  0.7815553E-02  0.1125453E+00
         25   -1    0    0    0    0  0.00000000000E+00  0.00000000000E+00  0.99999998245E-14  0.12509000000E+03  0.12509000000E+03 0.  0.
        -11    1    3    3    0    0 -0.45910439684E+00  0.98260397989E+01  0.23231748199E+02  0.25228475174E+02  0.51100000000E-03 0.  1.
         23    2    1    0    0    0  0.84407361406E+01  0.44712129919E+01 -0.37270076398E+02  0.86615380223E+02  0.77601080690E+02 0.  0.
         11    1    3    3    0    0  0.88998405375E+01 -0.53548268070E+01 -0.60501824597E+02  0.61386905049E+02  0.51100000000E-03 0. -1.
         22    1    1    0    0    0 -0.84407361406E+01 -0.44712129919E+01  0.37270076398E+02  0.38474619777E+02  0.00000000000E+00 0. -1.
</event>
<event>
 5    1  0.1044283E-009  0.9118800E+02  0.7815553E-02  0.1125453E+00
         25   -1    0    0    0    0  0.00000000000E+00  0.00000000000E+00  0.99999998245E-14  0.12509000000E+03  0.12509000000E+03 0.  0.
        -11    1    3    3    0    0 -0.12776624230E+02  0.38499008854E+02  0.29645774906E+02  0.50242290747E+02  0.51100000000E-03 0. -1.
         23    2    1    0    0    0 -0.16992727049E+02  0.17214272565E+02 -0.12660539275E+02  0.97788476101E+02  0.93900015180E+02 0.  0.
         11    1    3    3    0    0 -0.42161028186E+01 -0.21284736289E+02 -0.42306314181E+02  0.47546185354E+02  0.51100000000E-03 0.  1.
         22    1    1    0    0    0  0.16992727049E+02 -0.17214272565E+02  0.12660539275E+02  0.27301523899E+02  0.00000000000E+00 0.  1.
</event>
<event>
 5    1  0.1044283E-009  0.9118800E+02  0.7815553E-02  0.1125453E+00
         25   -1    0    0    0    0  0.00000000000E+00  0.00000000000E+00  0.99999998245E-14  0.12509000000E+03  0.12509000000E+03 0.  0.
        -11    1    3    3    0    0  0.13707348768E+02  0.29157128603E+02 -0.36234982944E+02  0.48487148275E+02  0.51100000000E-03 0.  1.
         23    2    1    0    0    0 -0.87956482532E+01  0.27427229554E+02  0.53428016027E+01  0.95795599884E+02  0.91206551733E+02 0.  0.
         11    1    3    3    0    0 -0.22502997021E+02 -0.17298990491E+01  0.41577784547E+02  0.47308451610E+02  0.51100000000E-03 0. -1.
         22    1    1    0    0    0  0.87956482532E+01 -0.27427229554E+02 -0.53428016027E+01  0.29294400116E+02  0.00000000000E+00 0.  1.
</event>
<event>
 5    1  0.1044283E-009  0.9118800E+02  0.7815553E-02  0.1125453E+00
         25   -1    0    0    0    0  0.00000000000E+00  0.00000000000E+00  0.99999998245E-14  0.12509000000E+03  0.12509000000E+03 0.  0.
        -11    1    3    3    0    0 -0.33258637776E+01 -0.22928614549E+02  0.38507739250E+02  0.44940279454E+02  0.51100000000E-03 0. -1.
         23    2    1    0    0    0  0.12442013576E+02  0.20300556201E+02  0.17592991490E+02  0.95485445732E+02  0.90780177975E+02 0.  0.
         11    1    3    3    0    0  0.15767877353E+02  0.43229170750E+02 -0.20914747760E+02  0.50545166278E+02  0.51100000000E-03 0.  1.
         22    1    1    0    0    0 -0.12442013576E+02 -0.20300556201E+02 -0.17592991490E+02  0.29604554268E+02  0.00000000000E+00 0. -1.
</event>
<event>
 5    1  0.1044283E-009  0.9118800E+02  0.7815553E-02  0.1125453E+00
         25   -1    0    0    0    0  0.00000000000E+00  0.00000000000E+00  0.99999998245E-14  0.12509000000E+03  0.12509000000E+03 0.  0.
        -11    1    3    3    0    0 -0.81917078496E+01  0.30915916960E+02 -0.29124816945E+02  0.43256825604E+02  0.51100000000E-03 0. -1.
         23    2    1    0    0    0  0.26230983106E+02  0.12493903008E+02  0.55924370403E+01  0.95502207938E+02  0.90803272418E+02 0.  0.
         11    1    3    3    0    0  0.34422690956E+02 -0.18422013952E+02  0.34717253985E+02  0.52245382334E+02  0.51100000000E-03 0.  1.
         22    1    1    0    0    0 -0.26230983106E+02 -0.12493903008E+02 -0.55924370403E+01  0.29587792062E+02  0.00000000000E+00 0. -1.
</event>
<event>
 5    1  0.1044283E-009  0.9118800E+02  0.7815553E-02  0.1125453E+00
         25   -1    0    0    0    0  0.00000000000E+00  0.00000000000E+00  0.99999998245E-14  0.12509000000E+03  0.12509000000E+03 0.  0.
        -11    1    3    3    0    0 -0.48602292479E+02  0.45015062947E+01  0.37756286947E+02  0.61708861579E+02  0.51100000000E-03 0.  1.
         23    2    1    0    0    0 -0.25457924210E+02  0.55488183162E+01  0.11842049464E+02  0.96469562804E+02  0.92126256421E+02 0.  0.
         11    1    3    3    0    0  0.23144368269E+02  0.10473120215E+01 -0.25914237482E+02  0.34760701224E+02  0.51100000000E-03 0. -1.
         22    1    1    0    0    0  0.25457924210E+02 -0.55488183162E+01 -0.11842049464E+02  0.28620437196E+02  0.00000000000E+00 0.  1.
</event>
<event>
 5    1  0.1044283E-009  0.9118800E+02  0.7815553E-02  0.1125453E+00
         25   -1    0    0    0    0  0.00000000000E+00  0.00000000000E+00  0.99999998245E-14  0.12509000000E+03  0.12509000000E+03 0.  0.
        -11    1    3    3    0    0 -0.19389815065E+00 -0.26603772430E+02 -0.32777812859E+02  0.42215913114E+02  0.51100000000E-03 0.  1.
         23    2    1    0    0    0  0.70103274619E+01  0.22781022648E+02 -0.20596830148E+02  0.93588427084E+02  0.88127433799E+02 0.  0.
         11    1    3    3    0    0  0.72042256126E+01  0.49384795078E+02  0.12180982711E+02  0.51372513970E+02  0.51100000000E-03 0. -1.
         22    1    1    0    0    0 -0.70103274619E+01 -0.22781022648E+02  0.20596830148E+02  0.31501572916E+02  0.00000000000E+00 0.  1.
</event>
<event>
 5    1  0.1044283E-009  0.9118800E+02  0.7815553E-02  0.1125453E+00
         25   -1    0    0    0    0  0.00000000000E+00  0.00000000000E+00  0.99999998245E-14  0.12509000000E+03  0.12509000000E+03 0.  0.
        -11    1    3    3    0    0 -0.17231665943E+02 -0.13160059088E+02  0.31092326373E+02  0.37905807285E+02  0.51100000000E-03 0.  1.
         23    2    1    0    0    0 -0.13020801041E+02  0.39229317540E+01 -0.24966128342E+02  0.96660469267E+02  0.92385107573E+02 0.  0.
         11    1    3    3    0    0  0.42108649021E+01  0.17082990842E+02 -0.56058454715E+02  0.58754661982E+02  0.51100000000E-03 0. -1.
         22    1    1    0    0    0  0.13020801041E+02 -0.39229317540E+01  0.24966128342E+02  0.28429530733E+02  0.00000000000E+00 0. -1.
</event>
<event>
 5    1  0.1044283E-009  0.9118800E+02  0.7815553E-02  0.1125453E+00
         25   -1    0    0    0    0  0.00000000000E+00  0.00000000000E+00  0.99999998245E-14  0.12509000000E+03  0.12509000000E+03 0.  0.
        -11    1    3    3    0    0  0.28159212922E+02 -0.33128544266E+02  0.40937224508E+02  0.59718490170E+02  0.51100000000E-03 0. -1.
         23    2    1    0    0    0  0.89232861366E+01 -0.34243162367E+01  0.24604366930E+02  0.98694435047E+02  0.95099241112E+02 0.  0.
         11    1    3    3    0    0 -0.19235926785E+02  0.29704228029E+02 -0.16332857578E+02  0.38975944876E+02  0.51100000000E-03 0.  1.
         22    1    1    0    0    0 -0.89232861366E+01  0.34243162367E+01 -0.24604366930E+02  0.26395564953E+02  0.00000000000E+00 0. -1.
</event>
<event>
 5    1  0.1044283E-009  0.9118800E+02  0.7815553E-02  0.1125453E+00
         25   -1    0    0    0    0  0.00000000000E+00  0.00000000000E+00  0.99999998245E-14  0.12509000000E+03  0.12509000000E+03 0.  0.
        -11    1    3    3    0    0  0.46831942882E+02 -0.27924754082E+02 -0.24747519216E+02  0.59878731385E+02  0.51100000000E-03 0.  1.
         23    2    1    0    0    0  0.13629006492E+02 -0.22707133854E+02 -0.13798837783E+02  0.95227453726E+02  0.90423980631E+02 0.  0.
         11    1    3    3    0    0 -0.33202936390E+02  0.52176202277E+01  0.10948681433E+02  0.35348722341E+02  0.51100000000E-03 0. -1.
         22    1    1    0    0    0 -0.13629006492E+02  0.22707133854E+02  0.13798837783E+02  0.29862546274E+02  0.00000000000E+00 0.  1.
</event>
<event>
 5    1  0.1044283E-009  0.9118800E+02  0.7815553E-02  0.1125453E+00
         25   -1    0    0    0    0  0.00000000000E+00  0.00000000000E+00  0.99999998245E-14  0.12509000000E+03  0.12509000000E+03 0.  0.
        -11    1    3    3    0    0  0.32153148646E+01 -0.40585745196E+02  0.25536098481E+02  0.48058644266E+02  0.51100000000E-03 0. -1.
         23    2    1    0    0    0 -0.31209573686E+01 -0.17114129772E+02 -0.19327660372E+02  0.99086302797E+02  0.95613299984E+02 0.  0.
         11    1    3    3    0    0 -0.63362722332E+01  0.23471615424E+02 -0.44863758853E+02  0.51027658531E+02  0.51100000000E-03 0.  1.
         22    1    1    0    0    0  0.31209573686E+01  0.17114129772E+02  0.19327660372E+02  0.26003697203E+02  0.00000000000E+00 0. -1.
</event>
<event>
 5    1  0.1044283E-009  0.9118800E+02  0.7815553E-02  0.1125453E+00
         25   -1    0    0    0    0  0.00000000000E+00  0.00000000000E+00  0.99999998245E-14  0.12509000000E+03  0.12509000000E+03 0.  0.
        -11    1    3    3    0    0  0.20419648594E+02 -0.24705877034E+02 -0.18505667715E+02  0.37010838231E+02  0.51100000000E-03 0. -1.
         23    2    1    0    0    0 -0.47032776143E+01 -0.38442268640E+01  0.29445006448E+02  0.95024948774E+02  0.90143405661E+02 0.  0.
         11    1    3    3    0    0 -0.25122926208E+02  0.20861650170E+02  0.47950674163E+02  0.58014110543E+02  0.51100000000E-03 0.  1.
         22    1    1    0    0    0  0.47032776143E+01  0.38442268640E+01 -0.29445006448E+02  0.30065051226E+02  0.00000000000E+00 0.  1.
</event>
<event>
 5    1  0.1044283E-009  0.9118800E+02  0.7815553E-02  0.1125453E+00
         25   -1    0    0    0    0  0.00000000000E+00  0.00000000000E+00  0.99999998245E-14  0.12509000000E+03  0.12509000000E+03 0.  0.
        -11    1    3    3    0    0  0.17435063212E+02  0.30360642563E+02 -0.62850488197E+01  0.35570379320E+02  0.51100000000E-03 0.  1.
         23    2    1    0    0    0  0.60950457841E+01 -0.27961353424E+02  0.49768180277E+01  0.96042528748E+02  0.91544588820E+02 0.  0.
         11    1    3    3    0    0 -0.11340017428E+02 -0.58321995988E+02  0.11261866847E+02  0.60472149428E+02  0.51100000000E-03 0. -1.
         22    1    1    0    0    0 -0.60950457841E+01  0.27961353424E+02 -0.49768180277E+01  0.29047471252E+02  0.00000000000E+00 0. -1.
</event>
<event>
 5    1  0.1044283E-009  0.9118800E+02  0.7815553E-02  0.1125453E+00
         25   -1    0    0    0    0  0.00000000000E+00  0.00000000000E+00  0.99999998245E-14  0.12509000000E+03  0.12509000000E+03 0.  0.
        -11    1    3    3    0    0  0.42385785316E+02  0.68180375284E+01 -0.29063151620E+02  0.51843101903E+02  0.51100000000E-03 0.  1.
         23    2    1    0    0    0  0.95112987316E+01 -0.20629842542E+02 -0.18082440631E+02  0.96055023402E+02  0.91561660398E+02 0.  0.
         11    1    3    3    0    0 -0.32874486584E+02 -0.27447880071E+02  0.10980710989E+02  0.44211921499E+02  0.51100000000E-03 0. -1.
         22    1    1    0    0    0 -0.95112987316E+01  0.20629842542E+02  0.18082440631E+02  0.29034976598E+02  0.00000000000E+00 0. -1.
</event>
<event>
 5    1  0.1044283E-009  0.9118800E+02  0.7815553E-02  0.1125453E+00
         25   -1    0    0    0    0  0.00000000000E+00  0.00000000000E+00  0.99999998245E-14  0.12509000000E+03  0.12509000000E+03 0.  0.
        -11    1    3    3    0    0 -0.44742401579E+02  0.29473377723E+02  0.31446860977E+02  0.62124613150E+02  0.51100000000E-03 0.  1.
         23    2    1    0    0    0 -0.19547728072E+02  0.12563803509E+02  0.19572126317E+02  0.94708575413E+02  0.89703307056E+02 0.  0.
         11    1    3    3    0    0  0.25194673507E+02 -0.16909574214E+02 -0.11874734660E+02  0.32583962263E+02  0.51100000000E-03 0. -1.
         22    1    1    0    0    0  0.19547728072E+02 -0.12563803509E+02 -0.19572126317E+02  0.30381424587E+02  0.00000000000E+00 0.  1.
</event>
<event>
 5    1  0.1044283E-009  0.9118800E+02  0.7815553E-02  0.1125453E+00
         25   -1    0    0    0    0  0.00000000000E+00  0.00000000000E+00  0.99999998245E-14  0.12509000000E+03  0.12509000000E+03 0.  0.
        -11    1    3    3    0    0  0.49473856531E+02 -0.30983293247E+02 -0.34464256709E+01  0.58476531965E+02  0.51100000000E-03 0. -1.
         23    2    1    0    0    0  0.14108232251E+02 -0.27600443396E+02 -0.15979750757E+01  0.94051633142E+02  0.88782484080E+02 0.  0.
         11    1    3    3    0    0 -0.35365624281E+02  0.33828498513E+01  0.18484505951E+01  0.35575101177E+02  0.51100000000E-03 0.  1.
         22    1    1    0    0    0 -0.14108232251E+02  0.27600443396E+02  0.15979750757E+01  0.31038366858E+02  0.00000000000E+00 0. -1.
</event>
<event>
 5    1  0.1044283E-009  0.9118800E+02  0.7815553E-02  0.1125453E+00
         25   -1    0    0    0    0  0.00000000000E+00  0.00000000000E+00  0.99999998245E-14  0.12509000000E+03  0.12509000000E+03 0.  0.
        -11    1    3    3    0    0  0.21166983018E+02 -0.36313342961E+02  0.11380296732E+02  0.43545507243E+02  0.51100000000E-03 0.  1.
         23    2    1    0    0    0 -0.21472708900E+02 -0.31093342601E+02  0.51000601531E+01  0.86960171844E+02  0.78154895508E+02 0.  0.
         11    1    3    3    0    0 -0.42639691918E+02  0.52200003599E+01 -0.62802365789E+01  0.43414664601E+02  0.51100000000E-03 0. -1.
         22    1    1    0    0    0  0.21472708900E+02  0.31093342601E+02 -0.51000601531E+01  0.38129828156E+02  0.00000000000E+00 0.  1.
</event>
<event>
 5    1  0.1044283E-009  0.9118800E+02  0.7815553E-02  0.1125453E+00
         25   -1    0    0    0    0  0.00000000000E+00  0.00000000000E+00  0.99999998245E-14  0.12509000000E+03  0.12509000000E+03 0.  0.
        -11    1    3    3    0    0  0.25775036011E+01 -0.50951718714E+02 -0.26469514862E+02  0.57474832596E+02  0.51100000000E-03 0. -1.
         23    2    1    0    0    0  0.18347960513E+02 -0.20286432184E+02 -0.15447787068E+02  0.93676291034E+02  0.88252061680E+02 0.  0.
         11    1    3    3    0    0  0.15770456911E+02  0.30665286530E+02  0.11021727794E+02  0.36201458437E+02  0.51100000000E-03 0.  1.
         22    1    1    0    0    0 -0.18347960513E+02  0.20286432184E+02  0.15447787068E+02  0.31413708966E+02  0.00000000000E+00 0. -1.
</event>
<event>
 5    1  0.1044283E-009  0.9118800E+02  0.7815553E-02  0.1125453E+00
         25   -1    0    0    0    0  0.00000000000E+00  0.00000000000E+00  0.99999998245E-14  0.12509000000E+03  0.12509000000E+03 0.  0.
        -11    1    3    3    0    0 -0.25008828128E+02  0.43158035449E+02  0.16644108309E+02  0.52584064600E+02  0.51100000000E-03 0.  1.
         23    2    1    0    0    0 -0.22530444296E+02  0.11382079682E+02 -0.13509502584E+02  0.96459957769E+02  0.92113213681E+02 0.  0.
         11    1    3    3    0    0  0.24783838321E+01 -0.31775955767E+02 -0.30153610893E+02  0.43875893170E+02  0.51100000000E-03 0. -1.
         22    1    1    0    0    0  0.22530444296E+02 -0.11382079682E+02  0.13509502584E+02  0.28630042231E+02  0.00000000000E+00 0. -1.
</event>
<event>
 5    1  0.1044283E-009  0.9118800E+02  0.7815553E-02  0.1125453E+00
         25   -1    0    0    0    0  0.00000000000E+00  0.00000000000E+00  0.99999998245E-14  0.12509000000E+03  0.12509000000E+03 0.  0.
        -11    1    3    3    0    0  0.42283870170E+02 -0.22025969642E+01  0.20060463745E+02  0.46852954185E+02  0.51100000000E-03 0. -1.
         23    2    1    0    0    0  0.10720253571E+02  0.26794587179E+02 -0.39179534171E+01  0.95965712923E+02  0.91439564518E+02 0.  0.
         11    1    3    3    0    0 -0.31563616598E+02  0.28997184143E+02 -0.23978417162E+02  0.49112758738E+02  0.51100000000E-03 0.  1.
         22    1    1    0    0    0 -0.10720253571E+02 -0.26794587179E+02  0.39179534171E+01  0.29124287077E+02  0.00000000000E+00 0.  1.
</event>
<event>
 5    1  0.1044283E-009  0.9118800E+02  0.7815553E-02  0.1125453E+00
         25   -1    0    0    0    0  0.00000000000E+00  0.00000000000E+00  0.99999998245E-14  0.12509000000E+03  0.12509000000E+03 0.  0.
        -11    1    3    3    0    0  0.42125402483E+01  0.20740509917E+02 -0.25111931546E+02  0.32840879299E+02  0.51100000000E-03 0.  1.
         23    2    1    0    0    0 -0.12762552044E+02 -0.25128160723E+02  0.12221914939E+02  0.94370585931E+02  0.89230740713E+02 0.  0.
         11    1    3    3    0    0 -0.16975092292E+02 -0.45868670639E+02  0.37333846485E+02  0.61529706631E+02  0.51100000000E-03 0. -1.
         22    1    1    0    0    0  0.12762552044E+02  0.25128160723E+02 -0.12221914939E+02  0.30719414069E+02  0.00000000000E+00 0. -1.
</event>
<event>
 5    1  0.1044283E-009  0.9118800E+02  0.7815553E-02  0.1125453E+00
         25   -1    0    0    0    0  0.00000000000E+00  0.00000000000E+00  0.99999998245E-14  0.12509000000E+03  0.12509000000E+03 0.  0.
        -11    1    3    3    0    0 -0.28969996214E+02  0.49084980780E+02  0.26000217741E+01  0.57055728304E+02  0.51100000000E-03 0.  1.
         23    2    1    0    0    0 -0.23582155000E+02  0.11491610000E+02  0.12096093300E+02  0.96202448910E+02  0.91762849609E+02 0.  0.
         11    1    3    3    0    0  0.53878412139E+01 -0.37593370780E+02  0.94960715256E+01  0.39146720606E+02  0.51100000000E-03 0. -1.
         22    1    1    0    0    0  0.23582155000E+02 -0.11491610000E+02 -0.12096093300E+02  0.28887551090E+02  0.00000000000E+00 0. -1.
</event>
<event>
 5    1  0.1044283E-009  0.9118800E+02  0.7815553E-02  0.1125453E+00
         25   -1    0    0    0    0  0.00000000000E+00  0.00000000000E+00  0.99999998245E-14  0.12509000000E+03  0.12509000000E+03 0.  0.
        -11    1    3    3    0    0  0.23839388149E+02 -0.10134472753E+02 -0.20484517855E+02  0.33024830618E+02  0.51100000000E-03 0.  1.
         23    2    1    0    0    0  0.13929943599E+01 -0.48345029244E+01  0.33229898251E+02  0.91481385188E+02  0.85084104546E+02 0.  0.
         11    1    3    3    0    0 -0.22446393789E+02  0.52999698289E+01  0.53714416106E+02  0.58456554570E+02  0.51100000000E-03 0. -1.
         22    1    1    0    0    0 -0.13929943599E+01  0.48345029244E+01 -0.33229898251E+02  0.33608614812E+02  0.00000000000E+00 0. -1.
</event>
<event>
 5    1  0.1044283E-009  0.9118800E+02  0.7815553E-02  0.1125453E+00
         25   -1    0    0    0    0  0.00000000000E+00  0.00000000000E+00  0.99999998245E-14  0.12509000000E+03  0.12509000000E+03 0.  0.
        -11    1    3    3    0    0 -0.43985736478E+02  0.64255221434E+01  0.27297189309E+02  0.52164824286E+02  0.51100000000E-03 0. -1.
         23    2    1    0    0    0 -0.23456234935E+02 -0.17122286427E+02 -0.32622772916E+01  0.95866548751E+02  0.91303806418E+02 0.  0.
         11    1    3    3    0    0  0.20529501543E+02 -0.23547808570E+02 -0.30559466600E+02  0.43701724465E+02  0.51100000000E-03 0.  1.
         22    1    1    0    0    0  0.23456234935E+02  0.17122286427E+02  0.32622772916E+01  0.29223451249E+02  0.00000000000E+00 0. -1.
</event>
<event>
 5    1  0.1044283E-009  0.9118800E+02  0.7815553E-02  0.1125453E+00
         25   -1    0    0    0    0  0.00000000000E+00  0.00000000000E+00  0.99999998245E-14  0.12509000000E+03  0.12509000000E+03 0.  0.
        -11    1    3    3    0    0  0.10937918116E+02  0.25508592480E+02 -0.34659413428E+02  0.44402717062E+02  0.51100000000E-03 0. -1.
         23    2    1    0    0    0 -0.23114686728E+02 -0.81568355709E+01 -0.16128780336E+02  0.95747875602E+02  0.91141074265E+02 0.  0.
         11    1    3    3    0    0 -0.34052604844E+02 -0.33665428051E+02  0.18530633093E+02  0.51345158541E+02  0.51100000000E-03 0.  1.
         22    1    1    0    0    0  0.23114686728E+02  0.81568355709E+01  0.16128780336E+02  0.29342124398E+02  0.00000000000E+00 0.  1.
</event>
<event>
 5    1  0.1044283E-009  0.9118800E+02  0.7815553E-02  0.1125453E+00
         25   -1    0    0    0    0  0.00000000000E+00  0.00000000000E+00  0.99999998245E-14  0.12509000000E+03  0.12509000000E+03 0.  0.
        -11    1    3    3    0    0 -0.13833895270E+02 -0.33494421607E+02  0.67187909318E+01  0.36856411776E+02  0.51100000000E-03 0.  1.
         23    2    1    0    0    0  0.17986291721E+01  0.21445785763E+02 -0.15941310775E+02  0.98307875680E+02  0.94589408697E+02 0.  0.
         11    1    3    3    0    0  0.15632524442E+02  0.54940207370E+02 -0.22660101706E+02  0.61451463904E+02  0.51100000000E-03 0. -1.
         22    1    1    0    0    0 -0.17986291721E+01 -0.21445785763E+02  0.15941310775E+02  0.26782124320E+02  0.00000000000E+00 0. -1.
</event>
<event>
 5    1  0.1044283E-009  0.9118800E+02  0.7815553E-02  0.1125453E+00
         25   -1    0    0    0    0  0.00000000000E+00  0.00000000000E+00  0.99999998245E-14  0.12509000000E+03  0.12509000000E+03 0.  0.
        -11    1    3    3    0    0 -0.20347246848E+02  0.24169584731E+02  0.13273286262E+02  0.34268927745E+02  0.51100000000E-03 0.  1.
         23    2    1    0    0    0  0.18037264508E+02 -0.21932133564E+02  0.11973157704E+02  0.94272506607E+02  0.89093140045E+02 0.  0.
         11    1    3    3    0    0  0.38384511356E+02 -0.46101718295E+02 -0.13001285573E+01  0.60003578862E+02  0.51100000000E-03 0. -1.
         22    1    1    0    0    0 -0.18037264508E+02  0.21932133564E+02 -0.11973157704E+02  0.30817493393E+02  0.00000000000E+00 0. -1.
</event>
<event>
 5    1  0.1044283E-009  0.9118800E+02  0.7815553E-02  0.1125453E+00
         25   -1    0    0    0    0  0.00000000000E+00  0.00000000000E+00  0.99999998245E-14  0.12509000000E+03  0.12509000000E+03 0.  0.
        -11    1    3    3    0    0 -0.22287419866E+02  0.15136058969E+02  0.35485433867E+02  0.44553848121E+02  0.51100000000E-03 0. -1.
         23    2    1    0    0    0 -0.16392246742E+02 -0.23493273129E+02  0.13974358746E+01  0.96409127234E+02  0.92044159790E+02 0.  0.
         11    1    3    3    0    0  0.58951731238E+01 -0.38629332098E+02 -0.34087997993E+02  0.51855279113E+02  0.51100000000E-03 0.  1.
         22    1    1    0    0    0  0.16392246742E+02  0.23493273129E+02 -0.13974358746E+01  0.28680872766E+02  0.00000000000E+00 0.  1.
</event>
<event>
 5    1  0.1044283E-009  0.9118800E+02  0.7815553E-02  0.1125453E+00
         25   -1    0    0    0    0  0.00000000000E+00  0.00000000000E+00  0.99999998245E-14  0.12509000000E+03  0.12509000000E+03 0.  0.
        -11    1    3    3    0    0 -0.27214265531E+02  0.41756444530E+02 -0.28262918279E+02  0.57297551938E+02  0.51100000000E-03 0.  1.
         23    2    1    0    0    0  0.75791770072E+00  0.15569965331E+02 -0.24835952326E+02  0.95767265005E+02  0.91167682097E+02 0.  0.
         11    1    3    3    0    0  0.27972183231E+02 -0.26186479199E+02  0.34269659531E+01  0.38469713067E+02  0.51100000000E-03 0. -1.
         22    1    1    0    0    0 -0.75791770072E+00 -0.15569965331E+02  0.24835952326E+02  0.29322734995E+02  0.00000000000E+00 0.  1.
</event>
<event>
 5    1  0.1044283E-009  0.9118800E+02  0.7815553E-02  0.1125453E+00
         25   -1    0    0    0    0  0.00000000000E+00  0.00000000000E+00  0.99999998245E-14  0.12509000000E+03  0.12509000000E+03 0.  0.
        -11    1    3    3    0    0 -0.51061221852E+01 -0.36401194316E+02  0.45107290322E+02  0.58187516461E+02  0.51100000000E-03 0. -1.
         23    2    1    0    0    0  0.60660337743E+01 -0.27685628592E+02  0.11789229349E+02  0.94393473732E+02  0.89262820694E+02 0.  0.
         11    1    3    3    0    0  0.11172155959E+02  0.87155657241E+01 -0.33318060973E+02  0.36205957271E+02  0.51100000000E-03 0.  1.
         22    1    1    0    0    0 -0.60660337743E+01  0.27685628592E+02 -0.11789229349E+02  0.30696526268E+02  0.00000000000E+00 0. -1.
</event>
<event>
 5    1  0.1044283E-009  0.9118800E+02  0.7815553E-02  0.1125453E+00
         25   -1    0    0    0    0  0.00000000000E+00  0.00000000000E+00  0.99999998245E-14  0.12509000000E+03  0.12509000000E+03 0.  0.
        -11    1    3    3    0    0  0.68637443814E+01 -0.43722637131E+02 -0.11193446055E+02  0.45651650785E+02  0.51100000000E-03 0.  1.
         23    2    1    0    0    0 -0.97685152033E+01 -0.86146864754E+01 -0.32583698777E+02  0.89999628980E+02  0.82877011759E+02 0.  0.
         11    1    3    3    0    0 -0.16632259585E+02  0.35107950655E+02 -0.21390252723E+02  0.44347978194E+02  0.51100000000E-03 0. -1.
         22    1    1    0    0    0  0.97685152033E+01  0.86146864754E+01  0.32583698777E+02  0.35090371020E+02  0.00000000000E+00 0.  1.
</event>
<event>
 5    1  0.1044283E-009  0.9118800E+02  0.7815553E-02  0.1125453E+00
         25   -1    0    0    0    0  0.00000000000E+00  0.00000000000E+00  0.99999998245E-14  0.12509000000E+03  0.12509000000E+03 0.  0.
        -11    1    3    3    0    0 -0.32558714704E+02 -0.23244283183E+02 -0.26704140149E-01  0.40004591202E+02  0.51100000000E-03 0. -1.
         23    2    1    0    0    0 -0.15819854499E+02  0.27451115283E+02 -0.77506168093E+00  0.93397220897E+02  0.87855612366E+02 0.  0.
         11    1    3    3    0    0  0.16738860205E+02  0.50695398465E+02 -0.74835754078E+00  0.53392629696E+02  0.51100000000E-03 0.  1.
         22    1    1    0    0    0  0.15819854499E+02 -0.27451115283E+02  0.77506168093E+00  0.31692779103E+02  0.00000000000E+00 0.  1.
</event>
<event>
 5    1  0.1044283E-009  0.9118800E+02  0.7815553E-02  0.1125453E+00
         25   -1    0    0    0    0  0.00000000000E+00  0.00000000000E+00  0.99999998245E-14  0.12509000000E+03  0.12509000000E+03 0.  0.
        -11    1    3    3    0    0 -0.17982836793E+02 -0.28800511136E+02  0.50034739518E+02  0.60467569984E+02  0.51100000000E-03 0.  1.
         23    2    1    0    0    0 -0.18527897351E+02 -0.91127795250E+01  0.20291786998E+02  0.96140348008E+02  0.91678155329E+02 0.  0.
         11    1    3    3    0    0 -0.54506055832E+00  0.19687731611E+02 -0.29742952521E+02  0.35672778024E+02  0.51100000000E-03 0. -1.
         22    1    1    0    0    0  0.18527897351E+02  0.91127795250E+01 -0.20291786998E+02  0.28949651992E+02  0.00000000000E+00 0.  1.
</event>
<event>
 5    1  0.1044283E-009  0.9118800E+02  0.7815553E-02  0.1125453E+00
         25   -1    0    0    0    0  0.00000000000E+00  0.00000000000E+00  0.99999998245E-14  0.12509000000E+03  0.12509000000E+03 0.  0.
        -11    1    3    3    0    0  0.22283145166E+02 -0.21486326703E+02  0.34805526016E+02  0.46579238242E+02  0.51100000000E-03 0.  1.
         23    2    1    0    0    0  0.23514459883E+02 -0.15404729203E+02 -0.12525044925E+02  0.94314811036E+02  0.89152517210E+02 0.  0.
         11    1    3    3    0    0  0.12313147174E+01  0.60815974998E+01 -0.47330570941E+02  0.47735572794E+02  0.51100000000E-03 0. -1.
         22    1    1    0    0    0 -0.23514459883E+02  0.15404729203E+02  0.12525044925E+02  0.30775188964E+02  0.00000000000E+00 0. -1.
</event>
<event>
 5    1  0.1044283E-009  0.9118800E+02  0.7815553E-02  0.1125453E+00
         25   -1    0    0    0    0  0.00000000000E+00  0.00000000000E+00  0.99999998245E-14  0.12509000000E+03  0.12509000000E+03 0.  0.
        -11    1    3    3    0    0 -0.17948355947E+02  0.12208842409E+01 -0.45420010265E+02  0.48852956638E+02  0.51100000000E-03 0.  1.
         23    2    1    0    0    0 -0.27753082481E+02  0.34892688992E+01  0.17299795178E+01  0.97064985927E+02  0.92931211545E+02 0.  0.
         11    1    3    3    0    0 -0.98047265348E+01  0.22683846583E+01  0.47149989783E+02  0.48212029289E+02  0.51100000000E-03 0. -1.
         22    1    1    0    0    0  0.27753082481E+02 -0.34892688992E+01 -0.17299795178E+01  0.28025014073E+02  0.00000000000E+00 0.  1.
</event>
<event>
 5    1  0.1044283E-009  0.9118800E+02  0.7815553E-02  0.1125453E+00
         25   -1    0    0    0    0  0.00000000000E+00  0.00000000000E+00  0.99999998245E-14  0.12509000000E+03  0.12509000000E+03 0.  0.
        -11    1    3    3    0    0 -0.18978657102E+02 -0.32871247411E+02  0.77901203230E+00  0.37964657140E+02  0.51100000000E-03 0.  1.
         23    2    1    0    0    0 -0.40505359672E+01  0.18802753983E+02 -0.21552143719E+02  0.96203233170E+02  0.91763918697E+02 0.  0.
         11    1    3    3    0    0  0.14928121135E+02  0.51674001393E+02 -0.22331155752E+02  0.58238576031E+02  0.51100000000E-03 0. -1.
         22    1    1    0    0    0  0.40505359672E+01 -0.18802753983E+02  0.21552143719E+02  0.28886766830E+02  0.00000000000E+00 0. -1.
</event>
<event>
 5    1  0.1044283E-009  0.9118800E+02  0.7815553E-02  0.1125453E+00
         25   -1    0    0    0    0  0.00000000000E+00  0.00000000000E+00  0.99999998245E-14  0.12509000000E+03  0.12509000000E+03 0.  0.
        -11    1    3    3    0    0 -0.29780530076E+02 -0.82461545383E+01 -0.20397281319E+02  0.37026046531E+02  0.51100000000E-03 0.  1.
         23    2    1    0    0    0  0.13430002614E+02 -0.15187110630E+02  0.20019349431E+02  0.96598112538E+02  0.92300637564E+02 0.  0.
         11    1    3    3    0    0  0.43210532690E+02 -0.69409560917E+01  0.40416630750E+02  0.59572066007E+02  0.51100000000E-03 0. -1.
         22    1    1    0    0    0 -0.13430002614E+02  0.15187110630E+02 -0.20019349431E+02  0.28491887462E+02  0.00000000000E+00 0. -1.
</event>
<event>
 5    1  0.1044283E-009  0.9118800E+02  0.7815553E-02  0.1125453E+00
         25   -1    0    0    0    0  0.00000000000E+00  0.00000000000E+00  0.99999998245E-14  0.12509000000E+03  0.12509000000E+03 0.  0.
        -11    1    3    3    0    0  0.14393075831E+01 -0.15342637691E+02  0.55456496693E+02  0.57557720276E+02  0.51100000000E-03 0. -1.
         23    2    1    0    0    0 -0.15259794687E+02  0.54558391029E+00  0.25680394263E+02  0.95212890950E+02  0.90403832650E+02 0.  0.
         11    1    3    3    0    0 -0.16699102270E+02  0.15888221601E+02 -0.29776102430E+02  0.37655170674E+02  0.51100000000E-03 0.  1.
         22    1    1    0    0    0  0.15259794687E+02 -0.54558391029E+00 -0.25680394263E+02  0.29877109050E+02  0.00000000000E+00 0. -1.
</event>
<event>
 5    1  0.1044283E-009  0.9118800E+02  0.7815553E-02  0.1125453E+00
         25   -1    0    0    0    0  0.00000000000E+00  0.00000000000E+00  0.99999998245E-14  0.12509000000E+03  0.12509000000E+03 0.  0.
        -11    1    3    3    0    0 -0.25726784753E+02  0.31217383637E+01  0.22206555733E+02  0.34128343381E+02  0.51100000000E-03 0. -1.
         23    2    1    0    0    0  0.30325563095E+02  0.23445977565E+01  0.16529068597E+02  0.90472850719E+02  0.83588215036E+02 0.  0.
         11    1    3    3    0    0  0.56052347848E+02 -0.77714060719E+00 -0.56774871359E+01  0.56344507338E+02  0.51100000000E-03 0.  1.
         22    1    1    0    0    0 -0.30325563095E+02 -0.23445977565E+01 -0.16529068597E+02  0.34617149281E+02  0.00000000000E+00 0.  1.
</event>
<event>
 5    1  0.1044283E-009  0.9118800E+02  0.7815553E-02  0.1125453E+00
         25   -1    0    0    0    0  0.00000000000E+00  0.00000000000E+00  0.99999998245E-14  0.12509000000E+03  0.12509000000E+03 0.  0.
        -11    1    3    3    0    0 -0.50083207490E+01 -0.21217294166E+02 -0.26460414542E+02  0.34284258581E+02  0.51100000000E-03 0.  1.
         23    2    1    0    0    0 -0.69784104612E+01  0.11544148633E+02  0.25788626750E+02  0.95986411735E+02  0.91467876262E+02 0.  0.
         11    1    3    3    0    0 -0.19700897122E+01  0.32761442799E+02  0.52249041292E+02  0.61702153155E+02  0.51100000000E-03 0. -1.
         22    1    1    0    0    0  0.69784104612E+01 -0.11544148633E+02 -0.25788626750E+02  0.29103588265E+02  0.00000000000E+00 0. -1.
</event>
<event>
 5    1  0.1044283E-009  0.9118800E+02  0.7815553E-02  0.1125453E+00
         25   -1    0    0    0    0  0.00000000000E+00  0.00000000000E+00  0.99999998245E-14  0.12509000000E+03  0.12509000000E+03 0.  0.
        -11    1    3    3    0    0  0.30364356285E+02 -0.36014914231E+01 -0.52427816053E+02  0.60693004287E+02  0.51100000000E-03 0. -1.
         23    2    1    0    0    0  0.13352540031E+02 -0.12224939334E+02 -0.29005838402E+02  0.90898215484E+02  0.84222369058E+02 0.  0.
         11    1    3    3    0    0 -0.17011816253E+02 -0.86234479106E+01  0.23421977651E+02  0.30205211197E+02  0.51100000000E-03 0.  1.
         22    1    1    0    0    0 -0.13352540031E+02  0.12224939334E+02  0.29005838402E+02  0.34191784516E+02  0.00000000000E+00 0. -1.
</event>
<event>
 5    1  0.1044283E-009  0.9118800E+02  0.7815553E-02  0.1125453E+00
         25   -1    0    0    0    0  0.00000000000E+00  0.00000000000E+00  0.99999998245E-14  0.12509000000E+03  0.12509000000E+03 0.  0.
        -11    1    3    3    0    0  0.30448656912E+02 -0.47521323610E+02 -0.38484664829E+01  0.56570377406E+02  0.51100000000E-03 0.  1.
         23    2    1    0    0    0  0.19550860298E+01 -0.24539710478E+02 -0.16672289827E+02  0.95358114762E+02  0.90604553148E+02 0.  0.
         11    1    3    3    0    0 -0.28493570882E+02  0.22981613132E+02 -0.12823823344E+02  0.38787737356E+02  0.51100000000E-03 0. -1.
         22    1    1    0    0    0 -0.19550860298E+01  0.24539710478E+02  0.16672289827E+02  0.29731885238E+02  0.00000000000E+00 0.  1.
</event>
<event>
 5    1  0.1044283E-009  0.9118800E+02  0.7815553E-02  0.1125453E+00
         25   -1    0    0    0    0  0.00000000000E+00  0.00000000000E+00  0.99999998245E-14  0.12509000000E+03  0.12509000000E+03 0.  0.
        -11    1    3    3    0    0 -0.37150210535E+02  0.34553450147E+02 -0.22986366380E+02  0.55699659779E+02  0.51100000000E-03 0. -1.
         23    2    1    0    0    0 -0.10691169977E+01  0.18077204742E+02 -0.23567241374E+02  0.95368909703E+02  0.90619455579E+02 0.  0.
         11    1    3    3    0    0  0.36081093537E+02 -0.16476245405E+02 -0.58087499473E+00  0.39669249924E+02  0.51100000000E-03 0.  1.
         22    1    1    0    0    0  0.10691169977E+01 -0.18077204742E+02  0.23567241374E+02  0.29721090297E+02  0.00000000000E+00 0. -1.
</event>
<event>
 5    1  0.1044283E-009  0.9118800E+02  0.7815553E-02  0.1125453E+00
         25   -1    0    0    0    0  0.00000000000E+00  0.00000000000E+00  0.99999998245E-14  0.12509000000E+03  0.12509000000E+03 0.  0.
        -11    1    3    3    0    0 -0.20309618845E+02  0.15009237672E+02 -0.50621363053E+02  0.56571019354E+02  0.51100000000E-03 0.  1.
         23    2    1    0    0    0 -0.21103601335E+02 -0.80509002225E+01 -0.19938943058E+02  0.94961268961E+02  0.90054995246E+02 0.  0.
         11    1    3    3    0    0 -0.79398249056E+00 -0.23060137895E+02  0.30682419995E+02  0.38390249607E+02  0.51100000000E-03 0. -1.
         22    1    1    0    0    0  0.21103601335E+02  0.80509002225E+01  0.19938943058E+02  0.30128731039E+02  0.00000000000E+00 0.  1.
</event>
<event>
 5    1  0.1044283E-009  0.9118800E+02  0.7815553E-02  0.1125453E+00
         25   -1    0    0    0    0  0.00000000000E+00  0.00000000000E+00  0.99999998245E-14  0.12509000000E+03  0.12509000000E+03 0.  0.
        -11    1    3    3    0    0 -0.32441868282E+02  0.49208184145E+02  0.18133768707E+02  0.61666472027E+02  0.51100000000E-03 0. -1.
         23    2    1    0    0    0 -0.13740644468E+02  0.26041839418E+02  0.18836081356E+01  0.95585242921E+02  0.90917588914E+02 0.  0.
         11    1    3    3    0    0  0.18701223814E+02 -0.23166344726E+02 -0.16250160572E+02  0.33918770894E+02  0.51100000000E-03 0.  1.
         22    1    1    0    0    0  0.13740644468E+02 -0.26041839418E+02 -0.18836081356E+01  0.29504757079E+02  0.00000000000E+00 0. -1.
</event>
<event>
 5    1  0.1044283E-009  0.9118800E+02  0.7815553E-02  0.1125453E+00
         25   -1    0    0    0    0  0.00000000000E+00  0.00000000000E+00  0.99999998245E-14  0.12509000000E+03  0.12509000000E+03 0.  0.
        -11    1    3    3    0    0 -0.31774515555E+02  0.14528297595E+02 -0.73568804658E+01  0.35704550974E+02  0.51100000000E-03 0.  1.
         23    2    1    0    0    0  0.26233816743E+02  0.15974413725E+02  0.11641191940E+01  0.94353210834E+02  0.89206379740E+02 0.  0.
         11    1    3    3    0    0  0.58008332298E+02  0.14461161296E+01  0.85209996598E+01  0.58648659860E+02  0.51100000000E-03 0. -1.
         22    1    1    0    0    0 -0.26233816743E+02 -0.15974413725E+02 -0.11641191940E+01  0.30736789166E+02  0.00000000000E+00 0. -1.
</event>
<event>
 5    1  0.1044283E-009  0.9118800E+02  0.7815553E-02  0.1125453E+00
         25   -1    0    0    0    0  0.00000000000E+00  0.00000000000E+00  0.99999998245E-14  0.12509000000E+03  0.12509000000E+03 0.  0.
        -11    1    3    3    0    0  0.37135820877E+02  0.39621082664E+02  0.53476049961E+01  0.54566438982E+02  0.51100000000E-03 0. -1.
         23    2    1    0    0    0  0.29383930195E+02 -0.16080084124E-01 -0.20828444132E+01  0.95632337956E+02  0.90982362080E+02 0.  0.
         11    1    3    3    0    0 -0.77518906825E+01 -0.39637162748E+02 -0.74304494092E+01  0.41065898974E+02  0.51100000000E-03 0.  1.
         22    1    1    0    0    0 -0.29383930195E+02  0.16080084124E-01  0.20828444132E+01  0.29457662044E+02  0.00000000000E+00 0. -1.
</event>
<event>
 5    1  0.1044283E-009  0.9118800E+02  0.7815553E-02  0.1125453E+00
         25   -1    0    0    0    0  0.00000000000E+00  0.00000000000E+00  0.99999998245E-14  0.12509000000E+03  0.12509000000E+03 0.  0.
        -11    1    3    3    0    0 -0.17025661436E+02  0.24212050595E+02 -0.21625056636E+02  0.36657054111E+02  0.51100000000E-03 0. -1.
         23    2    1    0    0    0 -0.94071452225E+01 -0.21615637373E+02  0.16134312037E+02  0.96523477895E+02  0.92199433836E+02 0.  0.
         11    1    3    3    0    0  0.76185162130E+01 -0.45827687968E+02  0.37759368673E+02  0.59866423784E+02  0.51100000000E-03 0.  1.
         22    1    1    0    0    0  0.94071452225E+01  0.21615637373E+02 -0.16134312037E+02  0.28566522105E+02  0.00000000000E+00 0.  1.
</event>
<event>
 5    1  0.1044283E-009  0.9118800E+02  0.7815553E-02  0.1125453E+00
         25   -1    0    0    0    0  0.00000000000E+00  0.00000000000E+00  0.99999998245E-14  0.12509000000E+03  0.12509000000E+03 0.  0.
        -11    1    3    3    0    0  0.58339283091E+02  0.19071762674E+02 -0.42556397885E+01  0.61524910023E+02  0.51100000000E-03 0.  1.
         23    2    1    0    0    0  0.23690699628E+02  0.13637467146E+02  0.37481072743E+01  0.97498732048E+02  0.93513232667E+02 0.  0.
         11    1    3    3    0    0 -0.34648583462E+02 -0.54342955276E+01  0.80037470628E+01  0.35973822026E+02  0.51100000000E-03 0. -1.
         22    1    1    0    0    0 -0.23690699628E+02 -0.13637467146E+02 -0.37481072743E+01  0.27591267952E+02  0.00000000000E+00 0.  1.
</event>
<event>
 5    1  0.1044283E-009  0.9118800E+02  0.7815553E-02  0.1125453E+00
         25   -1    0    0    0    0  0.00000000000E+00  0.00000000000E+00  0.99999998245E-14  0.12509000000E+03  0.12509000000E+03 0.  0.
        -11    1    3    3    0    0  0.57177158358E+01  0.16846233230E+02  0.29536017189E+02  0.34479909513E+02  0.51100000000E-03 0.  1.
         23    2    1    0    0    0  0.37368736851E+01  0.15152000437E+02 -0.28512010519E+02  0.92586429642E+02  0.86693511106E+02 0.  0.
         11    1    3    3    0    0 -0.19808421507E+01 -0.16942327937E+01 -0.58048027708E+02  0.58106520128E+02  0.51100000000E-03 0. -1.
         22    1    1    0    0    0 -0.37368736851E+01 -0.15152000437E+02  0.28512010519E+02  0.32503570358E+02  0.00000000000E+00 0. -1.
</event>
<event>
 5    1  0.1044283E-009  0.9118800E+02  0.7815553E-02  0.1125453E+00
         25   -1    0    0    0    0  0.00000000000E+00  0.00000000000E+00  0.99999998245E-14  0.12509000000E+03  0.12509000000E+03 0.  0.
        -11    1    3    3    0    0  0.37793183341E+02 -0.14676151102E+02  0.13536761016E+02  0.42742929441E+02  0.51100000000E-03 0.  1.
         23    2    1    0    0    0  0.16541719694E+02  0.22172259155E+02  0.26059763145E+02  0.87085410519E+02  0.78355088562E+02 0.  0.
         11    1    3    3    0    0 -0.21251463646E+02  0.36848410256E+02  0.12523002129E+02  0.44342481077E+02  0.51100000000E-03 0. -1.
         22    1    1    0    0    0 -0.16541719694E+02 -0.22172259155E+02 -0.26059763145E+02  0.38004589481E+02  0.00000000000E+00 0. -1.
</event>
<event>
 5    1  0.1044283E-009  0.9118800E+02  0.7815553E-02  0.1125453E+00
         25   -1    0    0    0    0  0.00000000000E+00  0.00000000000E+00  0.99999998245E-14  0.12509000000E+03  0.12509000000E+03 0.  0.
        -11    1    3    3    0    0  0.12937893196E+02 -0.14724440189E+02  0.29464640984E+02  0.35388745213E+02  0.51100000000E-03 0. -1.
         23    2    1    0    0    0 -0.80816348766E+01  0.24185265804E+02 -0.12796998741E+02  0.96559260769E+02  0.92247968862E+02 0.  0.
         11    1    3    3    0    0 -0.21019528072E+02  0.38909705993E+02 -0.42261639725E+02  0.61170515556E+02  0.51100000000E-03 0.  1.
         22    1    1    0    0    0  0.80816348766E+01 -0.24185265804E+02  0.12796998741E+02  0.28530739231E+02  0.00000000000E+00 0.  1.
</event>
<event>
 5    1  0.1044283E-009  0.9118800E+02  0.7815553E-02  0.1125453E+00
         25   -1    0    0    0    0  0.00000000000E+00  0.00000000000E+00  0.99999998245E-14  0.12509000000E+03  0.12509000000E+03 0.  0.
        -11    1    3    3    0    0 -0.11193732067E+02 -0.17605776635E+02  0.31195991036E+02  0.37529360046E+02  0.51100000000E-03 0. -1.
         23    2    1    0    0    0  0.27382474062E+02 -0.10630657816E+02 -0.96773087673E+01  0.94163295094E+02  0.88939670938E+02 0.  0.
         11    1    3    3    0    0  0.38576206130E+02  0.69751188189E+01 -0.40873299803E+02  0.56633935047E+02  0.51100000000E-03 0.  1.
         22    1    1    0    0    0 -0.27382474062E+02  0.10630657816E+02  0.96773087673E+01  0.30926704906E+02  0.00000000000E+00 0.  1.
</event>
<event>
 5    1  0.1044283E-009  0.9118800E+02  0.7815553E-02  0.1125453E+00
         25   -1    0    0    0    0  0.00000000000E+00  0.00000000000E+00  0.99999998245E-14  0.12509000000E+03  0.12509000000E+03 0.  0.
        -11    1    3    3    0    0 -0.11554926032E+01  0.37944476218E+02  0.98107719426E+01  0.39209306102E+02  0.51100000000E-03 0.  1.
         23    2    1    0    0    0  0.13246319154E+02 -0.16633326627E+02  0.19211996842E+02  0.96432830767E+02  0.92076367767E+02 0.  0.
         11    1    3    3    0    0  0.14401811758E+02 -0.54577802844E+02  0.94012248993E+01  0.57223524665E+02  0.51100000000E-03 0. -1.
         22    1    1    0    0    0 -0.13246319154E+02  0.16633326627E+02 -0.19211996842E+02  0.28657169233E+02  0.00000000000E+00 0. -1.
</event>
<event>
 5    1  0.1044283E-009  0.9118800E+02  0.7815553E-02  0.1125453E+00
         25   -1    0    0    0    0  0.00000000000E+00  0.00000000000E+00  0.99999998245E-14  0.12509000000E+03  0.12509000000E+03 0.  0.
        -11    1    3    3    0    0  0.41980857086E+02 -0.13530888707E+01 -0.22484731294E+02  0.47642274849E+02  0.51100000000E-03 0. -1.
         23    2    1    0    0    0  0.10036409004E+02 -0.27872853747E+02  0.12000441122E+01  0.95440959753E+02  0.90718858078E+02 0.  0.
         11    1    3    3    0    0 -0.31944448082E+02 -0.26519764876E+02  0.23684775406E+02  0.47798684905E+02  0.51100000000E-03 0.  1.
         22    1    1    0    0    0 -0.10036409004E+02  0.27872853747E+02 -0.12000441122E+01  0.29649040247E+02  0.00000000000E+00 0.  1.
</event>
<event>
 5    1  0.1044283E-009  0.9118800E+02  0.7815553E-02  0.1125453E+00
         25   -1    0    0    0    0  0.00000000000E+00  0.00000000000E+00  0.99999998245E-14  0.12509000000E+03  0.12509000000E+03 0.  0.
        -11    1    3    3    0    0 -0.10682738631E+02 -0.40328247381E+02  0.10186568157E+02  0.42944785627E+02  0.51100000000E-03 0. -1.
         23    2    1    0    0    0  0.25889304355E+02  0.64645713431E+00 -0.16942540216E+01  0.99137264431E+02  0.95679949390E+02 0.  0.
         11    1    3    3    0    0  0.36572042986E+02  0.40974704515E+02 -0.11880822179E+02  0.56192478804E+02  0.51100000000E-03 0.  1.
         22    1    1    0    0    0 -0.25889304355E+02 -0.64645713431E+00  0.16942540216E+01  0.25952735569E+02  0.00000000000E+00 0.  1.
</event>
<event>
 5    1  0.1044283E-009  0.9118800E+02  0.7815553E-02  0.1125453E+00
         25   -1    0    0    0    0  0.00000000000E+00  0.00000000000E+00  0.99999998245E-14  0.12509000000E+03  0.12509000000E+03 0.  0.
        -11    1    3    3    0    0  0.11151267489E+02 -0.33115941291E+02  0.16268983288E+02  0.38544729234E+02  0.51100000000E-03 0.  1.
         23    2    1    0    0    0 -0.29296965303E+02  0.40526971968E+01  0.12754694115E+01  0.95486565187E+02  0.90781720508E+02 0.  0.
         11    1    3    3    0    0 -0.40448232792E+02  0.37168638488E+02 -0.14993513876E+02  0.56941835953E+02  0.51100000000E-03 0. -1.
         22    1    1    0    0    0  0.29296965303E+02 -0.40526971968E+01 -0.12754694115E+01  0.29603434813E+02  0.00000000000E+00 0. -1.
</event>
<event>
 5    1  0.1044283E-009  0.9118800E+02  0.7815553E-02  0.1125453E+00
         25   -1    0    0    0    0  0.00000000000E+00  0.00000000000E+00  0.99999998245E-14  0.12509000000E+03  0.12509000000E+03 0.  0.
        -11    1    3    3    0    0 -0.27704538759E+02 -0.18118845299E+02  0.14033574877E+02  0.35955183866E+02  0.51100000000E-03 0. -1.
         23    2    1    0    0    0  0.26396837384E+02  0.77473558260E+01  0.90528777115E+01  0.96128488626E+02  0.91661972401E+02 0.  0.
         11    1    3    3    0    0  0.54101376143E+02  0.25866201125E+02 -0.49806971650E+01  0.60173304760E+02  0.51100000000E-03 0.  1.
         22    1    1    0    0    0 -0.26396837384E+02 -0.77473558260E+01 -0.90528777115E+01  0.28961511374E+02  0.00000000000E+00 0.  1.
</event>
<event>
 5    1  0.1044283E-009  0.9118800E+02  0.7815553E-02  0.1125453E+00
         25   -1    0    0    0    0  0.00000000000E+00  0.00000000000E+00  0.99999998245E-14  0.12509000000E+03  0.12509000000E+03 0.  0.
        -11    1    3    3    0    0 -0.32243166010E+02 -0.25709491778E+02  0.38318261029E+01  0.41415970511E+02  0.51100000000E-03 0. -1.
         23    2    1    0    0    0  0.20139449329E+02 -0.19455954662E+02 -0.89411677847E+01  0.95694829096E+02  0.91068239487E+02 0.  0.
         11    1    3    3    0    0  0.52382615339E+02  0.62535371163E+01 -0.12772993888E+02  0.54278858585E+02  0.51100000000E-03 0.  1.
         22    1    1    0    0    0 -0.20139449329E+02  0.19455954662E+02  0.89411677847E+01  0.29395170904E+02  0.00000000000E+00 0.  1.
</event>
<event>
 5    1  0.1044283E-009  0.9118800E+02  0.7815553E-02  0.1125453E+00
         25   -1    0    0    0    0  0.00000000000E+00  0.00000000000E+00  0.99999998245E-14  0.12509000000E+03  0.12509000000E+03 0.  0.
        -11    1    3    3    0    0  0.40966260756E+02 -0.15072414424E+02 -0.54970137177E+01  0.43995787946E+02  0.51100000000E-03 0.  1.
         23    2    1    0    0    0  0.13158819509E+02  0.19362048333E+02  0.19318234618E+02  0.94738103268E+02  0.89744473788E+02 0.  0.
         11    1    3    3    0    0 -0.27807441247E+02  0.34434462757E+02  0.24815248336E+02  0.50742315322E+02  0.51100000000E-03 0. -1.
         22    1    1    0    0    0 -0.13158819509E+02 -0.19362048333E+02 -0.19318234618E+02  0.30351896732E+02  0.00000000000E+00 0.  1.
</event>
<event>
 5    1  0.1044283E-009  0.9118800E+02  0.7815553E-02  0.1125453E+00
         25   -1    0    0    0    0  0.00000000000E+00  0.00000000000E+00  0.99999998245E-14  0.12509000000E+03  0.12509000000E+03 0.  0.
        -11    1    3    3    0    0 -0.25045238355E+02 -0.39626291612E+02 -0.13219175296E+01  0.46896208987E+02  0.51100000000E-03 0.  1.
         23    2    1    0    0    0 -0.17898246220E+02 -0.32927779935E+01 -0.27406983774E+02  0.92191179896E+02  0.86121317259E+02 0.  0.
         11    1    3    3    0    0  0.71469921348E+01  0.36333513618E+02 -0.26085066244E+02  0.45294970909E+02  0.51100000000E-03 0. -1.
         22    1    1    0    0    0  0.17898246220E+02  0.32927779935E+01  0.27406983774E+02  0.32898820104E+02  0.00000000000E+00 0. -1.
</event>
<event>
 5    1  0.1044283E-009  0.9118800E+02  0.7815553E-02  0.1125453E+00
         25   -1    0    0    0    0  0.00000000000E+00  0.00000000000E+00  0.99999998245E-14  0.12509000000E+03  0.12509000000E+03 0.  0.
        -11    1    3    3    0    0 -0.39106784474E+02 -0.47331660741E+01  0.77846018398E+01  0.40153997049E+02  0.51100000000E-03 0. -1.
         23    2    1    0    0    0  0.16085218230E+02  0.18579549140E+02  0.48984106484E+00  0.10051005216E+03  0.97458179485E+02 0.  0.
         11    1    3    3    0    0  0.55192002703E+02  0.23312715214E+02 -0.72947607750E+01  0.60356055107E+02  0.51100000000E-03 0.  1.
         22    1    1    0    0    0 -0.16085218230E+02 -0.18579549140E+02 -0.48984106484E+00  0.24579947844E+02  0.00000000000E+00 0.  1.
</event>
<event>
 5    1  0.1044283E-009  0.9118800E+02  0.7815553E-02  0.1125453E+00
         25   -1    0    0    0    0  0.00000000000E+00  0.00000000000E+00  0.99999998245E-14  0.12509000000E+03  0.12509000000E+03 0.  0.
        -11    1    3    3    0    0 -0.14178634949E+02  0.43602427001E+02 -0.17473426636E+02  0.49066546323E+02  0.51100000000E-03 0.  1.
         23    2    1    0    0    0 -0.49587746976E+01 -0.31119879492E+00 -0.29220740024E+02  0.95449859333E+02  0.90731128660E+02 0.  0.
         11    1    3    3    0    0  0.92198602519E+01 -0.43913625796E+02 -0.11747313389E+02  0.46383313010E+02  0.51100000000E-03 0. -1.
         22    1    1    0    0    0  0.49587746976E+01  0.31119879492E+00  0.29220740024E+02  0.29640140667E+02  0.00000000000E+00 0. -1.
</event>
<event>
 5    1  0.1044283E-009  0.9118800E+02  0.7815553E-02  0.1125453E+00
         25   -1    0    0    0    0  0.00000000000E+00  0.00000000000E+00  0.99999998245E-14  0.12509000000E+03  0.12509000000E+03 0.  0.
        -11    1    3    3    0    0 -0.20499864627E+02  0.43198682356E+02 -0.39074949569E+02  0.61751293841E+02  0.51100000000E-03 0.  1.
         23    2    1    0    0    0 -0.13282139703E+02  0.22335064292E+02 -0.12638483348E+02  0.96193605876E+02  0.91750794101E+02 0.  0.
         11    1    3    3    0    0  0.72177249235E+01 -0.20863618064E+02  0.26436466221E+02  0.34442312035E+02  0.51100000000E-03 0. -1.
         22    1    1    0    0    0  0.13282139703E+02 -0.22335064292E+02  0.12638483348E+02  0.28896394124E+02  0.00000000000E+00 0.  1.
</event>
<event>
 5    1  0.1044283E-009  0.9118800E+02  0.7815553E-02  0.1125453E+00
         25   -1    0    0    0    0  0.00000000000E+00  0.00000000000E+00  0.99999998245E-14  0.12509000000E+03  0.12509000000E+03 0.  0.
        -11    1    3    3    0    0  0.25394478807E+02  0.25185216075E+01 -0.33795079412E+02  0.42347726004E+02  0.51100000000E-03 0. -1.
         23    2    1    0    0    0 -0.14515935126E+01  0.28925897598E+02  0.41792430745E+01  0.95827724828E+02  0.91250600532E+02 0.  0.
         11    1    3    3    0    0 -0.26846072320E+02  0.26407375990E+02  0.37974322486E+02  0.53479998824E+02  0.51100000000E-03 0.  1.
         22    1    1    0    0    0  0.14515935126E+01 -0.28925897598E+02 -0.41792430745E+01  0.29262275172E+02  0.00000000000E+00 0. -1.
</event>
<event>
 5    1  0.1044283E-009  0.9118800E+02  0.7815553E-02  0.1125453E+00
         25   -1    0    0    0    0  0.00000000000E+00  0.00000000000E+00  0.99999998245E-14  0.12509000000E+03  0.12509000000E+03 0.  0.
        -11    1    3    3    0    0  0.22382889418E+01 -0.15296635117E+02  0.45136803322E+02  0.47710879238E+02  0.51100000000E-03 0.  1.
         23    2    1    0    0    0  0.23846010582E+02 -0.10059357121E+02 -0.12796271994E+01  0.99177448367E+02  0.95732470627E+02 0.  0.
         11    1    3    3    0    0  0.21607721640E+02  0.52372779960E+01 -0.46416430521E+02  0.51466569129E+02  0.51100000000E-03 0. -1.
         22    1    1    0    0    0 -0.23846010582E+02  0.10059357121E+02  0.12796271994E+01  0.25912551633E+02  0.00000000000E+00 0.  1.
</event>
<event>
 5    1  0.1044283E-009  0.9118800E+02  0.7815553E-02  0.1125453E+00
         25   -1    0    0    0    0  0.00000000000E+00  0.00000000000E+00  0.99999998245E-14  0.12509000000E+03  0.12509000000E+03 0.  0.
        -11    1    3    3    0    0 -0.14014910078E+02  0.34882093642E+02  0.11259950583E+02  0.39242383322E+02  0.51100000000E-03 0.  1.
         23    2    1    0    0    0 -0.15697519795E+02 -0.51092467856E+01 -0.26238692299E+02  0.94090233808E+02  0.88836853805E+02 0.  0.
         11    1    3    3    0    0 -0.16826097170E+01 -0.39991340428E+02 -0.37498642882E+02  0.54847850486E+02  0.51100000000E-03 0. -1.
         22    1    1    0    0    0  0.15697519795E+02  0.51092467856E+01  0.26238692299E+02  0.30999766192E+02  0.00000000000E+00 0. -1.
</event>
<event>
 5    1  0.1044283E-009  0.9118800E+02  0.7815553E-02  0.1125453E+00
         25   -1    0    0    0    0  0.00000000000E+00  0.00000000000E+00  0.99999998245E-14  0.12509000000E+03  0.12509000000E+03 0.  0.
        -11    1    3    3    0    0 -0.58509880010E+02 -0.20491983316E+02  0.61935074261E+01  0.62303185902E+02  0.51100000000E-03 0.  1.
         23    2    1    0    0    0 -0.27885669636E+02 -0.88758628248E+01  0.67345415636E+01  0.95060921393E+02  0.90193310251E+02 0.  0.
         11    1    3    3    0    0  0.30624210374E+02  0.11616120492E+02  0.54103413742E+00  0.32757735491E+02  0.51100000000E-03 0. -1.
         22    1    1    0    0    0  0.27885669636E+02  0.88758628248E+01 -0.67345415636E+01  0.30029078607E+02  0.00000000000E+00 0.  1.
</event>
<event>
 5    1  0.1044283E-009  0.9118800E+02  0.7815553E-02  0.1125453E+00
         25   -1    0    0    0    0  0.00000000000E+00  0.00000000000E+00  0.99999998245E-14  0.12509000000E+03  0.12509000000E+03 0.  0.
        -11    1    3    3    0    0  0.13746476295E+02 -0.21631829540E+02 -0.48187167670E+02  0.54579343969E+02  0.51100000000E-03 0.  1.
         23    2    1    0    0    0  0.71203327749E+01  0.12570829797E+02 -0.24296605613E+02  0.96822528501E+02  0.92604276793E+02 0.  0.
         11    1    3    3    0    0 -0.66261435204E+01  0.34202659338E+02  0.23890562057E+02  0.42243184531E+02  0.51100000000E-03 0. -1.
         22    1    1    0    0    0 -0.71203327749E+01 -0.12570829797E+02  0.24296605613E+02  0.28267471499E+02  0.00000000000E+00 0. -1.
</event>
<event>
 5    1  0.1044283E-009  0.9118800E+02  0.7815553E-02  0.1125453E+00
         25   -1    0    0    0    0  0.00000000000E+00  0.00000000000E+00  0.99999998245E-14  0.12509000000E+03  0.12509000000E+03 0.  0.
        -11    1    3    3    0    0  0.20464622223E+01 -0.42259033308E+02  0.13509827607E+02  0.44413166358E+02  0.51100000000E-03 0.  1.
         23    2    1    0    0    0 -0.20339557857E+02  0.38780945838E+01  0.20240925455E+02  0.96134304625E+02  0.91669909081E+02 0.  0.
         11    1    3    3    0    0 -0.22386020079E+02  0.46137127892E+02  0.67310978477E+01  0.51721138266E+02  0.51100000000E-03 0. -1.
         22    1    1    0    0    0  0.20339557857E+02 -0.38780945838E+01 -0.20240925455E+02  0.28955695375E+02  0.00000000000E+00 0. -1.
</event>
<event>
 5    1  0.1044283E-009  0.9118800E+02  0.7815553E-02  0.1125453E+00
         25   -1    0    0    0    0  0.00000000000E+00  0.00000000000E+00  0.99999998245E-14  0.12509000000E+03  0.12509000000E+03 0.  0.
        -11    1    3    3    0    0 -0.22829666595E+02  0.32604694418E+02  0.10759438486E+02  0.41231362962E+02  0.51100000000E-03 0.  1.
         23    2    1    0    0    0 -0.17306989503E+02 -0.21995918537E+02  0.29121783288E+00  0.97100053131E+02  0.92978401751E+02 0.  0.
         11    1    3    3    0    0  0.55226770918E+01 -0.54600612954E+02 -0.10468220653E+02  0.55868690169E+02  0.51100000000E-03 0. -1.
         22    1    1    0    0    0  0.17306989503E+02  0.21995918537E+02 -0.29121783288E+00  0.27989946869E+02  0.00000000000E+00 0. -1.
</event>
<event>
 5    1  0.1044283E-009  0.9118800E+02  0.7815553E-02  0.1125453E+00
         25   -1    0    0    0    0  0.00000000000E+00  0.00000000000E+00  0.99999998245E-14  0.12509000000E+03  0.12509000000E+03 0.  0.
        -11    1    3    3    0    0  0.36917491355E+02 -0.82082852557E+01  0.33411319328E+00  0.37820480519E+02  0.51100000000E-03 0.  1.
         23    2    1    0    0    0 -0.16357015205E+02 -0.51530355801E+01 -0.23281008856E+02  0.96174414316E+02  0.91724625229E+02 0.  0.
         11    1    3    3    0    0 -0.53274506561E+02  0.30552496757E+01 -0.23615122049E+02  0.58353933796E+02  0.51100000000E-03 0. -1.
         22    1    1    0    0    0  0.16357015205E+02  0.51530355801E+01  0.23281008856E+02  0.28915585684E+02  0.00000000000E+00 0. -1.
</event>
<event>
 5    1  0.1044283E-009  0.9118800E+02  0.7815553E-02  0.1125453E+00
         25   -1    0    0    0    0  0.00000000000E+00  0.00000000000E+00  0.99999998245E-14  0.12509000000E+03  0.12509000000E+03 0.  0.
        -11    1    3    3    0    0 -0.22548644374E+02 -0.51617993396E+01  0.51539768308E+02  0.56492771689E+02  0.51100000000E-03 0. -1.
         23    2    1    0    0    0 -0.12635221301E+02 -0.20274808712E+02  0.16081433612E+02  0.96291923803E+02  0.91884739740E+02 0.  0.
         11    1    3    3    0    0  0.99134230731E+01 -0.15113009373E+02 -0.35458334697E+02  0.39799152114E+02  0.51100000000E-03 0.  1.
         22    1    1    0    0    0  0.12635221301E+02  0.20274808712E+02 -0.16081433612E+02  0.28798076197E+02  0.00000000000E+00 0. -1.
</event>
<event>
 5    1  0.1044283E-009  0.9118800E+02  0.7815553E-02  0.1125453E+00
         25   -1    0    0    0    0  0.00000000000E+00  0.00000000000E+00  0.99999998245E-14  0.12509000000E+03  0.12509000000E+03 0.  0.
        -11    1    3    3    0    0  0.76571690750E+01 -0.37099436816E+02 -0.18141443002E+02  0.42001338131E+02  0.51100000000E-03 0.  1.
         23    2    1    0    0    0  0.88832830114E+01  0.19980934342E+02 -0.13741259659E+02  0.99264185952E+02  0.95845740341E+02 0.  0.
         11    1    3    3    0    0  0.12261139364E+01  0.57080371158E+02  0.44001833433E+01  0.57262847821E+02  0.51100000000E-03 0. -1.
         22    1    1    0    0    0 -0.88832830114E+01 -0.19980934342E+02  0.13741259659E+02  0.25825814048E+02  0.00000000000E+00 0. -1.
</event>
<event>
 5    1  0.1044283E-009  0.9118800E+02  0.7815553E-02  0.1125453E+00
         25   -1    0    0    0    0  0.00000000000E+00  0.00000000000E+00  0.99999998245E-14  0.12509000000E+03  0.12509000000E+03 0.  0.
        -11    1    3    3    0    0 -0.18086034155E+02 -0.70977941619E+01  0.29614831213E+02  0.35419225591E+02  0.51100000000E-03 0.  1.
         23    2    1    0    0    0  0.26991164186E+01 -0.32228845918E+01 -0.27992265200E+02  0.96783832376E+02  0.92551991247E+02 0.  0.
         11    1    3    3    0    0  0.20785150573E+02  0.38749095701E+01 -0.57607096413E+02  0.61364606785E+02  0.51100000000E-03 0. -1.
         22    1    1    0    0    0 -0.26991164186E+01  0.32228845918E+01  0.27992265200E+02  0.28306167624E+02  0.00000000000E+00 0. -1.
</event>
<event>
 5    1  0.1044283E-009  0.9118800E+02  0.7815553E-02  0.1125453E+00
         25   -1    0    0    0    0  0.00000000000E+00  0.00000000000E+00  0.99999998245E-14  0.12509000000E+03  0.12509000000E+03 0.  0.
        -11    1    3    3    0    0 -0.40091586698E+02  0.17149960238E+02 -0.37693670922E+02  0.57639129834E+02  0.51100000000E-03 0.  1.
         23    2    1    0    0    0 -0.19262318564E+02 -0.86927498610E+01 -0.22747214091E+02  0.94041061765E+02  0.88767588298E+02 0.  0.
         11    1    3    3    0    0  0.20829268134E+02 -0.25842710099E+02  0.14946456831E+02  0.36401931931E+02  0.51100000000E-03 0. -1.
         22    1    1    0    0    0  0.19262318564E+02  0.86927498610E+01  0.22747214091E+02  0.31048938235E+02  0.00000000000E+00 0.  1.
</event>
<event>
 5    1  0.1044283E-009  0.9118800E+02  0.7815553E-02  0.1125453E+00
         25   -1    0    0    0    0  0.00000000000E+00  0.00000000000E+00  0.99999998245E-14  0.12509000000E+03  0.12509000000E+03 0.  0.
        -11    1    3    3    0    0  0.37327605288E+02 -0.34674461400E+02  0.64362552866E+00  0.50951767820E+02  0.51100000000E-03 0. -1.
         23    2    1    0    0    0  0.11711285804E+01 -0.23255913685E+02  0.20777430614E+02  0.93882457861E+02  0.88543803891E+02 0.  0.
         11    1    3    3    0    0 -0.36156476708E+02  0.11418547716E+02  0.20133805085E+02  0.42930690040E+02  0.51100000000E-03 0.  1.
         22    1    1    0    0    0 -0.11711285804E+01  0.23255913685E+02 -0.20777430614E+02  0.31207542139E+02  0.00000000000E+00 0.  1.
</event>
<event>
 5    1  0.1044283E-009  0.9118800E+02  0.7815553E-02  0.1125453E+00
         25   -1    0    0    0    0  0.00000000000E+00  0.00000000000E+00  0.99999998245E-14  0.12509000000E+03  0.12509000000E+03 0.  0.
        -11    1    3    3    0    0  0.26278053383E+02  0.20311001937E+02  0.68431458553E+01  0.33910198094E+02  0.51100000000E-03 0.  1.
         23    2    1    0    0    0 -0.51125110000E+01 -0.18094072140E+02 -0.25708675883E+02  0.93239266398E+02  0.87630426037E+02 0.  0.
         11    1    3    3    0    0 -0.31390564384E+02 -0.38405074076E+02 -0.32551821738E+02  0.59329068304E+02  0.51100000000E-03 0. -1.
         22    1    1    0    0    0  0.51125110000E+01  0.18094072140E+02  0.25708675883E+02  0.31850733602E+02  0.00000000000E+00 0. -1.
</event>
<event>
 4    1  0.1044283E-009  0.9118800E+02  0.7815553E-02  0.1125453E+00
         25   -1    0    0    0    0  0.00000000000E+00  0.00000000000E+00  0.99999998245E-14  0.12509000000E+03  0.12509000000E+03 0.  0.
        -11    1    1    0    0    0 -0.10908145635E+02 -0.12893007168E+01 -0.10017202553E+02  0.14865876523E+02  0.51100000000E-03 0.  1.
         11    1    1    0    0    0 -0.35827792542E+02  0.20011031591E+02 -0.25767051553E+02  0.48456300413E+02  0.51100000000E-03 0. -1.
         22    1    1    0    0    0  0.46735938176E+02 -0.18721730874E+02  0.35784254106E+02  0.61767823064E+02  0.00000000000E+00 0.  1.
</event>
<event>
 5    1  0.1044283E-009  0.9118800E+02  0.7815553E-02  0.1125453E+00
         25   -1    0    0    0    0  0.00000000000E+00  0.00000000000E+00  0.99999998245E-14  0.12509000000E+03  0.12509000000E+03 0.  0.
        -11    1    3    3    0    0 -0.23458097114E+02  0.23792873471E+02  0.47398570884E+02  0.57991444803E+02  0.51100000000E-03 0. -1.
         23    2    1    0    0    0 -0.24898436304E+02  0.93096040164E+01  0.12677524938E+02  0.95639694469E+02  0.90992475855E+02 0.  0.
         11    1    3    3    0    0 -0.14403391894E+01 -0.14483269454E+02 -0.34721045946E+02  0.37648249666E+02  0.51100000000E-03 0.  1.
         22    1    1    0    0    0  0.24898436304E+02 -0.93096040164E+01 -0.12677524938E+02  0.29450305531E+02  0.00000000000E+00 0. -1.
</event>
<event>
 5    1  0.1044283E-009  0.9118800E+02  0.7815553E-02  0.1125453E+00
         25   -1    0    0    0    0  0.00000000000E+00  0.00000000000E+00  0.99999998245E-14  0.12509000000E+03  0.12509000000E+03 0.  0.
        -11    1    3    3    0    0 -0.25857079390E+01  0.41196155125E+02 -0.46383027108E+02  0.62090210876E+02  0.51100000000E-03 0. -1.
         23    2    1    0    0    0  0.37384269807E+01  0.20512477491E+02 -0.20095681252E+02  0.96131858241E+02  0.91666570759E+02 0.  0.
         11    1    3    3    0    0  0.63241349197E+01 -0.20683677633E+02  0.26287345856E+02  0.34041647365E+02  0.51100000000E-03 0.  1.
         22    1    1    0    0    0 -0.37384269807E+01 -0.20512477491E+02  0.20095681252E+02  0.28958141759E+02  0.00000000000E+00 0. -1.
</event>
<event>
 5    1  0.1044283E-009  0.9118800E+02  0.7815553E-02  0.1125453E+00
         25   -1    0    0    0    0  0.00000000000E+00  0.00000000000E+00  0.99999998245E-14  0.12509000000E+03  0.12509000000E+03 0.  0.
        -11    1    3    3    0    0 -0.37488943860E+02  0.13567669891E+02 -0.68398353011E+01  0.40451031201E+02  0.51100000000E-03 0.  1.
         23    2    1    0    0    0  0.29029032913E+01  0.25092705512E+01  0.29161705889E+02  0.95676935274E+02  0.91043657477E+02 0.  0.
         11    1    3    3    0    0  0.40391847152E+02 -0.11058399340E+02  0.36001541190E+02  0.55225904073E+02  0.51100000000E-03 0. -1.
         22    1    1    0    0    0 -0.29029032913E+01 -0.25092705512E+01 -0.29161705889E+02  0.29413064726E+02  0.00000000000E+00 0. -1.
</event>
<event>
 5    1  0.1044283E-009  0.9118800E+02  0.7815553E-02  0.1125453E+00
         25   -1    0    0    0    0  0.00000000000E+00  0.00000000000E+00  0.99999998245E-14  0.12509000000E+03  0.12509000000E+03 0.  0.
        -11    1    3    3    0    0  0.25159756589E+02 -0.16083074373E+02 -0.49388686060E+02  0.57714131233E+02  0.51100000000E-03 0. -1.
         23    2    1    0    0    0 -0.47603152002E+01 -0.12602381189E+02 -0.25842605384E+02  0.95946889914E+02  0.91413810875E+02 0.  0.
         11    1    3    3    0    0 -0.29920071790E+02  0.34806931848E+01  0.23546080676E+02  0.38232758682E+02  0.51100000000E-03 0.  1.
         22    1    1    0    0    0  0.47603152002E+01  0.12602381189E+02  0.25842605384E+02  0.29143110086E+02  0.00000000000E+00 0. -1.
</event>
<event>
 5    1  0.1044283E-009  0.9118800E+02  0.7815553E-02  0.1125453E+00
         25   -1    0    0    0    0  0.00000000000E+00  0.00000000000E+00  0.99999998245E-14  0.12509000000E+03  0.12509000000E+03 0.  0.
        -11    1    3    3    0    0  0.15297413515E+02 -0.33241669528E+02  0.19507259739E+02  0.41467488904E+02  0.51100000000E-03 0.  1.
         23    2    1    0    0    0 -0.92721185693E+01 -0.10982732752E+02 -0.24572087551E+02  0.96622824375E+02  0.92334122090E+02 0.  0.
         11    1    3    3    0    0 -0.24569532084E+02  0.22258936775E+02 -0.44079347289E+02  0.55155335471E+02  0.51100000000E-03 0. -1.
         22    1    1    0    0    0  0.92721185693E+01  0.10982732752E+02  0.24572087551E+02  0.28467175625E+02  0.00000000000E+00 0. -1.
</event>
<event>
 5    1  0.1044283E-009  0.9118800E+02  0.7815553E-02  0.1125453E+00
         25   -1    0    0    0    0  0.00000000000E+00  0.00000000000E+00  0.99999998245E-14  0.12509000000E+03  0.12509000000E+03 0.  0.
        -11    1    3    3    0    0  0.29452642509E+02  0.24335169444E+02  0.72259774708E+01  0.38882815913E+02  0.51100000000E-03 0. -1.
         23    2    1    0    0    0  0.67910437824E+01 -0.12745646245E+02 -0.27180130637E+02  0.94311285353E+02  0.89147570184E+02 0.  0.
         11    1    3    3    0    0 -0.22661598727E+02 -0.37080815689E+02 -0.34406108108E+02  0.55428469440E+02  0.51100000000E-03 0.  1.
         22    1    1    0    0    0 -0.67910437824E+01  0.12745646245E+02  0.27180130637E+02  0.30778714647E+02  0.00000000000E+00 0.  1.
</event>
<event>
 5    1  0.1044283E-009  0.9118800E+02  0.7815553E-02  0.1125453E+00
         25   -1    0    0    0    0  0.00000000000E+00  0.00000000000E+00  0.99999998245E-14  0.12509000000E+03  0.12509000000E+03 0.  0.
        -11    1    3    3    0    0  0.29975005160E+02  0.21915768768E+02 -0.64244341085E+01  0.37683885269E+02  0.51100000000E-03 0. -1.
         23    2    1    0    0    0 -0.99503996102E+01 -0.49001221442E+00  0.28262582363E+02  0.95122949324E+02  0.90279296419E+02 0.  0.
         11    1    3    3    0    0 -0.39925404771E+02 -0.22405780983E+02  0.34687016472E+02  0.57439064055E+02  0.51100000000E-03 0.  1.
         22    1    1    0    0    0  0.99503996102E+01  0.49001221442E+00 -0.28262582363E+02  0.29967050676E+02  0.00000000000E+00 0.  1.
</event>
<event>
 5    1  0.1044283E-009  0.9118800E+02  0.7815553E-02  0.1125453E+00
         25   -1    0    0    0    0  0.00000000000E+00  0.00000000000E+00  0.99999998245E-14  0.12509000000E+03  0.12509000000E+03 0.  0.
        -11    1    3    3    0    0 -0.46337535663E+02  0.15676940633E+02  0.35003883737E+01  0.49042699742E+02  0.51100000000E-03 0.  1.
         23    2    1    0    0    0 -0.11026114586E+02 -0.42634696714E+00  0.28037894500E+02  0.94958944549E+02  0.90051766486E+02 0.  0.
         11    1    3    3    0    0  0.35311421077E+02 -0.16103287600E+02  0.24537506126E+02  0.45916244807E+02  0.51100000000E-03 0. -1.
         22    1    1    0    0    0  0.11026114586E+02  0.42634696714E+00 -0.28037894500E+02  0.30131055451E+02  0.00000000000E+00 0.  1.
</event>
<event>
 5    1  0.1044283E-009  0.9118800E+02  0.7815553E-02  0.1125453E+00
         25   -1    0    0    0    0  0.00000000000E+00  0.00000000000E+00  0.99999998245E-14  0.12509000000E+03  0.12509000000E+03 0.  0.
        -11    1    3    3    0    0  0.90874767957E+01 -0.37183534334E+02 -0.37309949693E+02  0.53453061713E+02  0.51100000000E-03 0.  1.
         23    2    1    0    0    0  0.20792356035E+02  0.99247800806E-01 -0.20163120190E+02  0.96126517209E+02  0.91659281992E+02 0.  0.
         11    1    3    3    0    0  0.11704879239E+02  0.37282782135E+02  0.17146829503E+02  0.42673455496E+02  0.51100000000E-03 0. -1.
         22    1    1    0    0    0 -0.20792356035E+02 -0.99247800806E-01  0.20163120190E+02  0.28963482791E+02  0.00000000000E+00 0.  1.
</event>
<event>
 5    1  0.1044283E-009  0.9118800E+02  0.7815553E-02  0.1125453E+00
         25   -1    0    0    0    0  0.00000000000E+00  0.00000000000E+00  0.99999998245E-14  0.12509000000E+03  0.12509000000E+03 0.  0.
        -11    1    3    3    0    0 -0.21976959368E+02 -0.48325724524E+02  0.25711694189E+02  0.58986893562E+02  0.51100000000E-03 0. -1.
         23    2    1    0    0    0 -0.67986165389E+01 -0.14989694359E+02  0.24423022261E+02  0.95638410226E+02  0.90990710352E+02 0.  0.
         11    1    3    3    0    0  0.15178342829E+02  0.33336030164E+02 -0.12886719277E+01  0.36651516664E+02  0.51100000000E-03 0.  1.
         22    1    1    0    0    0  0.67986165389E+01  0.14989694359E+02 -0.24423022261E+02  0.29451589774E+02  0.00000000000E+00 0. -1.
</event>
<event>
 5    1  0.1044283E-009  0.9118800E+02  0.7815553E-02  0.1125453E+00
         25   -1    0    0    0    0  0.00000000000E+00  0.00000000000E+00  0.99999998245E-14  0.12509000000E+03  0.12509000000E+03 0.  0.
        -11    1    3    3    0    0 -0.43295711183E+02 -0.14602700931E+02 -0.38325639267E+02  0.59637338194E+02  0.51100000000E-03 0. -1.
         23    2    1    0    0    0 -0.19828668025E+02  0.42231020753E+01 -0.25928337968E+02  0.92176638328E+02  0.86100193245E+02 0.  0.
         11    1    3    3    0    0  0.23467043158E+02  0.18825803006E+02  0.12397301299E+02  0.32539300134E+02  0.51100000000E-03 0.  1.
         22    1    1    0    0    0  0.19828668025E+02 -0.42231020753E+01  0.25928337968E+02  0.32913361672E+02  0.00000000000E+00 0. -1.
</event>
<event>
 5    1  0.1044283E-009  0.9118800E+02  0.7815553E-02  0.1125453E+00
         25   -1    0    0    0    0  0.00000000000E+00  0.00000000000E+00  0.99999998245E-14  0.12509000000E+03  0.12509000000E+03 0.  0.
        -11    1    3    3    0    0 -0.23934331007E+02 -0.20076036871E+02 -0.28693836764E+02  0.42417398856E+02  0.51100000000E-03 0.  1.
         23    2    1    0    0    0 -0.20842085089E+02  0.66079223404E+01  0.18320359154E+02  0.96564700562E+02  0.92255345030E+02 0.  0.
         11    1    3    3    0    0  0.30922459173E+01  0.26683959212E+02  0.47014195918E+02  0.54147301706E+02  0.51100000000E-03 0. -1.
         22    1    1    0    0    0  0.20842085089E+02 -0.66079223404E+01 -0.18320359154E+02  0.28525299438E+02  0.00000000000E+00 0.  1.
</event>
<event>
 5    1  0.1044283E-009  0.9118800E+02  0.7815553E-02  0.1125453E+00
         25   -1    0    0    0    0  0.00000000000E+00  0.00000000000E+00  0.99999998245E-14  0.12509000000E+03  0.12509000000E+03 0.  0.
        -11    1    3    3    0    0  0.22764876169E+02 -0.21747422420E+02 -0.17934688035E+02  0.36233175462E+02  0.51100000000E-03 0.  1.
         23    2    1    0    0    0 -0.12648684853E+02 -0.25943288925E+00  0.25728678480E+02  0.96419083896E+02  0.92057690114E+02 0.  0.
         11    1    3    3    0    0 -0.35413561023E+02  0.21487989531E+02  0.43663366514E+02  0.60185908434E+02  0.51100000000E-03 0. -1.
         22    1    1    0    0    0  0.12648684853E+02  0.25943288925E+00 -0.25728678480E+02  0.28670916104E+02  0.00000000000E+00 0. -1.
</event>
<event>
 5    1  0.1044283E-009  0.9118800E+02  0.7815553E-02  0.1125453E+00
         25   -1    0    0    0    0  0.00000000000E+00  0.00000000000E+00  0.99999998245E-14  0.12509000000E+03  0.12509000000E+03 0.  0.
        -11    1    3    3    0    0 -0.82466922312E+01  0.57865643872E+02 -0.17920819836E+02  0.61135885185E+02  0.51100000000E-03 0.  1.
         23    2    1    0    0    0 -0.12905588715E+02  0.25133706285E+02 -0.66667054355E+01  0.96060663579E+02  0.91569365588E+02 0.  0.
         11    1    3    3    0    0 -0.46588964834E+01 -0.32731937587E+02  0.11254114400E+02  0.34924778394E+02  0.51100000000E-03 0. -1.
         22    1    1    0    0    0  0.12905588715E+02 -0.25133706285E+02  0.66667054355E+01  0.29029336421E+02  0.00000000000E+00 0.  1.
</event>
<event>
 5    1  0.1044283E-009  0.9118800E+02  0.7815553E-02  0.1125453E+00
         25   -1    0    0    0    0  0.00000000000E+00  0.00000000000E+00  0.99999998245E-14  0.12509000000E+03  0.12509000000E+03 0.  0.
        -11    1    3    3    0    0  0.30925136586E+02 -0.19069881912E+02 -0.40605642950E+02  0.54487087541E+02  0.51100000000E-03 0. -1.
         23    2    1    0    0    0  0.34883547871E+01  0.81734605091E+01 -0.28854064753E+02  0.94898426199E+02  0.89967661781E+02 0.  0.
         11    1    3    3    0    0 -0.27436781799E+02  0.27243342421E+02  0.11751578197E+02  0.40411338658E+02  0.51100000000E-03 0.  1.
         22    1    1    0    0    0 -0.34883547871E+01 -0.81734605091E+01  0.28854064753E+02  0.30191573801E+02  0.00000000000E+00 0. -1.
</event>
<event>
 5    1  0.1044283E-009  0.9118800E+02  0.7815553E-02  0.1125453E+00
         25   -1    0    0    0    0  0.00000000000E+00  0.00000000000E+00  0.99999998245E-14  0.12509000000E+03  0.12509000000E+03 0.  0.
        -11    1    3    3    0    0 -0.44916204616E+02  0.40527928241E+01  0.42565346114E+02  0.62013702170E+02  0.51100000000E-03 0.  1.
         23    2    1    0    0    0 -0.22466511614E+02 -0.31450077650E+01  0.17375624623E+02  0.96514703869E+02  0.92187529058E+02 0.  0.
         11    1    3    3    0    0  0.22449693001E+02 -0.71978005892E+01 -0.25189721491E+02  0.34501001699E+02  0.51100000000E-03 0. -1.
         22    1    1    0    0    0  0.22466511614E+02  0.31450077650E+01 -0.17375624623E+02  0.28575296131E+02  0.00000000000E+00 0.  1.
</event>
<event>
 5    1  0.1044283E-009  0.9118800E+02  0.7815553E-02  0.1125453E+00
         25   -1    0    0    0    0  0.00000000000E+00  0.00000000000E+00  0.99999998245E-14  0.12509000000E+03  0.12509000000E+03 0.  0.
        -11    1    3    3    0    0 -0.20983679389E+01 -0.14357174378E+02 -0.55043861287E+02  0.56924144875E+02  0.51100000000E-03 0. -1.
         23    2    1    0    0    0 -0.90977083475E+00  0.11973245766E+02 -0.27681619585E+02  0.94916197455E+02  0.89992367339E+02 0.  0.
         11    1    3    3    0    0  0.11885971042E+01  0.26330420144E+02  0.27362241702E+02  0.37992052580E+02  0.51100000000E-03 0.  1.
         22    1    1    0    0    0  0.90977083475E+00 -0.11973245766E+02  0.27681619585E+02  0.30173802545E+02  0.00000000000E+00 0. -1.
</event>
<event>
 5    1  0.1044283E-009  0.9118800E+02  0.7815553E-02  0.1125453E+00
         25   -1    0    0    0    0  0.00000000000E+00  0.00000000000E+00  0.99999998245E-14  0.12509000000E+03  0.12509000000E+03 0.  0.
        -11    1    3    3    0    0  0.11125509497E+02 -0.29623167852E+02  0.50319260002E+02  0.59441878862E+02  0.51100000000E-03 0. -1.
         23    2    1    0    0    0  0.15336910193E+02 -0.19124097820E+02  0.15418883410E+02  0.96129787685E+02  0.91663745195E+02 0.  0.
         11    1    3    3    0    0  0.42114006953E+01  0.10499070032E+02 -0.34900376592E+02  0.36687908824E+02  0.51100000000E-03 0.  1.
         22    1    1    0    0    0 -0.15336910193E+02  0.19124097820E+02 -0.15418883410E+02  0.28960212315E+02  0.00000000000E+00 0. -1.
</event>
<event>
 5    1  0.1044283E-009  0.9118800E+02  0.7815553E-02  0.1125453E+00
         25   -1    0    0    0    0  0.00000000000E+00  0.00000000000E+00  0.99999998245E-14  0.12509000000E+03  0.12509000000E+03 0.  0.
        -11    1    3    3    0    0 -0.11216044620E+02 -0.36013794078E+02  0.35276228180E+01  0.37884523804E+02  0.51100000000E-03 0. -1.
         23    2    1    0    0    0 -0.53740074469E+01  0.18271983439E+02  0.22431350501E+02  0.95663637327E+02  0.91025384847E+02 0.  0.
         11    1    3    3    0    0  0.58420371729E+01  0.54285777518E+02  0.18903727683E+02  0.57779113524E+02  0.51100000000E-03 0.  1.
         22    1    1    0    0    0  0.53740074469E+01 -0.18271983439E+02 -0.22431350501E+02  0.29426362673E+02  0.00000000000E+00 0.  1.
</event>
<event>
 5    1  0.1044283E-009  0.9118800E+02  0.7815553E-02  0.1125453E+00
         25   -1    0    0    0    0  0.00000000000E+00  0.00000000000E+00  0.99999998245E-14  0.12509000000E+03  0.12509000000E+03 0.  0.
        -11    1    3    3    0    0 -0.10461887158E+02  0.92891276785E+00  0.50420266197E+02  0.51502594163E+02  0.51100000000E-03 0. -1.
         23    2    1    0    0    0 -0.27974191150E+02 -0.49741779680E+00  0.10345426106E+02  0.95259970897E+02  0.90468952790E+02 0.  0.
         11    1    3    3    0    0 -0.17512303992E+02 -0.14263305647E+01 -0.40074840092E+02  0.43757376734E+02  0.51100000000E-03 0.  1.
         22    1    1    0    0    0  0.27974191150E+02  0.49741779680E+00 -0.10345426106E+02  0.29830029103E+02  0.00000000000E+00 0. -1.
</event>
<event>
 5    1  0.1044283E-009  0.9118800E+02  0.7815553E-02  0.1125453E+00
         25   -1    0    0    0    0  0.00000000000E+00  0.00000000000E+00  0.99999998245E-14  0.12509000000E+03  0.12509000000E+03 0.  0.
        -11    1    3    3    0    0 -0.25848482714E+01  0.23974447277E+02  0.55298639346E+02  0.60327399054E+02  0.51100000000E-03 0.  1.
         23    2    1    0    0    0  0.10208181018E+02  0.13756250162E+02  0.24699036833E+02  0.95031992769E+02  0.90153179927E+02 0.  0.
         11    1    3    3    0    0  0.12793029289E+02 -0.10218197115E+02 -0.30599602513E+02  0.34704593715E+02  0.51100000000E-03 0. -1.
         22    1    1    0    0    0 -0.10208181018E+02 -0.13756250162E+02 -0.24699036833E+02  0.30058007231E+02  0.00000000000E+00 0.  1.
</event>
<event>
 5    1  0.1044283E-009  0.9118800E+02  0.7815553E-02  0.1125453E+00
         25   -1    0    0    0    0  0.00000000000E+00  0.00000000000E+00  0.99999998245E-14  0.12509000000E+03  0.12509000000E+03 0.  0.
        -11    1    3    3    0    0  0.14810016269E+02  0.14114258346E+02  0.43535180578E+02  0.48102607193E+02  0.51100000000E-03 0.  1.
         23    2    1    0    0    0  0.17369932853E+01 -0.23370079890E+02  0.12251383538E+02  0.98646207187E+02  0.95035782809E+02 0.  0.
         11    1    3    3    0    0 -0.13073022983E+02 -0.37484338236E+02 -0.31283797040E+02  0.50543599995E+02  0.51100000000E-03 0. -1.
         22    1    1    0    0    0 -0.17369932853E+01  0.23370079890E+02 -0.12251383538E+02  0.26443792813E+02  0.00000000000E+00 0. -1.
</event>
<event>
 5    1  0.1044283E-009  0.9118800E+02  0.7815553E-02  0.1125453E+00
         25   -1    0    0    0    0  0.00000000000E+00  0.00000000000E+00  0.99999998245E-14  0.12509000000E+03  0.12509000000E+03 0.  0.
        -11    1    3    3    0    0  0.20314671132E+02 -0.50004683948E+02 -0.20985548082E+02  0.57909822210E+02  0.51100000000E-03 0. -1.
         23    2    1    0    0    0  0.22006401847E+02 -0.13303627396E+02 -0.15520592221E+02  0.95054071397E+02  0.90183809423E+02 0.  0.
         11    1    3    3    0    0  0.16917307158E+01  0.36701056551E+02  0.54649558610E+01  0.37144249186E+02  0.51100000000E-03 0.  1.
         22    1    1    0    0    0 -0.22006401847E+02  0.13303627396E+02  0.15520592221E+02  0.30035928603E+02  0.00000000000E+00 0. -1.
</event>
<event>
 5    1  0.1044283E-009  0.9118800E+02  0.7815553E-02  0.1125453E+00
         25   -1    0    0    0    0  0.00000000000E+00  0.00000000000E+00  0.99999998245E-14  0.12509000000E+03  0.12509000000E+03 0.  0.
        -11    1    3    3    0    0  0.19149262744E+02 -0.19164741397E+02 -0.19478461779E+02  0.33367529876E+02  0.51100000000E-03 0.  1.
         23    2    1    0    0    0 -0.10210629933E+01  0.27473827198E+02  0.14019576278E+02  0.94228984631E+02  0.89032012642E+02 0.  0.
         11    1    3    3    0    0 -0.20170325738E+02  0.46638568596E+02  0.33498038057E+02  0.60861454756E+02  0.51100000000E-03 0. -1.
         22    1    1    0    0    0  0.10210629933E+01 -0.27473827198E+02 -0.14019576278E+02  0.30861015369E+02  0.00000000000E+00 0. -1.
</event>
<event>
 5    1  0.1044283E-009  0.9118800E+02  0.7815553E-02  0.1125453E+00
         25   -1    0    0    0    0  0.00000000000E+00  0.00000000000E+00  0.99999998245E-14  0.12509000000E+03  0.12509000000E+03 0.  0.
        -11    1    3    3    0    0  0.83486769585E+01 -0.76116222628E+01 -0.38229600645E+02  0.39864013423E+02  0.51100000000E-03 0. -1.
         23    2    1    0    0    0  0.17526897249E+02  0.22166839011E+02  0.80957179839E+01  0.95694396101E+02  0.91067644729E+02 0.  0.
         11    1    3    3    0    0  0.91782202908E+01  0.29778461274E+02  0.46325318629E+02  0.55830382678E+02  0.51100000000E-03 0.  1.
         22    1    1    0    0    0 -0.17526897249E+02 -0.22166839011E+02 -0.80957179839E+01  0.29395603899E+02  0.00000000000E+00 0. -1.
</event>
<event>
 5    1  0.1044283E-009  0.9118800E+02  0.7815553E-02  0.1125453E+00
         25   -1    0    0    0    0  0.00000000000E+00  0.00000000000E+00  0.99999998245E-14  0.12509000000E+03  0.12509000000E+03 0.  0.
        -11    1    3    3    0    0 -0.44977676309E+02  0.28760638853E+02 -0.30885511774E+02  0.61677228790E+02  0.51100000000E-03 0. -1.
         23    2    1    0    0    0 -0.25343918071E+02  0.87069840421E+01 -0.10758405066E+02  0.96213209426E+02  0.91777517041E+02 0.  0.
         11    1    3    3    0    0  0.19633758238E+02 -0.20053654810E+02  0.20127106708E+02  0.34535980636E+02  0.51100000000E-03 0.  1.
         22    1    1    0    0    0  0.25343918071E+02 -0.87069840421E+01  0.10758405066E+02  0.28876790574E+02  0.00000000000E+00 0. -1.
</event>
<event>
 5    1  0.1044283E-009  0.9118800E+02  0.7815553E-02  0.1125453E+00
         25   -1    0    0    0    0  0.00000000000E+00  0.00000000000E+00  0.99999998245E-14  0.12509000000E+03  0.12509000000E+03 0.  0.
        -11    1    3    3    0    0  0.10374058702E+02  0.16840005900E+02 -0.35271989253E+02  0.40439091468E+02  0.51100000000E-03 0.  1.
         23    2    1    0    0    0 -0.26458246064E+02 -0.12081983105E+02 -0.68904522829E+01  0.95198672944E+02  0.90384157334E+02 0.  0.
         11    1    3    3    0    0 -0.36832304766E+02 -0.28921989005E+02  0.28381536970E+02  0.54759581476E+02  0.51100000000E-03 0. -1.
         22    1    1    0    0    0  0.26458246064E+02  0.12081983105E+02  0.68904522829E+01  0.29891327056E+02  0.00000000000E+00 0. -1.
</event>
<event>
 5    1  0.1044283E-009  0.9118800E+02  0.7815553E-02  0.1125453E+00
         25   -1    0    0    0    0  0.00000000000E+00  0.00000000000E+00  0.99999998245E-14  0.12509000000E+03  0.12509000000E+03 0.  0.
        -11    1    3    3    0    0 -0.22277917497E+02 -0.38658825366E+02 -0.15216661673E+01  0.44644438118E+02  0.51100000000E-03 0.  1.
         23    2    1    0    0    0  0.93044386193E+01 -0.39668659148E+01 -0.25734746505E+02  0.97438855704E+02  0.93433103448E+02 0.  0.
         11    1    3    3    0    0  0.31582356116E+02  0.34691959452E+02 -0.24213080338E+02  0.52794417585E+02  0.51100000000E-03 0. -1.
         22    1    1    0    0    0 -0.93044386193E+01  0.39668659148E+01  0.25734746505E+02  0.27651144296E+02  0.00000000000E+00 0. -1.
</event>
<event>
 5    1  0.1044283E-009  0.9118800E+02  0.7815553E-02  0.1125453E+00
         25   -1    0    0    0    0  0.00000000000E+00  0.00000000000E+00  0.99999998245E-14  0.12509000000E+03  0.12509000000E+03 0.  0.
        -11    1    3    3    0    0  0.41799242827E+02 -0.42541226897E+02  0.63353452895E+01  0.59975572419E+02  0.51100000000E-03 0.  1.
         23    2    1    0    0    0  0.16368278783E+02 -0.17416863169E+02  0.15145901758E+02  0.96793957644E+02  0.92565675190E+02 0.  0.
         11    1    3    3    0    0 -0.25430964044E+02  0.25124363729E+02  0.88105564687E+01  0.36818385225E+02  0.51100000000E-03 0. -1.
         22    1    1    0    0    0 -0.16368278783E+02  0.17416863169E+02 -0.15145901758E+02  0.28296042356E+02  0.00000000000E+00 0.  1.
</event>
<event>
 5    1  0.1044283E-009  0.9118800E+02  0.7815553E-02  0.1125453E+00
         25   -1    0    0    0    0  0.00000000000E+00  0.00000000000E+00  0.99999998245E-14  0.12509000000E+03  0.12509000000E+03 0.  0.
        -11    1    3    3    0    0 -0.25310969549E+02  0.20442411391E+02 -0.16381616076E+02  0.36426565972E+02  0.51100000000E-03 0. -1.
         23    2    1    0    0    0  0.12562759694E+02  0.25021353332E+01  0.26047624101E+02  0.96063075712E+02  0.91572660667E+02 0.  0.
         11    1    3    3    0    0  0.37873729243E+02 -0.17940276058E+02  0.42429240176E+02  0.59636509740E+02  0.51100000000E-03 0.  1.
         22    1    1    0    0    0 -0.12562759694E+02 -0.25021353332E+01 -0.26047624101E+02  0.29026924288E+02  0.00000000000E+00 0.  1.
</event>
<event>
 5    1  0.1044283E-009  0.9118800E+02  0.7815553E-02  0.1125453E+00
         25   -1    0    0    0    0  0.00000000000E+00  0.00000000000E+00  0.99999998245E-14  0.12509000000E+03  0.12509000000E+03 0.  0.
        -11    1    3    3    0    0 -0.33096196880E+02  0.35505990845E+02 -0.33042074912E+02  0.58718075144E+02  0.51100000000E-03 0.  1.
         23    2    1    0    0    0 -0.25241025163E+02  0.79785181057E+01 -0.63297972018E+01  0.97871762822E+02  0.94010901086E+02 0.  0.
         11    1    3    3    0    0  0.78551717172E+01 -0.27527472739E+02  0.26712277711E+02  0.39153687679E+02  0.51100000000E-03 0. -1.
         22    1    1    0    0    0  0.25241025163E+02 -0.79785181057E+01  0.63297972018E+01  0.27218237178E+02  0.00000000000E+00 0.  1.
</event>
<event>
 5    1  0.1044283E-009  0.9118800E+02  0.7815553E-02  0.1125453E+00
         25   -1    0    0    0    0  0.00000000000E+00  0.00000000000E+00  0.99999998245E-14  0.12509000000E+03  0.12509000000E+03 0.  0.
        -11    1    3    3    0    0  0.56852251383E+01 -0.73299751831E+01  0.27634882553E+02  0.29150249657E+02  0.51100000000E-03 0.  1.
         23    2    1    0    0    0 -0.57964586534E+01  0.81528476136E+01 -0.31863534857E+02  0.91693103277E+02  0.85394803577E+02 0.  0.
         11    1    3    3    0    0 -0.11481683792E+02  0.15482822797E+02 -0.59498417410E+02  0.62542853621E+02  0.51100000000E-03 0. -1.
         22    1    1    0    0    0  0.57964586534E+01 -0.81528476136E+01  0.31863534857E+02  0.33396896723E+02  0.00000000000E+00 0. -1.
</event>
<event>
 5    1  0.1044283E-009  0.9118800E+02  0.7815553E-02  0.1125453E+00
         25   -1    0    0    0    0  0.00000000000E+00  0.00000000000E+00  0.99999998245E-14  0.12509000000E+03  0.12509000000E+03 0.  0.
        -11    1    3    3    0    0  0.24089411335E+02 -0.40184108826E+02  0.85103423553E+01  0.47618150614E+02  0.51100000000E-03 0.  1.
         23    2    1    0    0    0  0.13707816360E+02 -0.91537327093E+01 -0.25444440082E+02  0.94773097405E+02  0.89793236988E+02 0.  0.
         11    1    3    3    0    0 -0.10381594976E+02  0.31030376117E+02 -0.33954782437E+02  0.47154946791E+02  0.51100000000E-03 0. -1.
         22    1    1    0    0    0 -0.13707816360E+02  0.91537327093E+01  0.25444440082E+02  0.30316902595E+02  0.00000000000E+00 0. -1.
</event>
<event>
 5    1  0.1044283E-009  0.9118800E+02  0.7815553E-02  0.1125453E+00
         25   -1    0    0    0    0  0.00000000000E+00  0.00000000000E+00  0.99999998245E-14  0.12509000000E+03  0.12509000000E+03 0.  0.
        -11    1    3    3    0    0 -0.35292773837E+02  0.12102845758E+02 -0.39568514721E+02  0.54384980629E+02  0.51100000000E-03 0. -1.
         23    2    1    0    0    0 -0.34000948638E+02  0.41420044557E+01 -0.42941576065E+01  0.90569564041E+02  0.83732821712E+02 0.  0.
         11    1    3    3    0    0  0.12918251988E+01 -0.79608413021E+01  0.35274357115E+02  0.36184583412E+02  0.51100000000E-03 0.  1.
         22    1    1    0    0    0  0.34000948638E+02 -0.41420044557E+01  0.42941576065E+01  0.34520435959E+02  0.00000000000E+00 0.  1.
</event>
<event>
 5    1  0.1044283E-009  0.9118800E+02  0.7815553E-02  0.1125453E+00
         25   -1    0    0    0    0  0.00000000000E+00  0.00000000000E+00  0.99999998245E-14  0.12509000000E+03  0.12509000000E+03 0.  0.
        -11    1    3    3    0    0  0.21569878715E+02  0.37328462648E+02 -0.14848693248E+02  0.45597779364E+02  0.51100000000E-03 0.  1.
         23    2    1    0    0    0 -0.19467808055E+02  0.64443183608E+01 -0.19010856153E+02  0.97126855662E+02  0.93014453981E+02 0.  0.
         11    1    3    3    0    0 -0.41037686770E+02 -0.30884144287E+02 -0.41621629051E+01  0.51529076298E+02  0.51100000000E-03 0. -1.
         22    1    1    0    0    0  0.19467808055E+02 -0.64443183608E+01  0.19010856153E+02  0.27963144338E+02  0.00000000000E+00 0. -1.
</event>
<event>
 5    1  0.1044283E-009  0.9118800E+02  0.7815553E-02  0.1125453E+00
         25   -1    0    0    0    0  0.00000000000E+00  0.00000000000E+00  0.99999998245E-14  0.12509000000E+03  0.12509000000E+03 0.  0.
        -11    1    3    3    0    0  0.12299749472E+01  0.52212562092E+02  0.39818583309E+01  0.52378618487E+02  0.51100000000E-03 0.  1.
         23    2    1    0    0    0 -0.21731143015E+02  0.16154883738E+02 -0.81454718660E+01  0.96813303637E+02  0.92591814994E+02 0.  0.
         11    1    3    3    0    0 -0.22961117962E+02 -0.36057678354E+02 -0.12127330197E+02  0.44434685150E+02  0.51100000000E-03 0. -1.
         22    1    1    0    0    0  0.21731143015E+02 -0.16154883738E+02  0.81454718660E+01  0.28276696363E+02  0.00000000000E+00 0.  1.
</event>
<event>
 5    1  0.1044283E-009  0.9118800E+02  0.7815553E-02  0.1125453E+00
         25   -1    0    0    0    0  0.00000000000E+00  0.00000000000E+00  0.99999998245E-14  0.12509000000E+03  0.12509000000E+03 0.  0.
        -11    1    3    3    0    0  0.42582867266E+02  0.37025211037E+02 -0.17279365790E+01  0.56454872261E+02  0.51100000000E-03 0.  1.
         23    2    1    0    0    0  0.16240029356E+02  0.17126292606E+02  0.18437483410E+02  0.95140221263E+02  0.90303225057E+02 0.  0.
         11    1    3    3    0    0 -0.26342837909E+02 -0.19898918431E+02  0.20165419989E+02  0.38685349003E+02  0.51100000000E-03 0. -1.
         22    1    1    0    0    0 -0.16240029356E+02 -0.17126292606E+02 -0.18437483410E+02  0.29949778737E+02  0.00000000000E+00 0.  1.
</event>
<event>
 5    1  0.1044283E-009  0.9118800E+02  0.7815553E-02  0.1125453E+00
         25   -1    0    0    0    0  0.00000000000E+00  0.00000000000E+00  0.99999998245E-14  0.12509000000E+03  0.12509000000E+03 0.  0.
        -11    1    3    3    0    0  0.45348639545E+02 -0.69619596981E+01 -0.36390870631E+02  0.58559913396E+02  0.51100000000E-03 0. -1.
         23    2    1    0    0    0  0.15487358276E+02  0.49171893552E+01 -0.29474581744E+02  0.91433084121E+02  0.85013063028E+02 0.  0.
         11    1    3    3    0    0 -0.29861281270E+02  0.11879149053E+02  0.69162888870E+01  0.32873170725E+02  0.51100000000E-03 0.  1.
         22    1    1    0    0    0 -0.15487358276E+02 -0.49171893552E+01  0.29474581744E+02  0.33656915879E+02  0.00000000000E+00 0. -1.
</event>
<event>
 5    1  0.1044283E-009  0.9118800E+02  0.7815553E-02  0.1125453E+00
         25   -1    0    0    0    0  0.00000000000E+00  0.00000000000E+00  0.99999998245E-14  0.12509000000E+03  0.12509000000E+03 0.  0.
        -11    1    3    3    0    0 -0.33349794011E+02  0.67752427895E+01  0.10689532944E+02  0.35670418981E+02  0.51100000000E-03 0.  1.
         23    2    1    0    0    0  0.11255677872E+02 -0.24628700129E+02 -0.12889948525E+02  0.95099769468E+02  0.90247172950E+02 0.  0.
         11    1    3    3    0    0  0.44605471883E+02 -0.31403942918E+02 -0.23579481469E+02  0.59429350487E+02  0.51100000000E-03 0. -1.
         22    1    1    0    0    0 -0.11255677872E+02  0.24628700129E+02  0.12889948525E+02  0.29990230532E+02  0.00000000000E+00 0. -1.
</event>
<event>
 5    1  0.1044283E-009  0.9118800E+02  0.7815553E-02  0.1125453E+00
         25   -1    0    0    0    0  0.00000000000E+00  0.00000000000E+00  0.99999998245E-14  0.12509000000E+03  0.12509000000E+03 0.  0.
        -11    1    3    3    0    0  0.20079732735E+02 -0.18955163568E+02 -0.28289671228E+02  0.39532257602E+02  0.51100000000E-03 0. -1.
         23    2    1    0    0    0  0.12827258541E+02  0.57462815055E+01  0.23693595116E+02  0.97541047890E+02  0.93569820248E+02 0.  0.
         11    1    3    3    0    0 -0.72524741939E+01  0.24701445074E+02  0.51983266344E+02  0.58008790289E+02  0.51100000000E-03 0.  1.
         22    1    1    0    0    0 -0.12827258541E+02 -0.57462815055E+01 -0.23693595116E+02  0.27548952110E+02  0.00000000000E+00 0.  1.
</event>
<event>
 5    1  0.1044283E-009  0.9118800E+02  0.7815553E-02  0.1125453E+00
         25   -1    0    0    0    0  0.00000000000E+00  0.00000000000E+00  0.99999998245E-14  0.12509000000E+03  0.12509000000E+03 0.  0.
        -11    1    3    3    0    0 -0.51636924965E+02  0.15622209161E+02 -0.27787388429E+02  0.60684136270E+02  0.51100000000E-03 0. -1.
         23    2    1    0    0    0 -0.19469123299E+02  0.57067619425E+01 -0.22560389489E+02  0.94748855199E+02  0.89759459077E+02 0.  0.
         11    1    3    3    0    0  0.32167801666E+02 -0.99154472182E+01  0.52269989396E+01  0.34064718929E+02  0.51100000000E-03 0.  1.
         22    1    1    0    0    0  0.19469123299E+02 -0.57067619425E+01  0.22560389489E+02  0.30341144801E+02  0.00000000000E+00 0. -1.
</event>
<event>
 5    1  0.1044283E-009  0.9118800E+02  0.7815553E-02  0.1125453E+00
         25   -1    0    0    0    0  0.00000000000E+00  0.00000000000E+00  0.99999998245E-14  0.12509000000E+03  0.12509000000E+03 0.  0.
        -11    1    3    3    0    0  0.96758097386E+01  0.24909536915E+02  0.52825615751E+02  0.59200101377E+02  0.51100000000E-03 0. -1.
         23    2    1    0    0    0  0.33675215208E+01  0.23619596530E+02  0.16524430292E+02  0.96067899147E+02  0.91579249334E+02 0.  0.
         11    1    3    3    0    0 -0.63082882179E+01 -0.12899403850E+01 -0.36301185458E+02  0.36867797769E+02  0.51100000000E-03 0.  1.
         22    1    1    0    0    0 -0.33675215208E+01 -0.23619596530E+02 -0.16524430292E+02  0.29022100853E+02  0.00000000000E+00 0. -1.
</event>
<event>
 5    1  0.1044283E-009  0.9118800E+02  0.7815553E-02  0.1125453E+00
         25   -1    0    0    0    0  0.00000000000E+00  0.00000000000E+00  0.99999998245E-14  0.12509000000E+03  0.12509000000E+03 0.  0.
        -11    1    3    3    0    0 -0.28310418697E+02 -0.30762763344E+02  0.56297004912E+01  0.42184368470E+02  0.51100000000E-03 0.  1.
         23    2    1    0    0    0 -0.80381656355E+01  0.73438417798E+01 -0.26793362980E+02  0.96168927775E+02  0.91717142622E+02 0.  0.
         11    1    3    3    0    0  0.20272253062E+02  0.38106605123E+02 -0.32423063471E+02  0.53984559305E+02  0.51100000000E-03 0. -1.
         22    1    1    0    0    0  0.80381656355E+01 -0.73438417798E+01  0.26793362980E+02  0.28921072225E+02  0.00000000000E+00 0. -1.
</event>
<event>
 5    1  0.1044283E-009  0.9118800E+02  0.7815553E-02  0.1125453E+00
         25   -1    0    0    0    0  0.00000000000E+00  0.00000000000E+00  0.99999998245E-14  0.12509000000E+03  0.12509000000E+03 0.  0.
        -11    1    3    3    0    0  0.29116378399E+02  0.35172279062E+02 -0.26228064831E+02  0.52657042174E+02  0.51100000000E-03 0.  1.
         23    2    1    0    0    0  0.24391269627E+02  0.17609369846E+02  0.10159895931E+02  0.93337087918E+02  0.87769952462E+02 0.  0.
         11    1    3    3    0    0 -0.47251087717E+01 -0.17562909217E+02  0.36387960761E+02  0.40680045744E+02  0.51100000000E-03 0. -1.
         22    1    1    0    0    0 -0.24391269627E+02 -0.17609369846E+02 -0.10159895931E+02  0.31752912082E+02  0.00000000000E+00 0.  1.
</event>
<event>
 4    1  0.1044283E-009  0.9118800E+02  0.7815553E-02  0.1125453E+00
         25   -1    0    0    0    0  0.00000000000E+00  0.00000000000E+00  0.99999998245E-14  0.12509000000E+03  0.12509000000E+03 0.  0.
        -11    1    1    0    0    0 -0.24968646254E+02  0.21948640975E+02  0.48938024409E+02  0.59161696813E+02  0.51100000000E-03 0. -1.
         11    1    1    0    0    0  0.24828142121E+01 -0.12557553027E+02 -0.18836437780E+01  0.12938493676E+02  0.51100000000E-03 0.  1.
         22    1    1    0    0    0  0.22485832042E+02 -0.93910879480E+01 -0.47054380631E+02  0.52989809512E+02  0.00000000000E+00 0. -1.
</event>
<event>
 5    1  0.1044283E-009  0.9118800E+02  0.7815553E-02  0.1125453E+00
         25   -1    0    0    0    0  0.00000000000E+00  0.00000000000E+00  0.99999998245E-14  0.12509000000E+03  0.12509000000E+03 0.  0.
        -11    1    3    3    0    0  0.48731807358E+00 -0.16806214530E+02 -0.54113525798E+02  0.56665333320E+02  0.51100000000E-03 0. -1.
         23    2    1    0    0    0  0.16647317899E+02  0.22655144076E+01 -0.23823328219E+02  0.95938383987E+02  0.91402170684E+02 0.  0.
         11    1    3    3    0    0  0.16159999826E+02  0.19071728937E+02  0.30290197579E+02  0.39273050667E+02  0.51100000000E-03 0.  1.
         22    1    1    0    0    0 -0.16647317899E+02 -0.22655144076E+01  0.23823328219E+02  0.29151616013E+02  0.00000000000E+00 0. -1.
</event>
<event>
 5    1  0.1044283E-009  0.9118800E+02  0.7815553E-02  0.1125453E+00
         25   -1    0    0    0    0  0.00000000000E+00  0.00000000000E+00  0.99999998245E-14  0.12509000000E+03  0.12509000000E+03 0.  0.
        -11    1    3    3    0    0 -0.51516032582E+02  0.14328939512E+02 -0.22119586620E+02  0.57866192487E+02  0.51100000000E-03 0. -1.
         23    2    1    0    0    0 -0.16113607323E+02 -0.32745045192E+00 -0.23945253213E+02  0.96225996185E+02  0.91794943356E+02 0.  0.
         11    1    3    3    0    0  0.35402425259E+02 -0.14656389964E+02 -0.18256665935E+01  0.38359803698E+02  0.51100000000E-03 0.  1.
         22    1    1    0    0    0  0.16113607323E+02  0.32745045192E+00  0.23945253213E+02  0.28864003815E+02  0.00000000000E+00 0. -1.
</event>
<event>
 5    1  0.1044283E-009  0.9118800E+02  0.7815553E-02  0.1125453E+00
         25   -1    0    0    0    0  0.00000000000E+00  0.00000000000E+00  0.99999998245E-14  0.12509000000E+03  0.12509000000E+03 0.  0.
        -11    1    3    3    0    0 -0.40724212195E+02 -0.85367104822E+01 -0.10271541655E+02  0.42858388362E+02  0.51100000000E-03 0.  1.
         23    2    1    0    0    0  0.66204174868E+00 -0.11071184134E+01 -0.33950408747E+02  0.91115093605E+02  0.84543870375E+02 0.  0.
         11    1    3    3    0    0  0.41386253944E+02  0.74295920688E+01 -0.23678867093E+02  0.48256705243E+02  0.51100000000E-03 0. -1.
         22    1    1    0    0    0 -0.66204174868E+00  0.11071184134E+01  0.33950408747E+02  0.33974906395E+02  0.00000000000E+00 0. -1.
</event>
<event>
 5    1  0.1044283E-009  0.9118800E+02  0.7815553E-02  0.1125453E+00
         25   -1    0    0    0    0  0.00000000000E+00  0.00000000000E+00  0.99999998245E-14  0.12509000000E+03  0.12509000000E+03 0.  0.
        -11    1    3    3    0    0  0.16313403970E+02 -0.30450146551E+02 -0.17821593282E+02  0.38870911507E+02  0.51100000000E-03 0.  1.
         23    2    1    0    0    0 -0.25897377225E+01 -0.43407685274E+01  0.28965415844E+02  0.95686865339E+02  0.91057299930E+02 0.  0.
         11    1    3    3    0    0 -0.18903141692E+02  0.26109378024E+02  0.46787009126E+02  0.56815953832E+02  0.51100000000E-03 0. -1.
         22    1    1    0    0    0  0.25897377225E+01  0.43407685274E+01 -0.28965415844E+02  0.29403134661E+02  0.00000000000E+00 0. -1.
</event>
<event>
 5    1  0.1044283E-009  0.9118800E+02  0.7815553E-02  0.1125453E+00
         25   -1    0    0    0    0  0.00000000000E+00  0.00000000000E+00  0.99999998245E-14  0.12509000000E+03  0.12509000000E+03 0.  0.
        -11    1    3    3    0    0  0.32331924698E+02  0.16987928066E+01  0.49810211169E+02  0.59407881536E+02  0.51100000000E-03 0.  1.
         23    2    1    0    0    0  0.25775798449E+02  0.18292859528E+01  0.14223994314E+02  0.95593219039E+02  0.90928562285E+02 0.  0.
         11    1    3    3    0    0 -0.65561262482E+01  0.13049314630E+00 -0.35586216856E+02  0.36185337503E+02  0.51100000000E-03 0. -1.
         22    1    1    0    0    0 -0.25775798449E+02 -0.18292859528E+01 -0.14223994314E+02  0.29496780961E+02  0.00000000000E+00 0.  1.
</event>
<event>
 5    1  0.1044283E-009  0.9118800E+02  0.7815553E-02  0.1125453E+00
         25   -1    0    0    0    0  0.00000000000E+00  0.00000000000E+00  0.99999998245E-14  0.12509000000E+03  0.12509000000E+03 0.  0.
        -11    1    3    3    0    0 -0.36703126725E+02 -0.13229222977E+02  0.41186594889E+01  0.39231303932E+02  0.51100000000E-03 0. -1.
         23    2    1    0    0    0  0.17798692351E+02 -0.18988370868E+02 -0.12103879022E+02  0.96387115737E+02  0.92014240827E+02 0.  0.
         11    1    3    3    0    0  0.54501819076E+02 -0.57591478914E+01 -0.16222538511E+02  0.57155811805E+02  0.51100000000E-03 0.  1.
         22    1    1    0    0    0 -0.17798692351E+02  0.18988370868E+02  0.12103879022E+02  0.28702884263E+02  0.00000000000E+00 0.  1.
</event>
<event>
 5    1  0.1044283E-009  0.9118800E+02  0.7815553E-02  0.1125453E+00
         25   -1    0    0    0    0  0.00000000000E+00  0.00000000000E+00  0.99999998245E-14  0.12509000000E+03  0.12509000000E+03 0.  0.
        -11    1    3    3    0    0 -0.25649084998E+02  0.14460256285E+02 -0.14118841666E+02  0.32654498363E+02  0.51100000000E-03 0. -1.
         23    2    1    0    0    0  0.10937999232E+02 -0.30839386732E+02 -0.94979763965E+00  0.92354549541E+02  0.86358283356E+02 0.  0.
         11    1    3    3    0    0  0.36587084230E+02 -0.45299643017E+02  0.13169044026E+02  0.59700051179E+02  0.51100000000E-03 0.  1.
         22    1    1    0    0    0 -0.10937999232E+02  0.30839386732E+02  0.94979763965E+00  0.32735450459E+02  0.00000000000E+00 0.  1.
</event>
<event>
 5    1  0.1044283E-009  0.9118800E+02  0.7815553E-02  0.1125453E+00
         25   -1    0    0    0    0  0.00000000000E+00  0.00000000000E+00  0.99999998245E-14  0.12509000000E+03  0.12509000000E+03 0.  0.
        -11    1    3    3    0    0  0.52438506664E+02  0.12748098364E+02 -0.15419704839E+02  0.56125558266E+02  0.51100000000E-03 0.  1.
         23    2    1    0    0    0  0.23422404533E+02  0.14500654016E+02  0.11019719036E+02  0.95419944243E+02  0.90689875679E+02 0.  0.
         11    1    3    3    0    0 -0.29016102131E+02  0.17525556519E+01  0.26439423875E+02  0.39294385977E+02  0.51100000000E-03 0. -1.
         22    1    1    0    0    0 -0.23422404533E+02 -0.14500654016E+02 -0.11019719036E+02  0.29670055757E+02  0.00000000000E+00 0.  1.
</event>
<event>
 5    1  0.1044283E-009  0.9118800E+02  0.7815553E-02  0.1125453E+00
         25   -1    0    0    0    0  0.00000000000E+00  0.00000000000E+00  0.99999998245E-14  0.12509000000E+03  0.12509000000E+03 0.  0.
        -11    1    3    3    0    0 -0.10463674546E+02  0.19231972310E+02  0.36025371383E+02  0.42156667651E+02  0.51100000000E-03 0.  1.
         23    2    1    0    0    0 -0.18617679592E+02  0.19506782723E+02 -0.15272967910E+02  0.94099741622E+02  0.88850240624E+02 0.  0.
         11    1    3    3    0    0 -0.81540050463E+01  0.27481041237E+00 -0.51298339292E+02  0.51943073970E+02  0.51100000000E-03 0. -1.
         22    1    1    0    0    0  0.18617679592E+02 -0.19506782723E+02  0.15272967910E+02  0.30990258378E+02  0.00000000000E+00 0. -1.
</event>
<event>
 5    1  0.1044283E-009  0.9118800E+02  0.7815553E-02  0.1125453E+00
         25   -1    0    0    0    0  0.00000000000E+00  0.00000000000E+00  0.99999998245E-14  0.12509000000E+03  0.12509000000E+03 0.  0.
        -11    1    3    3    0    0  0.51126015213E+02 -0.60569415601E+01 -0.17575537430E+02  0.54400877647E+02  0.51100000000E-03 0.  1.
         23    2    1    0    0    0  0.13293952326E+02  0.64015508546E+01 -0.26076408416E+02  0.95128556482E+02  0.90287065301E+02 0.  0.
         11    1    3    3    0    0 -0.37832062886E+02  0.12458492415E+02 -0.85008709860E+01  0.40727678835E+02  0.51100000000E-03 0. -1.
         22    1    1    0    0    0 -0.13293952326E+02 -0.64015508546E+01  0.26076408416E+02  0.29961443518E+02  0.00000000000E+00 0.  1.
</event>
<event>
 5    1  0.1044283E-009  0.9118800E+02  0.7815553E-02  0.1125453E+00
         25   -1    0    0    0    0  0.00000000000E+00  0.00000000000E+00  0.99999998245E-14  0.12509000000E+03  0.12509000000E+03 0.  0.
        -11    1    3    3    0    0  0.13118310264E+02 -0.19558915925E+02  0.41875701458E+02  0.48043892735E+02  0.51100000000E-03 0. -1.
         23    2    1    0    0    0 -0.24257779608E+02 -0.76051379506E+01  0.15824328935E+02  0.95145261214E+02  0.90310206236E+02 0.  0.
         11    1    3    3    0    0 -0.37376089872E+02  0.11953777974E+02 -0.26051372523E+02  0.47101368478E+02  0.51100000000E-03 0.  1.
         22    1    1    0    0    0  0.24257779608E+02  0.76051379506E+01 -0.15824328935E+02  0.29944738786E+02  0.00000000000E+00 0.  1.
</event>
<event>
 5    1  0.1044283E-009  0.9118800E+02  0.7815553E-02  0.1125453E+00
         25   -1    0    0    0    0  0.00000000000E+00  0.00000000000E+00  0.99999998245E-14  0.12509000000E+03  0.12509000000E+03 0.  0.
        -11    1    3    3    0    0  0.29810743398E+02 -0.41893484434E+02 -0.32694072133E+02  0.60931492784E+02  0.51100000000E-03 0.  1.
         23    2    1    0    0    0  0.83386636162E+01 -0.12981700498E+02 -0.21465948625E+02  0.98654326959E+02  0.95046469786E+02 0.  0.
         11    1    3    3    0    0 -0.21472079782E+02  0.28911783935E+02  0.11228123508E+02  0.37722834176E+02  0.51100000000E-03 0. -1.
         22    1    1    0    0    0 -0.83386636162E+01  0.12981700498E+02  0.21465948625E+02  0.26435673041E+02  0.00000000000E+00 0.  1.
</event>
<event>
 5    1  0.1044283E-009  0.9118800E+02  0.7815553E-02  0.1125453E+00
         25   -1    0    0    0    0  0.00000000000E+00  0.00000000000E+00  0.99999998245E-14  0.12509000000E+03  0.12509000000E+03 0.  0.
        -11    1    3    3    0    0 -0.25842694520E+02 -0.25851974976E+02  0.39513617644E+02  0.53828388883E+02  0.51100000000E-03 0. -1.
         23    2    1    0    0    0 -0.73674154072E+01  0.10447098069E+02  0.24898543764E+02  0.97101463965E+02  0.92980299820E+02 0.  0.
         11    1    3    3    0    0  0.18475279113E+02  0.36299073045E+02 -0.14615073880E+02  0.43273075081E+02  0.51100000000E-03 0.  1.
         22    1    1    0    0    0  0.73674154072E+01 -0.10447098069E+02 -0.24898543764E+02  0.27988536035E+02  0.00000000000E+00 0.  1.
</event>
<event>
 5    1  0.1044283E-009  0.9118800E+02  0.7815553E-02  0.1125453E+00
         25   -1    0    0    0    0  0.00000000000E+00  0.00000000000E+00  0.99999998245E-14  0.12509000000E+03  0.12509000000E+03 0.  0.
        -11    1    3    3    0    0 -0.18130682777E+01 -0.40474205544E+02 -0.23508490121E+02  0.46841195961E+02  0.51100000000E-03 0. -1.
         23    2    1    0    0    0 -0.10847142174E+02  0.76008170385E+01 -0.26094981634E+02  0.95826012242E+02  0.91248252820E+02 0.  0.
         11    1    3    3    0    0 -0.90340738963E+01  0.48075022583E+02 -0.25864915127E+01  0.48984816281E+02  0.51100000000E-03 0.  1.
         22    1    1    0    0    0  0.10847142174E+02 -0.76008170385E+01  0.26094981634E+02  0.29263987758E+02  0.00000000000E+00 0. -1.
</event>
<event>
 5    1  0.1044283E-009  0.9118800E+02  0.7815553E-02  0.1125453E+00
         25   -1    0    0    0    0  0.00000000000E+00  0.00000000000E+00  0.99999998245E-14  0.12509000000E+03  0.12509000000E+03 0.  0.
        -11    1    3    3    0    0 -0.52634426125E+02  0.65206775390E+01  0.88700924831E+00  0.53044215847E+02  0.51100000000E-03 0. -1.
         23    2    1    0    0    0 -0.14783723848E+02  0.25026015757E+02 -0.50352403521E+01  0.95590616940E+02  0.90924982519E+02 0.  0.
         11    1    3    3    0    0  0.37850702277E+02  0.18505338218E+02 -0.59222496004E+01  0.42546401094E+02  0.51100000000E-03 0.  1.
         22    1    1    0    0    0  0.14783723848E+02 -0.25026015757E+02  0.50352403521E+01  0.29499383060E+02  0.00000000000E+00 0.  1.
</event>
<event>
 5    1  0.1044283E-009  0.9118800E+02  0.7815553E-02  0.1125453E+00
         25   -1    0    0    0    0  0.00000000000E+00  0.00000000000E+00  0.99999998245E-14  0.12509000000E+03  0.12509000000E+03 0.  0.
        -11    1    3    3    0    0  0.25789041918E+02  0.22847937658E+02  0.29262305474E+02  0.45203821301E+02  0.51100000000E-03 0. -1.
         23    2    1    0    0    0  0.33397717657E+02 -0.34117606235E+01 -0.71777397721E+01  0.90759727594E+02  0.84016430235E+02 0.  0.
         11    1    3    3    0    0  0.76086757386E+01 -0.26259698282E+02 -0.36440045246E+02  0.45555906293E+02  0.51100000000E-03 0.  1.
         22    1    1    0    0    0 -0.33397717657E+02  0.34117606235E+01  0.71777397721E+01  0.34330272406E+02  0.00000000000E+00 0. -1.
</event>
<event>
 5    1  0.1044283E-009  0.9118800E+02  0.7815553E-02  0.1125453E+00
         25   -1    0    0    0    0  0.00000000000E+00  0.00000000000E+00  0.99999998245E-14  0.12509000000E+03  0.12509000000E+03 0.  0.
        -11    1    3    3    0    0  0.24410970856E+02  0.11642764168E+02 -0.17313955430E+02  0.32112653402E+02  0.51100000000E-03 0.  1.
         23    2    1    0    0    0 -0.32788263218E+00 -0.27448904749E+02  0.19652135448E+02  0.91329722948E+02  0.84860838950E+02 0.  0.
         11    1    3    3    0    0 -0.24738853489E+02 -0.39091668917E+02  0.36966090878E+02  0.59217069547E+02  0.51100000000E-03 0. -1.
         22    1    1    0    0    0  0.32788263218E+00  0.27448904749E+02 -0.19652135448E+02  0.33760277052E+02  0.00000000000E+00 0. -1.
</event>
<event>
 5    1  0.1044283E-009  0.9118800E+02  0.7815553E-02  0.1125453E+00
         25   -1    0    0    0    0  0.00000000000E+00  0.00000000000E+00  0.99999998245E-14  0.12509000000E+03  0.12509000000E+03 0.  0.
        -11    1    3    3    0    0 -0.11590487091E+02  0.30277020577E+02 -0.51311845723E+02  0.60695493060E+02  0.51100000000E-03 0.  1.
         23    2    1    0    0    0 -0.59974718652E+01  0.22725364073E+02 -0.17505121530E+02  0.95784008790E+02  0.91190653134E+02 0.  0.
         11    1    3    3    0    0  0.55930152254E+01 -0.75516565038E+01  0.33806724192E+02  0.35088515730E+02  0.51100000000E-03 0. -1.
         22    1    1    0    0    0  0.59974718652E+01 -0.22725364073E+02  0.17505121530E+02  0.29305991210E+02  0.00000000000E+00 0.  1.
</event>
<event>
 5    1  0.1044283E-009  0.9118800E+02  0.7815553E-02  0.1125453E+00
         25   -1    0    0    0    0  0.00000000000E+00  0.00000000000E+00  0.99999998245E-14  0.12509000000E+03  0.12509000000E+03 0.  0.
        -11    1    3    3    0    0 -0.12144268581E+02  0.31535072930E+02 -0.57619355622E+01  0.34280373185E+02  0.51100000000E-03 0.  1.
         23    2    1    0    0    0  0.30703961924E+01 -0.17320791677E+02  0.25400797880E+02  0.94192788313E+02  0.88981142273E+02 0.  0.
         11    1    3    3    0    0  0.15214664774E+02 -0.48855864606E+02  0.31162733442E+02  0.59912415128E+02  0.51100000000E-03 0. -1.
         22    1    1    0    0    0 -0.30703961924E+01  0.17320791677E+02 -0.25400797880E+02  0.30897211687E+02  0.00000000000E+00 0. -1.
</event>
<event>
 5    1  0.1044283E-009  0.9118800E+02  0.7815553E-02  0.1125453E+00
         25   -1    0    0    0    0  0.00000000000E+00  0.00000000000E+00  0.99999998245E-14  0.12509000000E+03  0.12509000000E+03 0.  0.
        -11    1    3    3    0    0  0.42130331900E+02 -0.27699311390E+02 -0.15750830679E+02  0.52823341288E+02  0.51100000000E-03 0. -1.
         23    2    1    0    0    0  0.23918042638E+02 -0.22165151644E+01  0.15043387573E+02  0.96747642780E+02  0.92503065737E+02 0.  0.
         11    1    3    3    0    0 -0.18212289262E+02  0.25482796225E+02  0.30794218252E+02  0.43924301492E+02  0.51100000000E-03 0.  1.
         22    1    1    0    0    0 -0.23918042638E+02  0.22165151644E+01 -0.15043387573E+02  0.28342357220E+02  0.00000000000E+00 0.  1.
</event>
<event>
 5    1  0.1044283E-009  0.9118800E+02  0.7815553E-02  0.1125453E+00
         25   -1    0    0    0    0  0.00000000000E+00  0.00000000000E+00  0.99999998245E-14  0.12509000000E+03  0.12509000000E+03 0.  0.
        -11    1    3    3    0    0 -0.12769370176E+02 -0.65363611279E+01 -0.45824423793E+02  0.48017274472E+02  0.51100000000E-03 0.  1.
         23    2    1    0    0    0  0.10733482991E+02 -0.26859711384E+02 -0.12500303139E+02  0.93579536161E+02  0.88114812925E+02 0.  0.
         11    1    3    3    0    0  0.23502853168E+02 -0.20323350256E+02  0.33324120654E+02  0.45562261689E+02  0.51100000000E-03 0. -1.
         22    1    1    0    0    0 -0.10733482991E+02  0.26859711384E+02  0.12500303139E+02  0.31510463839E+02  0.00000000000E+00 0.  1.
</event>
<event>
 5    1  0.1044283E-009  0.9118800E+02  0.7815553E-02  0.1125453E+00
         25   -1    0    0    0    0  0.00000000000E+00  0.00000000000E+00  0.99999998245E-14  0.12509000000E+03  0.12509000000E+03 0.  0.
        -11    1    3    3    0    0  0.32027459083E+02 -0.50666945437E+02  0.19172189561E+01  0.59971436734E+02  0.51100000000E-03 0.  1.
         23    2    1    0    0    0  0.69829715164E+01 -0.25686746663E+02 -0.90000713736E+01  0.96990673851E+02  0.92831129929E+02 0.  0.
         11    1    3    3    0    0 -0.25044487567E+02  0.24980198774E+02 -0.10917290330E+02  0.37019237116E+02  0.51100000000E-03 0. -1.
         22    1    1    0    0    0 -0.69829715164E+01  0.25686746663E+02  0.90000713736E+01  0.28099326149E+02  0.00000000000E+00 0.  1.
</event>
<event>
 5    1  0.1044283E-009  0.9118800E+02  0.7815553E-02  0.1125453E+00
         25   -1    0    0    0    0  0.00000000000E+00  0.00000000000E+00  0.99999998245E-14  0.12509000000E+03  0.12509000000E+03 0.  0.
        -11    1    3    3    0    0 -0.27130797079E+02  0.39921756197E+02 -0.37019014135E+02  0.60829550186E+02  0.51100000000E-03 0.  1.
         23    2    1    0    0    0 -0.17201422677E+02  0.10469929377E+02 -0.21719463096E+02  0.95471704295E+02  0.90761241070E+02 0.  0.
         11    1    3    3    0    0  0.99293744019E+01 -0.29451826821E+02  0.15299551039E+02  0.34642154110E+02  0.51100000000E-03 0. -1.
         22    1    1    0    0    0  0.17201422677E+02 -0.10469929377E+02  0.21719463096E+02  0.29618295705E+02  0.00000000000E+00 0.  1.
</event>
<event>
 5    1  0.1044283E-009  0.9118800E+02  0.7815553E-02  0.1125453E+00
         25   -1    0    0    0    0  0.00000000000E+00  0.00000000000E+00  0.99999998245E-14  0.12509000000E+03  0.12509000000E+03 0.  0.
        -11    1    3    3    0    0  0.36757616867E+02  0.14046178615E+02 -0.63566115940E+01  0.39860055728E+02  0.51100000000E-03 0.  1.
         23    2    1    0    0    0 -0.15928499302E+02  0.11003027149E+02 -0.22840885180E+02  0.95148561620E+02  0.90314777562E+02 0.  0.
         11    1    3    3    0    0 -0.52686116169E+02 -0.30431514660E+01 -0.16484273586E+02  0.55288505892E+02  0.51100000000E-03 0. -1.
         22    1    1    0    0    0  0.15928499302E+02 -0.11003027149E+02  0.22840885180E+02  0.29941438380E+02  0.00000000000E+00 0. -1.
</event>
<event>
 5    1  0.1044283E-009  0.9118800E+02  0.7815553E-02  0.1125453E+00
         25   -1    0    0    0    0  0.00000000000E+00  0.00000000000E+00  0.99999998245E-14  0.12509000000E+03  0.12509000000E+03 0.  0.
        -11    1    3    3    0    0 -0.15771012345E+02  0.59465068819E+02 -0.97375189261E+01  0.62286744297E+02  0.51100000000E-03 0. -1.
         23    2    1    0    0    0 -0.36643272287E+01  0.29398605473E+02 -0.42410779125E+01  0.95161885464E+02  0.90333229796E+02 0.  0.
         11    1    3    3    0    0  0.12106685117E+02 -0.30066463346E+02  0.54964410136E+01  0.32875141167E+02  0.51100000000E-03 0.  1.
         22    1    1    0    0    0  0.36643272287E+01 -0.29398605473E+02  0.42410779125E+01  0.29928114536E+02  0.00000000000E+00 0. -1.
</event>
<event>
 5    1  0.1044283E-009  0.9118800E+02  0.7815553E-02  0.1125453E+00
         25   -1    0    0    0    0  0.00000000000E+00  0.00000000000E+00  0.99999998245E-14  0.12509000000E+03  0.12509000000E+03 0.  0.
        -11    1    3    3    0    0  0.88402234754E+01  0.37749315128E+02 -0.13638230202E+02  0.41099412004E+02  0.51100000000E-03 0.  1.
         23    2    1    0    0    0 -0.38970737597E+01  0.17153528922E+01  0.27506381347E+02  0.97256016558E+02  0.93187993446E+02 0.  0.
         11    1    3    3    0    0 -0.12737297235E+02 -0.36033962236E+02  0.41144611549E+02  0.56156604554E+02  0.51100000000E-03 0. -1.
         22    1    1    0    0    0  0.38970737597E+01 -0.17153528922E+01 -0.27506381347E+02  0.27833983442E+02  0.00000000000E+00 0. -1.
</event>
<event>
 5    1  0.1044283E-009  0.9118800E+02  0.7815553E-02  0.1125453E+00
         25   -1    0    0    0    0  0.00000000000E+00  0.00000000000E+00  0.99999998245E-14  0.12509000000E+03  0.12509000000E+03 0.  0.
        -11    1    3    3    0    0  0.16022003478E+02  0.48558317045E+02 -0.18468544863E+02  0.54366367354E+02  0.51100000000E-03 0.  1.
         23    2    1    0    0    0  0.18363013525E+02  0.66363029170E+01 -0.20981471217E+02  0.96428825625E+02  0.92070926436E+02 0.  0.
         11    1    3    3    0    0  0.23410100474E+01 -0.41922014128E+02 -0.25129263549E+01  0.42062458270E+02  0.51100000000E-03 0. -1.
         22    1    1    0    0    0 -0.18363013525E+02 -0.66363029170E+01  0.20981471217E+02  0.28661174375E+02  0.00000000000E+00 0.  1.
</event>
<event>
 5    1  0.1044283E-009  0.9118800E+02  0.7815553E-02  0.1125453E+00
         25   -1    0    0    0    0  0.00000000000E+00  0.00000000000E+00  0.99999998245E-14  0.12509000000E+03  0.12509000000E+03 0.  0.
        -11    1    3    3    0    0 -0.98899137043E+01  0.59661003956E+02  0.13039487817E+02  0.61864966086E+02  0.51100000000E-03 0.  1.
         23    2    1    0    0    0 -0.11357999979E+02  0.28999279199E+02  0.74605330044E+01  0.93064667678E+02  0.87380835770E+02 0.  0.
         11    1    3    3    0    0 -0.14680862751E+01 -0.30661724757E+02 -0.55789548130E+01  0.31199701592E+02  0.51100000000E-03 0. -1.
         22    1    1    0    0    0  0.11357999979E+02 -0.28999279199E+02 -0.74605330044E+01  0.32025332322E+02  0.00000000000E+00 0.  1.
</event>
<event>
 5    1  0.1044283E-009  0.9118800E+02  0.7815553E-02  0.1125453E+00
         25   -1    0    0    0    0  0.00000000000E+00  0.00000000000E+00  0.99999998245E-14  0.12509000000E+03  0.12509000000E+03 0.  0.
        -11    1    3    3    0    0  0.49803640155E+02  0.12292156471E+02  0.34972002385E+02  0.62084946924E+02  0.51100000000E-03 0. -1.
         23    2    1    0    0    0  0.28214299811E+02  0.10515216237E+02  0.25097690148E+02  0.85891651347E+02  0.76425553541E+02 0.  0.
         11    1    3    3    0    0 -0.21589340344E+02 -0.17769402338E+01 -0.98743122370E+01  0.23806704423E+02  0.51100000000E-03 0.  1.
         22    1    1    0    0    0 -0.28214299811E+02 -0.10515216237E+02 -0.25097690148E+02  0.39198348653E+02  0.00000000000E+00 0. -1.
</event>
<event>
 5    1  0.1044283E-009  0.9118800E+02  0.7815553E-02  0.1125453E+00
         25   -1    0    0    0    0  0.00000000000E+00  0.00000000000E+00  0.99999998245E-14  0.12509000000E+03  0.12509000000E+03 0.  0.
        -11    1    3    3    0    0  0.91446369265E+01  0.31684038571E+02 -0.51279945458E+02  0.60968315469E+02  0.51100000000E-03 0.  1.
         23    2    1    0    0    0 -0.39851172766E+01  0.19853938588E+02 -0.21831584002E+02  0.95312859486E+02  0.90542051480E+02 0.  0.
         11    1    3    3    0    0 -0.13129754203E+02 -0.11830099983E+02  0.29448361456E+02  0.34344544017E+02  0.51100000000E-03 0. -1.
         22    1    1    0    0    0  0.39851172766E+01 -0.19853938588E+02  0.21831584002E+02  0.29777140514E+02  0.00000000000E+00 0.  1.
</event>
<event>
 5    1  0.1044283E-009  0.9118800E+02  0.7815553E-02  0.1125453E+00
         25   -1    0    0    0    0  0.00000000000E+00  0.00000000000E+00  0.99999998245E-14  0.12509000000E+03  0.12509000000E+03 0.  0.
        -11    1    3    3    0    0  0.12586956124E+02 -0.23228495931E+02 -0.32995900540E+01  0.26624833943E+02  0.51100000000E-03 0. -1.
         23    2    1    0    0    0 -0.57763209777E+00  0.32743835405E+02  0.17730233923E+02  0.87849516506E+02  0.79565595200E+02 0.  0.
         11    1    3    3    0    0 -0.13164588222E+02  0.55972331336E+02  0.21029823977E+02  0.61224682564E+02  0.51100000000E-03 0.  1.
         22    1    1    0    0    0  0.57763209777E+00 -0.32743835405E+02 -0.17730233923E+02  0.37240483494E+02  0.00000000000E+00 0.  1.
</event>
<event>
 5    1  0.1044283E-009  0.9118800E+02  0.7815553E-02  0.1125453E+00
         25   -1    0    0    0    0  0.00000000000E+00  0.00000000000E+00  0.99999998245E-14  0.12509000000E+03  0.12509000000E+03 0.  0.
        -11    1    3    3    0    0 -0.30533032645E+02 -0.32600965708E+02 -0.17586522133E+02  0.48003904098E+02  0.51100000000E-03 0.  1.
         23    2    1    0    0    0 -0.22952286007E+02 -0.10965178842E-01  0.17304022239E+02  0.96345665970E+02  0.91957874119E+02 0.  0.
         11    1    3    3    0    0  0.75807466384E+01  0.32590000530E+02  0.34890544371E+02  0.48341761872E+02  0.51100000000E-03 0. -1.
         22    1    1    0    0    0  0.22952286007E+02  0.10965178842E-01 -0.17304022239E+02  0.28744334030E+02  0.00000000000E+00 0.  1.
</event>
<event>
 5    1  0.1044283E-009  0.9118800E+02  0.7815553E-02  0.1125453E+00
         25   -1    0    0    0    0  0.00000000000E+00  0.00000000000E+00  0.99999998245E-14  0.12509000000E+03  0.12509000000E+03 0.  0.
        -11    1    3    3    0    0  0.32752435305E+02 -0.15351303791E+01  0.67747442045E+01  0.33480976733E+02  0.51100000000E-03 0. -1.
         23    2    1    0    0    0 -0.29180824906E+02  0.11322706266E+01 -0.39227490777E+00  0.95884581691E+02  0.91328508953E+02 0.  0.
         11    1    3    3    0    0 -0.61933260212E+02  0.26674010058E+01 -0.71670191123E+01  0.62403604958E+02  0.51100000000E-03 0.  1.
         22    1    1    0    0    0  0.29180824906E+02 -0.11322706266E+01  0.39227490777E+00  0.29205418309E+02  0.00000000000E+00 0.  1.
</event>
<event>
 5    1  0.1044283E-009  0.9118800E+02  0.7815553E-02  0.1125453E+00
         25   -1    0    0    0    0  0.00000000000E+00  0.00000000000E+00  0.99999998245E-14  0.12509000000E+03  0.12509000000E+03 0.  0.
        -11    1    3    3    0    0 -0.48680208039E+02  0.56615189867E+01  0.34685132783E+02  0.60040601999E+02  0.51100000000E-03 0.  1.
         23    2    1    0    0    0 -0.15060202515E+02  0.30027305563E+01  0.26045038483E+02  0.94854753678E+02  0.89906919507E+02 0.  0.
         11    1    3    3    0    0  0.33620005524E+02 -0.26587884304E+01 -0.86400943004E+01  0.34814151679E+02  0.51100000000E-03 0. -1.
         22    1    1    0    0    0  0.15060202515E+02 -0.30027305563E+01 -0.26045038483E+02  0.30235246322E+02  0.00000000000E+00 0.  1.
</event>
<event>
 5    1  0.1044283E-009  0.9118800E+02  0.7815553E-02  0.1125453E+00
         25   -1    0    0    0    0  0.00000000000E+00  0.00000000000E+00  0.99999998245E-14  0.12509000000E+03  0.12509000000E+03 0.  0.
        -11    1    3    3    0    0 -0.25150115356E+02  0.77321328877E+00 -0.25390159193E+02  0.35746137488E+02  0.51100000000E-03 0.  1.
         23    2    1    0    0    0  0.21927399685E+02 -0.14071245507E+02  0.10730572000E+02  0.96912775465E+02  0.92726102398E+02 0.  0.
         11    1    3    3    0    0  0.47077515041E+02 -0.14844458796E+02  0.36120731192E+02  0.61166637977E+02  0.51100000000E-03 0. -1.
         22    1    1    0    0    0 -0.21927399685E+02  0.14071245507E+02 -0.10730572000E+02  0.28177224535E+02  0.00000000000E+00 0. -1.
</event>
<event>
 5    1  0.1044283E-009  0.9118800E+02  0.7815553E-02  0.1125453E+00
         25   -1    0    0    0    0  0.00000000000E+00  0.00000000000E+00  0.99999998245E-14  0.12509000000E+03  0.12509000000E+03 0.  0.
        -11    1    3    3    0    0  0.22234073045E+02  0.51869870261E+02 -0.71795121550E+01  0.56889215500E+02  0.51100000000E-03 0.  1.
         23    2    1    0    0    0 -0.19220881709E+01  0.20627657406E+02 -0.17791522020E+02  0.97781888956E+02  0.93891239629E+02 0.  0.
         11    1    3    3    0    0 -0.24156161216E+02 -0.31242212855E+02 -0.10612009865E+02  0.40892673456E+02  0.51100000000E-03 0. -1.
         22    1    1    0    0    0  0.19220881709E+01 -0.20627657406E+02  0.17791522020E+02  0.27308111044E+02  0.00000000000E+00 0.  1.
</event>
<event>
 5    1  0.1044283E-009  0.9118800E+02  0.7815553E-02  0.1125453E+00
         25   -1    0    0    0    0  0.00000000000E+00  0.00000000000E+00  0.99999998245E-14  0.12509000000E+03  0.12509000000E+03 0.  0.
        -11    1    3    3    0    0  0.19865590701E+02  0.56148359915E+02  0.54756547603E+01  0.59810223293E+02  0.51100000000E-03 0. -1.
         23    2    1    0    0    0  0.20764213695E+02  0.20702170715E+02 -0.48209598332E+00  0.95764842555E+02  0.91164358224E+02 0.  0.
         11    1    3    3    0    0  0.89862299415E+00 -0.35446189200E+02 -0.59577507436E+01  0.35954619262E+02  0.51100000000E-03 0.  1.
         22    1    1    0    0    0 -0.20764213695E+02 -0.20702170715E+02  0.48209598332E+00  0.29325157445E+02  0.00000000000E+00 0. -1.
</event>
<event>
 5    1  0.1044283E-009  0.9118800E+02  0.7815553E-02  0.1125453E+00
         25   -1    0    0    0    0  0.00000000000E+00  0.00000000000E+00  0.99999998245E-14  0.12509000000E+03  0.12509000000E+03 0.  0.
        -11    1    3    3    0    0 -0.60020252102E+01  0.51535575789E+02  0.31174832303E+02  0.60529414733E+02  0.51100000000E-03 0.  1.
         23    2    1    0    0    0  0.42525437808E+01  0.27956140682E+02  0.66974279927E+01  0.96029967789E+02  0.91527423439E+02 0.  0.
         11    1    3    3    0    0  0.10254568991E+02 -0.23579435108E+02 -0.24477404310E+02  0.35500553055E+02  0.51100000000E-03 0. -1.
         22    1    1    0    0    0 -0.42525437808E+01 -0.27956140682E+02 -0.66974279927E+01  0.29060032211E+02  0.00000000000E+00 0.  1.
</event>
<event>
 5    1  0.1044283E-009  0.9118800E+02  0.7815553E-02  0.1125453E+00
         25   -1    0    0    0    0  0.00000000000E+00  0.00000000000E+00  0.99999998245E-14  0.12509000000E+03  0.12509000000E+03 0.  0.
        -11    1    3    3    0    0 -0.20684124213E+02  0.20957735133E+02  0.34960456537E+02  0.45708786660E+02  0.51100000000E-03 0.  1.
         23    2    1    0    0    0  0.14306340058E+02 -0.11757732429E+02  0.23871742563E+02  0.94877821484E+02  0.89939008660E+02 0.  0.
         11    1    3    3    0    0  0.34990464271E+02 -0.32715467561E+02 -0.11088713975E+02  0.49169034824E+02  0.51100000000E-03 0. -1.
         22    1    1    0    0    0 -0.14306340058E+02  0.11757732429E+02 -0.23871742563E+02  0.30212178516E+02  0.00000000000E+00 0.  1.
</event>
<event>
 5    1  0.1044283E-009  0.9118800E+02  0.7815553E-02  0.1125453E+00
         25   -1    0    0    0    0  0.00000000000E+00  0.00000000000E+00  0.99999998245E-14  0.12509000000E+03  0.12509000000E+03 0.  0.
        -11    1    3    3    0    0  0.33790366066E+01 -0.82676735226E+01 -0.28887785906E+02  0.30237005287E+02  0.51100000000E-03 0.  1.
         23    2    1    0    0    0 -0.16574440005E+02 -0.30624743623E+02  0.18006120212E+02  0.85887865510E+02  0.76419356798E+02 0.  0.
         11    1    3    3    0    0 -0.19953476611E+02 -0.22357070100E+02  0.46893906119E+02  0.55650860224E+02  0.51100000000E-03 0. -1.
         22    1    1    0    0    0  0.16574440005E+02  0.30624743623E+02 -0.18006120212E+02  0.39202134490E+02  0.00000000000E+00 0. -1.
</event>
<event>
 5    1  0.1044283E-009  0.9118800E+02  0.7815553E-02  0.1125453E+00
         25   -1    0    0    0    0  0.00000000000E+00  0.00000000000E+00  0.99999998245E-14  0.12509000000E+03  0.12509000000E+03 0.  0.
        -11    1    3    3    0    0  0.90718691056E+01 -0.85697294248E+01  0.41633503868E+02  0.43463636710E+02  0.51100000000E-03 0. -1.
         23    2    1    0    0    0 -0.16410035735E+00  0.28114800793E+02  0.42369255806E+01  0.96657263745E+02  0.92380767174E+02 0.  0.
         11    1    3    3    0    0 -0.92359694630E+01  0.36684530218E+02 -0.37396578288E+02  0.53193627035E+02  0.51100000000E-03 0.  1.
         22    1    1    0    0    0  0.16410035735E+00 -0.28114800793E+02 -0.42369255806E+01  0.28432736255E+02  0.00000000000E+00 0. -1.
</event>
<event>
 5    1  0.1044283E-009  0.9118800E+02  0.7815553E-02  0.1125453E+00
         25   -1    0    0    0    0  0.00000000000E+00  0.00000000000E+00  0.99999998245E-14  0.12509000000E+03  0.12509000000E+03 0.  0.
        -11    1    3    3    0    0  0.19365694398E+02  0.52164310573E+02 -0.37062685473E+01  0.55766314599E+02  0.51100000000E-03 0.  1.
         23    2    1    0    0    0 -0.11428383109E+02  0.26933615463E+02  0.72908088745E+00  0.95822968355E+02  0.91244079934E+02 0.  0.
         11    1    3    3    0    0 -0.30794077507E+02 -0.25230695111E+02  0.44353494348E+01  0.40056653756E+02  0.51100000000E-03 0. -1.
         22    1    1    0    0    0  0.11428383109E+02 -0.26933615463E+02 -0.72908088745E+00  0.29267031645E+02  0.00000000000E+00 0.  1.
</event>
<event>
 5    1  0.1044283E-009  0.9118800E+02  0.7815553E-02  0.1125453E+00
         25   -1    0    0    0    0  0.00000000000E+00  0.00000000000E+00  0.99999998245E-14  0.12509000000E+03  0.12509000000E+03 0.  0.
        -11    1    3    3    0    0  0.41854095441E+02 -0.44181764473E+01 -0.15159813342E+02  0.44733718034E+02  0.51100000000E-03 0. -1.
         23    2    1    0    0    0  0.81357698497E+01 -0.19465836224E+02  0.20216953926E+02  0.95869548994E+02  0.91307916784E+02 0.  0.
         11    1    3    3    0    0 -0.33718325592E+02 -0.15047659776E+02  0.35376767267E+02  0.51135830960E+02  0.51100000000E-03 0.  1.
         22    1    1    0    0    0 -0.81357698497E+01  0.19465836224E+02 -0.20216953926E+02  0.29220451006E+02  0.00000000000E+00 0.  1.
</event>
<event>
 5    1  0.1044283E-009  0.9118800E+02  0.7815553E-02  0.1125453E+00
         25   -1    0    0    0    0  0.00000000000E+00  0.00000000000E+00  0.99999998245E-14  0.12509000000E+03  0.12509000000E+03 0.  0.
        -11    1    3    3    0    0 -0.53264925413E+02 -0.36673007135E+01  0.27725671162E+02  0.60160736493E+02  0.51100000000E-03 0.  1.
         23    2    1    0    0    0 -0.27934733248E+02  0.56829827277E+01  0.36242939401E+01  0.96353592415E+02  0.91968655804E+02 0.  0.
         11    1    3    3    0    0  0.25330192165E+02  0.93502834412E+01 -0.24101377222E+02  0.36192855922E+02  0.51100000000E-03 0. -1.
         22    1    1    0    0    0  0.27934733248E+02 -0.56829827277E+01 -0.36242939401E+01  0.28736407585E+02  0.00000000000E+00 0.  1.
</event>
<event>
 5    1  0.1044283E-009  0.9118800E+02  0.7815553E-02  0.1125453E+00
         25   -1    0    0    0    0  0.00000000000E+00  0.00000000000E+00  0.99999998245E-14  0.12509000000E+03  0.12509000000E+03 0.  0.
        -11    1    3    3    0    0  0.35992759436E+01  0.20389557270E+02 -0.22264175445E+02  0.30403656713E+02  0.51100000000E-03 0. -1.
         23    2    1    0    0    0 -0.20468686642E+02 -0.22190563860E+02  0.14507492209E+02  0.91595887272E+02  0.85252278431E+02 0.  0.
         11    1    3    3    0    0 -0.24067962586E+02 -0.42580121130E+02  0.36771667654E+02  0.61192230559E+02  0.51100000000E-03 0.  1.
         22    1    1    0    0    0  0.20468686642E+02  0.22190563860E+02 -0.14507492209E+02  0.33494112728E+02  0.00000000000E+00 0.  1.
</event>
<event>
 5    1  0.1044283E-009  0.9118800E+02  0.7815553E-02  0.1125453E+00
         25   -1    0    0    0    0  0.00000000000E+00  0.00000000000E+00  0.99999998245E-14  0.12509000000E+03  0.12509000000E+03 0.  0.
        -11    1    3    3    0    0 -0.17976348479E+02 -0.11396507636E+02  0.34383409685E+02  0.40438204124E+02  0.51100000000E-03 0. -1.
         23    2    1    0    0    0  0.23993846973E+02  0.11034454779E+02  0.24550713083E+02  0.89031694469E+02  0.81402955857E+02 0.  0.
         11    1    3    3    0    0  0.41970195452E+02  0.22430962415E+02 -0.98326966021E+01  0.48593490345E+02  0.51100000000E-03 0.  1.
         22    1    1    0    0    0 -0.23993846973E+02 -0.11034454779E+02 -0.24550713083E+02  0.36058305531E+02  0.00000000000E+00 0. -1.
</event>
<event>
 5    1  0.1044283E-009  0.9118800E+02  0.7815553E-02  0.1125453E+00
         25   -1    0    0    0    0  0.00000000000E+00  0.00000000000E+00  0.99999998245E-14  0.12509000000E+03  0.12509000000E+03 0.  0.
        -11    1    3    3    0    0 -0.24330392899E+02  0.11110171869E+01  0.30072883374E+02  0.38698587732E+02  0.51100000000E-03 0.  1.
         23    2    1    0    0    0  0.22431033638E+02 -0.18180552101E+02  0.30306193052E+01  0.96057804111E+02  0.91565459276E+02 0.  0.
         11    1    3    3    0    0  0.46761426537E+02 -0.19291569288E+02 -0.27042264068E+02  0.57359216379E+02  0.51100000000E-03 0. -1.
         22    1    1    0    0    0 -0.22431033638E+02  0.18180552101E+02 -0.30306193052E+01  0.29032195889E+02  0.00000000000E+00 0. -1.
</event>
<event>
 5    1  0.1044283E-009  0.9118800E+02  0.7815553E-02  0.1125453E+00
         25   -1    0    0    0    0  0.00000000000E+00  0.00000000000E+00  0.99999998245E-14  0.12509000000E+03  0.12509000000E+03 0.  0.
        -11    1    3    3    0    0  0.34714700111E+02  0.23542366866E+02 -0.12012931799E+02  0.43630997836E+02  0.51100000000E-03 0.  1.
         23    2    1    0    0    0  0.11581179800E+02 -0.15779126789E+02  0.18210420124E+02  0.98355678073E+02  0.94652603981E+02 0.  0.
         11    1    3    3    0    0 -0.23133520311E+02 -0.39321493656E+02  0.30223351924E+02  0.54724680237E+02  0.51100000000E-03 0. -1.
         22    1    1    0    0    0 -0.11581179800E+02  0.15779126789E+02 -0.18210420124E+02  0.26734321927E+02  0.00000000000E+00 0. -1.
</event>
<event>
 5    1  0.1044283E-009  0.9118800E+02  0.7815553E-02  0.1125453E+00
         25   -1    0    0    0    0  0.00000000000E+00  0.00000000000E+00  0.99999998245E-14  0.12509000000E+03  0.12509000000E+03 0.  0.
        -11    1    3    3    0    0  0.33125928650E+02 -0.27761903199E+02 -0.29075001548E+02  0.52090365073E+02  0.51100000000E-03 0. -1.
         23    2    1    0    0    0  0.26559272174E+02 -0.85923763529E+01  0.94499473578E+01  0.95619245431E+02  0.90964359625E+02 0.  0.
         11    1    3    3    0    0 -0.65666564761E+01  0.19169526846E+02  0.38524948906E+02  0.43528880358E+02  0.51100000000E-03 0.  1.
         22    1    1    0    0    0 -0.26559272174E+02  0.85923763529E+01 -0.94499473578E+01  0.29470754569E+02  0.00000000000E+00 0. -1.
</event>
<event>
 5    1  0.1044283E-009  0.9118800E+02  0.7815553E-02  0.1125453E+00
         25   -1    0    0    0    0  0.00000000000E+00  0.00000000000E+00  0.99999998245E-14  0.12509000000E+03  0.12509000000E+03 0.  0.
        -11    1    3    3    0    0 -0.13541197511E+02  0.21774966778E+00  0.33164544424E+02  0.35823155250E+02  0.51100000000E-03 0.  1.
         23    2    1    0    0    0  0.15036191166E+01 -0.20048906141E+02 -0.21268081835E+02  0.95823110640E+02  0.91244274998E+02 0.  0.
         11    1    3    3    0    0  0.15044816628E+02 -0.20266655808E+02 -0.54432626259E+02  0.59999955390E+02  0.51100000000E-03 0. -1.
         22    1    1    0    0    0 -0.15036191166E+01  0.20048906141E+02  0.21268081835E+02  0.29266889360E+02  0.00000000000E+00 0. -1.
</event>
<event>
 5    1  0.1044283E-009  0.9118800E+02  0.7815553E-02  0.1125453E+00
         25   -1    0    0    0    0  0.00000000000E+00  0.00000000000E+00  0.99999998245E-14  0.12509000000E+03  0.12509000000E+03 0.  0.
        -11    1    3    3    0    0 -0.34530448127E+02  0.41185923962E+02  0.16338860398E+02  0.56174643210E+02  0.51100000000E-03 0.  1.
         23    2    1    0    0    0 -0.75689143518E+01  0.22577471168E+02 -0.11015452758E+02  0.98853177245E+02  0.95307815961E+02 0.  0.
         11    1    3    3    0    0  0.26961533775E+02 -0.18608452794E+02 -0.27354313156E+02  0.42678534035E+02  0.51100000000E-03 0. -1.
         22    1    1    0    0    0  0.75689143518E+01 -0.22577471168E+02  0.11015452758E+02  0.26236822755E+02  0.00000000000E+00 0.  1.
</event>
<event>
 5    1  0.1044283E-009  0.9118800E+02  0.7815553E-02  0.1125453E+00
         25   -1    0    0    0    0  0.00000000000E+00  0.00000000000E+00  0.99999998245E-14  0.12509000000E+03  0.12509000000E+03 0.  0.
        -11    1    3    3    0    0  0.41428267150E+02 -0.13647186753E+02  0.41601552490E+01  0.43816137635E+02  0.51100000000E-03 0.  1.
         23    2    1    0    0    0  0.39833249561E+01  0.21835197290E+02  0.17182822398E+02  0.97020584190E+02  0.92871425383E+02 0.  0.
         11    1    3    3    0    0 -0.37444942194E+02  0.35482384042E+02  0.13022667149E+02  0.53204446554E+02  0.51100000000E-03 0. -1.
         22    1    1    0    0    0 -0.39833249561E+01 -0.21835197290E+02 -0.17182822398E+02  0.28069415810E+02  0.00000000000E+00 0. -1.
</event>
<event>
 5    1  0.1044283E-009  0.9118800E+02  0.7815553E-02  0.1125453E+00
         25   -1    0    0    0    0  0.00000000000E+00  0.00000000000E+00  0.99999998245E-14  0.12509000000E+03  0.12509000000E+03 0.  0.
        -11    1    3    3    0    0 -0.18203152420E+02 -0.57986556944E+02  0.13304655482E+02  0.62215829192E+02  0.51100000000E-03 0.  1.
         23    2    1    0    0    0 -0.63370691458E+01 -0.29255817368E+02  0.28109057930E+01  0.95024031088E+02  0.90142132201E+02 0.  0.
         11    1    3    3    0    0  0.11866083274E+02  0.28730739576E+02 -0.10493749689E+02  0.32808201897E+02  0.51100000000E-03 0. -1.
         22    1    1    0    0    0  0.63370691458E+01  0.29255817368E+02 -0.28109057930E+01  0.30065968912E+02  0.00000000000E+00 0.  1.
</event>
<event>
 5    1  0.1044283E-009  0.9118800E+02  0.7815553E-02  0.1125453E+00
         25   -1    0    0    0    0  0.00000000000E+00  0.00000000000E+00  0.99999998245E-14  0.12509000000E+03  0.12509000000E+03 0.  0.
        -11    1    3    3    0    0 -0.87513724215E+01 -0.47113990628E+01 -0.48408880602E+02  0.49418655605E+02  0.51100000000E-03 0.  1.
         23    2    1    0    0    0 -0.28903379191E+02 -0.21172001208E+01 -0.74087901244E+01  0.95177159344E+02  0.90354378005E+02 0.  0.
         11    1    3    3    0    0 -0.20152006769E+02  0.25941989420E+01  0.41000090478E+02  0.45758503739E+02  0.51100000000E-03 0. -1.
         22    1    1    0    0    0  0.28903379191E+02  0.21172001208E+01  0.74087901244E+01  0.29912840656E+02  0.00000000000E+00 0.  1.
</event>
<event>
 5    1  0.1044283E-009  0.9118800E+02  0.7815553E-02  0.1125453E+00
         25   -1    0    0    0    0  0.00000000000E+00  0.00000000000E+00  0.99999998245E-14  0.12509000000E+03  0.12509000000E+03 0.  0.
        -11    1    3    3    0    0  0.27859873039E+02 -0.19760490253E+02  0.43973235384E+02  0.55680292126E+02  0.51100000000E-03 0.  1.
         23    2    1    0    0    0  0.14530526785E+02 -0.26364018734E+02  0.90241979730E+01  0.93663357776E+02  0.88233727952E+02 0.  0.
         11    1    3    3    0    0 -0.13329346254E+02 -0.66035284804E+01 -0.34949037411E+02  0.37983065650E+02  0.51100000000E-03 0. -1.
         22    1    1    0    0    0 -0.14530526785E+02  0.26364018734E+02 -0.90241979730E+01  0.31426642224E+02  0.00000000000E+00 0.  1.
</event>
<event>
 5    1  0.1044283E-009  0.9118800E+02  0.7815553E-02  0.1125453E+00
         25   -1    0    0    0    0  0.00000000000E+00  0.00000000000E+00  0.99999998245E-14  0.12509000000E+03  0.12509000000E+03 0.  0.
        -11    1    3    3    0    0  0.24940828493E+02  0.52119305451E+02  0.22614751897E+02  0.62047513490E+02  0.51100000000E-03 0.  1.
         23    2    1    0    0    0  0.16203004726E+02  0.23393348720E+02  0.75065149517E+01  0.95659847210E+02  0.91020176198E+02 0.  0.
         11    1    3    3    0    0 -0.87378237663E+01 -0.28725956731E+02 -0.15108236946E+02  0.33612333720E+02  0.51100000000E-03 0. -1.
         22    1    1    0    0    0 -0.16203004726E+02 -0.23393348720E+02 -0.75065149517E+01  0.29430152790E+02  0.00000000000E+00 0.  1.
</event>
<event>
 5    1  0.1044283E-009  0.9118800E+02  0.7815553E-02  0.1125453E+00
         25   -1    0    0    0    0  0.00000000000E+00  0.00000000000E+00  0.99999998245E-14  0.12509000000E+03  0.12509000000E+03 0.  0.
        -11    1    3    3    0    0  0.41607171630E+02  0.83872450849E+01  0.83327746122E+01  0.43254337865E+02  0.51100000000E-03 0.  1.
         23    2    1    0    0    0  0.15424943499E+02 -0.29943160023E+02 -0.36919793944E+01  0.91205602028E+02  0.84677679558E+02 0.  0.
         11    1    3    3    0    0 -0.26182228131E+02 -0.38330405108E+02 -0.12024754007E+02  0.47951264163E+02  0.51100000000E-03 0. -1.
         22    1    1    0    0    0 -0.15424943499E+02  0.29943160023E+02  0.36919793944E+01  0.33884397972E+02  0.00000000000E+00 0.  1.
</event>
<event>
 5    1  0.1044283E-009  0.9118800E+02  0.7815553E-02  0.1125453E+00
         25   -1    0    0    0    0  0.00000000000E+00  0.00000000000E+00  0.99999998245E-14  0.12509000000E+03  0.12509000000E+03 0.  0.
        -11    1    3    3    0    0 -0.30337058397E+01  0.47231868956E+02  0.26588045719E+02  0.54286066274E+02  0.51100000000E-03 0.  1.
         23    2    1    0    0    0 -0.58955357212E+01  0.24760217699E+02 -0.10347160994E+02  0.97614748180E+02  0.93668295594E+02 0.  0.
         11    1    3    3    0    0 -0.28618298814E+01 -0.22471651256E+02 -0.36935206713E+02  0.43328681905E+02  0.51100000000E-03 0. -1.
         22    1    1    0    0    0  0.58955357212E+01 -0.24760217699E+02  0.10347160994E+02  0.27475251820E+02  0.00000000000E+00 0. -1.
</event>
<event>
 5    1  0.1044283E-009  0.9118800E+02  0.7815553E-02  0.1125453E+00
         25   -1    0    0    0    0  0.00000000000E+00  0.00000000000E+00  0.99999998245E-14  0.12509000000E+03  0.12509000000E+03 0.  0.
        -11    1    3    3    0    0 -0.67889947751E+01  0.31898635403E+02 -0.90180261504E+01  0.33836935242E+02  0.51100000000E-03 0. -1.
         23    2    1    0    0    0 -0.15175989625E+01 -0.27542756543E+02  0.88352959154E+01  0.96125038434E+02  0.91657263845E+02 0.  0.
         11    1    3    3    0    0  0.52713958126E+01 -0.59441391946E+02  0.17853322066E+02  0.62288103193E+02  0.51100000000E-03 0.  1.
         22    1    1    0    0    0  0.15175989625E+01  0.27542756543E+02 -0.88352959154E+01  0.28964961566E+02  0.00000000000E+00 0.  1.
</event>
<event>
 5    1  0.1044283E-009  0.9118800E+02  0.7815553E-02  0.1125453E+00
         25   -1    0    0    0    0  0.00000000000E+00  0.00000000000E+00  0.99999998245E-14  0.12509000000E+03  0.12509000000E+03 0.  0.
        -11    1    3    3    0    0 -0.10484312035E+02  0.25814827129E+02 -0.26482897582E+02  0.38440472983E+02  0.51100000000E-03 0. -1.
         23    2    1    0    0    0  0.28431172503E+02  0.23883305647E+01  0.79874693324E+01  0.95461713530E+02  0.90747470438E+02 0.  0.
         11    1    3    3    0    0  0.38915484538E+02 -0.23426496564E+02  0.34470366915E+02  0.57021240548E+02  0.51100000000E-03 0.  1.
         22    1    1    0    0    0 -0.28431172503E+02 -0.23883305647E+01 -0.79874693324E+01  0.29628286470E+02  0.00000000000E+00 0.  1.
</event>
<event>
 5    1  0.1044283E-009  0.9118800E+02  0.7815553E-02  0.1125453E+00
         25   -1    0    0    0    0  0.00000000000E+00  0.00000000000E+00  0.99999998245E-14  0.12509000000E+03  0.12509000000E+03 0.  0.
        -11    1    3    3    0    0 -0.24014595134E+02  0.17973488599E+02 -0.22093174647E+02  0.37253931848E+02  0.51100000000E-03 0.  1.
         23    2    1    0    0    0  0.57705067066E+01  0.13593919846E+02  0.26694642011E+02  0.94582667824E+02  0.89527558529E+02 0.  0.
         11    1    3    3    0    0  0.29785101840E+02 -0.43795687539E+01  0.48787816658E+02  0.57328735976E+02  0.51100000000E-03 0. -1.
         22    1    1    0    0    0 -0.57705067066E+01 -0.13593919846E+02 -0.26694642011E+02  0.30507332176E+02  0.00000000000E+00 0. -1.
</event>
<event>
 5    1  0.1044283E-009  0.9118800E+02  0.7815553E-02  0.1125453E+00
         25   -1    0    0    0    0  0.00000000000E+00  0.00000000000E+00  0.99999998245E-14  0.12509000000E+03  0.12509000000E+03 0.  0.
        -11    1    3    3    0    0 -0.11400120600E+02  0.31674635252E+02 -0.18975895309E+01  0.33717148668E+02  0.51100000000E-03 0.  1.
         23    2    1    0    0    0  0.31613464001E+02 -0.78383088526E+01  0.32844375741E+01  0.92354121793E+02  0.86357663761E+02 0.  0.
         11    1    3    3    0    0  0.43013584601E+02 -0.39512944104E+02  0.51820271049E+01  0.58636973125E+02  0.51100000000E-03 0. -1.
         22    1    1    0    0    0 -0.31613464001E+02  0.78383088526E+01 -0.32844375741E+01  0.32735878207E+02  0.00000000000E+00 0. -1.
</event>
<event>
 5    1  0.1044283E-009  0.9118800E+02  0.7815553E-02  0.1125453E+00
         25   -1    0    0    0    0  0.00000000000E+00  0.00000000000E+00  0.99999998245E-14  0.12509000000E+03  0.12509000000E+03 0.  0.
        -11    1    3    3    0    0  0.57375273386E+02  0.20848886977E+02  0.52744886428E+01  0.61273308341E+02  0.51100000000E-03 0.  1.
         23    2    1    0    0    0  0.23733360729E+02  0.13403648225E+02 -0.53152394736E+01  0.97319836733E+02  0.93273622498E+02 0.  0.
         11    1    3    3    0    0 -0.33641912657E+02 -0.74452387527E+01 -0.10589728116E+02  0.36046528393E+02  0.51100000000E-03 0. -1.
         22    1    1    0    0    0 -0.23733360729E+02 -0.13403648225E+02  0.53152394736E+01  0.27770163267E+02  0.00000000000E+00 0.  1.
</event>
<event>
 5    1  0.1044283E-009  0.9118800E+02  0.7815553E-02  0.1125453E+00
         25   -1    0    0    0    0  0.00000000000E+00  0.00000000000E+00  0.99999998245E-14  0.12509000000E+03  0.12509000000E+03 0.  0.
        -11    1    3    3    0    0  0.56226305060E+01  0.17898322573E+02  0.29282173717E+02  0.34776567148E+02  0.51100000000E-03 0.  1.
         23    2    1    0    0    0 -0.20489587069E+02 -0.63555804418E+00 -0.21863600351E+02  0.95119278744E+02  0.90274210360E+02 0.  0.
         11    1    3    3    0    0 -0.26112217575E+02 -0.18533880618E+02 -0.51145774068E+02  0.60342711596E+02  0.51100000000E-03 0. -1.
         22    1    1    0    0    0  0.20489587069E+02  0.63555804418E+00  0.21863600351E+02  0.29970721256E+02  0.00000000000E+00 0. -1.
</event>
<event>
 5    1  0.1044283E-009  0.9118800E+02  0.7815553E-02  0.1125453E+00
         25   -1    0    0    0    0  0.00000000000E+00  0.00000000000E+00  0.99999998245E-14  0.12509000000E+03  0.12509000000E+03 0.  0.
        -11    1    3    3    0    0  0.19172221696E+02  0.31888813046E+02  0.23230504566E+02  0.43864870054E+02  0.51100000000E-03 0. -1.
         23    2    1    0    0    0  0.26215403540E+02 -0.13910651783E+02  0.66519885356E+00  0.95405052546E+02  0.90669332996E+02 0.  0.
         11    1    3    3    0    0  0.70431818445E+01 -0.45799464829E+02 -0.22565305712E+02  0.51540182492E+02  0.51100000000E-03 0.  1.
         22    1    1    0    0    0 -0.26215403540E+02  0.13910651783E+02 -0.66519885356E+00  0.29684947454E+02  0.00000000000E+00 0. -1.
</event>
<event>
 5    1  0.1044283E-009  0.9118800E+02  0.7815553E-02  0.1125453E+00
         25   -1    0    0    0    0  0.00000000000E+00  0.00000000000E+00  0.99999998245E-14  0.12509000000E+03  0.12509000000E+03 0.  0.
        -11    1    3    3    0    0  0.54782820717E+01  0.25436285415E+02  0.41898918292E+02  0.49320741524E+02  0.51100000000E-03 0. -1.
         23    2    1    0    0    0 -0.23024899498E+02  0.17570729593E+02  0.65695800439E+01  0.95390910497E+02  0.90649820122E+02 0.  0.
         11    1    3    3    0    0 -0.28503181570E+02 -0.78655558215E+01 -0.35329338248E+02  0.46070168974E+02  0.51100000000E-03 0.  1.
         22    1    1    0    0    0  0.23024899498E+02 -0.17570729593E+02 -0.65695800439E+01  0.29699089503E+02  0.00000000000E+00 0. -1.
</event>
<event>
 5    1  0.1044283E-009  0.9118800E+02  0.7815553E-02  0.1125453E+00
         25   -1    0    0    0    0  0.00000000000E+00  0.00000000000E+00  0.99999998245E-14  0.12509000000E+03  0.12509000000E+03 0.  0.
        -11    1    3    3    0    0 -0.17443838909E+02 -0.21745112246E+02  0.28517810297E+02  0.39879856154E+02  0.51100000000E-03 0.  1.
         23    2    1    0    0    0  0.73290177375E+01  0.25459910296E+02  0.50869995774E+01  0.98112248093E+02  0.94330345742E+02 0.  0.
         11    1    3    3    0    0  0.24772856647E+02  0.47205022542E+02 -0.23430810719E+02  0.58232391938E+02  0.51100000000E-03 0. -1.
         22    1    1    0    0    0 -0.73290177375E+01 -0.25459910296E+02 -0.50869995774E+01  0.26977751907E+02  0.00000000000E+00 0. -1.
</event>
<event>
 5    1  0.1044283E-009  0.9118800E+02  0.7815553E-02  0.1125453E+00
         25   -1    0    0    0    0  0.00000000000E+00  0.00000000000E+00  0.99999998245E-14  0.12509000000E+03  0.12509000000E+03 0.  0.
        -11    1    3    3    0    0  0.23728146918E+02  0.49796131883E+02  0.13237517358E+02  0.56726639004E+02  0.51100000000E-03 0.  1.
         23    2    1    0    0    0 -0.66165976539E+01  0.25225065614E+02  0.13395618719E+02  0.95772327845E+02  0.91174628489E+02 0.  0.
         11    1    3    3    0    0 -0.30344744572E+02 -0.24571066269E+02  0.15810136154E+00  0.39045688841E+02  0.51100000000E-03 0. -1.
         22    1    1    0    0    0  0.66165976539E+01 -0.25225065614E+02 -0.13395618719E+02  0.29317672155E+02  0.00000000000E+00 0.  1.
</event>
<event>
 5    1  0.1044283E-009  0.9118800E+02  0.7815553E-02  0.1125453E+00
         25   -1    0    0    0    0  0.00000000000E+00  0.00000000000E+00  0.99999998245E-14  0.12509000000E+03  0.12509000000E+03 0.  0.
        -11    1    3    3    0    0 -0.37869475621E+02  0.22924887837E+01  0.46800453132E+02  0.60246453027E+02  0.51100000000E-03 0.  1.
         23    2    1    0    0    0 -0.81144189661E+01 -0.20553620817E+01  0.28357979227E+02  0.95522394513E+02  0.90831077056E+02 0.  0.
         11    1    3    3    0    0  0.29755056655E+02 -0.43478508654E+01 -0.18442473906E+02  0.35275941486E+02  0.51100000000E-03 0. -1.
         22    1    1    0    0    0  0.81144189661E+01  0.20553620817E+01 -0.28357979227E+02  0.29567605487E+02  0.00000000000E+00 0.  1.
</event>
<event>
 5    1  0.1044283E-009  0.9118800E+02  0.7815553E-02  0.1125453E+00
         25   -1    0    0    0    0  0.00000000000E+00  0.00000000000E+00  0.99999998245E-14  0.12509000000E+03  0.12509000000E+03 0.  0.
        -11    1    3    3    0    0 -0.14941727820E+02  0.17460826813E+00 -0.39118254053E+02  0.41875094253E+02  0.51100000000E-03 0. -1.
         23    2    1    0    0    0 -0.25119837029E+02  0.74114723479E+01  0.13268826710E+02  0.95730199303E+02  0.91116810532E+02 0.  0.
         11    1    3    3    0    0 -0.10178109209E+02  0.72368640798E+01  0.52387080763E+02  0.53855105050E+02  0.51100000000E-03 0.  1.
         22    1    1    0    0    0  0.25119837029E+02 -0.74114723479E+01 -0.13268826710E+02  0.29359800697E+02  0.00000000000E+00 0.  1.
</event>
<event>
 5    1  0.1044283E-009  0.9118800E+02  0.7815553E-02  0.1125453E+00
         25   -1    0    0    0    0  0.00000000000E+00  0.00000000000E+00  0.99999998245E-14  0.12509000000E+03  0.12509000000E+03 0.  0.
        -11    1    3    3    0    0  0.39939663495E+02  0.44890044995E+02  0.11792210931E+02  0.61231928752E+02  0.51100000000E-03 0. -1.
         23    2    1    0    0    0  0.18927823351E+02  0.16926630810E+02  0.13654152965E+02  0.96259300727E+02  0.91840316614E+02 0.  0.
         11    1    3    3    0    0 -0.21011840144E+02 -0.27963414185E+02  0.18619420339E+01  0.35027371975E+02  0.51100000000E-03 0.  1.
         22    1    1    0    0    0 -0.18927823351E+02 -0.16926630810E+02 -0.13654152965E+02  0.28830699273E+02  0.00000000000E+00 0. -1.
</event>
<event>
 5    1  0.1044283E-009  0.9118800E+02  0.7815553E-02  0.1125453E+00
         25   -1    0    0    0    0  0.00000000000E+00  0.00000000000E+00  0.99999998245E-14  0.12509000000E+03  0.12509000000E+03 0.  0.
        -11    1    3    3    0    0  0.38171516808E+02 -0.15624661250E+02  0.33735109225E+02  0.53284635021E+02  0.51100000000E-03 0. -1.
         23    2    1    0    0    0  0.30470310358E+02 -0.27770852902E+01 -0.43277988534E+01  0.94188837256E+02  0.88975587689E+02 0.  0.
         11    1    3    3    0    0 -0.77012064498E+01  0.12847575959E+02 -0.38062908079E+02  0.40904202235E+02  0.51100000000E-03 0.  1.
         22    1    1    0    0    0 -0.30470310358E+02  0.27770852902E+01  0.43277988534E+01  0.30901162744E+02  0.00000000000E+00 0.  1.
</event>
<event>
 5    1  0.1044283E-009  0.9118800E+02  0.7815553E-02  0.1125453E+00
         25   -1    0    0    0    0  0.00000000000E+00  0.00000000000E+00  0.99999998245E-14  0.12509000000E+03  0.12509000000E+03 0.  0.
        -11    1    3    3    0    0 -0.22468208688E+01 -0.45191234755E+02  0.86697151437E+01  0.46070162401E+02  0.51100000000E-03 0.  1.
         23    2    1    0    0    0  0.27482259360E+02 -0.53434570823E+01  0.86543457737E+01  0.95785993211E+02  0.91193375207E+02 0.  0.
         11    1    3    3    0    0  0.29729080228E+02  0.39847777673E+02 -0.15369370034E-01  0.49715830810E+02  0.51100000000E-03 0. -1.
         22    1    1    0    0    0 -0.27482259360E+02  0.53434570823E+01 -0.86543457737E+01  0.29304006789E+02  0.00000000000E+00 0.  1.
</event>
<event>
 5    1  0.1044283E-009  0.9118800E+02  0.7815553E-02  0.1125453E+00
         25   -1    0    0    0    0  0.00000000000E+00  0.00000000000E+00  0.99999998245E-14  0.12509000000E+03  0.12509000000E+03 0.  0.
        -11    1    3    3    0    0 -0.35966349274E+02  0.50662841713E+02  0.30876599926E+01  0.62208001536E+02  0.51100000000E-03 0.  1.
         23    2    1    0    0    0 -0.12095534025E+02  0.24748739062E+02  0.44185286125E+00  0.97540095056E+02  0.93568546430E+02 0.  0.
         11    1    3    3    0    0  0.23870815249E+02 -0.25914102652E+02 -0.26458071313E+01  0.35332093520E+02  0.51100000000E-03 0. -1.
         22    1    1    0    0    0  0.12095534025E+02 -0.24748739062E+02 -0.44185286125E+00  0.27549904944E+02  0.00000000000E+00 0.  1.
</event>
<event>
 5    1  0.1044283E-009  0.9118800E+02  0.7815553E-02  0.1125453E+00
         25   -1    0    0    0    0  0.00000000000E+00  0.00000000000E+00  0.99999998245E-14  0.12509000000E+03  0.12509000000E+03 0.  0.
        -11    1    3    3    0    0 -0.36975629491E+02  0.57482578418E+01 -0.21572684972E+02  0.43192827896E+02  0.51100000000E-03 0. -1.
         23    2    1    0    0    0  0.14037494119E+02  0.18700581628E+02 -0.17310277806E+02  0.95996895798E+02  0.91482212975E+02 0.  0.
         11    1    3    3    0    0  0.51013123610E+02  0.12952323787E+02  0.42624071660E+01  0.52804067903E+02  0.51100000000E-03 0.  1.
         22    1    1    0    0    0 -0.14037494119E+02 -0.18700581628E+02  0.17310277806E+02  0.29093104202E+02  0.00000000000E+00 0.  1.
</event>
<event>
 5    1  0.1044283E-009  0.9118800E+02  0.7815553E-02  0.1125453E+00
         25   -1    0    0    0    0  0.00000000000E+00  0.00000000000E+00  0.99999998245E-14  0.12509000000E+03  0.12509000000E+03 0.  0.
        -11    1    3    3    0    0 -0.15602330259E+02  0.14539884453E+02  0.50658444789E+02  0.54964706659E+02  0.51100000000E-03 0.  1.
         23    2    1    0    0    0 -0.98176323977E+01 -0.15164493990E+02  0.21754980554E+02  0.96812323951E+02  0.92590491445E+02 0.  0.
         11    1    3    3    0    0  0.57846978615E+01 -0.29704378442E+02 -0.28903464235E+02  0.41847617292E+02  0.51100000000E-03 0. -1.
         22    1    1    0    0    0  0.98176323977E+01  0.15164493990E+02 -0.21754980554E+02  0.28277676049E+02  0.00000000000E+00 0.  1.
</event>
<event>
 5    1  0.1044283E-009  0.9118800E+02  0.7815553E-02  0.1125453E+00
         25   -1    0    0    0    0  0.00000000000E+00  0.00000000000E+00  0.99999998245E-14  0.12509000000E+03  0.12509000000E+03 0.  0.
        -11    1    3    3    0    0 -0.40635570153E+01  0.34391328731E+02 -0.20580438027E+02  0.40284369390E+02  0.51100000000E-03 0.  1.
         23    2    1    0    0    0 -0.98579811424E+01  0.24554532263E+02  0.25850777217E+02  0.88098547884E+02  0.79956154295E+02 0.  0.
         11    1    3    3    0    0 -0.57944241272E+01 -0.98367964677E+01  0.46431215245E+02  0.47814178494E+02  0.51100000000E-03 0. -1.
         22    1    1    0    0    0  0.98579811424E+01 -0.24554532263E+02 -0.25850777217E+02  0.36991452116E+02  0.00000000000E+00 0.  1.
</event>
<event>
 5    1  0.1044283E-009  0.9118800E+02  0.7815553E-02  0.1125453E+00
         25   -1    0    0    0    0  0.00000000000E+00  0.00000000000E+00  0.99999998245E-14  0.12509000000E+03  0.12509000000E+03 0.  0.
        -11    1    3    3    0    0  0.30692702413E+02  0.30476970677E+02  0.30628398307E+01  0.43362065347E+02  0.51100000000E-03 0.  1.
         23    2    1    0    0    0  0.37111315105E+01 -0.11102559496E+02  0.24937860078E+02  0.97541203480E+02  0.93570028249E+02 0.  0.
         11    1    3    3    0    0 -0.26981570902E+02 -0.41579530173E+02  0.21875020247E+02  0.54179138133E+02  0.51100000000E-03 0. -1.
         22    1    1    0    0    0 -0.37111315105E+01  0.11102559496E+02 -0.24937860078E+02  0.27548796520E+02  0.00000000000E+00 0. -1.
</event>
<event>
 5    1  0.1044283E-009  0.9118800E+02  0.7815553E-02  0.1125453E+00
         25   -1    0    0    0    0  0.00000000000E+00  0.00000000000E+00  0.99999998245E-14  0.12509000000E+03  0.12509000000E+03 0.  0.
        -11    1    3    3    0    0  0.39213634335E+02 -0.87744522843E+01 -0.22367677960E+02  0.45989272099E+02  0.51100000000E-03 0. -1.
         23    2    1    0    0    0  0.25638983063E+02  0.53979594000E+01  0.19633512469E+02  0.92349043538E+02  0.86350307540E+02 0.  0.
         11    1    3    3    0    0 -0.13574651271E+02  0.14172411684E+02  0.42001190429E+02  0.46359771438E+02  0.51100000000E-03 0.  1.
         22    1    1    0    0    0 -0.25638983063E+02 -0.53979594000E+01 -0.19633512469E+02  0.32740956462E+02  0.00000000000E+00 0.  1.
</event>
<event>
 5    1  0.1044283E-009  0.9118800E+02  0.7815553E-02  0.1125453E+00
         25   -1    0    0    0    0  0.00000000000E+00  0.00000000000E+00  0.99999998245E-14  0.12509000000E+03  0.12509000000E+03 0.  0.
        -11    1    3    3    0    0  0.35886991443E+02 -0.10331825303E+01 -0.18346618750E+02  0.40318011369E+02  0.51100000000E-03 0.  1.
         23    2    1    0    0    0 -0.67143184988E+01 -0.24106471142E+02  0.11845379916E+02  0.97403955696E+02  0.93386366971E+02 0.  0.
         11    1    3    3    0    0 -0.42601309941E+02 -0.23073288612E+02  0.30191998665E+02  0.57085944327E+02  0.51100000000E-03 0. -1.
         22    1    1    0    0    0  0.67143184988E+01  0.24106471142E+02 -0.11845379916E+02  0.27686044304E+02  0.00000000000E+00 0. -1.
</event>
<event>
 5    1  0.1044283E-009  0.9118800E+02  0.7815553E-02  0.1125453E+00
         25   -1    0    0    0    0  0.00000000000E+00  0.00000000000E+00  0.99999998245E-14  0.12509000000E+03  0.12509000000E+03 0.  0.
        -11    1    3    3    0    0 -0.39569002640E+02  0.68479620388E+01 -0.10518321035E+02  0.41511873381E+02  0.51100000000E-03 0. -1.
         23    2    1    0    0    0  0.96537506535E+01 -0.99740966122E+01 -0.25855813338E+02  0.95743780682E+02  0.91135453864E+02 0.  0.
         11    1    3    3    0    0  0.49222753293E+02 -0.16822058651E+02 -0.15337492303E+02  0.54231907300E+02  0.51100000000E-03 0.  1.
         22    1    1    0    0    0 -0.96537506535E+01  0.99740966122E+01  0.25855813338E+02  0.29346219318E+02  0.00000000000E+00 0.  1.
</event>
<event>
 5    1  0.1044283E-009  0.9118800E+02  0.7815553E-02  0.1125453E+00
         25   -1    0    0    0    0  0.00000000000E+00  0.00000000000E+00  0.99999998245E-14  0.12509000000E+03  0.12509000000E+03 0.  0.
        -11    1    3    3    0    0 -0.20852463151E+02  0.32685708863E+02 -0.32260219239E+02  0.50437114598E+02  0.51100000000E-03 0. -1.
         23    2    1    0    0    0 -0.16754632202E+02  0.20771685965E+02  0.11541240727E+02  0.96014565772E+02  0.91506371170E+02 0.  0.
         11    1    3    3    0    0  0.40978309486E+01 -0.11914022898E+02  0.43801459966E+02  0.45577451174E+02  0.51100000000E-03 0.  1.
         22    1    1    0    0    0  0.16754632202E+02 -0.20771685965E+02 -0.11541240727E+02  0.29075434228E+02  0.00000000000E+00 0.  1.
</event>
<event>
 5    1  0.1044283E-009  0.9118800E+02  0.7815553E-02  0.1125453E+00
         25   -1    0    0    0    0  0.00000000000E+00  0.00000000000E+00  0.99999998245E-14  0.12509000000E+03  0.12509000000E+03 0.  0.
        -11    1    3    3    0    0  0.21494820824E+02 -0.13952107669E+02 -0.27951150379E+02  0.37920382889E+02  0.51100000000E-03 0. -1.
         23    2    1    0    0    0  0.40457423492E+01  0.28033265795E+02  0.77458472848E+01  0.95726243898E+02  0.91111380180E+02 0.  0.
         11    1    3    3    0    0 -0.17449078475E+02  0.41985373463E+02  0.35696997664E+02  0.57805861009E+02  0.51100000000E-03 0.  1.
         22    1    1    0    0    0 -0.40457423492E+01 -0.28033265795E+02 -0.77458472848E+01  0.29363756102E+02  0.00000000000E+00 0.  1.
</event>
<event>
 5    1  0.1044283E-009  0.9118800E+02  0.7815553E-02  0.1125453E+00
         25   -1    0    0    0    0  0.00000000000E+00  0.00000000000E+00  0.99999998245E-14  0.12509000000E+03  0.12509000000E+03 0.  0.
        -11    1    3    3    0    0 -0.18453374739E+02  0.57852898236E+02 -0.26745704607E+01  0.60783535608E+02  0.51100000000E-03 0.  1.
         23    2    1    0    0    0 -0.94997428775E+01  0.25355924504E+02  0.91552931984E+01  0.96507008279E+02  0.92177086259E+02 0.  0.
         11    1    3    3    0    0  0.89536318614E+01 -0.32496973732E+02  0.11829863659E+02  0.35723472671E+02  0.51100000000E-03 0. -1.
         22    1    1    0    0    0  0.94997428775E+01 -0.25355924504E+02 -0.91552931984E+01  0.28582991721E+02  0.00000000000E+00 0.  1.
</event>
<event>
 5    1  0.1044283E-009  0.9118800E+02  0.7815553E-02  0.1125453E+00
         25   -1    0    0    0    0  0.00000000000E+00  0.00000000000E+00  0.99999998245E-14  0.12509000000E+03  0.12509000000E+03 0.  0.
        -11    1    3    3    0    0  0.41803620739E+02  0.18737053210E+01 -0.22609305157E+02  0.47562949429E+02  0.51100000000E-03 0.  1.
         23    2    1    0    0    0  0.23952308006E+02  0.52679315968E+01  0.19715213523E+02  0.93623290506E+02  0.88176905813E+02 0.  0.
         11    1    3    3    0    0 -0.17851312732E+02  0.33942262758E+01  0.42324518680E+02  0.46060341076E+02  0.51100000000E-03 0. -1.
         22    1    1    0    0    0 -0.23952308006E+02 -0.52679315968E+01 -0.19715213523E+02  0.31466709494E+02  0.00000000000E+00 0.  1.
</event>
<event>
 5    1  0.1044283E-009  0.9118800E+02  0.7815553E-02  0.1125453E+00
         25   -1    0    0    0    0  0.00000000000E+00  0.00000000000E+00  0.99999998245E-14  0.12509000000E+03  0.12509000000E+03 0.  0.
        -11    1    3    3    0    0 -0.29268980156E+02  0.39679326335E+02  0.13280877990E+02  0.51063723506E+02  0.51100000000E-03 0. -1.
         23    2    1    0    0    0  0.53769495878E+01  0.13796495420E+02  0.25145866432E+02  0.95908336727E+02  0.91361039740E+02 0.  0.
         11    1    3    3    0    0  0.34645929744E+02 -0.25882830916E+02  0.11864988442E+02  0.44844613222E+02  0.51100000000E-03 0.  1.
         22    1    1    0    0    0 -0.53769495878E+01 -0.13796495420E+02 -0.25145866432E+02  0.29181663273E+02  0.00000000000E+00 0.  1.
</event>
<event>
 5    1  0.1044283E-009  0.9118800E+02  0.7815553E-02  0.1125453E+00
         25   -1    0    0    0    0  0.00000000000E+00  0.00000000000E+00  0.99999998245E-14  0.12509000000E+03  0.12509000000E+03 0.  0.
        -11    1    3    3    0    0  0.30006136848E+02 -0.95154412521E+01  0.36178269382E+01  0.31685967600E+02  0.51100000000E-03 0.  1.
         23    2    1    0    0    0 -0.15192568116E+02  0.81852792093E+01  0.32587897084E+02  0.88214751417E+02  0.80137746471E+02 0.  0.
         11    1    3    3    0    0 -0.45198704964E+02  0.17700720461E+02  0.28970070146E+02  0.56528783817E+02  0.51100000000E-03 0. -1.
         22    1    1    0    0    0  0.15192568116E+02 -0.81852792093E+01 -0.32587897084E+02  0.36875248583E+02  0.00000000000E+00 0. -1.
</event>
<event>
 5    1  0.1044283E-009  0.9118800E+02  0.7815553E-02  0.1125453E+00
         25   -1    0    0    0    0  0.00000000000E+00  0.00000000000E+00  0.99999998245E-14  0.12509000000E+03  0.12509000000E+03 0.  0.
        -11    1    3    3    0    0  0.15800087728E+02 -0.32626216173E+02  0.19489141386E+02  0.41157494897E+02  0.51100000000E-03 0.  1.
         23    2    1    0    0    0 -0.16411052377E+02  0.11409848498E+02  0.21474398932E+02  0.95753042210E+02  0.91148165095E+02 0.  0.
         11    1    3    3    0    0 -0.32211140105E+02  0.44036064671E+02  0.19852575457E+01  0.54595547313E+02  0.51100000000E-03 0. -1.
         22    1    1    0    0    0  0.16411052377E+02 -0.11409848498E+02 -0.21474398932E+02  0.29336957790E+02  0.00000000000E+00 0. -1.
</event>
<event>
 5    1  0.1044283E-009  0.9118800E+02  0.7815553E-02  0.1125453E+00
         25   -1    0    0    0    0  0.00000000000E+00  0.00000000000E+00  0.99999998245E-14  0.12509000000E+03  0.12509000000E+03 0.  0.
        -11    1    3    3    0    0  0.32977805658E+02 -0.40770546052E+01  0.15827828617E+02  0.36805953313E+02  0.51100000000E-03 0.  1.
         23    2    1    0    0    0 -0.26725446092E+02 -0.42573515964E+01  0.31050767200E+01  0.97850029132E+02  0.93981977997E+02 0.  0.
         11    1    3    3    0    0 -0.59703251750E+02 -0.18029699128E+00 -0.12722751897E+02  0.61044075819E+02  0.51100000000E-03 0. -1.
         22    1    1    0    0    0  0.26725446092E+02  0.42573515964E+01 -0.31050767200E+01  0.27239970868E+02  0.00000000000E+00 0. -1.
</event>
<event>
 5    1  0.1044283E-009  0.9118800E+02  0.7815553E-02  0.1125453E+00
         25   -1    0    0    0    0  0.00000000000E+00  0.00000000000E+00  0.99999998245E-14  0.12509000000E+03  0.12509000000E+03 0.  0.
        -11    1    3    3    0    0 -0.34855169245E+02  0.36054546182E+01  0.18707248887E+02  0.39722075566E+02  0.51100000000E-03 0. -1.
         23    2    1    0    0    0  0.11032344844E+02  0.27901934383E+02 -0.49550277136E+00  0.95082066081E+02  0.90222631263E+02 0.  0.
         11    1    3    3    0    0  0.45887514089E+02  0.24296479765E+02 -0.19202751658E+02  0.55359990515E+02  0.51100000000E-03 0.  1.
         22    1    1    0    0    0 -0.11032344844E+02 -0.27901934383E+02  0.49550277136E+00  0.30007933919E+02  0.00000000000E+00 0.  1.
</event>
<event>
 5    1  0.1044283E-009  0.9118800E+02  0.7815553E-02  0.1125453E+00
         25   -1    0    0    0    0  0.00000000000E+00  0.00000000000E+00  0.99999998245E-14  0.12509000000E+03  0.12509000000E+03 0.  0.
        -11    1    3    3    0    0  0.34832899565E+02 -0.23973340095E+02  0.19072602563E+02  0.46387671812E+02  0.51100000000E-03 0.  1.
         23    2    1    0    0    0  0.23779047440E+02  0.16836169393E+02 -0.57160571450E+01  0.95398704874E+02  0.90660575144E+02 0.  0.
         11    1    3    3    0    0 -0.11053852125E+02  0.40809509487E+02 -0.24788659708E+02  0.49011033062E+02  0.51100000000E-03 0. -1.
         22    1    1    0    0    0 -0.23779047440E+02 -0.16836169393E+02  0.57160571450E+01  0.29691295126E+02  0.00000000000E+00 0. -1.
</event>
<event>
 5    1  0.1044283E-009  0.9118800E+02  0.7815553E-02  0.1125453E+00
         25   -1    0    0    0    0  0.00000000000E+00  0.00000000000E+00  0.99999998245E-14  0.12509000000E+03  0.12509000000E+03 0.  0.
        -11    1    3    3    0    0  0.52293855845E+02 -0.13381361669E+02  0.12892715269E+02  0.55497119804E+02  0.51100000000E-03 0. -1.
         23    2    1    0    0    0  0.17801680121E+02  0.33538851046E+01  0.23635072557E+02  0.95311400046E+02  0.90540035142E+02 0.  0.
         11    1    3    3    0    0 -0.34492175725E+02  0.16735246774E+02  0.10742357289E+02  0.39814280242E+02  0.51100000000E-03 0.  1.
         22    1    1    0    0    0 -0.17801680121E+02 -0.33538851046E+01 -0.23635072557E+02  0.29778599954E+02  0.00000000000E+00 0. -1.
</event>
<event>
 5    1  0.1044283E-009  0.9118800E+02  0.7815553E-02  0.1125453E+00
         25   -1    0    0    0    0  0.00000000000E+00  0.00000000000E+00  0.99999998245E-14  0.12509000000E+03  0.12509000000E+03 0.  0.
        -11    1    3    3    0    0  0.13980446067E+02 -0.38642922289E+02 -0.56838879501E+01  0.41485357631E+02  0.51100000000E-03 0. -1.
         23    2    1    0    0    0  0.14998632781E+02  0.81183981446E+01  0.23078363558E+02  0.96393689466E+02  0.92023177139E+02 0.  0.
         11    1    3    3    0    0  0.10181867141E+01  0.46761320434E+02  0.28762251508E+02  0.54908331835E+02  0.51100000000E-03 0.  1.
         22    1    1    0    0    0 -0.14998632781E+02 -0.81183981446E+01 -0.23078363558E+02  0.28696310534E+02  0.00000000000E+00 0. -1.
</event>
<event>
 5    1  0.1044283E-009  0.9118800E+02  0.7815553E-02  0.1125453E+00
         25   -1    0    0    0    0  0.00000000000E+00  0.00000000000E+00  0.99999998245E-14  0.12509000000E+03  0.12509000000E+03 0.  0.
        -11    1    3    3    0    0 -0.27552025253E+02 -0.55088838304E+01 -0.45513338272E+02  0.53487623405E+02  0.51100000000E-03 0.  1.
         23    2    1    0    0    0 -0.10326712017E+01  0.17332162244E+02 -0.26748107069E+02  0.93200636731E+02  0.87575265900E+02 0.  0.
         11    1    3    3    0    0  0.26519354051E+02  0.22841046075E+02  0.18765231203E+02  0.39713013326E+02  0.51100000000E-03 0. -1.
         22    1    1    0    0    0  0.10326712017E+01 -0.17332162244E+02  0.26748107069E+02  0.31889363269E+02  0.00000000000E+00 0.  1.
</event>
<event>
 5    1  0.1044283E-009  0.9118800E+02  0.7815553E-02  0.1125453E+00
         25   -1    0    0    0    0  0.00000000000E+00  0.00000000000E+00  0.99999998245E-14  0.12509000000E+03  0.12509000000E+03 0.  0.
        -11    1    3    3    0    0 -0.11552567321E+02 -0.18371157063E+02 -0.30338777614E+02  0.37301510035E+02  0.51100000000E-03 0.  1.
         23    2    1    0    0    0 -0.21684684151E+02  0.15587851780E+02  0.14695850334E+02  0.94607633509E+02  0.89562434376E+02 0.  0.
         11    1    3    3    0    0 -0.10132116830E+02  0.33959008843E+02  0.45034627947E+02  0.57306123474E+02  0.51100000000E-03 0. -1.
         22    1    1    0    0    0  0.21684684151E+02 -0.15587851780E+02 -0.14695850334E+02  0.30482366491E+02  0.00000000000E+00 0. -1.
</event>
<event>
 5    1  0.1044283E-009  0.9118800E+02  0.7815553E-02  0.1125453E+00
         25   -1    0    0    0    0  0.00000000000E+00  0.00000000000E+00  0.99999998245E-14  0.12509000000E+03  0.12509000000E+03 0.  0.
        -11    1    3    3    0    0 -0.39361998305E+02  0.40565668181E+01  0.35193068365E+02  0.52956347175E+02  0.51100000000E-03 0.  1.
         23    2    1    0    0    0  0.71329903927E+00 -0.82759527005E+01  0.28483815511E+02  0.95419679228E+02  0.90689510140E+02 0.  0.
         11    1    3    3    0    0  0.40075297345E+02 -0.12332519519E+02 -0.67092528539E+01  0.42463332053E+02  0.51100000000E-03 0. -1.
         22    1    1    0    0    0 -0.71329903927E+00  0.82759527005E+01 -0.28483815511E+02  0.29670320772E+02  0.00000000000E+00 0.  1.
</event>
<event>
 5    1  0.1044283E-009  0.9118800E+02  0.7815553E-02  0.1125453E+00
         25   -1    0    0    0    0  0.00000000000E+00  0.00000000000E+00  0.99999998245E-14  0.12509000000E+03  0.12509000000E+03 0.  0.
        -11    1    3    3    0    0 -0.44373853408E+02  0.18683903855E+02 -0.28897562115E+02  0.56153327826E+02  0.51100000000E-03 0.  1.
         23    2    1    0    0    0 -0.17948890701E+02  0.22269464183E+02  0.13226583195E+01  0.96457131869E+02  0.92109376020E+02 0.  0.
         11    1    3    3    0    0  0.26424962706E+02  0.35855603276E+01  0.30220220435E+02  0.40303804042E+02  0.51100000000E-03 0. -1.
         22    1    1    0    0    0  0.17948890701E+02 -0.22269464183E+02 -0.13226583195E+01  0.28632868131E+02  0.00000000000E+00 0.  1.
</event>
<event>
 5    1  0.1044283E-009  0.9118800E+02  0.7815553E-02  0.1125453E+00
         25   -1    0    0    0    0  0.00000000000E+00  0.00000000000E+00  0.99999998245E-14  0.12509000000E+03  0.12509000000E+03 0.  0.
        -11    1    3    3    0    0  0.45515725951E+02  0.24092386724E+02 -0.33515199481E+02  0.61444226770E+02  0.51100000000E-03 0. -1.
         23    2    1    0    0    0  0.15566812330E+02  0.17511831456E+02 -0.13836404324E+02  0.97879046844E+02  0.94020592635E+02 0.  0.
         11    1    3    3    0    0 -0.29948913621E+02 -0.65805552684E+01  0.19678795157E+02  0.36434820074E+02  0.51100000000E-03 0.  1.
         22    1    1    0    0    0 -0.15566812330E+02 -0.17511831456E+02  0.13836404324E+02  0.27210953156E+02  0.00000000000E+00 0. -1.
</event>
<event>
 5    1  0.1044283E-009  0.9118800E+02  0.7815553E-02  0.1125453E+00
         25   -1    0    0    0    0  0.00000000000E+00  0.00000000000E+00  0.99999998245E-14  0.12509000000E+03  0.12509000000E+03 0.  0.
        -11    1    3    3    0    0 -0.97483213544E+01  0.20546321970E+02 -0.26925520545E+02  0.35244358025E+02  0.51100000000E-03 0.  1.
         23    2    1    0    0    0  0.94953356522E+01  0.70598072632E+01  0.27840744861E+02  0.94839225594E+02  0.89885312255E+02 0.  0.
         11    1    3    3    0    0  0.19243657007E+02 -0.13486514707E+02  0.54766265405E+02  0.59594867569E+02  0.51100000000E-03 0. -1.
         22    1    1    0    0    0 -0.94953356522E+01 -0.70598072632E+01 -0.27840744861E+02  0.30250774406E+02  0.00000000000E+00 0. -1.
</event>
<event>
 5    1  0.1044283E-009  0.9118800E+02  0.7815553E-02  0.1125453E+00
         25   -1    0    0    0    0  0.00000000000E+00  0.00000000000E+00  0.99999998245E-14  0.12509000000E+03  0.12509000000E+03 0.  0.
        -11    1    3    3    0    0 -0.55187160809E+01 -0.44137734535E+02  0.38780872183E+02  0.59013150099E+02  0.51100000000E-03 0.  1.
         23    2    1    0    0    0 -0.16745164424E+02 -0.17893816559E+02  0.22195140385E+02  0.92026221339E+02  0.85881383050E+02 0.  0.
         11    1    3    3    0    0 -0.11226448343E+02  0.26243917976E+02 -0.16585731798E+02  0.33013071239E+02  0.51100000000E-03 0. -1.
         22    1    1    0    0    0  0.16745164424E+02  0.17893816559E+02 -0.22195140385E+02  0.33063778661E+02  0.00000000000E+00 0.  1.
</event>
<event>
 5    1  0.1044283E-009  0.9118800E+02  0.7815553E-02  0.1125453E+00
         25   -1    0    0    0    0  0.00000000000E+00  0.00000000000E+00  0.99999998245E-14  0.12509000000E+03  0.12509000000E+03 0.  0.
        -11    1    3    3    0    0 -0.13997038601E+02 -0.88358014499E+01 -0.47368390671E+02  0.50177215067E+02  0.51100000000E-03 0.  1.
         23    2    1    0    0    0  0.21776358687E+01  0.22581916366E+02 -0.19276487708E+02  0.95319746002E+02  0.90551565171E+02 0.  0.
         11    1    3    3    0    0  0.16174674469E+02  0.31417717816E+02  0.28091902963E+02  0.45142530936E+02  0.51100000000E-03 0. -1.
         22    1    1    0    0    0 -0.21776358687E+01 -0.22581916366E+02  0.19276487708E+02  0.29770253998E+02  0.00000000000E+00 0. -1.
</event>
<event>
 5    1  0.1044283E-009  0.9118800E+02  0.7815553E-02  0.1125453E+00
         25   -1    0    0    0    0  0.00000000000E+00  0.00000000000E+00  0.99999998245E-14  0.12509000000E+03  0.12509000000E+03 0.  0.
        -11    1    3    3    0    0  0.88011342832E+01 -0.27946648049E+01 -0.42926146198E+02  0.43908133002E+02  0.51100000000E-03 0. -1.
         23    2    1    0    0    0 -0.10366657990E+02 -0.25289825056E+02  0.20014226468E+01  0.97684735143E+02  0.93761713605E+02 0.  0.
         11    1    3    3    0    0 -0.19167792273E+02 -0.22495160251E+02  0.44927568845E+02  0.53776602142E+02  0.51100000000E-03 0.  1.
         22    1    1    0    0    0  0.10366657990E+02  0.25289825056E+02 -0.20014226468E+01  0.27405264857E+02  0.00000000000E+00 0.  1.
</event>
<event>
 5    1  0.1044283E-009  0.9118800E+02  0.7815553E-02  0.1125453E+00
         25   -1    0    0    0    0  0.00000000000E+00  0.00000000000E+00  0.99999998245E-14  0.12509000000E+03  0.12509000000E+03 0.  0.
        -11    1    3    3    0    0  0.49723828402E+02 -0.15264553292E+02  0.30196011871E+02  0.60143701510E+02  0.51100000000E-03 0.  1.
         23    2    1    0    0    0  0.19915396027E+02  0.29986335836E+01  0.20342680363E+02  0.96464147233E+02  0.92118902809E+02 0.  0.
         11    1    3    3    0    0 -0.29808432375E+02  0.18263186875E+02 -0.98533315076E+01  0.36320445723E+02  0.51100000000E-03 0. -1.
         22    1    1    0    0    0 -0.19915396027E+02 -0.29986335836E+01 -0.20342680363E+02  0.28625852767E+02  0.00000000000E+00 0.  1.
</event>
<event>
 5    1  0.1044283E-009  0.9118800E+02  0.7815553E-02  0.1125453E+00
         25   -1    0    0    0    0  0.00000000000E+00  0.00000000000E+00  0.99999998245E-14  0.12509000000E+03  0.12509000000E+03 0.  0.
        -11    1    3    3    0    0  0.30484591049E+02  0.50529723779E+02  0.89386719083E+01  0.59686373087E+02  0.51100000000E-03 0. -1.
         23    2    1    0    0    0  0.46631448362E+01  0.26304829060E+02  0.13099710753E+02  0.95336153636E+02  0.90574228215E+02 0.  0.
         11    1    3    3    0    0 -0.25821446213E+02 -0.24224894719E+02  0.41610388444E+01  0.35649780549E+02  0.51100000000E-03 0.  1.
         22    1    1    0    0    0 -0.46631448362E+01 -0.26304829060E+02 -0.13099710753E+02  0.29753846364E+02  0.00000000000E+00 0. -1.
</event>
<event>
 5    1  0.1044283E-009  0.9118800E+02  0.7815553E-02  0.1125453E+00
         25   -1    0    0    0    0  0.00000000000E+00  0.00000000000E+00  0.99999998245E-14  0.12509000000E+03  0.12509000000E+03 0.  0.
        -11    1    3    3    0    0  0.28841220746E+02 -0.27893843830E+02  0.94378080555E+01  0.41218378897E+02  0.51100000000E-03 0. -1.
         23    2    1    0    0    0  0.72029113754E+00  0.12027547688E+02 -0.22500104183E+02  0.99566767231E+02  0.96239834403E+02 0.  0.
         11    1    3    3    0    0 -0.28120929608E+02  0.39921391519E+02 -0.31937912238E+02  0.58348388334E+02  0.51100000000E-03 0.  1.
         22    1    1    0    0    0 -0.72029113754E+00 -0.12027547688E+02  0.22500104183E+02  0.25523232769E+02  0.00000000000E+00 0.  1.
</event>
<event>
 5    1  0.1044283E-009  0.9118800E+02  0.7815553E-02  0.1125453E+00
         25   -1    0    0    0    0  0.00000000000E+00  0.00000000000E+00  0.99999998245E-14  0.12509000000E+03  0.12509000000E+03 0.  0.
        -11    1    3    3    0    0 -0.30071178646E+01 -0.50096383521E+02  0.15339544395E+02  0.52478491044E+02  0.51100000000E-03 0. -1.
         23    2    1    0    0    0 -0.52522313070E+01 -0.90375476994E+01  0.27754836439E+02  0.95432047477E+02  0.90706568327E+02 0.  0.
         11    1    3    3    0    0 -0.22451134424E+01  0.41058835822E+02  0.12415292044E+02  0.42953556433E+02  0.51100000000E-03 0.  1.
         22    1    1    0    0    0  0.52522313070E+01  0.90375476994E+01 -0.27754836439E+02  0.29657952523E+02  0.00000000000E+00 0. -1.
</event>
<event>
 5    1  0.1044283E-009  0.9118800E+02  0.7815553E-02  0.1125453E+00
         25   -1    0    0    0    0  0.00000000000E+00  0.00000000000E+00  0.99999998245E-14  0.12509000000E+03  0.12509000000E+03 0.  0.
        -11    1    3    3    0    0  0.37217814042E+02  0.41156150507E+02  0.21515122004E+02  0.59513820931E+02  0.51100000000E-03 0.  1.
         23    2    1    0    0    0  0.23557732936E+02  0.10011360858E+02  0.18197255227E+02  0.93684041567E+02  0.88263046737E+02 0.  0.
         11    1    3    3    0    0 -0.13660081107E+02 -0.31144789649E+02 -0.33178667769E+01  0.34170220636E+02  0.51100000000E-03 0. -1.
         22    1    1    0    0    0 -0.23557732936E+02 -0.10011360858E+02 -0.18197255227E+02  0.31405958433E+02  0.00000000000E+00 0.  1.
</event>
<event>
 5    1  0.1044283E-009  0.9118800E+02  0.7815553E-02  0.1125453E+00
         25   -1    0    0    0    0  0.00000000000E+00  0.00000000000E+00  0.99999998245E-14  0.12509000000E+03  0.12509000000E+03 0.  0.
        -11    1    3    3    0    0 -0.36806244863E+02 -0.37542695509E+02 -0.69460711243E+01  0.53032080398E+02  0.51100000000E-03 0. -1.
         23    2    1    0    0    0 -0.27247017847E+02  0.80986737965E+00 -0.15862936879E+02  0.93551315291E+02  0.88074740758E+02 0.  0.
         11    1    3    3    0    0  0.95592270163E+01  0.38352562888E+02 -0.89168657548E+01  0.40519234894E+02  0.51100000000E-03 0.  1.
         22    1    1    0    0    0  0.27247017847E+02 -0.80986737965E+00  0.15862936879E+02  0.31538684709E+02  0.00000000000E+00 0. -1.
</event>
<event>
 5    1  0.1044283E-009  0.9118800E+02  0.7815553E-02  0.1125453E+00
         25   -1    0    0    0    0  0.00000000000E+00  0.00000000000E+00  0.99999998245E-14  0.12509000000E+03  0.12509000000E+03 0.  0.
        -11    1    3    3    0    0 -0.57449595189E+02  0.67859660229E+01 -0.17161378748E+02  0.60340850533E+02  0.51100000000E-03 0.  1.
         23    2    1    0    0    0 -0.22443053082E+02  0.49245509389E+00 -0.18599071667E+02  0.95937665436E+02  0.91401187294E+02 0.  0.
         11    1    3    3    0    0  0.35006542107E+02 -0.62935109290E+01 -0.14376929187E+01  0.35596814903E+02  0.51100000000E-03 0. -1.
         22    1    1    0    0    0  0.22443053082E+02 -0.49245509389E+00  0.18599071667E+02  0.29152334564E+02  0.00000000000E+00 0.  1.
</event>
<event>
 5    1  0.1044283E-009  0.9118800E+02  0.7815553E-02  0.1125453E+00
         25   -1    0    0    0    0  0.00000000000E+00  0.00000000000E+00  0.99999998245E-14  0.12509000000E+03  0.12509000000E+03 0.  0.
        -11    1    3    3    0    0 -0.14252636244E+02  0.28438512621E+02 -0.53627018931E+02  0.62351774631E+02  0.51100000000E-03 0.  1.
         23    2    1    0    0    0 -0.89699748322E+01  0.15673789743E+02 -0.23877649136E+02  0.95152226842E+02  0.90319853916E+02 0.  0.
         11    1    3    3    0    0  0.52826614116E+01 -0.12764722878E+02  0.29749369795E+02  0.32800452211E+02  0.51100000000E-03 0. -1.
         22    1    1    0    0    0  0.89699748322E+01 -0.15673789743E+02  0.23877649136E+02  0.29937773158E+02  0.00000000000E+00 0.  1.
</event>
<event>
 5    1  0.1044283E-009  0.9118800E+02  0.7815553E-02  0.1125453E+00
         25   -1    0    0    0    0  0.00000000000E+00  0.00000000000E+00  0.99999998245E-14  0.12509000000E+03  0.12509000000E+03 0.  0.
        -11    1    3    3    0    0 -0.27722399700E+02 -0.23639602553E+02 -0.15413181098E+02  0.39559176000E+02  0.51100000000E-03 0. -1.
         23    2    1    0    0    0  0.85729314975E+01 -0.13430430081E+02  0.25389595629E+02  0.95114957501E+02  0.90268222358E+02 0.  0.
         11    1    3    3    0    0  0.36295331197E+02  0.10209172472E+02  0.40802776727E+02  0.55555781501E+02  0.51100000000E-03 0.  1.
         22    1    1    0    0    0 -0.85729314975E+01  0.13430430081E+02 -0.25389595629E+02  0.29975042499E+02  0.00000000000E+00 0.  1.
</event>
<event>
 5    1  0.1044283E-009  0.9118800E+02  0.7815553E-02  0.1125453E+00
         25   -1    0    0    0    0  0.00000000000E+00  0.00000000000E+00  0.99999998245E-14  0.12509000000E+03  0.12509000000E+03 0.  0.
        -11    1    3    3    0    0 -0.85534111618E+01  0.39927687754E+02 -0.79989137439E+01  0.41609658893E+02  0.51100000000E-03 0.  1.
         23    2    1    0    0    0 -0.28017607443E+02 -0.89476687678E+01  0.35318833076E+01  0.95467013943E+02  0.90754776449E+02 0.  0.
         11    1    3    3    0    0 -0.19464196282E+02 -0.48875356522E+02  0.11530797051E+02  0.53857355050E+02  0.51100000000E-03 0. -1.
         22    1    1    0    0    0  0.28017607443E+02  0.89476687678E+01 -0.35318833076E+01  0.29622986057E+02  0.00000000000E+00 0.  1.
</event>
<event>
 5    1  0.1044283E-009  0.9118800E+02  0.7815553E-02  0.1125453E+00
         25   -1    0    0    0    0  0.00000000000E+00  0.00000000000E+00  0.99999998245E-14  0.12509000000E+03  0.12509000000E+03 0.  0.
        -11    1    3    3    0    0  0.88579988483E+01  0.36506748894E+02 -0.38454254516E+02  0.53758130074E+02  0.51100000000E-03 0.  1.
         23    2    1    0    0    0 -0.19341205760E+02  0.14764496070E+02 -0.18006506062E+02  0.94819439301E+02  0.89857772198E+02 0.  0.
         11    1    3    3    0    0 -0.28199204608E+02 -0.21742252824E+02  0.20447748454E+02  0.41061309227E+02  0.51100000000E-03 0. -1.
         22    1    1    0    0    0  0.19341205760E+02 -0.14764496070E+02  0.18006506062E+02  0.30270560699E+02  0.00000000000E+00 0.  1.
</event>
<event>
 5    1  0.1044283E-009  0.9118800E+02  0.7815553E-02  0.1125453E+00
         25   -1    0    0    0    0  0.00000000000E+00  0.00000000000E+00  0.99999998245E-14  0.12509000000E+03  0.12509000000E+03 0.  0.
        -11    1    3    3    0    0  0.42127876508E+02  0.27852456271E+02 -0.33391484737E+02  0.60543443515E+02  0.51100000000E-03 0.  1.
         23    2    1    0    0    0  0.24346345962E+02  0.16292848303E+02 -0.59985022320E+01  0.95187098860E+02  0.90368137598E+02 0.  0.
         11    1    3    3    0    0 -0.17781530546E+02 -0.11559607967E+02  0.27392982505E+02  0.34643655346E+02  0.51100000000E-03 0. -1.
         22    1    1    0    0    0 -0.24346345962E+02 -0.16292848303E+02  0.59985022320E+01  0.29902901140E+02  0.00000000000E+00 0.  1.
</event>
<event>
 5    1  0.1044283E-009  0.9118800E+02  0.7815553E-02  0.1125453E+00
         25   -1    0    0    0    0  0.00000000000E+00  0.00000000000E+00  0.99999998245E-14  0.12509000000E+03  0.12509000000E+03 0.  0.
        -11    1    3    3    0    0 -0.32674058986E+02  0.98657467091E+01 -0.12815380365E+02  0.36457661238E+02  0.51100000000E-03 0. -1.
         23    2    1    0    0    0  0.19347470590E+02 -0.90600460174E+01  0.15556891406E+02  0.98662250904E+02  0.95056897861E+02 0.  0.
         11    1    3    3    0    0  0.52021529577E+02 -0.18925792726E+02  0.28372271771E+02  0.62204589666E+02  0.51100000000E-03 0.  1.
         22    1    1    0    0    0 -0.19347470590E+02  0.90600460174E+01 -0.15556891406E+02  0.26427749096E+02  0.00000000000E+00 0.  1.
</event>
<event>
 5    1  0.1044283E-009  0.9118800E+02  0.7815553E-02  0.1125453E+00
         25   -1    0    0    0    0  0.00000000000E+00  0.00000000000E+00  0.99999998245E-14  0.12509000000E+03  0.12509000000E+03 0.  0.
        -11    1    3    3    0    0  0.28158901137E+02  0.41722911635E+02  0.24102714473E+02  0.55809192018E+02  0.51100000000E-03 0.  1.
         23    2    1    0    0    0  0.20149190828E+02  0.42204966334E+01  0.23068588073E+02  0.94171360985E+02  0.88951014560E+02 0.  0.
         11    1    3    3    0    0 -0.80097103095E+01 -0.37502415001E+02 -0.10341263995E+01  0.38362168967E+02  0.51100000000E-03 0. -1.
         22    1    1    0    0    0 -0.20149190828E+02 -0.42204966334E+01 -0.23068588073E+02  0.30918639015E+02  0.00000000000E+00 0.  1.
</event>
<event>
 5    1  0.1044283E-009  0.9118800E+02  0.7815553E-02  0.1125453E+00
         25   -1    0    0    0    0  0.00000000000E+00  0.00000000000E+00  0.99999998245E-14  0.12509000000E+03  0.12509000000E+03 0.  0.
        -11    1    3    3    0    0 -0.61622566382E+02 -0.23471790793E+01  0.51796799106E+01  0.61884400469E+02  0.51100000000E-03 0. -1.
         23    2    1    0    0    0 -0.28239995134E+02 -0.98824193407E+00  0.88097705713E+01  0.95491249945E+02  0.90788175503E+02 0.  0.
         11    1    3    3    0    0  0.33382571247E+02  0.13589371452E+01  0.36300906607E+01  0.33606849476E+02  0.51100000000E-03 0.  1.
         22    1    1    0    0    0  0.28239995134E+02  0.98824193407E+00 -0.88097705713E+01  0.29598750055E+02  0.00000000000E+00 0. -1.
</event>
<event>
 5    1  0.1044283E-009  0.9118800E+02  0.7815553E-02  0.1125453E+00
         25   -1    0    0    0    0  0.00000000000E+00  0.00000000000E+00  0.99999998245E-14  0.12509000000E+03  0.12509000000E+03 0.  0.
        -11    1    3    3    0    0  0.29853488591E+02 -0.10989158401E+02  0.13560211443E+02  0.34581378198E+02  0.51100000000E-03 0. -1.
         23    2    1    0    0    0 -0.25409259359E+02 -0.14397652318E+02 -0.92376521203E+01  0.94459017806E+02  0.89354624809E+02 0.  0.
         11    1    3    3    0    0 -0.55262747950E+02 -0.34084939167E+01 -0.22797863564E+02  0.59877639609E+02  0.51100000000E-03 0.  1.
         22    1    1    0    0    0  0.25409259359E+02  0.14397652318E+02  0.92376521203E+01  0.30630982194E+02  0.00000000000E+00 0.  1.
</event>
<event>
 5    1  0.1044283E-009  0.9118800E+02  0.7815553E-02  0.1125453E+00
         25   -1    0    0    0    0  0.00000000000E+00  0.00000000000E+00  0.99999998245E-14  0.12509000000E+03  0.12509000000E+03 0.  0.
        -11    1    3    3    0    0 -0.23233774476E+02  0.34415560435E+02  0.34598246554E+02  0.54048845883E+02  0.51100000000E-03 0. -1.
         23    2    1    0    0    0  0.55099897303E+01  0.26090603255E+02  0.19259499580E+01  0.98354464691E+02  0.94651000398E+02 0.  0.
         11    1    3    3    0    0  0.28743764207E+02 -0.83249571801E+01 -0.32672296596E+02  0.44305618808E+02  0.51100000000E-03 0.  1.
         22    1    1    0    0    0 -0.55099897303E+01 -0.26090603255E+02 -0.19259499580E+01  0.26735535309E+02  0.00000000000E+00 0. -1.
</event>
<event>
 5    1  0.1044283E-009  0.9118800E+02  0.7815553E-02  0.1125453E+00
         25   -1    0    0    0    0  0.00000000000E+00  0.00000000000E+00  0.99999998245E-14  0.12509000000E+03  0.12509000000E+03 0.  0.
        -11    1    3    3    0    0 -0.24549638842E+02  0.45440135141E+02  0.30224246730E+02  0.59841421604E+02  0.51100000000E-03 0.  1.
         23    2    1    0    0    0 -0.22473644651E+02  0.16017300904E+02  0.94477059788E+01  0.95920190601E+02  0.91377268423E+02 0.  0.
         11    1    3    3    0    0  0.20759941915E+01 -0.29422834237E+02 -0.20776540751E+02  0.36078768997E+02  0.51100000000E-03 0. -1.
         22    1    1    0    0    0  0.22473644651E+02 -0.16017300904E+02 -0.94477059788E+01  0.29169809399E+02  0.00000000000E+00 0.  1.
</event>
<event>
 5    1  0.1044283E-009  0.9118800E+02  0.7815553E-02  0.1125453E+00
         25   -1    0    0    0    0  0.00000000000E+00  0.00000000000E+00  0.99999998245E-14  0.12509000000E+03  0.12509000000E+03 0.  0.
        -11    1    3    3    0    0  0.15871073177E+02 -0.27239404188E+02 -0.22904813994E+02  0.38968020333E+02  0.51100000000E-03 0.  1.
         23    2    1    0    0    0 -0.54708987982E+01 -0.11244418023E+02  0.26878303340E+02  0.95445255764E+02  0.90724781549E+02 0.  0.
         11    1    3    3    0    0 -0.21341971975E+02  0.15994986165E+02  0.49783117335E+02  0.56477235432E+02  0.51100000000E-03 0. -1.
         22    1    1    0    0    0  0.54708987982E+01  0.11244418023E+02 -0.26878303340E+02  0.29644744236E+02  0.00000000000E+00 0. -1.
</event>
<event>
 5    1  0.1044283E-009  0.9118800E+02  0.7815553E-02  0.1125453E+00
         25   -1    0    0    0    0  0.00000000000E+00  0.00000000000E+00  0.99999998245E-14  0.12509000000E+03  0.12509000000E+03 0.  0.
        -11    1    3    3    0    0  0.19654635225E+01 -0.35587917770E+01  0.57205617341E+02  0.57349897135E+02  0.51100000000E-03 0. -1.
         23    2    1    0    0    0  0.16757989529E+02  0.58489950338E+01  0.20873545697E+02  0.97690257923E+02  0.93769081403E+02 0.  0.
         11    1    3    3    0    0  0.14792526006E+02  0.94077868108E+01 -0.36332071644E+02  0.40340360788E+02  0.51100000000E-03 0.  1.
         22    1    1    0    0    0 -0.16757989529E+02 -0.58489950338E+01 -0.20873545697E+02  0.27399742077E+02  0.00000000000E+00 0. -1.
</event>
<event>
 5    1  0.1044283E-009  0.9118800E+02  0.7815553E-02  0.1125453E+00
         25   -1    0    0    0    0  0.00000000000E+00  0.00000000000E+00  0.99999998245E-14  0.12509000000E+03  0.12509000000E+03 0.  0.
        -11    1    3    3    0    0  0.18072124576E+02 -0.15739911433E+02  0.43680848332E+02  0.49823317933E+02  0.51100000000E-03 0.  1.
         23    2    1    0    0    0 -0.14973379976E+02  0.94620598327E+01  0.22458189137E+02  0.96487501097E+02  0.92150610006E+02 0.  0.
         11    1    3    3    0    0 -0.33045504552E+02  0.25201971265E+02 -0.21222659195E+02  0.46664183164E+02  0.51100000000E-03 0. -1.
         22    1    1    0    0    0  0.14973379976E+02 -0.94620598327E+01 -0.22458189137E+02  0.28602498903E+02  0.00000000000E+00 0. -1.
</event>
<event>
 5    1  0.1044283E-009  0.9118800E+02  0.7815553E-02  0.1125453E+00
         25   -1    0    0    0    0  0.00000000000E+00  0.00000000000E+00  0.99999998245E-14  0.12509000000E+03  0.12509000000E+03 0.  0.
        -11    1    3    3    0    0 -0.16580608667E+01 -0.10169492831E+02 -0.33073873152E+02  0.34641721028E+02  0.51100000000E-03 0.  1.
         23    2    1    0    0    0 -0.12977939649E+02 -0.34383221617E+00  0.26236635352E+02  0.95817040247E+02  0.91235952502E+02 0.  0.
         11    1    3    3    0    0 -0.11319878782E+02  0.98256606145E+01  0.59310508504E+02  0.61175319218E+02  0.51100000000E-03 0. -1.
         22    1    1    0    0    0  0.12977939649E+02  0.34383221617E+00 -0.26236635352E+02  0.29272959753E+02  0.00000000000E+00 0. -1.
</event>
<event>
 5    1  0.1044283E-009  0.9118800E+02  0.7815553E-02  0.1125453E+00
         25   -1    0    0    0    0  0.00000000000E+00  0.00000000000E+00  0.99999998245E-14  0.12509000000E+03  0.12509000000E+03 0.  0.
        -11    1    3    3    0    0 -0.98219833964E+01 -0.44942296140E+02 -0.43553532189E+01  0.46208770186E+02  0.51100000000E-03 0.  1.
         23    2    1    0    0    0 -0.17328074959E+02 -0.50142819035E+01  0.23497336608E+02  0.95466866600E+02  0.90754573361E+02 0.  0.
         11    1    3    3    0    0 -0.75060915625E+01  0.39928014237E+02  0.27852689827E+02  0.49258096414E+02  0.51100000000E-03 0. -1.
         22    1    1    0    0    0  0.17328074959E+02  0.50142819035E+01 -0.23497336608E+02  0.29623133400E+02  0.00000000000E+00 0.  1.
</event>
<event>
 5    1  0.1044283E-009  0.9118800E+02  0.7815553E-02  0.1125453E+00
         25   -1    0    0    0    0  0.00000000000E+00  0.00000000000E+00  0.99999998245E-14  0.12509000000E+03  0.12509000000E+03 0.  0.
        -11    1    3    3    0    0 -0.15248343429E+02  0.93581504036E+01  0.40802973998E+02  0.44552998145E+02  0.51100000000E-03 0.  1.
         23    2    1    0    0    0 -0.23394426527E+02  0.34001215109E+02  0.14930352686E+02  0.81200396985E+02  0.68316961421E+02 0.  0.
         11    1    3    3    0    0 -0.81460830985E+01  0.24643064706E+02 -0.25872621312E+02  0.36647398840E+02  0.51100000000E-03 0. -1.
         22    1    1    0    0    0  0.23394426527E+02 -0.34001215109E+02 -0.14930352686E+02  0.43889603015E+02  0.00000000000E+00 0.  1.
</event>
<event>
 5    1  0.1044283E-009  0.9118800E+02  0.7815553E-02  0.1125453E+00
         25   -1    0    0    0    0  0.00000000000E+00  0.00000000000E+00  0.99999998245E-14  0.12509000000E+03  0.12509000000E+03 0.  0.
        -11    1    3    3    0    0  0.30006785456E+02 -0.14286762723E+02 -0.26418835633E+02  0.42455548978E+02  0.51100000000E-03 0. -1.
         23    2    1    0    0    0 -0.66168682480E+01 -0.26183238658E+02  0.10794710598E+02  0.96006143500E+02  0.91494857127E+02 0.  0.
         11    1    3    3    0    0 -0.36623653704E+02 -0.11896475935E+02  0.37213546231E+02  0.53550594522E+02  0.51100000000E-03 0.  1.
         22    1    1    0    0    0  0.66168682480E+01  0.26183238658E+02 -0.10794710598E+02  0.29083856500E+02  0.00000000000E+00 0.  1.
</event>
<event>
 5    1  0.1044283E-009  0.9118800E+02  0.7815553E-02  0.1125453E+00
         25   -1    0    0    0    0  0.00000000000E+00  0.00000000000E+00  0.99999998245E-14  0.12509000000E+03  0.12509000000E+03 0.  0.
        -11    1    3    3    0    0  0.21447158002E+02 -0.31424416817E+02  0.33464962636E+01  0.38192585618E+02  0.51100000000E-03 0.  1.
         23    2    1    0    0    0 -0.29234380131E+02 -0.50766379118E+01  0.23944382945E+01  0.95321651560E+02  0.90554197513E+02 0.  0.
         11    1    3    3    0    0 -0.50681538133E+02  0.26347778906E+02 -0.95205796903E+00  0.57129065942E+02  0.51100000000E-03 0. -1.
         22    1    1    0    0    0  0.29234380131E+02  0.50766379118E+01 -0.23944382945E+01  0.29768348440E+02  0.00000000000E+00 0. -1.
</event>
<event>
 5    1  0.1044283E-009  0.9118800E+02  0.7815553E-02  0.1125453E+00
         25   -1    0    0    0    0  0.00000000000E+00  0.00000000000E+00  0.99999998245E-14  0.12509000000E+03  0.12509000000E+03 0.  0.
        -11    1    3    3    0    0 -0.73374537531E+01 -0.57264482727E+02  0.10690093084E+02  0.58714029840E+02  0.51100000000E-03 0. -1.
         23    2    1    0    0    0  0.11918626019E+02 -0.26978512114E+02  0.27743465390E+01  0.95465841602E+02  0.90753160562E+02 0.  0.
         11    1    3    3    0    0  0.19256079773E+02  0.30285970613E+02 -0.79157465450E+01  0.36751811763E+02  0.51100000000E-03 0.  1.
         22    1    1    0    0    0 -0.11918626019E+02  0.26978512114E+02 -0.27743465390E+01  0.29624158398E+02  0.00000000000E+00 0. -1.
</event>
<event>
 5    1  0.1044283E-009  0.9118800E+02  0.7815553E-02  0.1125453E+00
         25   -1    0    0    0    0  0.00000000000E+00  0.00000000000E+00  0.99999998245E-14  0.12509000000E+03  0.12509000000E+03 0.  0.
        -11    1    3    3    0    0  0.59925065263E+01  0.75067670979E+01  0.58292008156E+02  0.59078083093E+02  0.51100000000E-03 0.  1.
         23    2    1    0    0    0 -0.59454093694E+01 -0.82381843507E+01  0.28558696953E+02  0.94778042860E+02  0.89800126185E+02 0.  0.
         11    1    3    3    0    0 -0.11937915896E+02 -0.15744951449E+02 -0.29733311203E+02  0.35699959768E+02  0.51100000000E-03 0. -1.
         22    1    1    0    0    0  0.59454093694E+01  0.82381843507E+01 -0.28558696953E+02  0.30311957140E+02  0.00000000000E+00 0.  1.
</event>
<event>
 5    1  0.1044283E-009  0.9118800E+02  0.7815553E-02  0.1125453E+00
         25   -1    0    0    0    0  0.00000000000E+00  0.00000000000E+00  0.99999998245E-14  0.12509000000E+03  0.12509000000E+03 0.  0.
        -11    1    3    3    0    0  0.85843785371E+01  0.16992820819E+02 -0.25859929778E+02  0.32112045756E+02  0.51100000000E-03 0. -1.
         23    2    1    0    0    0 -0.28814570833E+02 -0.17364676367E+02  0.42941932381E+01  0.91174641043E+02  0.84631930121E+02 0.  0.
         11    1    3    3    0    0 -0.37398949370E+02 -0.34357497186E+02  0.30154123016E+02  0.59062595287E+02  0.51100000000E-03 0.  1.
         22    1    1    0    0    0  0.28814570833E+02  0.17364676367E+02 -0.42941932381E+01  0.33915358957E+02  0.00000000000E+00 0.  1.
</event>
<event>
 5    1  0.1044283E-009  0.9118800E+02  0.7815553E-02  0.1125453E+00
         25   -1    0    0    0    0  0.00000000000E+00  0.00000000000E+00  0.99999998245E-14  0.12509000000E+03  0.12509000000E+03 0.  0.
        -11    1    3    3    0    0 -0.35263583692E+02 -0.28133049734E+02  0.29718906346E+00  0.45111829311E+02  0.51100000000E-03 0.  1.
         23    2    1    0    0    0 -0.74870143200E+01  0.30301439649E+01 -0.28265233637E+02  0.95693391549E+02  0.91066264871E+02 0.  0.
         11    1    3    3    0    0  0.27776569372E+02  0.31163193699E+02 -0.28562422701E+02  0.50581562238E+02  0.51100000000E-03 0. -1.
         22    1    1    0    0    0  0.74870143200E+01 -0.30301439649E+01  0.28265233637E+02  0.29396608451E+02  0.00000000000E+00 0. -1.
</event>
<event>
 5    1  0.1044283E-009  0.9118800E+02  0.7815553E-02  0.1125453E+00
         25   -1    0    0    0    0  0.00000000000E+00  0.00000000000E+00  0.99999998245E-14  0.12509000000E+03  0.12509000000E+03 0.  0.
        -11    1    3    3    0    0 -0.13484929883E+02 -0.13144045545E+02  0.25922584166E+02  0.32040437534E+02  0.51100000000E-03 0. -1.
         23    2    1    0    0    0 -0.15190960322E+02 -0.23055963731E+02 -0.27333661180E+02  0.86238078908E+02  0.76990483057E+02 0.  0.
         11    1    3    3    0    0 -0.17060304389E+01 -0.99119181858E+01 -0.53256245346E+02  0.54197641375E+02  0.51100000000E-03 0.  1.
         22    1    1    0    0    0  0.15190960322E+02  0.23055963731E+02  0.27333661180E+02  0.38851921092E+02  0.00000000000E+00 0.  1.
</event>
<event>
 5    1  0.1044283E-009  0.9118800E+02  0.7815553E-02  0.1125453E+00
         25   -1    0    0    0    0  0.00000000000E+00  0.00000000000E+00  0.99999998245E-14  0.12509000000E+03  0.12509000000E+03 0.  0.
        -11    1    3    3    0    0  0.50364115027E+02  0.13222002866E+02 -0.31780890877E+02  0.61003200469E+02  0.51100000000E-03 0.  1.
         23    2    1    0    0    0  0.24486007830E+02  0.12490922259E+02 -0.72637567925E+01  0.96658505472E+02  0.92382448545E+02 0.  0.
         11    1    3    3    0    0 -0.25878107196E+02 -0.73108060694E+00  0.24517134085E+02  0.35655305004E+02  0.51100000000E-03 0. -1.
         22    1    1    0    0    0 -0.24486007830E+02 -0.12490922259E+02  0.72637567925E+01  0.28431494528E+02  0.00000000000E+00 0.  1.
</event>
<event>
 5    1  0.1044283E-009  0.9118800E+02  0.7815553E-02  0.1125453E+00
         25   -1    0    0    0    0  0.00000000000E+00  0.00000000000E+00  0.99999998245E-14  0.12509000000E+03  0.12509000000E+03 0.  0.
        -11    1    3    3    0    0 -0.54251009561E+00  0.33795773926E+02  0.46842912024E+02  0.57764236856E+02  0.51100000000E-03 0. -1.
         23    2    1    0    0    0 -0.73719955713E+01  0.13592421618E+00  0.26280600028E+02  0.97794675639E+02  0.93908273605E+02 0.  0.
         11    1    3    3    0    0 -0.68294854757E+01 -0.33659849709E+02 -0.20562311995E+02  0.40030438783E+02  0.51100000000E-03 0.  1.
         22    1    1    0    0    0  0.73719955713E+01 -0.13592421618E+00 -0.26280600028E+02  0.27295324361E+02  0.00000000000E+00 0. -1.
</event>
<event>
 5    1  0.1044283E-009  0.9118800E+02  0.7815553E-02  0.1125453E+00
         25   -1    0    0    0    0  0.00000000000E+00  0.00000000000E+00  0.99999998245E-14  0.12509000000E+03  0.12509000000E+03 0.  0.
        -11    1    3    3    0    0  0.20480904710E+02 -0.17919894962E+02  0.26951068481E+02  0.38300785706E+02  0.51100000000E-03 0.  1.
         23    2    1    0    0    0 -0.15708025836E+02 -0.82919658292E+01  0.42637028833E+02  0.78901094398E+02  0.63968489872E+02 0.  0.
         11    1    3    3    0    0 -0.36188930546E+02  0.96279291324E+01  0.15685960352E+02  0.40600308692E+02  0.51100000000E-03 0. -1.
         22    1    1    0    0    0  0.15708025836E+02  0.82919658292E+01 -0.42637028833E+02  0.46188905602E+02  0.00000000000E+00 0.  1.
</event>
<event>
 5    1  0.1044283E-009  0.9118800E+02  0.7815553E-02  0.1125453E+00
         25   -1    0    0    0    0  0.00000000000E+00  0.00000000000E+00  0.99999998245E-14  0.12509000000E+03  0.12509000000E+03 0.  0.
        -11    1    3    3    0    0 -0.10702804226E+02  0.11406953480E+02 -0.57883806933E+02  0.59960017606E+02  0.51100000000E-03 0.  1.
         23    2    1    0    0    0 -0.72817208598E+01 -0.75952439851E+01 -0.21739690412E+02  0.10093787113E+03  0.98005757477E+02 0.  0.
         11    1    3    3    0    0  0.34210833658E+01 -0.19002197465E+02  0.36144116521E+02  0.40977853521E+02  0.51100000000E-03 0. -1.
         22    1    1    0    0    0  0.72817208598E+01  0.75952439851E+01  0.21739690412E+02  0.24152128873E+02  0.00000000000E+00 0.  1.
</event>
<event>
 5    1  0.1044283E-009  0.9118800E+02  0.7815553E-02  0.1125453E+00
         25   -1    0    0    0    0  0.00000000000E+00  0.00000000000E+00  0.99999998245E-14  0.12509000000E+03  0.12509000000E+03 0.  0.
        -11    1    3    3    0    0  0.23362429704E+02  0.35220543444E+02 -0.62104855435E+00  0.42269084491E+02  0.51100000000E-03 0.  1.
         23    2    1    0    0    0  0.13562921229E+02 -0.12937278613E+02  0.21845294174E+02  0.96305579080E+02  0.91903327874E+02 0.  0.
         11    1    3    3    0    0 -0.97995084753E+01 -0.48157822057E+02  0.22466342728E+02  0.54036494589E+02  0.51100000000E-03 0. -1.
         22    1    1    0    0    0 -0.13562921229E+02  0.12937278613E+02 -0.21845294174E+02  0.28784420920E+02  0.00000000000E+00 0. -1.
</event>
<event>
 5    1  0.1044283E-009  0.9118800E+02  0.7815553E-02  0.1125453E+00
         25   -1    0    0    0    0  0.00000000000E+00  0.00000000000E+00  0.99999998245E-14  0.12509000000E+03  0.12509000000E+03 0.  0.
        -11    1    3    3    0    0  0.14677240505E+02  0.20688593883E+02 -0.26039008122E+02  0.36352018512E+02  0.51100000000E-03 0. -1.
         23    2    1    0    0    0 -0.24716316073E+02 -0.63455890734E+01  0.11487997245E+02  0.97105417430E+02  0.92985618419E+02 0.  0.
         11    1    3    3    0    0 -0.39393556577E+02 -0.27034182956E+02  0.37527005368E+02  0.60753398918E+02  0.51100000000E-03 0.  1.
         22    1    1    0    0    0  0.24716316073E+02  0.63455890734E+01 -0.11487997245E+02  0.27984582570E+02  0.00000000000E+00 0.  1.
</event>
<event>
 5    1  0.1044283E-009  0.9118800E+02  0.7815553E-02  0.1125453E+00
         25   -1    0    0    0    0  0.00000000000E+00  0.00000000000E+00  0.99999998245E-14  0.12509000000E+03  0.12509000000E+03 0.  0.
        -11    1    3    3    0    0 -0.37929619480E+02  0.32854322372E+02  0.35416472590E+02  0.61419777461E+02  0.51100000000E-03 0. -1.
         23    2    1    0    0    0 -0.13313043886E+02  0.14123505631E+02  0.23603702111E+02  0.94531117459E+02  0.89455502156E+02 0.  0.
         11    1    3    3    0    0  0.24616575595E+02 -0.18730816742E+02 -0.11812770479E+02  0.33111339998E+02  0.51100000000E-03 0.  1.
         22    1    1    0    0    0  0.13313043886E+02 -0.14123505631E+02 -0.23603702111E+02  0.30558882541E+02  0.00000000000E+00 0. -1.
</event>
<event>
 5    1  0.1044283E-009  0.9118800E+02  0.7815553E-02  0.1125453E+00
         25   -1    0    0    0    0  0.00000000000E+00  0.00000000000E+00  0.99999998245E-14  0.12509000000E+03  0.12509000000E+03 0.  0.
        -11    1    3    3    0    0 -0.40638961496E+02 -0.23355541293E+02  0.36176428084E+02  0.59209293609E+02  0.51100000000E-03 0.  1.
         23    2    1    0    0    0 -0.22924791692E+02  0.30972775176E+01  0.17093651314E+02  0.96326618464E+02  0.91931960206E+02 0.  0.
         11    1    3    3    0    0  0.17714169805E+02  0.26452818810E+02 -0.19082776770E+02  0.37117324855E+02  0.51100000000E-03 0. -1.
         22    1    1    0    0    0  0.22924791692E+02 -0.30972775176E+01 -0.17093651314E+02  0.28763381536E+02  0.00000000000E+00 0. -1.
</event>
<event>
 5    1  0.1044283E-009  0.9118800E+02  0.7815553E-02  0.1125453E+00
         25   -1    0    0    0    0  0.00000000000E+00  0.00000000000E+00  0.99999998245E-14  0.12509000000E+03  0.12509000000E+03 0.  0.
        -11    1    3    3    0    0  0.15913023058E+02 -0.11609900789E+02  0.30637954401E+02  0.36423870598E+02  0.51100000000E-03 0. -1.
         23    2    1    0    0    0 -0.15760124890E+02  0.24252874287E+02 -0.45416574930E+01  0.95811849435E+02  0.91228835307E+02 0.  0.
         11    1    3    3    0    0 -0.31673147948E+02  0.35862775076E+02 -0.35179611894E+02  0.59387978837E+02  0.51100000000E-03 0.  1.
         22    1    1    0    0    0  0.15760124890E+02 -0.24252874287E+02  0.45416574930E+01  0.29278150565E+02  0.00000000000E+00 0.  1.
</event>
<event>
 5    1  0.1044283E-009  0.9118800E+02  0.7815553E-02  0.1125453E+00
         25   -1    0    0    0    0  0.00000000000E+00  0.00000000000E+00  0.99999998245E-14  0.12509000000E+03  0.12509000000E+03 0.  0.
        -11    1    3    3    0    0  0.11215717858E+02 -0.10663310057E+02  0.56110401988E+02  0.58205461256E+02  0.51100000000E-03 0.  1.
         23    2    1    0    0    0 -0.10927307484E+02 -0.84543632143E+01  0.26008391812E+02  0.95639724095E+02  0.90992516583E+02 0.  0.
         11    1    3    3    0    0 -0.22143025342E+02  0.22089468430E+01 -0.30102010176E+02  0.37434262839E+02  0.51100000000E-03 0. -1.
         22    1    1    0    0    0  0.10927307484E+02  0.84543632143E+01 -0.26008391812E+02  0.29450275905E+02  0.00000000000E+00 0.  1.
</event>
<event>
 5    1  0.1044283E-009  0.9118800E+02  0.7815553E-02  0.1125453E+00
         25   -1    0    0    0    0  0.00000000000E+00  0.00000000000E+00  0.99999998245E-14  0.12509000000E+03  0.12509000000E+03 0.  0.
        -11    1    3    3    0    0 -0.26295588706E+02 -0.17798102522E+02  0.16648461861E+02  0.35852499514E+02  0.51100000000E-03 0. -1.
         23    2    1    0    0    0  0.21159193975E+02  0.61952544981E+01 -0.15635631729E+02  0.98061022078E+02  0.94262391246E+02 0.  0.
         11    1    3    3    0    0  0.47454782681E+02  0.23993357020E+02 -0.32284093590E+02  0.62208522564E+02  0.51100000000E-03 0.  1.
         22    1    1    0    0    0 -0.21159193975E+02 -0.61952544981E+01  0.15635631729E+02  0.27028977922E+02  0.00000000000E+00 0.  1.
</event>
<event>
 5    1  0.1044283E-009  0.9118800E+02  0.7815553E-02  0.1125453E+00
         25   -1    0    0    0    0  0.00000000000E+00  0.00000000000E+00  0.99999998245E-14  0.12509000000E+03  0.12509000000E+03 0.  0.
        -11    1    3    3    0    0 -0.35633986715E+02 -0.39572013434E+01 -0.26857934475E+02  0.44797199647E+02  0.51100000000E-03 0. -1.
         23    2    1    0    0    0 -0.17889200353E+02 -0.17233556455E+02  0.17718226485E+02  0.94578452888E+02  0.89521669128E+02 0.  0.
         11    1    3    3    0    0  0.17744786361E+02 -0.13276355112E+02  0.44576160960E+02  0.49781253241E+02  0.51100000000E-03 0.  1.
         22    1    1    0    0    0  0.17889200353E+02  0.17233556455E+02 -0.17718226485E+02  0.30511547112E+02  0.00000000000E+00 0.  1.
</event>
<event>
 5    1  0.1044283E-009  0.9118800E+02  0.7815553E-02  0.1125453E+00
         25   -1    0    0    0    0  0.00000000000E+00  0.00000000000E+00  0.99999998245E-14  0.12509000000E+03  0.12509000000E+03 0.  0.
        -11    1    3    3    0    0  0.65698282403E+01 -0.54521701580E+02  0.78577079635E+01  0.55475419431E+02  0.51100000000E-03 0.  1.
         23    2    1    0    0    0 -0.66445465672E+01 -0.24384887748E+02 -0.15145857464E+02  0.95625279606E+02  0.90972657166E+02 0.  0.
         11    1    3    3    0    0 -0.13214374808E+02  0.30136813832E+02 -0.23003565427E+02  0.40149860175E+02  0.51100000000E-03 0. -1.
         22    1    1    0    0    0  0.66445465672E+01  0.24384887748E+02  0.15145857464E+02  0.29464720394E+02  0.00000000000E+00 0.  1.
</event>
<event>
 5    1  0.1044283E-009  0.9118800E+02  0.7815553E-02  0.1125453E+00
         25   -1    0    0    0    0  0.00000000000E+00  0.00000000000E+00  0.99999998245E-14  0.12509000000E+03  0.12509000000E+03 0.  0.
        -11    1    3    3    0    0 -0.14518787208E+01 -0.29326302318E+02  0.19982552896E+02  0.35516790114E+02  0.51100000000E-03 0.  1.
         23    2    1    0    0    0  0.18314714461E+02  0.87763344033E+01 -0.21713541596E+02  0.95359027934E+02  0.90605813878E+02 0.  0.
         11    1    3    3    0    0  0.19766593182E+02  0.38102636722E+02 -0.41696094492E+02  0.59842237820E+02  0.51100000000E-03 0. -1.
         22    1    1    0    0    0 -0.18314714461E+02 -0.87763344033E+01  0.21713541596E+02  0.29730972066E+02  0.00000000000E+00 0. -1.
</event>
<event>
 5    1  0.1044283E-009  0.9118800E+02  0.7815553E-02  0.1125453E+00
         25   -1    0    0    0    0  0.00000000000E+00  0.00000000000E+00  0.99999998245E-14  0.12509000000E+03  0.12509000000E+03 0.  0.
        -11    1    3    3    0    0  0.47248476340E+02  0.34406991551E+02 -0.19074614958E+01  0.58479893927E+02  0.51100000000E-03 0.  1.
         23    2    1    0    0    0  0.23329126158E+02  0.10741093433E+02  0.14153991547E+02  0.95765015905E+02  0.91164596084E+02 0.  0.
         11    1    3    3    0    0 -0.23919350182E+02 -0.23665898118E+02  0.16061453043E+02  0.37285121979E+02  0.51100000000E-03 0. -1.
         22    1    1    0    0    0 -0.23329126158E+02 -0.10741093433E+02 -0.14153991547E+02  0.29324984095E+02  0.00000000000E+00 0.  1.
</event>
<event>
 5    1  0.1044283E-009  0.9118800E+02  0.7815553E-02  0.1125453E+00
         25   -1    0    0    0    0  0.00000000000E+00  0.00000000000E+00  0.99999998245E-14  0.12509000000E+03  0.12509000000E+03 0.  0.
        -11    1    3    3    0    0 -0.51610079345E+02 -0.99081248992E+01 -0.25277009602E+02  0.58315507746E+02  0.51100000000E-03 0. -1.
         23    2    1    0    0    0 -0.36826836381E+02  0.76439282544E+01 -0.22054953658E+02  0.81488778711E+02  0.68842970287E+02 0.  0.
         11    1    3    3    0    0  0.14783242964E+02  0.17552053154E+02  0.32220559438E+01  0.23173270965E+02  0.51100000000E-03 0.  1.
         22    1    1    0    0    0  0.36826836381E+02 -0.76439282544E+01  0.22054953658E+02  0.43601221289E+02  0.00000000000E+00 0. -1.
</event>
<event>
 5    1  0.1044283E-009  0.9118800E+02  0.7815553E-02  0.1125453E+00
         25   -1    0    0    0    0  0.00000000000E+00  0.00000000000E+00  0.99999998245E-14  0.12509000000E+03  0.12509000000E+03 0.  0.
        -11    1    3    3    0    0  0.46997160132E+02  0.84601483494E+01  0.24549572784E+02  0.53693469758E+02  0.51100000000E-03 0. -1.
         23    2    1    0    0    0  0.84400024910E+01 -0.70315324982E+01  0.27625881132E+02  0.95360126141E+02  0.90607330046E+02 0.  0.
         11    1    3    3    0    0 -0.38557157641E+02 -0.15491680848E+02  0.30763083477E+01  0.41666656383E+02  0.51100000000E-03 0.  1.
         22    1    1    0    0    0 -0.84400024910E+01  0.70315324982E+01 -0.27625881132E+02  0.29729873859E+02  0.00000000000E+00 0. -1.
</event>
<event>
 5    1  0.1044283E-009  0.9118800E+02  0.7815553E-02  0.1125453E+00
         25   -1    0    0    0    0  0.00000000000E+00  0.00000000000E+00  0.99999998245E-14  0.12509000000E+03  0.12509000000E+03 0.  0.
        -11    1    3    3    0    0 -0.38994202277E+01  0.33723503334E+02  0.38532182521E+02  0.51353765640E+02  0.51100000000E-03 0. -1.
         23    2    1    0    0    0 -0.24212915211E+02  0.74904847604E+01  0.36698072827E+01  0.99480624559E+02  0.96127803222E+02 0.  0.
         11    1    3    3    0    0 -0.20313494983E+02 -0.26233018574E+02 -0.34862375239E+02  0.48126858920E+02  0.51100000000E-03 0.  1.
         22    1    1    0    0    0  0.24212915211E+02 -0.74904847604E+01 -0.36698072827E+01  0.25609375441E+02  0.00000000000E+00 0. -1.
</event>
<event>
 5    1  0.1044283E-009  0.9118800E+02  0.7815553E-02  0.1125453E+00
         25   -1    0    0    0    0  0.00000000000E+00  0.00000000000E+00  0.99999998245E-14  0.12509000000E+03  0.12509000000E+03 0.  0.
        -11    1    3    3    0    0  0.27291925975E+00 -0.35982608767E+02 -0.20100831345E+01  0.36039742689E+02  0.51100000000E-03 0.  1.
         23    2    1    0    0    0 -0.20283123125E+01  0.25665244033E+02 -0.82743029820E+01  0.98047757269E+02  0.94244786665E+02 0.  0.
         11    1    3    3    0    0 -0.23012315722E+01  0.61647852800E+02 -0.62642198474E+01  0.62008014580E+02  0.51100000000E-03 0. -1.
         22    1    1    0    0    0  0.20283123125E+01 -0.25665244033E+02  0.82743029820E+01  0.27042242731E+02  0.00000000000E+00 0. -1.
</event>
<event>
 5    1  0.1044283E-009  0.9118800E+02  0.7815553E-02  0.1125453E+00
         25   -1    0    0    0    0  0.00000000000E+00  0.00000000000E+00  0.99999998245E-14  0.12509000000E+03  0.12509000000E+03 0.  0.
        -11    1    3    3    0    0  0.37522436678E+01 -0.50302246087E+02 -0.36497888623E+02  0.62261474189E+02  0.51100000000E-03 0. -1.
         23    2    1    0    0    0  0.52707842143E+01 -0.22307231088E+02 -0.19069595344E+02  0.95273172676E+02  0.90487204842E+02 0.  0.
         11    1    3    3    0    0  0.15185405465E+01  0.27995014999E+02  0.17428293278E+02  0.33011698487E+02  0.51100000000E-03 0.  1.
         22    1    1    0    0    0 -0.52707842143E+01  0.22307231088E+02  0.19069595344E+02  0.29816827324E+02  0.00000000000E+00 0. -1.
</event>
<event>
 5    1  0.1044283E-009  0.9118800E+02  0.7815553E-02  0.1125453E+00
         25   -1    0    0    0    0  0.00000000000E+00  0.00000000000E+00  0.99999998245E-14  0.12509000000E+03  0.12509000000E+03 0.  0.
        -11    1    3    3    0    0  0.53612710321E+02 -0.20140584907E+02  0.55291761866E+01  0.57537271902E+02  0.51100000000E-03 0. -1.
         23    2    1    0    0    0  0.16156615501E+02 -0.20906967895E+02  0.12848293992E+02  0.95709458999E+02  0.91088332690E+02 0.  0.
         11    1    3    3    0    0 -0.37456094820E+02 -0.76638298872E+00  0.73191178057E+01  0.38172187097E+02  0.51100000000E-03 0.  1.
         22    1    1    0    0    0 -0.16156615501E+02  0.20906967895E+02 -0.12848293992E+02  0.29380541001E+02  0.00000000000E+00 0. -1.
</event>
<event>
 5    1  0.1044283E-009  0.9118800E+02  0.7815553E-02  0.1125453E+00
         25   -1    0    0    0    0  0.00000000000E+00  0.00000000000E+00  0.99999998245E-14  0.12509000000E+03  0.12509000000E+03 0.  0.
        -11    1    3    3    0    0 -0.47497482830E+02 -0.21833006799E+02  0.31735687891E+01  0.52371391047E+02  0.51100000000E-03 0.  1.
         23    2    1    0    0    0 -0.92169200522E+01 -0.30070108728E+02  0.99340281598E+01  0.92107459624E+02  0.85999628771E+02 0.  0.
         11    1    3    3    0    0  0.38280562778E+02 -0.82371019293E+01  0.67604593708E+01  0.39736068577E+02  0.51100000000E-03 0. -1.
         22    1    1    0    0    0  0.92169200522E+01  0.30070108728E+02 -0.99340281598E+01  0.32982540376E+02  0.00000000000E+00 0.  1.
</event>
<event>
 5    1  0.1044283E-009  0.9118800E+02  0.7815553E-02  0.1125453E+00
         25   -1    0    0    0    0  0.00000000000E+00  0.00000000000E+00  0.99999998245E-14  0.12509000000E+03  0.12509000000E+03 0.  0.
        -11    1    3    3    0    0  0.30816292977E+02 -0.18544731607E+02  0.34413000476E+02  0.49777561061E+02  0.51100000000E-03 0. -1.
         23    2    1    0    0    0 -0.14164166291E+01 -0.28787164253E+02  0.26986269967E+01  0.96141949125E+02  0.91680339943E+02 0.  0.
         11    1    3    3    0    0 -0.32232709606E+02 -0.10242432646E+02 -0.31714373479E+02  0.46364388063E+02  0.51100000000E-03 0.  1.
         22    1    1    0    0    0  0.14164166291E+01  0.28787164253E+02 -0.26986269967E+01  0.28948050875E+02  0.00000000000E+00 0. -1.
</event>
<event>
 5    1  0.1044283E-009  0.9118800E+02  0.7815553E-02  0.1125453E+00
         25   -1    0    0    0    0  0.00000000000E+00  0.00000000000E+00  0.99999998245E-14  0.12509000000E+03  0.12509000000E+03 0.  0.
        -11    1    3    3    0    0 -0.20243731146E+02 -0.49230773459E+02  0.19740410919E+02  0.56772894321E+02  0.51100000000E-03 0.  1.
         23    2    1    0    0    0 -0.38790370692E+01 -0.29501157627E+02 -0.77319772393E+01  0.94346729160E+02  0.89197290324E+02 0.  0.
         11    1    3    3    0    0  0.16364694076E+02  0.19729615832E+02 -0.27472388158E+02  0.37573834838E+02  0.51100000000E-03 0. -1.
         22    1    1    0    0    0  0.38790370692E+01  0.29501157627E+02  0.77319772393E+01  0.30743270840E+02  0.00000000000E+00 0.  1.
</event>
<event>
 5    1  0.1044283E-009  0.9118800E+02  0.7815553E-02  0.1125453E+00
         25   -1    0    0    0    0  0.00000000000E+00  0.00000000000E+00  0.99999998245E-14  0.12509000000E+03  0.12509000000E+03 0.  0.
        -11    1    3    3    0    0 -0.94116291937E+01 -0.29524394893E+02 -0.26597731950E+02  0.40837580769E+02  0.51100000000E-03 0. -1.
         23    2    1    0    0    0 -0.16633308467E+02 -0.45727685433E+01  0.22711328438E+02  0.96570154240E+02  0.92262739434E+02 0.  0.
         11    1    3    3    0    0 -0.72216792733E+01  0.24951626350E+02  0.49309060389E+02  0.55732573471E+02  0.51100000000E-03 0.  1.
         22    1    1    0    0    0  0.16633308467E+02  0.45727685433E+01 -0.22711328438E+02  0.28519845760E+02  0.00000000000E+00 0.  1.
</event>
<event>
 5    1  0.1044283E-009  0.9118800E+02  0.7815553E-02  0.1125453E+00
         25   -1    0    0    0    0  0.00000000000E+00  0.00000000000E+00  0.99999998245E-14  0.12509000000E+03  0.12509000000E+03 0.  0.
        -11    1    3    3    0    0  0.41885143757E+02 -0.10598764205E+02 -0.27052545480E+02  0.50975869659E+02  0.51100000000E-03 0.  1.
         23    2    1    0    0    0  0.27536834513E+02 -0.24090728040E+02  0.45576203808E+01  0.88219790670E+02  0.80145612043E+02 0.  0.
         11    1    3    3    0    0 -0.14348309244E+02 -0.13491963835E+02  0.31610165860E+02  0.37243921011E+02  0.51100000000E-03 0. -1.
         22    1    1    0    0    0 -0.27536834513E+02  0.24090728040E+02 -0.45576203808E+01  0.36870209330E+02  0.00000000000E+00 0.  1.
</event>
<event>
 5    1  0.1044283E-009  0.9118800E+02  0.7815553E-02  0.1125453E+00
         25   -1    0    0    0    0  0.00000000000E+00  0.00000000000E+00  0.99999998245E-14  0.12509000000E+03  0.12509000000E+03 0.  0.
        -11    1    3    3    0    0  0.26043236049E+02 -0.54797617159E+02 -0.46676636069E+01  0.60850768886E+02  0.51100000000E-03 0. -1.
         23    2    1    0    0    0  0.17363708089E+02 -0.18618893515E+02 -0.84918706398E+01  0.98252089849E+02  0.94515605793E+02 0.  0.
         11    1    3    3    0    0 -0.86795279601E+01  0.36178723644E+02 -0.38242070329E+01  0.37401320963E+02  0.51100000000E-03 0.  1.
         22    1    1    0    0    0 -0.17363708089E+02  0.18618893515E+02  0.84918706398E+01  0.26837910151E+02  0.00000000000E+00 0. -1.
</event>
<event>
 5    1  0.1044283E-009  0.9118800E+02  0.7815553E-02  0.1125453E+00
         25   -1    0    0    0    0  0.00000000000E+00  0.00000000000E+00  0.99999998245E-14  0.12509000000E+03  0.12509000000E+03 0.  0.
        -11    1    3    3    0    0 -0.35836697436E+02  0.30570259762E+02 -0.12652126999E+02  0.48773824772E+02  0.51100000000E-03 0.  1.
         23    2    1    0    0    0 -0.41355416792E+01  0.20393738627E+02  0.20585636605E+02  0.95819268636E+02  0.91239007706E+02 0.  0.
         11    1    3    3    0    0  0.31701155757E+02 -0.10176521135E+02  0.33237763604E+02  0.47045443864E+02  0.51100000000E-03 0. -1.
         22    1    1    0    0    0  0.41355416792E+01 -0.20393738627E+02 -0.20585636605E+02  0.29270731364E+02  0.00000000000E+00 0. -1.
</event>
<event>
 5    1  0.1044283E-009  0.9118800E+02  0.7815553E-02  0.1125453E+00
         25   -1    0    0    0    0  0.00000000000E+00  0.00000000000E+00  0.99999998245E-14  0.12509000000E+03  0.12509000000E+03 0.  0.
        -11    1    3    3    0    0 -0.66953761950E+01  0.39560657745E+02 -0.36583133762E+02  0.54297323873E+02  0.51100000000E-03 0. -1.
         23    2    1    0    0    0  0.20995904463E+01 -0.75007389588E+00 -0.28701043905E+02  0.96302488609E+02  0.91899121324E+02 0.  0.
         11    1    3    3    0    0  0.87949666413E+01 -0.40310731641E+02  0.78820898578E+01  0.42005164736E+02  0.51100000000E-03 0.  1.
         22    1    1    0    0    0 -0.20995904463E+01  0.75007389588E+00  0.28701043905E+02  0.28787511391E+02  0.00000000000E+00 0. -1.
</event>
<event>
 5    1  0.1044283E-009  0.9118800E+02  0.7815553E-02  0.1125453E+00
         25   -1    0    0    0    0  0.00000000000E+00  0.00000000000E+00  0.99999998245E-14  0.12509000000E+03  0.12509000000E+03 0.  0.
        -11    1    3    3    0    0 -0.10466738868E+01 -0.21074629755E+02  0.33060878147E+02  0.39220622249E+02  0.51100000000E-03 0.  1.
         23    2    1    0    0    0  0.21226827312E+02  0.11582537537E+02 -0.11094355787E+02  0.98485148866E+02  0.94823554265E+02 0.  0.
         11    1    3    3    0    0  0.22273501199E+02  0.32657167291E+02 -0.44155233934E+02  0.59264526617E+02  0.51100000000E-03 0. -1.
         22    1    1    0    0    0 -0.21226827312E+02 -0.11582537537E+02  0.11094355787E+02  0.26604851134E+02  0.00000000000E+00 0. -1.
</event>
<event>
 5    1  0.1044283E-009  0.9118800E+02  0.7815553E-02  0.1125453E+00
         25   -1    0    0    0    0  0.00000000000E+00  0.00000000000E+00  0.99999998245E-14  0.12509000000E+03  0.12509000000E+03 0.  0.
        -11    1    3    3    0    0  0.24133707718E+02  0.15294872680E+02  0.22280304015E+02  0.36232318802E+02  0.51100000000E-03 0. -1.
         23    2    1    0    0    0 -0.24354430304E+02 -0.15225045639E+02  0.70568779423E+01  0.95513999317E+02  0.90819514693E+02 0.  0.
         11    1    3    3    0    0 -0.48488138022E+02 -0.30519918318E+02 -0.15223426073E+02  0.59281680515E+02  0.51100000000E-03 0.  1.
         22    1    1    0    0    0  0.24354430304E+02  0.15225045639E+02 -0.70568779423E+01  0.29576000683E+02  0.00000000000E+00 0.  1.
</event>
<event>
 5    1  0.1044283E-009  0.9118800E+02  0.7815553E-02  0.1125453E+00
         25   -1    0    0    0    0  0.00000000000E+00  0.00000000000E+00  0.99999998245E-14  0.12509000000E+03  0.12509000000E+03 0.  0.
        -11    1    3    3    0    0 -0.46814191119E+02  0.22554736600E+02 -0.25551683517E+02  0.57906589988E+02  0.51100000000E-03 0. -1.
         23    2    1    0    0    0 -0.10745477508E+02  0.22056355510E+02 -0.17736749812E+02  0.94815581770E+02  0.89852402011E+02 0.  0.
         11    1    3    3    0    0  0.36068713611E+02 -0.49838108918E+00  0.78149337047E+01  0.36908991782E+02  0.51100000000E-03 0.  1.
         22    1    1    0    0    0  0.10745477508E+02 -0.22056355510E+02  0.17736749812E+02  0.30274418230E+02  0.00000000000E+00 0.  1.
</event>
<event>
 5    1  0.1044283E-009  0.9118800E+02  0.7815553E-02  0.1125453E+00
         25   -1    0    0    0    0  0.00000000000E+00  0.00000000000E+00  0.99999998245E-14  0.12509000000E+03  0.12509000000E+03 0.  0.
        -11    1    3    3    0    0 -0.32878448957E+02 -0.34318818259E+02  0.22852484516E+02  0.52735279854E+02  0.51100000000E-03 0.  1.
         23    2    1    0    0    0 -0.19957158946E+02 -0.18094429540E+02 -0.13779560627E+02  0.94831565397E+02  0.89874651215E+02 0.  0.
         11    1    3    3    0    0  0.12921290011E+02  0.16224388719E+02 -0.36632045143E+02  0.42096285542E+02  0.51100000000E-03 0. -1.
         22    1    1    0    0    0  0.19957158946E+02  0.18094429540E+02  0.13779560627E+02  0.30258434603E+02  0.00000000000E+00 0.  1.
</event>
<event>
 5    1  0.1044283E-009  0.9118800E+02  0.7815553E-02  0.1125453E+00
         25   -1    0    0    0    0  0.00000000000E+00  0.00000000000E+00  0.99999998245E-14  0.12509000000E+03  0.12509000000E+03 0.  0.
        -11    1    3    3    0    0  0.34848553710E+02 -0.40918427971E+02  0.14927306121E+02  0.55781393956E+02  0.51100000000E-03 0.  1.
         23    2    1    0    0    0  0.27524514905E+02 -0.17088131598E+01  0.88354221677E+01  0.96131691209E+02  0.91666342824E+02 0.  0.
         11    1    3    3    0    0 -0.73240388057E+01  0.39209614811E+02 -0.60918839530E+01  0.40350297253E+02  0.51100000000E-03 0. -1.
         22    1    1    0    0    0 -0.27524514905E+02  0.17088131598E+01 -0.88354221677E+01  0.28958308791E+02  0.00000000000E+00 0.  1.
</event>
<event>
 5    1  0.1044283E-009  0.9118800E+02  0.7815553E-02  0.1125453E+00
         25   -1    0    0    0    0  0.00000000000E+00  0.00000000000E+00  0.99999998245E-14  0.12509000000E+03  0.12509000000E+03 0.  0.
        -11    1    3    3    0    0 -0.17120542274E+02  0.22930445730E+02  0.27122767593E+02  0.39427944802E+02  0.51100000000E-03 0. -1.
         23    2    1    0    0    0  0.25871291095E+01  0.14811380266E+02 -0.25098969877E+02  0.95832035079E+02  0.91256509007E+02 0.  0.
         11    1    3    3    0    0  0.19707671384E+02 -0.81190654634E+01 -0.52221737470E+02  0.56404090277E+02  0.51100000000E-03 0.  1.
         22    1    1    0    0    0 -0.25871291095E+01 -0.14811380266E+02  0.25098969877E+02  0.29257964921E+02  0.00000000000E+00 0.  1.
</event>
<event>
 5    1  0.1044283E-009  0.9118800E+02  0.7815553E-02  0.1125453E+00
         25   -1    0    0    0    0  0.00000000000E+00  0.00000000000E+00  0.99999998245E-14  0.12509000000E+03  0.12509000000E+03 0.  0.
        -11    1    3    3    0    0 -0.23182219307E+02 -0.36429866784E+01  0.51477523227E+02  0.56574040352E+02  0.51100000000E-03 0.  1.
         23    2    1    0    0    0 -0.50012745046E+01  0.31074431244E+01  0.48546228777E+02  0.76188003334E+02  0.58422654631E+02 0.  0.
         11    1    3    3    0    0  0.18180944803E+02  0.67504298029E+01 -0.29312944501E+01  0.19613962982E+02  0.51100000000E-03 0. -1.
         22    1    1    0    0    0  0.50012745046E+01 -0.31074431244E+01 -0.48546228777E+02  0.48901996666E+02  0.00000000000E+00 0.  1.
</event>
<event>
 5    1  0.1044283E-009  0.9118800E+02  0.7815553E-02  0.1125453E+00
         25   -1    0    0    0    0  0.00000000000E+00  0.00000000000E+00  0.99999998245E-14  0.12509000000E+03  0.12509000000E+03 0.  0.
        -11    1    3    3    0    0  0.49013032219E+02 -0.21871036388E+02 -0.24891974594E+02  0.59162741311E+02  0.51100000000E-03 0.  1.
         23    2    1    0    0    0  0.26741839354E+02  0.38519737599E+01 -0.10601051533E+02  0.96066802942E+02  0.91577751993E+02 0.  0.
         11    1    3    3    0    0 -0.22271192865E+02  0.25723010147E+02  0.14290923061E+02  0.36904061631E+02  0.51100000000E-03 0. -1.
         22    1    1    0    0    0 -0.26741839354E+02 -0.38519737599E+01  0.10601051533E+02  0.29023197058E+02  0.00000000000E+00 0.  1.
</event>
<event>
 4    1  0.1044283E-009  0.9118800E+02  0.7815553E-02  0.1125453E+00
         25   -1    0    0    0    0  0.00000000000E+00  0.00000000000E+00  0.99999998245E-14  0.12509000000E+03  0.12509000000E+03 0.  0.
        -11    1    1    0    0    0  0.12000497531E+02  0.42196702599E+01 -0.16101647962E+01  0.12822253664E+02  0.51100000000E-03 0. -1.
         11    1    1    0    0    0 -0.55991565321E+02  0.15974681934E+02  0.18351899667E+02  0.61049472329E+02  0.51100000000E-03 0.  1.
         22    1    1    0    0    0  0.43991067790E+02 -0.20194352194E+02 -0.16741734871E+02  0.51218274007E+02  0.00000000000E+00 0.  1.
</event>
<event>
 5    1  0.1044283E-009  0.9118800E+02  0.7815553E-02  0.1125453E+00
         25   -1    0    0    0    0  0.00000000000E+00  0.00000000000E+00  0.99999998245E-14  0.12509000000E+03  0.12509000000E+03 0.  0.
        -11    1    3    3    0    0 -0.18868032173E+01  0.17979433523E+02 -0.21611250674E+02  0.28175631531E+02  0.51100000000E-03 0.  1.
         23    2    1    0    0    0 -0.97426024941E+01  0.25391397150E+02  0.32132115280E+02  0.82993513389E+02  0.71524884339E+02 0.  0.
         11    1    3    3    0    0 -0.78557992768E+01  0.74119636270E+01  0.53743365954E+02  0.54817881858E+02  0.51100000000E-03 0. -1.
         22    1    1    0    0    0  0.97426024941E+01 -0.25391397150E+02 -0.32132115280E+02  0.42096486611E+02  0.00000000000E+00 0. -1.
</event>
<event>
 5    1  0.1044283E-009  0.9118800E+02  0.7815553E-02  0.1125453E+00
         25   -1    0    0    0    0  0.00000000000E+00  0.00000000000E+00  0.99999998245E-14  0.12509000000E+03  0.12509000000E+03 0.  0.
        -11    1    3    3    0    0  0.66810967881E+01  0.14520955796E+02 -0.57200732744E+02  0.59392078919E+02  0.51100000000E-03 0.  1.
         23    2    1    0    0    0  0.15081143071E+02  0.12330030958E+02 -0.21742948671E+02  0.95897083793E+02  0.91345631112E+02 0.  0.
         11    1    3    3    0    0  0.84000462833E+01 -0.21909248379E+01  0.35457784073E+02  0.36505004874E+02  0.51100000000E-03 0. -1.
         22    1    1    0    0    0 -0.15081143071E+02 -0.12330030958E+02  0.21742948671E+02  0.29192916207E+02  0.00000000000E+00 0.  1.
</event>
<event>
 5    1  0.1044283E-009  0.9118800E+02  0.7815553E-02  0.1125453E+00
         25   -1    0    0    0    0  0.00000000000E+00  0.00000000000E+00  0.99999998245E-14  0.12509000000E+03  0.12509000000E+03 0.  0.
        -11    1    3    3    0    0  0.45709816162E+02 -0.68797941364E+01 -0.22719204332E+02  0.51506126885E+02  0.51100000000E-03 0. -1.
         23    2    1    0    0    0  0.21772778124E+02  0.20037193368E+02  0.23734102981E+01  0.95405390153E+02  0.90669798768E+02 0.  0.
         11    1    3    3    0    0 -0.23937038038E+02  0.26916987504E+02  0.25092614630E+02  0.43899263269E+02  0.51100000000E-03 0.  1.
         22    1    1    0    0    0 -0.21772778124E+02 -0.20037193368E+02 -0.23734102981E+01  0.29684609847E+02  0.00000000000E+00 0.  1.
</event>
<event>
 5    1  0.1044283E-009  0.9118800E+02  0.7815553E-02  0.1125453E+00
         25   -1    0    0    0    0  0.00000000000E+00  0.00000000000E+00  0.99999998245E-14  0.12509000000E+03  0.12509000000E+03 0.  0.
        -11    1    3    3    0    0 -0.43452564374E+02 -0.12370414011E+02 -0.42355980379E+01  0.45377227598E+02  0.51100000000E-03 0.  1.
         23    2    1    0    0    0 -0.25766771967E+02  0.25188712671E+02  0.69945873571E+01  0.88384114424E+02  0.80401676890E+02 0.  0.
         11    1    3    3    0    0  0.17685792407E+02  0.37559126682E+02  0.11230185395E+02  0.43006886826E+02  0.51100000000E-03 0. -1.
         22    1    1    0    0    0  0.25766771967E+02 -0.25188712671E+02 -0.69945873571E+01  0.36705885576E+02  0.00000000000E+00 0.  1.
</event>
<event>
 5    1  0.1044283E-009  0.9118800E+02  0.7815553E-02  0.1125453E+00
         25   -1    0    0    0    0  0.00000000000E+00  0.00000000000E+00  0.99999998245E-14  0.12509000000E+03  0.12509000000E+03 0.  0.
        -11    1    3    3    0    0 -0.54287070169E+02 -0.31347201487E+01  0.96037051863E+01  0.55219051164E+02  0.51100000000E-03 0. -1.
         23    2    1    0    0    0 -0.16907819912E+02 -0.24538340482E+01  0.24296343333E+02  0.95388013954E+02  0.90645823020E+02 0.  0.
         11    1    3    3    0    0  0.37379250257E+02  0.68088610049E+00  0.14692638147E+02  0.40168962790E+02  0.51100000000E-03 0.  1.
         22    1    1    0    0    0  0.16907819912E+02  0.24538340482E+01 -0.24296343333E+02  0.29701986046E+02  0.00000000000E+00 0. -1.
</event>
<event>
 5    1  0.1044283E-009  0.9118800E+02  0.7815553E-02  0.1125453E+00
         25   -1    0    0    0    0  0.00000000000E+00  0.00000000000E+00  0.99999998245E-14  0.12509000000E+03  0.12509000000E+03 0.  0.
        -11    1    3    3    0    0 -0.45144424418E+02 -0.53083917796E+01  0.31322521197E+02  0.55202340654E+02  0.51100000000E-03 0.  1.
         23    2    1    0    0    0 -0.34030417999E+02  0.38009021157E+01 -0.12723680480E+01  0.90824344796E+02  0.84112582181E+02 0.  0.
         11    1    3    3    0    0  0.11114006419E+02  0.91092938952E+01 -0.32594889244E+02  0.35622004142E+02  0.51100000000E-03 0. -1.
         22    1    1    0    0    0  0.34030417999E+02 -0.38009021157E+01  0.12723680480E+01  0.34265655204E+02  0.00000000000E+00 0.  1.
</event>
<event>
 5    1  0.1044283E-009  0.9118800E+02  0.7815553E-02  0.1125453E+00
         25   -1    0    0    0    0  0.00000000000E+00  0.00000000000E+00  0.99999998245E-14  0.12509000000E+03  0.12509000000E+03 0.  0.
        -11    1    3    3    0    0  0.36308296045E+02 -0.81100949942E+01  0.32690429752E+02  0.49525046190E+02  0.51100000000E-03 0.  1.
         23    2    1    0    0    0 -0.39207443201E+01  0.13901476484E+02  0.25276496316E+02  0.95977725089E+02  0.91455995773E+02 0.  0.
         11    1    3    3    0    0 -0.40229040365E+02  0.22011571478E+02 -0.74139334358E+01  0.46452678899E+02  0.51100000000E-03 0. -1.
         22    1    1    0    0    0  0.39207443201E+01 -0.13901476484E+02 -0.25276496316E+02  0.29112274911E+02  0.00000000000E+00 0.  1.
</event>
<event>
 5    1  0.1044283E-009  0.9118800E+02  0.7815553E-02  0.1125453E+00
         25   -1    0    0    0    0  0.00000000000E+00  0.00000000000E+00  0.99999998245E-14  0.12509000000E+03  0.12509000000E+03 0.  0.
        -11    1    3    3    0    0 -0.40256615002E+02 -0.12934573007E+02  0.75895021088E+01  0.42959268765E+02  0.51100000000E-03 0.  1.
         23    2    1    0    0    0 -0.10705698735E+02 -0.18474051456E+02 -0.28210916237E+02  0.89709802749E+02  0.82438403379E+02 0.  0.
         11    1    3    3    0    0  0.29550916267E+02 -0.55394784484E+01 -0.35800418346E+02  0.46750533983E+02  0.51100000000E-03 0. -1.
         22    1    1    0    0    0  0.10705698735E+02  0.18474051456E+02  0.28210916237E+02  0.35380197251E+02  0.00000000000E+00 0.  1.
</event>
<event>
 5    1  0.1044283E-009  0.9118800E+02  0.7815553E-02  0.1125453E+00
         25   -1    0    0    0    0  0.00000000000E+00  0.00000000000E+00  0.99999998245E-14  0.12509000000E+03  0.12509000000E+03 0.  0.
        -11    1    3    3    0    0 -0.99552366196E+01 -0.14183365295E+02  0.33362641119E+02  0.37594419931E+02  0.51100000000E-03 0. -1.
         23    2    1    0    0    0 -0.18704709557E+02  0.60981936238E+01 -0.21024712391E+02  0.96296030905E+02  0.91890330894E+02 0.  0.
         11    1    3    3    0    0 -0.87494729377E+01  0.20281558919E+02 -0.54387353510E+02  0.58701610974E+02  0.51100000000E-03 0.  1.
         22    1    1    0    0    0  0.18704709557E+02 -0.60981936238E+01  0.21024712391E+02  0.28793969095E+02  0.00000000000E+00 0.  1.
</event>
<event>
 5    1  0.1044283E-009  0.9118800E+02  0.7815553E-02  0.1125453E+00
         25   -1    0    0    0    0  0.00000000000E+00  0.00000000000E+00  0.99999998245E-14  0.12509000000E+03  0.12509000000E+03 0.  0.
        -11    1    3    3    0    0  0.25379448572E+02  0.18767486207E+02  0.18211673682E+02  0.36441734411E+02  0.51100000000E-03 0.  1.
         23    2    1    0    0    0 -0.14126286367E+02  0.12373347584E+02 -0.24004864551E+02  0.94612381670E+02  0.89569065788E+02 0.  0.
         11    1    3    3    0    0 -0.39505734939E+02 -0.63941386238E+01 -0.42216538234E+02  0.58170647259E+02  0.51100000000E-03 0. -1.
         22    1    1    0    0    0  0.14126286367E+02 -0.12373347584E+02  0.24004864551E+02  0.30477618330E+02  0.00000000000E+00 0. -1.
</event>
<event>
 5    1  0.1044283E-009  0.9118800E+02  0.7815553E-02  0.1125453E+00
         25   -1    0    0    0    0  0.00000000000E+00  0.00000000000E+00  0.99999998245E-14  0.12509000000E+03  0.12509000000E+03 0.  0.
        -11    1    3    3    0    0 -0.93142054097E+01  0.46729855228E+02 -0.16522109031E+02  0.50432270216E+02  0.51100000000E-03 0.  1.
         23    2    1    0    0    0  0.19139700394E+02  0.23287507410E+02  0.69742935343E+01  0.94150108228E+02  0.88921122218E+02 0.  0.
         11    1    3    3    0    0  0.28453905804E+02 -0.23442347818E+02  0.23496402565E+02  0.43717838012E+02  0.51100000000E-03 0. -1.
         22    1    1    0    0    0 -0.19139700394E+02 -0.23287507410E+02 -0.69742935343E+01  0.30939891772E+02  0.00000000000E+00 0.  1.
</event>
<event>
 5    1  0.1044283E-009  0.9118800E+02  0.7815553E-02  0.1125453E+00
         25   -1    0    0    0    0  0.00000000000E+00  0.00000000000E+00  0.99999998245E-14  0.12509000000E+03  0.12509000000E+03 0.  0.
        -11    1    3    3    0    0  0.28609720319E+02 -0.49159173751E+02  0.24585513062E+01  0.56931405528E+02  0.51100000000E-03 0. -1.
         23    2    1    0    0    0  0.73004423548E+01 -0.22477133602E+02 -0.16761998012E+02  0.96116174383E+02  0.91645165759E+02 0.  0.
         11    1    3    3    0    0 -0.21309277964E+02  0.26682040149E+02 -0.19220549318E+02  0.39184768855E+02  0.51100000000E-03 0.  1.
         22    1    1    0    0    0 -0.73004423548E+01  0.22477133602E+02  0.16761998012E+02  0.28973825617E+02  0.00000000000E+00 0. -1.
</event>
<event>
 5    1  0.1044283E-009  0.9118800E+02  0.7815553E-02  0.1125453E+00
         25   -1    0    0    0    0  0.00000000000E+00  0.00000000000E+00  0.99999998245E-14  0.12509000000E+03  0.12509000000E+03 0.  0.
        -11    1    3    3    0    0 -0.35942585091E+02 -0.66934661131E+01 -0.42903021346E+02  0.56367908889E+02  0.51100000000E-03 0. -1.
         23    2    1    0    0    0 -0.33428220024E+02 -0.14310543460E+02 -0.14396941055E+02  0.85981056524E+02  0.76571748192E+02 0.  0.
         11    1    3    3    0    0  0.25143650673E+01 -0.76170773469E+01  0.28506080291E+02  0.29613147635E+02  0.51100000000E-03 0.  1.
         22    1    1    0    0    0  0.33428220024E+02  0.14310543460E+02  0.14396941055E+02  0.39108943476E+02  0.00000000000E+00 0. -1.
</event>
<event>
 5    1  0.1044283E-009  0.9118800E+02  0.7815553E-02  0.1125453E+00
         25   -1    0    0    0    0  0.00000000000E+00  0.00000000000E+00  0.99999998245E-14  0.12509000000E+03  0.12509000000E+03 0.  0.
        -11    1    3    3    0    0 -0.24792714765E+02 -0.26406705640E+02 -0.17959590108E+02  0.40429440823E+02  0.51100000000E-03 0. -1.
         23    2    1    0    0    0 -0.21476559978E+02  0.18158188886E+02  0.12295084763E+02  0.94395838317E+02  0.89266134284E+02 0.  0.
         11    1    3    3    0    0  0.33161547866E+01  0.44564894526E+02  0.30254674870E+02  0.53966397494E+02  0.51100000000E-03 0.  1.
         22    1    1    0    0    0  0.21476559978E+02 -0.18158188886E+02 -0.12295084763E+02  0.30694161683E+02  0.00000000000E+00 0.  1.
</event>
<event>
 5    1  0.1044283E-009  0.9118800E+02  0.7815553E-02  0.1125453E+00
         25   -1    0    0    0    0  0.00000000000E+00  0.00000000000E+00  0.99999998245E-14  0.12509000000E+03  0.12509000000E+03 0.  0.
        -11    1    3    3    0    0 -0.24819409177E+01  0.32760621514E+02  0.15203306310E+02  0.36201641892E+02  0.51100000000E-03 0.  1.
         23    2    1    0    0    0  0.24019503106E+01 -0.61478101736E+01 -0.29032803843E+02  0.95316376871E+02  0.90546910856E+02 0.  0.
         11    1    3    3    0    0  0.48838912283E+01 -0.38908431688E+02 -0.44236110153E+02  0.59114734979E+02  0.51100000000E-03 0. -1.
         22    1    1    0    0    0 -0.24019503106E+01  0.61478101736E+01  0.29032803843E+02  0.29773623129E+02  0.00000000000E+00 0. -1.
</event>
<event>
 5    1  0.1044283E-009  0.9118800E+02  0.7815553E-02  0.1125453E+00
         25   -1    0    0    0    0  0.00000000000E+00  0.00000000000E+00  0.99999998245E-14  0.12509000000E+03  0.12509000000E+03 0.  0.
        -11    1    3    3    0    0  0.72507200761E+00 -0.32094391145E+02  0.20455904631E+02  0.38065991474E+02  0.51100000000E-03 0. -1.
         23    2    1    0    0    0  0.26091118632E+02  0.97688914840E+01 -0.97369275828E+01  0.95577537021E+02  0.90906986046E+02 0.  0.
         11    1    3    3    0    0  0.25366046625E+02  0.41863282629E+02 -0.30192832214E+02  0.57511545547E+02  0.51100000000E-03 0.  1.
         22    1    1    0    0    0 -0.26091118632E+02 -0.97688914840E+01  0.97369275828E+01  0.29512462979E+02  0.00000000000E+00 0.  1.
</event>
<event>
 5    1  0.1044283E-009  0.9118800E+02  0.7815553E-02  0.1125453E+00
         25   -1    0    0    0    0  0.00000000000E+00  0.00000000000E+00  0.99999998245E-14  0.12509000000E+03  0.12509000000E+03 0.  0.
        -11    1    3    3    0    0  0.48837530984E+02  0.61397091986E+00 -0.14619011095E+02  0.50982319274E+02  0.51100000000E-03 0. -1.
         23    2    1    0    0    0  0.85854773030E+01  0.20886093743E+02 -0.18049118581E+02  0.96181350535E+02  0.91734084051E+02 0.  0.
         11    1    3    3    0    0 -0.40252053681E+02  0.20272122823E+02 -0.34301074857E+01  0.45199031261E+02  0.51100000000E-03 0.  1.
         22    1    1    0    0    0 -0.85854773030E+01 -0.20886093743E+02  0.18049118581E+02  0.28908649465E+02  0.00000000000E+00 0.  1.
</event>
<event>
 5    1  0.1044283E-009  0.9118800E+02  0.7815553E-02  0.1125453E+00
         25   -1    0    0    0    0  0.00000000000E+00  0.00000000000E+00  0.99999998245E-14  0.12509000000E+03  0.12509000000E+03 0.  0.
        -11    1    3    3    0    0 -0.89873305709E+01  0.27006283418E+02 -0.45019126219E+02  0.53261929938E+02  0.51100000000E-03 0. -1.
         23    2    1    0    0    0  0.14324685648E+02 -0.21417487807E+01 -0.26413512068E+02  0.94965967626E+02  0.90061521642E+02 0.  0.
         11    1    3    3    0    0  0.23312016219E+02 -0.29148032199E+02  0.18605614152E+02  0.41704037688E+02  0.51100000000E-03 0.  1.
         22    1    1    0    0    0 -0.14324685648E+02  0.21417487807E+01  0.26413512068E+02  0.30124032374E+02  0.00000000000E+00 0. -1.
</event>
<event>
 5    1  0.1044283E-009  0.9118800E+02  0.7815553E-02  0.1125453E+00
         25   -1    0    0    0    0  0.00000000000E+00  0.00000000000E+00  0.99999998245E-14  0.12509000000E+03  0.12509000000E+03 0.  0.
        -11    1    3    3    0    0  0.35699981733E+02  0.43586790205E+02  0.16830064381E+02  0.58800918730E+02  0.51100000000E-03 0.  1.
         23    2    1    0    0    0  0.37223853118E+01  0.28127960170E+02  0.10241385021E+02  0.94925049098E+02  0.90004670342E+02 0.  0.
         11    1    3    3    0    0 -0.31977596421E+02 -0.15458830035E+02 -0.65886793600E+01  0.36124130369E+02  0.51100000000E-03 0. -1.
         22    1    1    0    0    0 -0.37223853118E+01 -0.28127960170E+02 -0.10241385021E+02  0.30164950902E+02  0.00000000000E+00 0.  1.
</event>
<event>
 5    1  0.1044283E-009  0.9118800E+02  0.7815553E-02  0.1125453E+00
         25   -1    0    0    0    0  0.00000000000E+00  0.00000000000E+00  0.99999998245E-14  0.12509000000E+03  0.12509000000E+03 0.  0.
        -11    1    3    3    0    0 -0.37186309315E+02  0.17032928010E+02  0.23289419721E+02  0.47067391136E+02  0.51100000000E-03 0.  1.
         23    2    1    0    0    0  0.93071525087E+01  0.15435613397E+01  0.27269655645E+02  0.96234501591E+02  0.91806533036E+02 0.  0.
         11    1    3    3    0    0  0.46493461824E+02 -0.15489366671E+02  0.39802359237E+01  0.49167110455E+02  0.51100000000E-03 0. -1.
         22    1    1    0    0    0 -0.93071525087E+01 -0.15435613397E+01 -0.27269655645E+02  0.28855498409E+02  0.00000000000E+00 0.  1.
</event>
<event>
 5    1  0.1044283E-009  0.9118800E+02  0.7815553E-02  0.1125453E+00
         25   -1    0    0    0    0  0.00000000000E+00  0.00000000000E+00  0.99999998245E-14  0.12509000000E+03  0.12509000000E+03 0.  0.
        -11    1    3    3    0    0 -0.32407995505E+02  0.13430394804E+02 -0.94760676857E+00  0.35093469992E+02  0.51100000000E-03 0.  1.
         23    2    1    0    0    0  0.13865502857E+02 -0.22735267230E+02  0.12999597323E+02  0.95456672883E+02  0.90740521939E+02 0.  0.
         11    1    3    3    0    0  0.46273498362E+02 -0.36165662034E+02  0.13947204092E+02  0.60363202891E+02  0.51100000000E-03 0. -1.
         22    1    1    0    0    0 -0.13865502857E+02  0.22735267230E+02 -0.12999597323E+02  0.29633327117E+02  0.00000000000E+00 0. -1.
</event>
<event>
 5    1  0.1044283E-009  0.9118800E+02  0.7815553E-02  0.1125453E+00
         25   -1    0    0    0    0  0.00000000000E+00  0.00000000000E+00  0.99999998245E-14  0.12509000000E+03  0.12509000000E+03 0.  0.
        -11    1    3    3    0    0 -0.12515084968E+02 -0.17878654968E+02 -0.51584719096E+02  0.56011221194E+02  0.51100000000E-03 0. -1.
         23    2    1    0    0    0  0.14085723881E+02 -0.12329525092E+02 -0.22657203907E+02  0.95699972863E+02  0.91075304616E+02 0.  0.
         11    1    3    3    0    0  0.26600808848E+02  0.55491298767E+01  0.28927515189E+02  0.39688751669E+02  0.51100000000E-03 0.  1.
         22    1    1    0    0    0 -0.14085723881E+02  0.12329525092E+02  0.22657203907E+02  0.29390027137E+02  0.00000000000E+00 0. -1.
</event>
<event>
 5    1  0.1044283E-009  0.9118800E+02  0.7815553E-02  0.1125453E+00
         25   -1    0    0    0    0  0.00000000000E+00  0.00000000000E+00  0.99999998245E-14  0.12509000000E+03  0.12509000000E+03 0.  0.
        -11    1    3    3    0    0  0.36614510026E+02  0.79557190282E+01  0.19191412150E+01  0.37517981195E+02  0.51100000000E-03 0.  1.
         23    2    1    0    0    0 -0.62691120343E+01 -0.20667322459E+02 -0.21917159624E+02  0.94319854253E+02  0.89159593073E+02 0.  0.
         11    1    3    3    0    0 -0.42883622060E+02 -0.28623041487E+02 -0.23836300839E+02  0.56801873058E+02  0.51100000000E-03 0. -1.
         22    1    1    0    0    0  0.62691120343E+01  0.20667322459E+02  0.21917159624E+02  0.30770145747E+02  0.00000000000E+00 0. -1.
</event>
<event>
 5    1  0.1044283E-009  0.9118800E+02  0.7815553E-02  0.1125453E+00
         25   -1    0    0    0    0  0.00000000000E+00  0.00000000000E+00  0.99999998245E-14  0.12509000000E+03  0.12509000000E+03 0.  0.
        -11    1    3    3    0    0 -0.22297950603E+02  0.30849247336E+02 -0.17544022501E+02  0.41912616096E+02  0.51100000000E-03 0. -1.
         23    2    1    0    0    0  0.23297282908E+02  0.86099714061E+01  0.83729706379E+01  0.98879283951E+02  0.95342074441E+02 0.  0.
         11    1    3    3    0    0  0.45595233511E+02 -0.22239275930E+02  0.25916993139E+02  0.56966667854E+02  0.51100000000E-03 0.  1.
         22    1    1    0    0    0 -0.23297282908E+02 -0.86099714061E+01 -0.83729706379E+01  0.26210716049E+02  0.00000000000E+00 0. -1.
</event>
<event>
 5    1  0.1044283E-009  0.9118800E+02  0.7815553E-02  0.1125453E+00
         25   -1    0    0    0    0  0.00000000000E+00  0.00000000000E+00  0.99999998245E-14  0.12509000000E+03  0.12509000000E+03 0.  0.
        -11    1    3    3    0    0 -0.60273386480E+01  0.46522100987E+02 -0.39332823491E+02  0.61218507785E+02  0.51100000000E-03 0.  1.
         23    2    1    0    0    0 -0.65645571456E+01  0.16031127031E+02 -0.24378399534E+02  0.95183532334E+02  0.90363200582E+02 0.  0.
         11    1    3    3    0    0 -0.53721849755E+00 -0.30490973956E+02  0.14954423957E+02  0.33965024549E+02  0.51100000000E-03 0. -1.
         22    1    1    0    0    0  0.65645571456E+01 -0.16031127031E+02  0.24378399534E+02  0.29906467666E+02  0.00000000000E+00 0.  1.
</event>
<event>
 5    1  0.1044283E-009  0.9118800E+02  0.7815553E-02  0.1125453E+00
         25   -1    0    0    0    0  0.00000000000E+00  0.00000000000E+00  0.99999998245E-14  0.12509000000E+03  0.12509000000E+03 0.  0.
        -11    1    3    3    0    0 -0.76193151749E+01  0.55717606380E+02 -0.21791659164E+02  0.60310712431E+02  0.51100000000E-03 0. -1.
         23    2    1    0    0    0 -0.14838898618E+02  0.22110096559E+02 -0.92703013885E+01  0.96894472520E+02  0.92701407946E+02 0.  0.
         11    1    3    3    0    0 -0.72195834429E+01 -0.33607509821E+02  0.12521357776E+02  0.36583760090E+02  0.51100000000E-03 0.  1.
         22    1    1    0    0    0  0.14838898618E+02 -0.22110096559E+02  0.92703013885E+01  0.28195527480E+02  0.00000000000E+00 0. -1.
</event>
<event>
 5    1  0.1044283E-009  0.9118800E+02  0.7815553E-02  0.1125453E+00
         25   -1    0    0    0    0  0.00000000000E+00  0.00000000000E+00  0.99999998245E-14  0.12509000000E+03  0.12509000000E+03 0.  0.
        -11    1    3    3    0    0  0.31146103447E+02 -0.21314575001E+02  0.46164636269E+02  0.59628554481E+02  0.51100000000E-03 0. -1.
         23    2    1    0    0    0  0.34550269054E+01 -0.12123507841E+02  0.28972901491E+02  0.93493391415E+02  0.87992434699E+02 0.  0.
         11    1    3    3    0    0 -0.27691076542E+02  0.91910671601E+01 -0.17191734778E+02  0.33864836934E+02  0.51100000000E-03 0.  1.
         22    1    1    0    0    0 -0.34550269054E+01  0.12123507841E+02 -0.28972901491E+02  0.31596608585E+02  0.00000000000E+00 0. -1.
</event>
<event>
 5    1  0.1044283E-009  0.9118800E+02  0.7815553E-02  0.1125453E+00
         25   -1    0    0    0    0  0.00000000000E+00  0.00000000000E+00  0.99999998245E-14  0.12509000000E+03  0.12509000000E+03 0.  0.
        -11    1    3    3    0    0  0.42196397352E+02  0.25068421721E+02 -0.83894754680E+01  0.49793021760E+02  0.51100000000E-03 0.  1.
         23    2    1    0    0    0  0.16732932664E+02 -0.13029923610E+02 -0.18759266431E+02  0.96776045457E+02  0.92541466124E+02 0.  0.
         11    1    3    3    0    0 -0.25463464688E+02 -0.38098345331E+02 -0.10369790963E+02  0.46983023697E+02  0.51100000000E-03 0. -1.
         22    1    1    0    0    0 -0.16732932664E+02  0.13029923610E+02  0.18759266431E+02  0.28313954543E+02  0.00000000000E+00 0. -1.
</event>
<event>
 5    1  0.1044283E-009  0.9118800E+02  0.7815553E-02  0.1125453E+00
         25   -1    0    0    0    0  0.00000000000E+00  0.00000000000E+00  0.99999998245E-14  0.12509000000E+03  0.12509000000E+03 0.  0.
        -11    1    3    3    0    0  0.22827080814E+02  0.56174561394E+01 -0.33178130731E+02  0.40662264952E+02  0.51100000000E-03 0. -1.
         23    2    1    0    0    0  0.13738823368E+02 -0.18928233237E+02  0.16261985658E+02  0.96603416166E+02  0.92307825001E+02 0.  0.
         11    1    3    3    0    0 -0.90882574458E+01 -0.24545689376E+02  0.49440116389E+02  0.55941151214E+02  0.51100000000E-03 0.  1.
         22    1    1    0    0    0 -0.13738823368E+02  0.18928233237E+02 -0.16261985658E+02  0.28486583834E+02  0.00000000000E+00 0.  1.
</event>
<event>
 5    1  0.1044283E-009  0.9118800E+02  0.7815553E-02  0.1125453E+00
         25   -1    0    0    0    0  0.00000000000E+00  0.00000000000E+00  0.99999998245E-14  0.12509000000E+03  0.12509000000E+03 0.  0.
        -11    1    3    3    0    0 -0.26839328143E+02  0.14349109585E+02 -0.14556468924E+02  0.33736290087E+02  0.51100000000E-03 0.  1.
         23    2    1    0    0    0  0.29580127810E+02 -0.46813898223E+01 -0.10257345665E+02  0.93433839273E+02  0.87907734638E+02 0.  0.
         11    1    3    3    0    0  0.56419455953E+02 -0.19030499408E+02  0.42991232586E+01  0.59697549185E+02  0.51100000000E-03 0. -1.
         22    1    1    0    0    0 -0.29580127810E+02  0.46813898223E+01  0.10257345665E+02  0.31656160727E+02  0.00000000000E+00 0. -1.
</event>
<event>
 5    1  0.1044283E-009  0.9118800E+02  0.7815553E-02  0.1125453E+00
         25   -1    0    0    0    0  0.00000000000E+00  0.00000000000E+00  0.99999998245E-14  0.12509000000E+03  0.12509000000E+03 0.  0.
        -11    1    3    3    0    0 -0.34716845686E+02  0.90296743181E+01  0.29443980806E+02  0.46408430254E+02  0.51100000000E-03 0.  1.
         23    2    1    0    0    0  0.14607672522E+02  0.15195591035E+02  0.17893093207E+02  0.97441259198E+02  0.93436321236E+02 0.  0.
         11    1    3    3    0    0  0.49324518208E+02  0.61659167167E+01 -0.11550887599E+02  0.51032828944E+02  0.51100000000E-03 0. -1.
         22    1    1    0    0    0 -0.14607672522E+02 -0.15195591035E+02 -0.17893093207E+02  0.27648740802E+02  0.00000000000E+00 0. -1.
</event>
<event>
 5    1  0.1044283E-009  0.9118800E+02  0.7815553E-02  0.1125453E+00
         25   -1    0    0    0    0  0.00000000000E+00  0.00000000000E+00  0.99999998245E-14  0.12509000000E+03  0.12509000000E+03 0.  0.
        -11    1    3    3    0    0 -0.47817621428E+02  0.11643927888E+02  0.18561264213E+02  0.52598731022E+02  0.51100000000E-03 0. -1.
         23    2    1    0    0    0 -0.24058750486E+02 -0.14244662877E+02 -0.72588795401E+01  0.96203580568E+02  0.91764392258E+02 0.  0.
         11    1    3    3    0    0  0.23758870942E+02 -0.25888590764E+02 -0.25820143753E+02  0.43604849546E+02  0.51100000000E-03 0.  1.
         22    1    1    0    0    0  0.24058750486E+02  0.14244662877E+02  0.72588795401E+01  0.28886419432E+02  0.00000000000E+00 0. -1.
</event>
<event>
 5    1  0.1044283E-009  0.9118800E+02  0.7815553E-02  0.1125453E+00
         25   -1    0    0    0    0  0.00000000000E+00  0.00000000000E+00  0.99999998245E-14  0.12509000000E+03  0.12509000000E+03 0.  0.
        -11    1    3    3    0    0  0.42937180803E+02  0.26696688655E+01  0.14075434565E+02  0.45264185463E+02  0.51100000000E-03 0. -1.
         23    2    1    0    0    0  0.64625832769E+01  0.26608953951E+02 -0.10994114084E+02  0.95582849045E+02  0.90914295214E+02 0.  0.
         11    1    3    3    0    0 -0.36474597526E+02  0.23939285085E+02 -0.25069548649E+02  0.50318663583E+02  0.51100000000E-03 0.  1.
         22    1    1    0    0    0 -0.64625832769E+01 -0.26608953951E+02  0.10994114084E+02  0.29507150955E+02  0.00000000000E+00 0.  1.
</event>
<event>
 5    1  0.1044283E-009  0.9118800E+02  0.7815553E-02  0.1125453E+00
         25   -1    0    0    0    0  0.00000000000E+00  0.00000000000E+00  0.99999998245E-14  0.12509000000E+03  0.12509000000E+03 0.  0.
        -11    1    3    3    0    0 -0.17375661325E+02  0.50729703570E+02  0.13327940156E+02  0.55254415387E+02  0.51100000000E-03 0. -1.
         23    2    1    0    0    0  0.11293055076E+02  0.26828091045E+02 -0.26617605795E+01  0.95860485269E+02  0.91295498818E+02 0.  0.
         11    1    3    3    0    0  0.28668716400E+02 -0.23901612525E+02 -0.15989700735E+02  0.40606069881E+02  0.51100000000E-03 0.  1.
         22    1    1    0    0    0 -0.11293055076E+02 -0.26828091045E+02  0.26617605795E+01  0.29229514731E+02  0.00000000000E+00 0. -1.
</event>
<event>
 5    1  0.1044283E-009  0.9118800E+02  0.7815553E-02  0.1125453E+00
         25   -1    0    0    0    0  0.00000000000E+00  0.00000000000E+00  0.99999998245E-14  0.12509000000E+03  0.12509000000E+03 0.  0.
        -11    1    3    3    0    0  0.14563288306E+02 -0.12299766338E+02 -0.51714537497E+02  0.55115941497E+02  0.51100000000E-03 0.  1.
         23    2    1    0    0    0  0.17565247129E+02 -0.22090897517E+02 -0.15211026611E+02  0.93028793061E+02  0.87329464375E+02 0.  0.
         11    1    3    3    0    0  0.30019588223E+01 -0.97911311786E+01  0.36503510886E+02  0.37912851565E+02  0.51100000000E-03 0. -1.
         22    1    1    0    0    0 -0.17565247129E+02  0.22090897517E+02  0.15211026611E+02  0.32061206939E+02  0.00000000000E+00 0.  1.
</event>
<event>
 5    1  0.1044283E-009  0.9118800E+02  0.7815553E-02  0.1125453E+00
         25   -1    0    0    0    0  0.00000000000E+00  0.00000000000E+00  0.99999998245E-14  0.12509000000E+03  0.12509000000E+03 0.  0.
        -11    1    3    3    0    0  0.18156918129E+02 -0.46450345485E+02 -0.31677731594E+01  0.49973423524E+02  0.51100000000E-03 0.  1.
         23    2    1    0    0    0  0.17911442512E+02 -0.21235186077E+02  0.24955776243E+02  0.87746410611E+02  0.79403330576E+02 0.  0.
         11    1    3    3    0    0 -0.24547561693E+00  0.25215159408E+02  0.28123549402E+02  0.37772987087E+02  0.51100000000E-03 0. -1.
         22    1    1    0    0    0 -0.17911442512E+02  0.21235186077E+02 -0.24955776243E+02  0.37343589389E+02  0.00000000000E+00 0.  1.
</event>
<event>
 5    1  0.1044283E-009  0.9118800E+02  0.7815553E-02  0.1125453E+00
         25   -1    0    0    0    0  0.00000000000E+00  0.00000000000E+00  0.99999998245E-14  0.12509000000E+03  0.12509000000E+03 0.  0.
        -11    1    3    3    0    0  0.11578131583E+02  0.55090677679E+02  0.16266017080E+02  0.58597092163E+02  0.51100000000E-03 0. -1.
         23    2    1    0    0    0  0.89460265481E+01  0.16883332361E+02  0.20426136988E+02  0.97120277533E+02  0.93005606999E+02 0.  0.
         11    1    3    3    0    0 -0.26321050346E+01 -0.38207345318E+02  0.41601199083E+01  0.38523185370E+02  0.51100000000E-03 0.  1.
         22    1    1    0    0    0 -0.89460265481E+01 -0.16883332361E+02 -0.20426136988E+02  0.27969722467E+02  0.00000000000E+00 0. -1.
</event>
<event>
 5    1  0.1044283E-009  0.9118800E+02  0.7815553E-02  0.1125453E+00
         25   -1    0    0    0    0  0.00000000000E+00  0.00000000000E+00  0.99999998245E-14  0.12509000000E+03  0.12509000000E+03 0.  0.
        -11    1    3    3    0    0 -0.10337479146E+02 -0.15428482828E+02  0.50708944627E+02  0.54002764956E+02  0.51100000000E-03 0.  1.
         23    2    1    0    0    0 -0.78482323571E+01 -0.25714323303E+02  0.94579994885E+01  0.96589562664E+02  0.92289049660E+02 0.  0.
         11    1    3    3    0    0  0.24892467886E+01 -0.10285840475E+02 -0.41250945139E+02  0.42586797707E+02  0.51100000000E-03 0. -1.
         22    1    1    0    0    0  0.78482323571E+01  0.25714323303E+02 -0.94579994885E+01  0.28500437336E+02  0.00000000000E+00 0.  1.
</event>
<event>
 5    1  0.1044283E-009  0.9118800E+02  0.7815553E-02  0.1125453E+00
         25   -1    0    0    0    0  0.00000000000E+00  0.00000000000E+00  0.99999998245E-14  0.12509000000E+03  0.12509000000E+03 0.  0.
        -11    1    3    3    0    0  0.28086793325E+02 -0.29172489446E+02 -0.15604180260E+02  0.43398070713E+02  0.51100000000E-03 0. -1.
         23    2    1    0    0    0  0.13798504678E+02  0.12157412822E+02  0.18613189080E+02  0.98924140075E+02  0.95400908087E+02 0.  0.
         11    1    3    3    0    0 -0.14288288647E+02  0.41329902268E+02  0.34217369341E+02  0.55526069362E+02  0.51100000000E-03 0.  1.
         22    1    1    0    0    0 -0.13798504678E+02 -0.12157412822E+02 -0.18613189080E+02  0.26165859925E+02  0.00000000000E+00 0.  1.
</event>
<event>
 5    1  0.1044283E-009  0.9118800E+02  0.7815553E-02  0.1125453E+00
         25   -1    0    0    0    0  0.00000000000E+00  0.00000000000E+00  0.99999998245E-14  0.12509000000E+03  0.12509000000E+03 0.  0.
        -11    1    3    3    0    0  0.44614133618E+02  0.26125998280E+02  0.27591057038E+01  0.51774524326E+02  0.51100000000E-03 0.  1.
         23    2    1    0    0    0  0.26208700963E+02 -0.69717750816E+01 -0.15538019477E+02  0.93834093306E+02  0.88475450626E+02 0.  0.
         11    1    3    3    0    0 -0.18405432655E+02 -0.33097773362E+02 -0.18297125181E+02  0.42059568981E+02  0.51100000000E-03 0. -1.
         22    1    1    0    0    0 -0.26208700963E+02  0.69717750816E+01  0.15538019477E+02  0.31255906694E+02  0.00000000000E+00 0. -1.
</event>
<event>
 5    1  0.1044283E-009  0.9118800E+02  0.7815553E-02  0.1125453E+00
         25   -1    0    0    0    0  0.00000000000E+00  0.00000000000E+00  0.99999998245E-14  0.12509000000E+03  0.12509000000E+03 0.  0.
        -11    1    3    3    0    0  0.25923909111E+02 -0.57737731971E+01  0.43701525120E+02  0.51139112415E+02  0.51100000000E-03 0.  1.
         23    2    1    0    0    0 -0.10268224847E+02  0.10767581425E+02  0.26932038592E+02  0.94321315368E+02  0.89161642979E+02 0.  0.
         11    1    3    3    0    0 -0.36192133958E+02  0.16541354622E+02 -0.16769486528E+02  0.43182202953E+02  0.51100000000E-03 0. -1.
         22    1    1    0    0    0  0.10268224847E+02 -0.10767581425E+02 -0.26932038592E+02  0.30768684632E+02  0.00000000000E+00 0.  1.
</event>
<event>
 5    1  0.1044283E-009  0.9118800E+02  0.7815553E-02  0.1125453E+00
         25   -1    0    0    0    0  0.00000000000E+00  0.00000000000E+00  0.99999998245E-14  0.12509000000E+03  0.12509000000E+03 0.  0.
        -11    1    3    3    0    0  0.50112134029E+02  0.15139291890E+02  0.30528200032E+02  0.60600289878E+02  0.51100000000E-03 0. -1.
         23    2    1    0    0    0  0.23593441733E+02  0.17624412716E+02  0.10892703699E+02  0.93690614492E+02  0.88272361663E+02 0.  0.
         11    1    3    3    0    0 -0.26518692295E+02  0.24851208252E+01 -0.19635496333E+02  0.33090324614E+02  0.51100000000E-03 0.  1.
         22    1    1    0    0    0 -0.23593441733E+02 -0.17624412716E+02 -0.10892703699E+02  0.31399385508E+02  0.00000000000E+00 0. -1.
</event>
<event>
 5    1  0.1044283E-009  0.9118800E+02  0.7815553E-02  0.1125453E+00
         25   -1    0    0    0    0  0.00000000000E+00  0.00000000000E+00  0.99999998245E-14  0.12509000000E+03  0.12509000000E+03 0.  0.
        -11    1    3    3    0    0  0.27841605901E+02  0.96608779047E+01 -0.45825403340E+02  0.54483531205E+02  0.51100000000E-03 0.  1.
         23    2    1    0    0    0 -0.29478757309E+01 -0.66431675067E+01 -0.32504087607E+02  0.91783283605E+02  0.85526801602E+02 0.  0.
         11    1    3    3    0    0 -0.30789481632E+02 -0.16304045411E+02  0.13321315733E+02  0.37299752399E+02  0.51100000000E-03 0. -1.
         22    1    1    0    0    0  0.29478757309E+01  0.66431675067E+01  0.32504087607E+02  0.33306716395E+02  0.00000000000E+00 0.  1.
</event>
<event>
 5    1  0.1044283E-009  0.9118800E+02  0.7815553E-02  0.1125453E+00
         25   -1    0    0    0    0  0.00000000000E+00  0.00000000000E+00  0.99999998245E-14  0.12509000000E+03  0.12509000000E+03 0.  0.
        -11    1    3    3    0    0  0.71286784535E+01 -0.24230333567E+02 -0.28550812580E+02  0.38119234259E+02  0.51100000000E-03 0.  1.
         23    2    1    0    0    0 -0.32250304138E+02  0.31218334326E+01 -0.27352355590E+01  0.92573704477E+02  0.86675148030E+02 0.  0.
         11    1    3    3    0    0 -0.39378982592E+02  0.27352167000E+02  0.25815577021E+02  0.54454470218E+02  0.51100000000E-03 0. -1.
         22    1    1    0    0    0  0.32250304138E+02 -0.31218334326E+01  0.27352355590E+01  0.32516295523E+02  0.00000000000E+00 0. -1.
</event>
<event>
 5    1  0.1044283E-009  0.9118800E+02  0.7815553E-02  0.1125453E+00
         25   -1    0    0    0    0  0.00000000000E+00  0.00000000000E+00  0.99999998245E-14  0.12509000000E+03  0.12509000000E+03 0.  0.
        -11    1    3    3    0    0  0.44103304760E+02  0.18710054384E+01  0.22967285892E+02  0.49760409701E+02  0.51100000000E-03 0.  1.
         23    2    1    0    0    0  0.23821911974E+02 -0.65670966481E+01 -0.16812530330E+02  0.95202353312E+02  0.90389250752E+02 0.  0.
         11    1    3    3    0    0 -0.20281392786E+02 -0.84381020865E+01 -0.39779816222E+02  0.45441943611E+02  0.51100000000E-03 0. -1.
         22    1    1    0    0    0 -0.23821911974E+02  0.65670966481E+01  0.16812530330E+02  0.29887646688E+02  0.00000000000E+00 0.  1.
</event>
<event>
 5    1  0.1044283E-009  0.9118800E+02  0.7815553E-02  0.1125453E+00
         25   -1    0    0    0    0  0.00000000000E+00  0.00000000000E+00  0.99999998245E-14  0.12509000000E+03  0.12509000000E+03 0.  0.
        -11    1    3    3    0    0  0.13210593677E+02  0.57425506764E+02  0.11128753475E+02  0.59967139056E+02  0.51100000000E-03 0.  1.
         23    2    1    0    0    0 -0.34164438360E+01  0.29763448836E+02 -0.25542663369E+01  0.95022421920E+02  0.90139899134E+02 0.  0.
         11    1    3    3    0    0 -0.16627037513E+02 -0.27662057928E+02 -0.13683019812E+02  0.35055282864E+02  0.51100000000E-03 0. -1.
         22    1    1    0    0    0  0.34164438360E+01 -0.29763448836E+02  0.25542663369E+01  0.30067578080E+02  0.00000000000E+00 0.  1.
</event>
<event>
 5    1  0.1044283E-009  0.9118800E+02  0.7815553E-02  0.1125453E+00
         25   -1    0    0    0    0  0.00000000000E+00  0.00000000000E+00  0.99999998245E-14  0.12509000000E+03  0.12509000000E+03 0.  0.
        -11    1    3    3    0    0  0.43094253239E+02 -0.95828498672E+01 -0.33631709805E+02  0.55498086260E+02  0.51100000000E-03 0. -1.
         23    2    1    0    0    0  0.59932602448E+01  0.15809836648E+01 -0.30049886464E+02  0.94407523662E+02  0.89282507636E+02 0.  0.
         11    1    3    3    0    0 -0.37100992994E+02  0.11163833532E+02  0.35818233410E+01  0.38909437402E+02  0.51100000000E-03 0.  1.
         22    1    1    0    0    0 -0.59932602448E+01 -0.15809836648E+01  0.30049886464E+02  0.30682476338E+02  0.00000000000E+00 0. -1.
</event>
<event>
 5    1  0.1044283E-009  0.9118800E+02  0.7815553E-02  0.1125453E+00
         25   -1    0    0    0    0  0.00000000000E+00  0.00000000000E+00  0.99999998245E-14  0.12509000000E+03  0.12509000000E+03 0.  0.
        -11    1    3    3    0    0 -0.54776616539E+02  0.99215568902E+01  0.64365533381E+01  0.56038774341E+02  0.51100000000E-03 0.  1.
         23    2    1    0    0    0 -0.21633463975E+02  0.15585898155E+02 -0.13578119629E+02  0.95168564247E+02  0.90342477846E+02 0.  0.
         11    1    3    3    0    0  0.33143152563E+02  0.56643412644E+01 -0.20014672967E+02  0.39129789905E+02  0.51100000000E-03 0. -1.
         22    1    1    0    0    0  0.21633463975E+02 -0.15585898155E+02  0.13578119629E+02  0.29921435753E+02  0.00000000000E+00 0.  1.
</event>
<event>
 5    1  0.1044283E-009  0.9118800E+02  0.7815553E-02  0.1125453E+00
         25   -1    0    0    0    0  0.00000000000E+00  0.00000000000E+00  0.99999998245E-14  0.12509000000E+03  0.12509000000E+03 0.  0.
        -11    1    3    3    0    0 -0.13221346785E+02  0.41239063254E+02  0.26975785174E+02  0.51021145958E+02  0.51100000000E-03 0.  1.
         23    2    1    0    0    0 -0.73629545617E+01 -0.34917966996E+01  0.27778234843E+02  0.96141147258E+02  0.91679245858E+02 0.  0.
         11    1    3    3    0    0  0.58583922236E+01 -0.44730859953E+02  0.80244966837E+00  0.45120001300E+02  0.51100000000E-03 0. -1.
         22    1    1    0    0    0  0.73629545617E+01  0.34917966996E+01 -0.27778234843E+02  0.28948852742E+02  0.00000000000E+00 0.  1.
</event>
<event>
 5    1  0.1044283E-009  0.9118800E+02  0.7815553E-02  0.1125453E+00
         25   -1    0    0    0    0  0.00000000000E+00  0.00000000000E+00  0.99999998245E-14  0.12509000000E+03  0.12509000000E+03 0.  0.
        -11    1    3    3    0    0  0.17158393437E+02  0.47525032661E+02  0.10377510765E+02  0.51582283051E+02  0.51100000000E-03 0. -1.
         23    2    1    0    0    0 -0.16937253238E+02  0.18202143066E+02  0.13747821751E+02  0.96678890160E+02  0.92410046209E+02 0.  0.
         11    1    3    3    0    0 -0.34095646675E+02 -0.29322889596E+02  0.33703109862E+01  0.45096607110E+02  0.51100000000E-03 0.  1.
         22    1    1    0    0    0  0.16937253238E+02 -0.18202143066E+02 -0.13747821751E+02  0.28411109840E+02  0.00000000000E+00 0. -1.
</event>
<event>
 5    1  0.1044283E-009  0.9118800E+02  0.7815553E-02  0.1125453E+00
         25   -1    0    0    0    0  0.00000000000E+00  0.00000000000E+00  0.99999998245E-14  0.12509000000E+03  0.12509000000E+03 0.  0.
        -11    1    3    3    0    0 -0.10303166658E+02 -0.57387752753E+02 -0.22623012592E+02  0.62540467765E+02  0.51100000000E-03 0.  1.
         23    2    1    0    0    0 -0.55972357219E+01 -0.28398141460E+02 -0.11450200539E+02  0.93962992779E+02  0.88657506357E+02 0.  0.
         11    1    3    3    0    0  0.47059309361E+01  0.28989611293E+02  0.11172812052E+02  0.31422525015E+02  0.51100000000E-03 0. -1.
         22    1    1    0    0    0  0.55972357219E+01  0.28398141460E+02  0.11450200539E+02  0.31127007221E+02  0.00000000000E+00 0.  1.
</event>
<event>
 5    1  0.1044283E-009  0.9118800E+02  0.7815553E-02  0.1125453E+00
         25   -1    0    0    0    0  0.00000000000E+00  0.00000000000E+00  0.99999998245E-14  0.12509000000E+03  0.12509000000E+03 0.  0.
        -11    1    3    3    0    0 -0.43374438550E+02 -0.22779219110E+02  0.30362264604E+02  0.57637677390E+02  0.51100000000E-03 0.  1.
         23    2    1    0    0    0 -0.24004833903E+02  0.62095130226E+01  0.17243275923E+02  0.94888664480E+02  0.89954088176E+02 0.  0.
         11    1    3    3    0    0  0.19369604647E+02  0.28988732133E+02 -0.13118988681E+02  0.37250987089E+02  0.51100000000E-03 0. -1.
         22    1    1    0    0    0  0.24004833903E+02 -0.62095130226E+01 -0.17243275923E+02  0.30201335520E+02  0.00000000000E+00 0. -1.
</event>
<event>
 5    1  0.1044283E-009  0.9118800E+02  0.7815553E-02  0.1125453E+00
         25   -1    0    0    0    0  0.00000000000E+00  0.00000000000E+00  0.99999998245E-14  0.12509000000E+03  0.12509000000E+03 0.  0.
        -11    1    3    3    0    0  0.16945424700E+02  0.67139688724E+01 -0.32071960922E+02  0.36889503574E+02  0.51100000000E-03 0. -1.
         23    2    1    0    0    0 -0.26114114279E+02 -0.14452289935E+02  0.11043440163E+01  0.95223041256E+02  0.90417876338E+02 0.  0.
         11    1    3    3    0    0 -0.43059538979E+02 -0.21166258807E+02  0.33176304938E+02  0.58333537682E+02  0.51100000000E-03 0.  1.
         22    1    1    0    0    0  0.26114114279E+02  0.14452289935E+02 -0.11043440163E+01  0.29866958744E+02  0.00000000000E+00 0.  1.
</event>
<event>
 5    1  0.1044283E-009  0.9118800E+02  0.7815553E-02  0.1125453E+00
         25   -1    0    0    0    0  0.00000000000E+00  0.00000000000E+00  0.99999998245E-14  0.12509000000E+03  0.12509000000E+03 0.  0.
        -11    1    3    3    0    0 -0.31948671979E+02 -0.36825653026E+02  0.27881849334E+02  0.56162655604E+02  0.51100000000E-03 0.  1.
         23    2    1    0    0    0 -0.29041797066E+01 -0.11421617755E+02  0.27958029663E+02  0.94749613804E+02  0.89760516272E+02 0.  0.
         11    1    3    3    0    0  0.29044492272E+02  0.25404035271E+02  0.76180329040E-01  0.38586958200E+02  0.51100000000E-03 0. -1.
         22    1    1    0    0    0  0.29041797066E+01  0.11421617755E+02 -0.27958029663E+02  0.30340386196E+02  0.00000000000E+00 0.  1.
</event>
<event>
 5    1  0.1044283E-009  0.9118800E+02  0.7815553E-02  0.1125453E+00
         25   -1    0    0    0    0  0.00000000000E+00  0.00000000000E+00  0.99999998245E-14  0.12509000000E+03  0.12509000000E+03 0.  0.
        -11    1    3    3    0    0  0.16571682130E+02  0.34958041985E+02  0.92545100540E+01  0.39778528187E+02  0.51100000000E-03 0. -1.
         23    2    1    0    0    0  0.15936865692E+02 -0.86217456605E+01 -0.24296474217E+02  0.94780977487E+02  0.89804213975E+02 0.  0.
         11    1    3    3    0    0 -0.63481643796E+00 -0.43579787646E+02 -0.33550984271E+02  0.55002449300E+02  0.51100000000E-03 0.  1.
         22    1    1    0    0    0 -0.15936865692E+02  0.86217456605E+01  0.24296474217E+02  0.30309022513E+02  0.00000000000E+00 0.  1.
</event>
<event>
 5    1  0.1044283E-009  0.9118800E+02  0.7815553E-02  0.1125453E+00
         25   -1    0    0    0    0  0.00000000000E+00  0.00000000000E+00  0.99999998245E-14  0.12509000000E+03  0.12509000000E+03 0.  0.
        -11    1    3    3    0    0  0.39431016563E+02  0.29765771349E+02 -0.33361173236E+02  0.59613539495E+02  0.51100000000E-03 0. -1.
         23    2    1    0    0    0  0.21110667349E+02  0.20048052177E+02 -0.37910037142E+01  0.95730906329E+02  0.91117781170E+02 0.  0.
         11    1    3    3    0    0 -0.18320349213E+02 -0.97177191721E+01  0.29570169522E+02  0.36117366834E+02  0.51100000000E-03 0.  1.
         22    1    1    0    0    0 -0.21110667349E+02 -0.20048052177E+02  0.37910037142E+01  0.29359093671E+02  0.00000000000E+00 0. -1.
</event>
<event>
 5    1  0.1044283E-009  0.9118800E+02  0.7815553E-02  0.1125453E+00
         25   -1    0    0    0    0  0.00000000000E+00  0.00000000000E+00  0.99999998245E-14  0.12509000000E+03  0.12509000000E+03 0.  0.
        -11    1    3    3    0    0  0.36973179936E+02  0.33647444810E+02 -0.31016899404E+02  0.58832088402E+02  0.51100000000E-03 0.  1.
         23    2    1    0    0    0  0.53175266820E+01  0.25239804481E+02 -0.13977536478E+02  0.95752390243E+02  0.91147270343E+02 0.  0.
         11    1    3    3    0    0 -0.31655653254E+02 -0.84076403282E+01  0.17039362926E+02  0.36920301841E+02  0.51100000000E-03 0. -1.
         22    1    1    0    0    0 -0.53175266820E+01 -0.25239804481E+02  0.13977536478E+02  0.29337609757E+02  0.00000000000E+00 0.  1.
</event>
<event>
 5    1  0.1044283E-009  0.9118800E+02  0.7815553E-02  0.1125453E+00
         25   -1    0    0    0    0  0.00000000000E+00  0.00000000000E+00  0.99999998245E-14  0.12509000000E+03  0.12509000000E+03 0.  0.
        -11    1    3    3    0    0  0.21973605033E+02  0.42088981294E+02  0.26376713298E+02  0.54314387313E+02  0.51100000000E-03 0. -1.
         23    2    1    0    0    0  0.39578409048E+01  0.28819208924E+02 -0.76247378004E+01  0.95017621741E+02  0.90133237528E+02 0.  0.
         11    1    3    3    0    0 -0.18015764129E+02 -0.13269772370E+02 -0.34001451098E+02  0.40703234429E+02  0.51100000000E-03 0.  1.
         22    1    1    0    0    0 -0.39578409048E+01 -0.28819208924E+02  0.76247378004E+01  0.30072378259E+02  0.00000000000E+00 0. -1.
</event>
<event>
 5    1  0.1044283E-009  0.9118800E+02  0.7815553E-02  0.1125453E+00
         25   -1    0    0    0    0  0.00000000000E+00  0.00000000000E+00  0.99999998245E-14  0.12509000000E+03  0.12509000000E+03 0.  0.
        -11    1    3    3    0    0  0.57898551736E+01  0.12199347978E+02 -0.34117532621E+02  0.36692677013E+02  0.51100000000E-03 0. -1.
         23    2    1    0    0    0 -0.17964566718E+02 -0.17965771670E+02  0.12242315759E+02  0.96887714557E+02  0.92692288394E+02 0.  0.
         11    1    3    3    0    0 -0.23754421892E+02 -0.30165119648E+02  0.46359848380E+02  0.60195037543E+02  0.51100000000E-03 0.  1.
         22    1    1    0    0    0  0.17964566718E+02  0.17965771670E+02 -0.12242315759E+02  0.28202285443E+02  0.00000000000E+00 0.  1.
</event>
<event>
 5    1  0.1044283E-009  0.9118800E+02  0.7815553E-02  0.1125453E+00
         25   -1    0    0    0    0  0.00000000000E+00  0.00000000000E+00  0.99999998245E-14  0.12509000000E+03  0.12509000000E+03 0.  0.
        -11    1    3    3    0    0  0.59218596919E+01  0.22776255030E+02  0.31244646212E+02  0.39115906388E+02  0.51100000000E-03 0.  1.
         23    2    1    0    0    0 -0.25325294878E+02  0.51706988669E+01 -0.13069904519E+02  0.96125727325E+02  0.91658204009E+02 0.  0.
         11    1    3    3    0    0 -0.31247154570E+02 -0.17605556163E+02 -0.44314550731E+02  0.57009820937E+02  0.51100000000E-03 0. -1.
         22    1    1    0    0    0  0.25325294878E+02 -0.51706988669E+01  0.13069904519E+02  0.28964272675E+02  0.00000000000E+00 0. -1.
</event>
<event>
 5    1  0.1044283E-009  0.9118800E+02  0.7815553E-02  0.1125453E+00
         25   -1    0    0    0    0  0.00000000000E+00  0.00000000000E+00  0.99999998245E-14  0.12509000000E+03  0.12509000000E+03 0.  0.
        -11    1    3    3    0    0 -0.19962123035E+02 -0.30347732373E+02 -0.41507458077E+02  0.55157413759E+02  0.51100000000E-03 0.  1.
         23    2    1    0    0    0 -0.27321588673E+02 -0.24694306301E+01 -0.19403976258E+02  0.91488190675E+02  0.85094109333E+02 0.  0.
         11    1    3    3    0    0 -0.73594656381E+01  0.27878301743E+02  0.22103481820E+02  0.36330776917E+02  0.51100000000E-03 0. -1.
         22    1    1    0    0    0  0.27321588673E+02  0.24694306301E+01  0.19403976258E+02  0.33601809325E+02  0.00000000000E+00 0.  1.
</event>
<event>
 5    1  0.1044283E-009  0.9118800E+02  0.7815553E-02  0.1125453E+00
         25   -1    0    0    0    0  0.00000000000E+00  0.00000000000E+00  0.99999998245E-14  0.12509000000E+03  0.12509000000E+03 0.  0.
        -11    1    3    3    0    0  0.92365153488E+01  0.50099822956E+02  0.21981643210E+02  0.55484215003E+02  0.51100000000E-03 0. -1.
         23    2    1    0    0    0  0.16090756705E+02  0.23445087975E+02 -0.73639993275E+01  0.95716319815E+02  0.91097754041E+02 0.  0.
         11    1    3    3    0    0  0.68542413559E+01 -0.26654734981E+02 -0.29345642537E+02  0.40232104812E+02  0.51100000000E-03 0.  1.
         22    1    1    0    0    0 -0.16090756705E+02 -0.23445087975E+02  0.73639993275E+01  0.29373680185E+02  0.00000000000E+00 0. -1.
</event>
<event>
 5    1  0.1044283E-009  0.9118800E+02  0.7815553E-02  0.1125453E+00
         25   -1    0    0    0    0  0.00000000000E+00  0.00000000000E+00  0.99999998245E-14  0.12509000000E+03  0.12509000000E+03 0.  0.
        -11    1    3    3    0    0 -0.31702126322E+02  0.53414165812E+02 -0.63239008164E+01  0.62434683026E+02  0.51100000000E-03 0. -1.
         23    2    1    0    0    0 -0.13500096839E+02  0.24961658258E+02 -0.52609375043E+01  0.96228010098E+02  0.91797687696E+02 0.  0.
         11    1    3    3    0    0  0.18202029482E+02 -0.28452507554E+02  0.10629633121E+01  0.33793327073E+02  0.51100000000E-03 0.  1.
         22    1    1    0    0    0  0.13500096839E+02 -0.24961658258E+02  0.52609375043E+01  0.28861989902E+02  0.00000000000E+00 0. -1.
</event>
<event>
 5    1  0.1044283E-009  0.9118800E+02  0.7815553E-02  0.1125453E+00
         25   -1    0    0    0    0  0.00000000000E+00  0.00000000000E+00  0.99999998245E-14  0.12509000000E+03  0.12509000000E+03 0.  0.
        -11    1    3    3    0    0  0.33258070488E+02  0.23712468457E+02 -0.84619735307E+01  0.41713132335E+02  0.51100000000E-03 0. -1.
         23    2    1    0    0    0  0.22215078174E+02 -0.18744858402E+02  0.15967257258E+02  0.91926274046E+02  0.85735681841E+02 0.  0.
         11    1    3    3    0    0 -0.11042992314E+02 -0.42457326859E+02  0.24429230789E+02  0.50213141711E+02  0.51100000000E-03 0.  1.
         22    1    1    0    0    0 -0.22215078174E+02  0.18744858402E+02 -0.15967257258E+02  0.33163725954E+02  0.00000000000E+00 0.  1.
</event>
<event>
 5    1  0.1044283E-009  0.9118800E+02  0.7815553E-02  0.1125453E+00
         25   -1    0    0    0    0  0.00000000000E+00  0.00000000000E+00  0.99999998245E-14  0.12509000000E+03  0.12509000000E+03 0.  0.
        -11    1    3    3    0    0 -0.29910448139E+02  0.39500128981E+02  0.10207799082E+02  0.50587491139E+02  0.51100000000E-03 0.  1.
         23    2    1    0    0    0 -0.89904529368E+01  0.88455225995E+00  0.26238440694E+02  0.97339928887E+02  0.93300564356E+02 0.  0.
         11    1    3    3    0    0  0.20919995202E+02 -0.38615576721E+02  0.16030641612E+02  0.46752437749E+02  0.51100000000E-03 0. -1.
         22    1    1    0    0    0  0.89904529368E+01 -0.88455225995E+00 -0.26238440694E+02  0.27750071113E+02  0.00000000000E+00 0. -1.
</event>
<event>
 4    1  0.1044283E-009  0.9118800E+02  0.7815553E-02  0.1125453E+00
         25   -1    0    0    0    0  0.00000000000E+00  0.00000000000E+00  0.99999998245E-14  0.12509000000E+03  0.12509000000E+03 0.  0.
        -11    1    1    0    0    0  0.34037121989E+02 -0.61465237721E+01  0.88968127962E+01  0.35713564734E+02  0.51100000000E-03 0. -1.
         11    1    1    0    0    0  0.15558276423E+02 -0.12406557501E+01 -0.30900471576E+02  0.34618468132E+02  0.51100000000E-03 0.  1.
         22    1    1    0    0    0 -0.49595398413E+02  0.73871795222E+01  0.22003658779E+02  0.54757967134E+02  0.00000000000E+00 0.  1.
</event>
<event>
 5    1  0.1044283E-009  0.9118800E+02  0.7815553E-02  0.1125453E+00
         25   -1    0    0    0    0  0.00000000000E+00  0.00000000000E+00  0.99999998245E-14  0.12509000000E+03  0.12509000000E+03 0.  0.
        -11    1    3    3    0    0  0.78336040394E+01 -0.39717436689E+01 -0.41643930677E+02  0.42560040678E+02  0.51100000000E-03 0.  1.
         23    2    1    0    0    0 -0.58442859643E+01  0.31993275720E+02 -0.15631912750E+02  0.89005625737E+02  0.81362886791E+02 0.  0.
         11    1    3    3    0    0 -0.13677890004E+02  0.35965019389E+02  0.26012017927E+02  0.46445585059E+02  0.51100000000E-03 0. -1.
         22    1    1    0    0    0  0.58442859643E+01 -0.31993275720E+02  0.15631912750E+02  0.36084374263E+02  0.00000000000E+00 0. -1.
</event>
<event>
 5    1  0.1044283E-009  0.9118800E+02  0.7815553E-02  0.1125453E+00
         25   -1    0    0    0    0  0.00000000000E+00  0.00000000000E+00  0.99999998245E-14  0.12509000000E+03  0.12509000000E+03 0.  0.
        -11    1    3    3    0    0 -0.27992655036E+02 -0.40107235579E+02 -0.30287185617E+02  0.57528190434E+02  0.51100000000E-03 0.  1.
         23    2    1    0    0    0 -0.10500401694E+02 -0.63110559920E+01 -0.26653237107E+02  0.95756010981E+02  0.91152239288E+02 0.  0.
         11    1    3    3    0    0  0.17492253343E+02  0.33796179587E+02  0.36339485093E+01  0.38227820546E+02  0.51100000000E-03 0. -1.
         22    1    1    0    0    0  0.10500401694E+02  0.63110559920E+01  0.26653237107E+02  0.29333989019E+02  0.00000000000E+00 0.  1.
</event>
<event>
 5    1  0.1044283E-009  0.9118800E+02  0.7815553E-02  0.1125453E+00
         25   -1    0    0    0    0  0.00000000000E+00  0.00000000000E+00  0.99999998245E-14  0.12509000000E+03  0.12509000000E+03 0.  0.
        -11    1    3    3    0    0  0.40338659994E+02  0.38681997365E+02  0.78326970696E+01  0.56434524485E+02  0.51100000000E-03 0.  1.
         23    2    1    0    0    0  0.51356289345E+01  0.18204602963E+01 -0.12610889149E+02  0.11135234062E+03  0.11050167635E+03 0.  0.
         11    1    3    3    0    0 -0.35203031059E+02 -0.36861537069E+02 -0.20443586218E+02  0.54917816130E+02  0.51100000000E-03 0. -1.
         22    1    1    0    0    0 -0.51356289345E+01 -0.18204602963E+01  0.12610889149E+02  0.13737659385E+02  0.00000000000E+00 0.  1.
</event>
<event>
 5    1  0.1044283E-009  0.9118800E+02  0.7815553E-02  0.1125453E+00
         25   -1    0    0    0    0  0.00000000000E+00  0.00000000000E+00  0.99999998245E-14  0.12509000000E+03  0.12509000000E+03 0.  0.
        -11    1    3    3    0    0  0.55990806225E+02  0.37657678703E+01 -0.17775507100E+02  0.58865270256E+02  0.51100000000E-03 0. -1.
         23    2    1    0    0    0  0.18657211649E+02  0.99890983362E+01 -0.18878848667E+02  0.96730088874E+02  0.92479324903E+02 0.  0.
         11    1    3    3    0    0 -0.37333594577E+02  0.62233304659E+01 -0.11033415672E+01  0.37864818618E+02  0.51100000000E-03 0.  1.
         22    1    1    0    0    0 -0.18657211649E+02 -0.99890983362E+01  0.18878848667E+02  0.28359911126E+02  0.00000000000E+00 0. -1.
</event>
<event>
 5    1  0.1044283E-009  0.9118800E+02  0.7815553E-02  0.1125453E+00
         25   -1    0    0    0    0  0.00000000000E+00  0.00000000000E+00  0.99999998245E-14  0.12509000000E+03  0.12509000000E+03 0.  0.
        -11    1    3    3    0    0 -0.39757132807E+02 -0.19650561174E+02  0.14118591346E+01  0.44370795688E+02  0.51100000000E-03 0.  1.
         23    2    1    0    0    0 -0.18160952527E+02  0.24413525235E+02 -0.62218214056E+01  0.94032771008E+02  0.88755904314E+02 0.  0.
         11    1    3    3    0    0  0.21596180281E+02  0.44064086409E+02 -0.76336805401E+01  0.49661975319E+02  0.51100000000E-03 0. -1.
         22    1    1    0    0    0  0.18160952527E+02 -0.24413525235E+02  0.62218214056E+01  0.31057228992E+02  0.00000000000E+00 0.  1.
</event>
<event>
 5    1  0.1044283E-009  0.9118800E+02  0.7815553E-02  0.1125453E+00
         25   -1    0    0    0    0  0.00000000000E+00  0.00000000000E+00  0.99999998245E-14  0.12509000000E+03  0.12509000000E+03 0.  0.
        -11    1    3    3    0    0  0.46194823682E+02 -0.10233064602E+02  0.35970628761E+02  0.59435372296E+02  0.51100000000E-03 0.  1.
         23    2    1    0    0    0  0.12882410255E+02  0.98018386400E+00  0.26137243672E+02  0.95933992709E+02  0.91396160729E+02 0.  0.
         11    1    3    3    0    0 -0.33312413428E+02  0.11213248466E+02 -0.98333850893E+01  0.36498620414E+02  0.51100000000E-03 0. -1.
         22    1    1    0    0    0 -0.12882410255E+02 -0.98018386400E+00 -0.26137243672E+02  0.29156007291E+02  0.00000000000E+00 0.  1.
</event>
<event>
 5    1  0.1044283E-009  0.9118800E+02  0.7815553E-02  0.1125453E+00
         25   -1    0    0    0    0  0.00000000000E+00  0.00000000000E+00  0.99999998245E-14  0.12509000000E+03  0.12509000000E+03 0.  0.
        -11    1    3    3    0    0  0.28229883944E+02 -0.30609713175E+02 -0.35982287578E+02  0.55032771217E+02  0.51100000000E-03 0.  1.
         23    2    1    0    0    0  0.27118915128E+02 -0.72630895739E+01 -0.11353585419E+01  0.96992365457E+02  0.92833409342E+02 0.  0.
         11    1    3    3    0    0 -0.11109688153E+01  0.23346623601E+02  0.34846929036E+02  0.41959594240E+02  0.51100000000E-03 0. -1.
         22    1    1    0    0    0 -0.27118915128E+02  0.72630895739E+01  0.11353585419E+01  0.28097634543E+02  0.00000000000E+00 0. -1.
</event>
<event>
 5    1  0.1044283E-009  0.9118800E+02  0.7815553E-02  0.1125453E+00
         25   -1    0    0    0    0  0.00000000000E+00  0.00000000000E+00  0.99999998245E-14  0.12509000000E+03  0.12509000000E+03 0.  0.
        -11    1    3    3    0    0 -0.32830771204E+02  0.26912541556E+02 -0.33266527133E+02  0.53933350152E+02  0.51100000000E-03 0. -1.
         23    2    1    0    0    0 -0.28425854742E+02 -0.40430939172E+01 -0.52796440138E+01  0.95896670845E+02  0.91345065614E+02 0.  0.
         11    1    3    3    0    0  0.44049164621E+01 -0.30955635474E+02  0.27986883119E+02  0.41963320693E+02  0.51100000000E-03 0.  1.
         22    1    1    0    0    0  0.28425854742E+02  0.40430939172E+01  0.52796440138E+01  0.29193329155E+02  0.00000000000E+00 0. -1.
</event>
<event>
 5    1  0.1044283E-009  0.9118800E+02  0.7815553E-02  0.1125453E+00
         25   -1    0    0    0    0  0.00000000000E+00  0.00000000000E+00  0.99999998245E-14  0.12509000000E+03  0.12509000000E+03 0.  0.
        -11    1    3    3    0    0  0.22576420799E+02 -0.56743457824E+01  0.26636781753E+02  0.35375289660E+02  0.51100000000E-03 0.  1.
         23    2    1    0    0    0 -0.29256776319E+01  0.17319607746E+02 -0.23258281289E+02  0.95944227569E+02  0.91410167669E+02 0.  0.
         11    1    3    3    0    0 -0.25502098431E+02  0.22993953528E+02 -0.49895063041E+02  0.60568937909E+02  0.51100000000E-03 0. -1.
         22    1    1    0    0    0  0.29256776319E+01 -0.17319607746E+02  0.23258281289E+02  0.29145772431E+02  0.00000000000E+00 0. -1.
</event>
<event>
 5    1  0.1044283E-009  0.9118800E+02  0.7815553E-02  0.1125453E+00
         25   -1    0    0    0    0  0.00000000000E+00  0.00000000000E+00  0.99999998245E-14  0.12509000000E+03  0.12509000000E+03 0.  0.
        -11    1    3    3    0    0 -0.19150338353E+02 -0.54686318936E+02  0.19006223087E+02  0.60980041441E+02  0.51100000000E-03 0.  1.
         23    2    1    0    0    0 -0.33543452168E+01 -0.31124141028E+02  0.27740579956E+01  0.93662954572E+02  0.88233156324E+02 0.  0.
         11    1    3    3    0    0  0.15795993136E+02  0.23562177909E+02 -0.16232165091E+02  0.32682913131E+02  0.51100000000E-03 0. -1.
         22    1    1    0    0    0  0.33543452168E+01  0.31124141028E+02 -0.27740579956E+01  0.31427045428E+02  0.00000000000E+00 0.  1.
</event>
<event>
 5    1  0.1044283E-009  0.9118800E+02  0.7815553E-02  0.1125453E+00
         25   -1    0    0    0    0  0.00000000000E+00  0.00000000000E+00  0.99999998245E-14  0.12509000000E+03  0.12509000000E+03 0.  0.
        -11    1    3    3    0    0  0.39471669970E+02 -0.30942460927E+01  0.17188806918E+00  0.39593138735E+02  0.51100000000E-03 0.  1.
         23    2    1    0    0    0 -0.12395433191E+02 -0.69301976983E+01  0.24314335836E+02  0.96932206563E+02  0.92752311766E+02 0.  0.
         11    1    3    3    0    0 -0.51867103161E+02 -0.38359516056E+01  0.24142447766E+02  0.57339067828E+02  0.51100000000E-03 0. -1.
         22    1    1    0    0    0  0.12395433191E+02  0.69301976983E+01 -0.24314335836E+02  0.28157793437E+02  0.00000000000E+00 0. -1.
</event>
<event>
 5    1  0.1044283E-009  0.9118800E+02  0.7815553E-02  0.1125453E+00
         25   -1    0    0    0    0  0.00000000000E+00  0.00000000000E+00  0.99999998245E-14  0.12509000000E+03  0.12509000000E+03 0.  0.
        -11    1    3    3    0    0  0.22061412410E+02 -0.25186853740E+02  0.25880913739E+02  0.42319088070E+02  0.51100000000E-03 0. -1.
         23    2    1    0    0    0 -0.23262369287E+02 -0.16316782146E+02 -0.25649319187E+01  0.96560119520E+02  0.92249133338E+02 0.  0.
         11    1    3    3    0    0 -0.45323781696E+02  0.88700715939E+01 -0.28445845658E+02  0.54241031450E+02  0.51100000000E-03 0.  1.
         22    1    1    0    0    0  0.23262369287E+02  0.16316782146E+02  0.25649319187E+01  0.28529880480E+02  0.00000000000E+00 0.  1.
</event>
<event>
 5    1  0.1044283E-009  0.9118800E+02  0.7815553E-02  0.1125453E+00
         25   -1    0    0    0    0  0.00000000000E+00  0.00000000000E+00  0.99999998245E-14  0.12509000000E+03  0.12509000000E+03 0.  0.
        -11    1    3    3    0    0  0.94981881781E+01  0.36731940800E+02  0.82723743332E+01  0.38831472171E+02  0.51100000000E-03 0.  1.
         23    2    1    0    0    0  0.45420221899E+01 -0.21299238640E+02  0.16653963438E+02  0.97673909279E+02  0.93747269418E+02 0.  0.
         11    1    3    3    0    0 -0.49561659882E+01 -0.58031179440E+02  0.83815891052E+01  0.58842437107E+02  0.51100000000E-03 0. -1.
         22    1    1    0    0    0 -0.45420221899E+01  0.21299238640E+02 -0.16653963438E+02  0.27416090721E+02  0.00000000000E+00 0. -1.
</event>
<event>
 5    1  0.1044283E-009  0.9118800E+02  0.7815553E-02  0.1125453E+00
         25   -1    0    0    0    0  0.00000000000E+00  0.00000000000E+00  0.99999998245E-14  0.12509000000E+03  0.12509000000E+03 0.  0.
        -11    1    3    3    0    0  0.15555720864E+02  0.30192379169E+02 -0.93622832413E+01  0.35230846701E+02  0.51100000000E-03 0.  1.
         23    2    1    0    0    0 -0.19040844734E+02 -0.62315875121E+01  0.22689933186E+02  0.94820881759E+02  0.89859780204E+02 0.  0.
         11    1    3    3    0    0 -0.34596565598E+02 -0.36423966681E+02  0.32052216428E+02  0.59590035058E+02  0.51100000000E-03 0. -1.
         22    1    1    0    0    0  0.19040844734E+02  0.62315875121E+01 -0.22689933186E+02  0.30269118241E+02  0.00000000000E+00 0. -1.
</event>
<event>
 5    1  0.1044283E-009  0.9118800E+02  0.7815553E-02  0.1125453E+00
         25   -1    0    0    0    0  0.00000000000E+00  0.00000000000E+00  0.99999998245E-14  0.12509000000E+03  0.12509000000E+03 0.  0.
        -11    1    3    3    0    0 -0.21520968599E+02 -0.28248539893E+02 -0.12390647079E+02  0.37611969250E+02  0.51100000000E-03 0.  1.
         23    2    1    0    0    0  0.11048004354E+02  0.19792568654E+02 -0.18307179127E+02  0.95953133632E+02  0.91422354334E+02 0.  0.
         11    1    3    3    0    0  0.32568972953E+02  0.48041108548E+02 -0.59165320481E+01  0.58341164382E+02  0.51100000000E-03 0. -1.
         22    1    1    0    0    0 -0.11048004354E+02 -0.19792568654E+02  0.18307179127E+02  0.29136866368E+02  0.00000000000E+00 0. -1.
</event>
<event>
 5    1  0.1044283E-009  0.9118800E+02  0.7815553E-02  0.1125453E+00
         25   -1    0    0    0    0  0.00000000000E+00  0.00000000000E+00  0.99999998245E-14  0.12509000000E+03  0.12509000000E+03 0.  0.
        -11    1    3    3    0    0 -0.34980006730E+02  0.13671163100E+02 -0.21162186231E+02  0.43108464339E+02  0.51100000000E-03 0. -1.
         23    2    1    0    0    0 -0.18441369316E+02 -0.19774905724E+02  0.14229064392E+02  0.94535175960E+02  0.89461177176E+02 0.  0.
         11    1    3    3    0    0  0.16538637414E+02 -0.33446068824E+02  0.35391250623E+02  0.51426711621E+02  0.51100000000E-03 0.  1.
         22    1    1    0    0    0  0.18441369316E+02  0.19774905724E+02 -0.14229064392E+02  0.30554824040E+02  0.00000000000E+00 0.  1.
</event>
<event>
 5    1  0.1044283E-009  0.9118800E+02  0.7815553E-02  0.1125453E+00
         25   -1    0    0    0    0  0.00000000000E+00  0.00000000000E+00  0.99999998245E-14  0.12509000000E+03  0.12509000000E+03 0.  0.
        -11    1    3    3    0    0  0.23860561647E+02  0.40107308053E+02  0.22661366237E+02  0.51879283740E+02  0.51100000000E-03 0. -1.
         23    2    1    0    0    0  0.30282396017E+02  0.14486791561E+01  0.78511059422E+01  0.93772879373E+02  0.88388861637E+02 0.  0.
         11    1    3    3    0    0  0.64218343701E+01 -0.38658628897E+02 -0.14810260295E+02  0.41893595633E+02  0.51100000000E-03 0.  1.
         22    1    1    0    0    0 -0.30282396017E+02 -0.14486791561E+01 -0.78511059422E+01  0.31317120627E+02  0.00000000000E+00 0. -1.
</event>
<event>
 5    1  0.1044283E-009  0.9118800E+02  0.7815553E-02  0.1125453E+00
         25   -1    0    0    0    0  0.00000000000E+00  0.00000000000E+00  0.99999998245E-14  0.12509000000E+03  0.12509000000E+03 0.  0.
        -11    1    3    3    0    0  0.20956368186E+01 -0.43872101426E+02  0.34469032780E+02  0.55832492316E+02  0.51100000000E-03 0.  1.
         23    2    1    0    0    0 -0.76730880261E+01 -0.77802532532E+01  0.29598371253E+02  0.93538895402E+02  0.88057099382E+02 0.  0.
         11    1    3    3    0    0 -0.97687248447E+01  0.36091848173E+02 -0.48706615264E+01  0.37706403085E+02  0.51100000000E-03 0. -1.
         22    1    1    0    0    0  0.76730880261E+01  0.77802532532E+01 -0.29598371253E+02  0.31551104598E+02  0.00000000000E+00 0.  1.
</event>
<event>
 5    1  0.1044283E-009  0.9118800E+02  0.7815553E-02  0.1125453E+00
         25   -1    0    0    0    0  0.00000000000E+00  0.00000000000E+00  0.99999998245E-14  0.12509000000E+03  0.12509000000E+03 0.  0.
        -11    1    3    3    0    0  0.72220891178E+01 -0.23414296781E+02  0.47463271169E+02  0.53414885335E+02  0.51100000000E-03 0.  1.
         23    2    1    0    0    0  0.90409441507E+00  0.13576510553E+02  0.23485355550E+02  0.97947764447E+02  0.94111973783E+02 0.  0.
         11    1    3    3    0    0 -0.63179947027E+01  0.36990807334E+02 -0.23977915619E+02  0.44532879112E+02  0.51100000000E-03 0. -1.
         22    1    1    0    0    0 -0.90409441507E+00 -0.13576510553E+02 -0.23485355550E+02  0.27142235553E+02  0.00000000000E+00 0. -1.
</event>
<event>
 5    1  0.1044283E-009  0.9118800E+02  0.7815553E-02  0.1125453E+00
         25   -1    0    0    0    0  0.00000000000E+00  0.00000000000E+00  0.99999998245E-14  0.12509000000E+03  0.12509000000E+03 0.  0.
        -11    1    3    3    0    0  0.13081629274E+02 -0.37326420490E+02  0.19579961323E+02  0.44133497219E+02  0.51100000000E-03 0. -1.
         23    2    1    0    0    0  0.28939128673E+02  0.82072251590E+01  0.43556326316E+01  0.94695868185E+02  0.89685585255E+02 0.  0.
         11    1    3    3    0    0  0.15857499399E+02  0.45533645649E+02 -0.15224328692E+02  0.50562370966E+02  0.51100000000E-03 0.  1.
         22    1    1    0    0    0 -0.28939128673E+02 -0.82072251590E+01 -0.43556326316E+01  0.30394131815E+02  0.00000000000E+00 0.  1.
</event>
<event>
 5    1  0.1044283E-009  0.9118800E+02  0.7815553E-02  0.1125453E+00
         25   -1    0    0    0    0  0.00000000000E+00  0.00000000000E+00  0.99999998245E-14  0.12509000000E+03  0.12509000000E+03 0.  0.
        -11    1    3    3    0    0  0.34556148574E+02  0.21578998438E+02 -0.17151453470E+02  0.44203539839E+02  0.51100000000E-03 0. -1.
         23    2    1    0    0    0  0.19832669029E+00 -0.17744663206E+02 -0.22203562086E+02  0.96666232215E+02  0.92392910310E+02 0.  0.
         11    1    3    3    0    0 -0.34357821884E+02 -0.39323661644E+02 -0.50521086159E+01  0.52462692377E+02  0.51100000000E-03 0.  1.
         22    1    1    0    0    0 -0.19832669029E+00  0.17744663206E+02  0.22203562086E+02  0.28423767785E+02  0.00000000000E+00 0.  1.
</event>
<event>
 5    1  0.1044283E-009  0.9118800E+02  0.7815553E-02  0.1125453E+00
         25   -1    0    0    0    0  0.00000000000E+00  0.00000000000E+00  0.99999998245E-14  0.12509000000E+03  0.12509000000E+03 0.  0.
        -11    1    3    3    0    0 -0.37929284989E+01  0.34668862540E+02 -0.57933133795E+01  0.35353625226E+02  0.51100000000E-03 0. -1.
         23    2    1    0    0    0  0.21878647806E+02 -0.19484304258E+02  0.16643495394E+01  0.95745777372E+02  0.91138194424E+02 0.  0.
         11    1    3    3    0    0  0.25671576305E+02 -0.54153166799E+02  0.74576629190E+01  0.60392152146E+02  0.51100000000E-03 0.  1.
         22    1    1    0    0    0 -0.21878647806E+02  0.19484304258E+02 -0.16643495394E+01  0.29344222628E+02  0.00000000000E+00 0.  1.
</event>
<event>
 5    1  0.1044283E-009  0.9118800E+02  0.7815553E-02  0.1125453E+00
         25   -1    0    0    0    0  0.00000000000E+00  0.00000000000E+00  0.99999998245E-14  0.12509000000E+03  0.12509000000E+03 0.  0.
        -11    1    3    3    0    0  0.53576022587E+02 -0.10912639809E+02 -0.21029889496E+02  0.58580988011E+02  0.51100000000E-03 0. -1.
         23    2    1    0    0    0  0.15476015305E+02 -0.16169725518E+02 -0.16448227363E+02  0.97313908547E+02  0.93265671821E+02 0.  0.
         11    1    3    3    0    0 -0.38100007282E+02 -0.52570857090E+01  0.45816621335E+01  0.38732920536E+02  0.51100000000E-03 0.  1.
         22    1    1    0    0    0 -0.15476015305E+02  0.16169725518E+02  0.16448227363E+02  0.27776091453E+02  0.00000000000E+00 0. -1.
</event>
<event>
 5    1  0.1044283E-009  0.9118800E+02  0.7815553E-02  0.1125453E+00
         25   -1    0    0    0    0  0.00000000000E+00  0.00000000000E+00  0.99999998245E-14  0.12509000000E+03  0.12509000000E+03 0.  0.
        -11    1    3    3    0    0  0.25712471350E+02 -0.45300572972E+02 -0.15880277214E+02  0.54456003334E+02  0.51100000000E-03 0. -1.
         23    2    1    0    0    0  0.13226585078E+02 -0.75336591299E+01 -0.25511288101E+02  0.95382687882E+02  0.90638472815E+02 0.  0.
         11    1    3    3    0    0 -0.12485886272E+02  0.37766913842E+02 -0.96310108864E+01  0.40926684548E+02  0.51100000000E-03 0.  1.
         22    1    1    0    0    0 -0.13226585078E+02  0.75336591299E+01  0.25511288101E+02  0.29707312118E+02  0.00000000000E+00 0. -1.
</event>
<event>
 5    1  0.1044283E-009  0.9118800E+02  0.7815553E-02  0.1125453E+00
         25   -1    0    0    0    0  0.00000000000E+00  0.00000000000E+00  0.99999998245E-14  0.12509000000E+03  0.12509000000E+03 0.  0.
        -11    1    3    3    0    0 -0.32234347423E+02 -0.99338643395E+01 -0.35967983606E+00  0.33732242504E+02  0.51100000000E-03 0.  1.
         23    2    1    0    0    0  0.56769676226E+01 -0.30795917662E+02 -0.26310387006E+02  0.84189474693E+02  0.73586783315E+02 0.  0.
         11    1    3    3    0    0  0.37911315046E+02 -0.20862053322E+02 -0.25950707170E+02  0.50457232189E+02  0.51100000000E-03 0. -1.
         22    1    1    0    0    0 -0.56769676226E+01  0.30795917662E+02  0.26310387006E+02  0.40900525307E+02  0.00000000000E+00 0. -1.
</event>
<event>
 5    1  0.1044283E-009  0.9118800E+02  0.7815553E-02  0.1125453E+00
         25   -1    0    0    0    0  0.00000000000E+00  0.00000000000E+00  0.99999998245E-14  0.12509000000E+03  0.12509000000E+03 0.  0.
        -11    1    3    3    0    0 -0.19162079178E+02 -0.16468572592E+02 -0.16611099767E+02  0.30237853716E+02  0.51100000000E-03 0.  1.
         23    2    1    0    0    0  0.17572182296E+02  0.16994132871E+02  0.21242613932E+02  0.92704342845E+02  0.86863481354E+02 0.  0.
         11    1    3    3    0    0  0.36734261474E+02  0.33462705463E+02  0.37853713700E+02  0.62466489129E+02  0.51100000000E-03 0. -1.
         22    1    1    0    0    0 -0.17572182296E+02 -0.16994132871E+02 -0.21242613932E+02  0.32385657155E+02  0.00000000000E+00 0. -1.
</event>
<event>
 5    1  0.1044283E-009  0.9118800E+02  0.7815553E-02  0.1125453E+00
         25   -1    0    0    0    0  0.00000000000E+00  0.00000000000E+00  0.99999998245E-14  0.12509000000E+03  0.12509000000E+03 0.  0.
        -11    1    3    3    0    0 -0.17667660110E+02 -0.18153633513E+02 -0.10923478636E+02  0.27586645487E+02  0.51100000000E-03 0.  1.
         23    2    1    0    0    0  0.34362178270E+02  0.49003345792E+01  0.11160540269E+02  0.88630018739E+02  0.80783352172E+02 0.  0.
         11    1    3    3    0    0  0.52029838380E+02  0.23053968092E+02  0.22084018905E+02  0.61043373251E+02  0.51100000000E-03 0. -1.
         22    1    1    0    0    0 -0.34362178270E+02 -0.49003345792E+01 -0.11160540269E+02  0.36459981261E+02  0.00000000000E+00 0. -1.
</event>
<event>
 5    1  0.1044283E-009  0.9118800E+02  0.7815553E-02  0.1125453E+00
         25   -1    0    0    0    0  0.00000000000E+00  0.00000000000E+00  0.99999998245E-14  0.12509000000E+03  0.12509000000E+03 0.  0.
        -11    1    3    3    0    0 -0.31225329933E+02  0.30473678753E+02 -0.38741147658E+02  0.58348460548E+02  0.51100000000E-03 0. -1.
         23    2    1    0    0    0  0.58631585853E+00  0.19411798470E+02 -0.21260329288E+02  0.96294804436E+02  0.91888661291E+02 0.  0.
         11    1    3    3    0    0  0.31811645791E+02 -0.11061880284E+02  0.17480818370E+02  0.37946343888E+02  0.51100000000E-03 0.  1.
         22    1    1    0    0    0 -0.58631585853E+00 -0.19411798470E+02  0.21260329288E+02  0.28795195564E+02  0.00000000000E+00 0. -1.
</event>
<event>
 5    1  0.1044283E-009  0.9118800E+02  0.7815553E-02  0.1125453E+00
         25   -1    0    0    0    0  0.00000000000E+00  0.00000000000E+00  0.99999998245E-14  0.12509000000E+03  0.12509000000E+03 0.  0.
        -11    1    3    3    0    0  0.22881470972E+02  0.20876374933E+02 -0.27490505891E+02  0.41413918657E+02  0.51100000000E-03 0. -1.
         23    2    1    0    0    0 -0.72033273006E+01  0.19957768156E+02  0.18874572566E+02  0.96691938032E+02  0.92427706652E+02 0.  0.
         11    1    3    3    0    0 -0.30084798272E+02 -0.91860677735E+00  0.46365078457E+02  0.55278019375E+02  0.51100000000E-03 0.  1.
         22    1    1    0    0    0  0.72033273006E+01 -0.19957768156E+02 -0.18874572566E+02  0.28398061968E+02  0.00000000000E+00 0.  1.
</event>
<event>
 5    1  0.1044283E-009  0.9118800E+02  0.7815553E-02  0.1125453E+00
         25   -1    0    0    0    0  0.00000000000E+00  0.00000000000E+00  0.99999998245E-14  0.12509000000E+03  0.12509000000E+03 0.  0.
        -11    1    3    3    0    0 -0.67375679762E+00  0.10426173309E+01 -0.34900067781E+02  0.34922138115E+02  0.51100000000E-03 0.  1.
         23    2    1    0    0    0 -0.37890515179E+01  0.13485564711E+02  0.25136646092E+02  0.96313823330E+02  0.91914548472E+02 0.  0.
         11    1    3    3    0    0 -0.31152947203E+01  0.12442947380E+02  0.60036713873E+02  0.61391685216E+02  0.51100000000E-03 0. -1.
         22    1    1    0    0    0  0.37890515179E+01 -0.13485564711E+02 -0.25136646092E+02  0.28776176670E+02  0.00000000000E+00 0. -1.
</event>
<event>
 5    1  0.1044283E-009  0.9118800E+02  0.7815553E-02  0.1125453E+00
         25   -1    0    0    0    0  0.00000000000E+00  0.00000000000E+00  0.99999998245E-14  0.12509000000E+03  0.12509000000E+03 0.  0.
        -11    1    3    3    0    0  0.38500495586E+02 -0.28980162574E+01  0.45930896827E+02  0.60002782787E+02  0.51100000000E-03 0.  1.
         23    2    1    0    0    0  0.10413754452E+02  0.65645087538E+01  0.27645791802E+02  0.94827335521E+02  0.89868763766E+02 0.  0.
         11    1    3    3    0    0 -0.28086741134E+02  0.94625250112E+01 -0.18285105025E+02  0.34824552734E+02  0.51100000000E-03 0. -1.
         22    1    1    0    0    0 -0.10413754452E+02 -0.65645087538E+01 -0.27645791802E+02  0.30262664479E+02  0.00000000000E+00 0.  1.
</event>
<event>
 5    1  0.1044283E-009  0.9118800E+02  0.7815553E-02  0.1125453E+00
         25   -1    0    0    0    0  0.00000000000E+00  0.00000000000E+00  0.99999998245E-14  0.12509000000E+03  0.12509000000E+03 0.  0.
        -11    1    3    3    0    0  0.13735088250E+01  0.55272357870E+02 -0.30338054095E+00  0.55290253309E+02  0.51100000000E-03 0.  1.
         23    2    1    0    0    0  0.12053358521E+02  0.19511071005E+02 -0.17361460107E+02  0.96325688076E+02  0.91930694237E+02 0.  0.
         11    1    3    3    0    0  0.10679849696E+02 -0.35761286865E+02 -0.17058079566E+02  0.41035434767E+02  0.51100000000E-03 0. -1.
         22    1    1    0    0    0 -0.12053358521E+02 -0.19511071005E+02  0.17361460107E+02  0.28764311924E+02  0.00000000000E+00 0.  1.
</event>
<event>
 5    1  0.1044283E-009  0.9118800E+02  0.7815553E-02  0.1125453E+00
         25   -1    0    0    0    0  0.00000000000E+00  0.00000000000E+00  0.99999998245E-14  0.12509000000E+03  0.12509000000E+03 0.  0.
        -11    1    3    3    0    0  0.61579229228E+01  0.50097035914E+02 -0.15138173988E+02  0.52695325542E+02  0.51100000000E-03 0.  1.
         23    2    1    0    0    0 -0.66142347025E+01  0.25678035810E+02  0.15876454275E+02  0.94184152267E+02  0.88969000861E+02 0.  0.
         11    1    3    3    0    0 -0.12772157625E+02 -0.24419000104E+02  0.31014628263E+02  0.41488826725E+02  0.51100000000E-03 0. -1.
         22    1    1    0    0    0  0.66142347025E+01 -0.25678035810E+02 -0.15876454275E+02  0.30905847733E+02  0.00000000000E+00 0. -1.
</event>
<event>
 5    1  0.1044283E-009  0.9118800E+02  0.7815553E-02  0.1125453E+00
         25   -1    0    0    0    0  0.00000000000E+00  0.00000000000E+00  0.99999998245E-14  0.12509000000E+03  0.12509000000E+03 0.  0.
        -11    1    3    3    0    0  0.25711091551E+02  0.10119279828E+02 -0.33573684827E+02  0.43481632514E+02  0.51100000000E-03 0.  1.
         23    2    1    0    0    0 -0.22280004645E+02  0.13861871195E+02 -0.11380014617E+02  0.96488342484E+02  0.92151752141E+02 0.  0.
         11    1    3    3    0    0 -0.47991096196E+02  0.37425913669E+01  0.22193670210E+02  0.53006709970E+02  0.51100000000E-03 0. -1.
         22    1    1    0    0    0  0.22280004645E+02 -0.13861871195E+02  0.11380014617E+02  0.28601657516E+02  0.00000000000E+00 0. -1.
</event>
<event>
 5    1  0.1044283E-009  0.9118800E+02  0.7815553E-02  0.1125453E+00
         25   -1    0    0    0    0  0.00000000000E+00  0.00000000000E+00  0.99999998245E-14  0.12509000000E+03  0.12509000000E+03 0.  0.
        -11    1    3    3    0    0  0.18664270002E+02 -0.49953458276E+02 -0.21674145168E+02  0.57562761725E+02  0.51100000000E-03 0.  1.
         23    2    1    0    0    0  0.23404092015E+00 -0.15180699632E+02 -0.23670977693E+02  0.96968413960E+02  0.92801129866E+02 0.  0.
         11    1    3    3    0    0 -0.18430229082E+02  0.34772758643E+02 -0.19968325254E+01  0.39405652235E+02  0.51100000000E-03 0. -1.
         22    1    1    0    0    0 -0.23404092015E+00  0.15180699632E+02  0.23670977693E+02  0.28121586040E+02  0.00000000000E+00 0.  1.
</event>
<event>
 5    1  0.1044283E-009  0.9118800E+02  0.7815553E-02  0.1125453E+00
         25   -1    0    0    0    0  0.00000000000E+00  0.00000000000E+00  0.99999998245E-14  0.12509000000E+03  0.12509000000E+03 0.  0.
        -11    1    3    3    0    0 -0.37751588481E+02  0.15024257814E+02  0.12858182709E+02  0.42617409805E+02  0.51100000000E-03 0.  1.
         23    2    1    0    0    0 -0.70357111891E+01 -0.27494831986E+02  0.94343825537E+01  0.95182231911E+02  0.90361400385E+02 0.  0.
         11    1    3    3    0    0  0.30715877292E+02 -0.42519089800E+02 -0.34238001553E+01  0.52564822106E+02  0.51100000000E-03 0. -1.
         22    1    1    0    0    0  0.70357111891E+01  0.27494831986E+02 -0.94343825537E+01  0.29907768089E+02  0.00000000000E+00 0. -1.
</event>
<event>
 5    1  0.1044283E-009  0.9118800E+02  0.7815553E-02  0.1125453E+00
         25   -1    0    0    0    0  0.00000000000E+00  0.00000000000E+00  0.99999998245E-14  0.12509000000E+03  0.12509000000E+03 0.  0.
        -11    1    3    3    0    0  0.29492866856E+02  0.24829012008E+02  0.11453798848E+02  0.40218136966E+02  0.51100000000E-03 0. -1.
         23    2    1    0    0    0  0.52369328882E+01 -0.19752113832E+01 -0.29626568726E+02  0.94939369815E+02  0.90024571314E+02 0.  0.
         11    1    3    3    0    0 -0.24255933968E+02 -0.26804223391E+02 -0.41080367574E+02  0.54721232849E+02  0.51100000000E-03 0.  1.
         22    1    1    0    0    0 -0.52369328882E+01  0.19752113832E+01  0.29626568726E+02  0.30150630185E+02  0.00000000000E+00 0.  1.
</event>
<event>
 5    1  0.1044283E-009  0.9118800E+02  0.7815553E-02  0.1125453E+00
         25   -1    0    0    0    0  0.00000000000E+00  0.00000000000E+00  0.99999998245E-14  0.12509000000E+03  0.12509000000E+03 0.  0.
        -11    1    3    3    0    0 -0.29700081355E+02  0.40280519796E+02  0.37065819548E+02  0.62277524730E+02  0.51100000000E-03 0.  1.
         23    2    1    0    0    0 -0.11132045426E+02  0.21961951354E+02  0.18429595537E+02  0.94334517004E+02  0.89180162391E+02 0.  0.
         11    1    3    3    0    0  0.18568035929E+02 -0.18318568441E+02 -0.18636224011E+02  0.32056992274E+02  0.51100000000E-03 0. -1.
         22    1    1    0    0    0  0.11132045426E+02 -0.21961951354E+02 -0.18429595537E+02  0.30755482996E+02  0.00000000000E+00 0.  1.
</event>
<event>
 5    1  0.1044283E-009  0.9118800E+02  0.7815553E-02  0.1125453E+00
         25   -1    0    0    0    0  0.00000000000E+00  0.00000000000E+00  0.99999998245E-14  0.12509000000E+03  0.12509000000E+03 0.  0.
        -11    1    3    3    0    0  0.35988186560E+02  0.11259598748E+02  0.49325939988E+02  0.62088456993E+02  0.51100000000E-03 0.  1.
         23    2    1    0    0    0  0.15130235025E+02  0.54960123792E+00  0.24911894217E+02  0.95938181070E+02  0.91401892979E+02 0.  0.
         11    1    3    3    0    0 -0.20857951535E+02 -0.10709997510E+02 -0.24414045772E+02  0.33849724077E+02  0.51100000000E-03 0. -1.
         22    1    1    0    0    0 -0.15130235025E+02 -0.54960123792E+00 -0.24911894217E+02  0.29151818930E+02  0.00000000000E+00 0.  1.
</event>
<event>
 5    1  0.1044283E-009  0.9118800E+02  0.7815553E-02  0.1125453E+00
         25   -1    0    0    0    0  0.00000000000E+00  0.00000000000E+00  0.99999998245E-14  0.12509000000E+03  0.12509000000E+03 0.  0.
        -11    1    3    3    0    0 -0.58996152457E+02  0.16493175770E+02  0.54531076864E+01  0.61500465327E+02  0.51100000000E-03 0. -1.
         23    2    1    0    0    0 -0.30127958478E+02  0.13349563453E+00  0.13913863381E+01  0.94929634301E+02  0.90011042708E+02 0.  0.
         11    1    3    3    0    0  0.28868193978E+02 -0.16359680136E+02 -0.40617213482E+01  0.33429168974E+02  0.51100000000E-03 0.  1.
         22    1    1    0    0    0  0.30127958478E+02 -0.13349563453E+00 -0.13913863381E+01  0.30160365699E+02  0.00000000000E+00 0. -1.
</event>
<event>
 5    1  0.1044283E-009  0.9118800E+02  0.7815553E-02  0.1125453E+00
         25   -1    0    0    0    0  0.00000000000E+00  0.00000000000E+00  0.99999998245E-14  0.12509000000E+03  0.12509000000E+03 0.  0.
        -11    1    3    3    0    0 -0.21882292361E+02 -0.26615735351E+02  0.80016830151E+01  0.35373139790E+02  0.51100000000E-03 0.  1.
         23    2    1    0    0    0 -0.81149938596E+01  0.26946927986E+02 -0.12422677572E+02  0.94327799635E+02  0.89170739666E+02 0.  0.
         11    1    3    3    0    0  0.13767298502E+02  0.53562663337E+02 -0.20424360587E+02  0.58954659845E+02  0.51100000000E-03 0. -1.
         22    1    1    0    0    0  0.81149938596E+01 -0.26946927986E+02  0.12422677572E+02  0.30762200365E+02  0.00000000000E+00 0. -1.
</event>
<event>
 5    1  0.1044283E-009  0.9118800E+02  0.7815553E-02  0.1125453E+00
         25   -1    0    0    0    0  0.00000000000E+00  0.00000000000E+00  0.99999998245E-14  0.12509000000E+03  0.12509000000E+03 0.  0.
        -11    1    3    3    0    0 -0.15736734088E+02 -0.53889465049E+01 -0.53505145059E+02  0.56031117178E+02  0.51100000000E-03 0. -1.
         23    2    1    0    0    0 -0.16449158578E+01  0.17011773663E+02 -0.23370320560E+02  0.96136967786E+02  0.91673543079E+02 0.  0.
         11    1    3    3    0    0  0.14091818230E+02  0.22400720168E+02  0.30134824499E+02  0.40105850607E+02  0.51100000000E-03 0.  1.
         22    1    1    0    0    0  0.16449158578E+01 -0.17011773663E+02  0.23370320560E+02  0.28953032214E+02  0.00000000000E+00 0. -1.
</event>
<event>
 5    1  0.1044283E-009  0.9118800E+02  0.7815553E-02  0.1125453E+00
         25   -1    0    0    0    0  0.00000000000E+00  0.00000000000E+00  0.99999998245E-14  0.12509000000E+03  0.12509000000E+03 0.  0.
        -11    1    3    3    0    0 -0.20981479179E+02  0.35696334874E+02 -0.12249684692E+02  0.43179920881E+02  0.51100000000E-03 0. -1.
         23    2    1    0    0    0 -0.22918657992E+02 -0.90582158113E-01  0.22408878983E+02  0.93036436289E+02  0.87340411786E+02 0.  0.
         11    1    3    3    0    0 -0.19371788129E+01 -0.35786917032E+02  0.34658563676E+02  0.49856515409E+02  0.51100000000E-03 0.  1.
         22    1    1    0    0    0  0.22918657992E+02  0.90582158113E-01 -0.22408878983E+02  0.32053563711E+02  0.00000000000E+00 0. -1.
</event>
<event>
 5    1  0.1044283E-009  0.9118800E+02  0.7815553E-02  0.1125453E+00
         25   -1    0    0    0    0  0.00000000000E+00  0.00000000000E+00  0.99999998245E-14  0.12509000000E+03  0.12509000000E+03 0.  0.
        -11    1    3    3    0    0 -0.32188172717E+02 -0.37337352851E+02 -0.30273077821E+02  0.57849940551E+02  0.51100000000E-03 0.  1.
         23    2    1    0    0    0  0.77563985577E+00 -0.16152402972E+02 -0.21811946610E+02  0.97937417178E+02  0.94098219588E+02 0.  0.
         11    1    3    3    0    0  0.32963812573E+02  0.21184949878E+02  0.84611312109E+01  0.40087476627E+02  0.51100000000E-03 0. -1.
         22    1    1    0    0    0 -0.77563985577E+00  0.16152402972E+02  0.21811946610E+02  0.27152582822E+02  0.00000000000E+00 0.  1.
</event>
<event>
 5    1  0.1044283E-009  0.9118800E+02  0.7815553E-02  0.1125453E+00
         25   -1    0    0    0    0  0.00000000000E+00  0.00000000000E+00  0.99999998245E-14  0.12509000000E+03  0.12509000000E+03 0.  0.
        -11    1    3    3    0    0  0.30844643392E+01  0.51025871444E+02  0.27785609981E+00  0.51119768007E+02  0.51100000000E-03 0. -1.
         23    2    1    0    0    0  0.69461630448E+01  0.15121471816E+02 -0.24899529170E+02  0.95141800659E+02  0.90305412843E+02 0.  0.
         11    1    3    3    0    0  0.38616987055E+01 -0.35904399628E+02 -0.25177385269E+02  0.44022032651E+02  0.51100000000E-03 0.  1.
         22    1    1    0    0    0 -0.69461630448E+01 -0.15121471816E+02  0.24899529170E+02  0.29948199341E+02  0.00000000000E+00 0. -1.
</event>
<event>
 5    1  0.1044283E-009  0.9118800E+02  0.7815553E-02  0.1125453E+00
         25   -1    0    0    0    0  0.00000000000E+00  0.00000000000E+00  0.99999998245E-14  0.12509000000E+03  0.12509000000E+03 0.  0.
        -11    1    3    3    0    0  0.19174195499E+02  0.33188124077E+02 -0.43333060460E+02  0.57852013638E+02  0.51100000000E-03 0. -1.
         23    2    1    0    0    0  0.79146282072E+01  0.15492237918E+02  0.17798194395E+01  0.10760233199E+03  0.10617176327E+03 0.  0.
         11    1    3    3    0    0 -0.11259567292E+02 -0.17695886159E+02  0.45112879900E+02  0.49750318348E+02  0.51100000000E-03 0.  1.
         22    1    1    0    0    0 -0.79146282072E+01 -0.15492237918E+02 -0.17798194395E+01  0.17487668015E+02  0.00000000000E+00 0. -1.
</event>
<event>
 5    1  0.1044283E-009  0.9118800E+02  0.7815553E-02  0.1125453E+00
         25   -1    0    0    0    0  0.00000000000E+00  0.00000000000E+00  0.99999998245E-14  0.12509000000E+03  0.12509000000E+03 0.  0.
        -11    1    3    3    0    0 -0.78158203937E+01 -0.88796263425E+01  0.33398329274E+02  0.35431387370E+02  0.51100000000E-03 0.  1.
         23    2    1    0    0    0 -0.10630320352E+02  0.35284492476E+01 -0.26317798256E+02  0.96487899204E+02  0.92151150415E+02 0.  0.
         11    1    3    3    0    0 -0.28144999579E+01  0.12408075590E+02 -0.59716127530E+02  0.61056511834E+02  0.51100000000E-03 0. -1.
         22    1    1    0    0    0  0.10630320352E+02 -0.35284492476E+01  0.26317798256E+02  0.28602100796E+02  0.00000000000E+00 0. -1.
</event>
<event>
 5    1  0.1044283E-009  0.9118800E+02  0.7815553E-02  0.1125453E+00
         25   -1    0    0    0    0  0.00000000000E+00  0.00000000000E+00  0.99999998245E-14  0.12509000000E+03  0.12509000000E+03 0.  0.
        -11    1    3    3    0    0  0.23885242304E+02  0.14929398849E+02  0.20576195737E+02  0.34882253098E+02  0.51100000000E-03 0. -1.
         23    2    1    0    0    0  0.34811157102E+01 -0.24104144718E+02 -0.19082068778E+02  0.94150489532E+02  0.88921658616E+02 0.  0.
         11    1    3    3    0    0 -0.20404126594E+02 -0.39033543567E+02 -0.39658264514E+02  0.59268236434E+02  0.51100000000E-03 0.  1.
         22    1    1    0    0    0 -0.34811157102E+01  0.24104144718E+02  0.19082068778E+02  0.30939510468E+02  0.00000000000E+00 0.  1.
</event>
<event>
 5    1  0.1044283E-009  0.9118800E+02  0.7815553E-02  0.1125453E+00
         25   -1    0    0    0    0  0.00000000000E+00  0.00000000000E+00  0.99999998245E-14  0.12509000000E+03  0.12509000000E+03 0.  0.
        -11    1    3    3    0    0 -0.18415155673E+02 -0.44428366668E+02 -0.27005763959E+02  0.55157130188E+02  0.51100000000E-03 0.  1.
         23    2    1    0    0    0 -0.25230962641E+02 -0.66296305197E+01 -0.10252711274E+02  0.97060166517E+02  0.92924724154E+02 0.  0.
         11    1    3    3    0    0 -0.68158069686E+01  0.37798736148E+02  0.16753052686E+02  0.41903036329E+02  0.51100000000E-03 0. -1.
         22    1    1    0    0    0  0.25230962641E+02  0.66296305197E+01  0.10252711274E+02  0.28029833483E+02  0.00000000000E+00 0.  1.
</event>
<event>
 5    1  0.1044283E-009  0.9118800E+02  0.7815553E-02  0.1125453E+00
         25   -1    0    0    0    0  0.00000000000E+00  0.00000000000E+00  0.99999998245E-14  0.12509000000E+03  0.12509000000E+03 0.  0.
        -11    1    3    3    0    0 -0.58306359074E+01  0.33290052680E+02 -0.38298850277E+02  0.51078624251E+02  0.51100000000E-03 0.  1.
         23    2    1    0    0    0 -0.93991239645E+01  0.22926277578E+02  0.83072922788E+01  0.98956327470E+02  0.95443102980E+02 0.  0.
         11    1    3    3    0    0 -0.35684880571E+01 -0.10363775102E+02  0.46606142556E+02  0.47877703220E+02  0.51100000000E-03 0. -1.
         22    1    1    0    0    0  0.93991239645E+01 -0.22926277578E+02 -0.83072922788E+01  0.26133672530E+02  0.00000000000E+00 0. -1.
</event>
<event>
 5    1  0.1044283E-009  0.9118800E+02  0.7815553E-02  0.1125453E+00
         25   -1    0    0    0    0  0.00000000000E+00  0.00000000000E+00  0.99999998245E-14  0.12509000000E+03  0.12509000000E+03 0.  0.
        -11    1    3    3    0    0  0.87350815223E+01 -0.24613341128E+02  0.37193537045E+02  0.45447523682E+02  0.51100000000E-03 0.  1.
         23    2    1    0    0    0  0.22834505163E+02 -0.18320982270E+02 -0.92479109172E+01  0.94388259436E+02  0.89255513250E+02 0.  0.
         11    1    3    3    0    0  0.14099423640E+02  0.62923588585E+01 -0.46441447962E+02  0.48940735753E+02  0.51100000000E-03 0. -1.
         22    1    1    0    0    0 -0.22834505163E+02  0.18320982270E+02  0.92479109172E+01  0.30701740564E+02  0.00000000000E+00 0.  1.
</event>
<event>
 5    1  0.1044283E-009  0.9118800E+02  0.7815553E-02  0.1125453E+00
         25   -1    0    0    0    0  0.00000000000E+00  0.00000000000E+00  0.99999998245E-14  0.12509000000E+03  0.12509000000E+03 0.  0.
        -11    1    3    3    0    0 -0.38277836221E+02  0.11968403134E+02  0.56885237790E+01  0.40506724409E+02  0.51100000000E-03 0. -1.
         23    2    1    0    0    0  0.88071213423E+01  0.18622273397E+02 -0.21525194331E+02  0.95295899178E+02  0.90518616628E+02 0.  0.
         11    1    3    3    0    0  0.47084957563E+02  0.66538702636E+01 -0.27213718110E+02  0.54789174769E+02  0.51100000000E-03 0.  1.
         22    1    1    0    0    0 -0.88071213423E+01 -0.18622273397E+02  0.21525194331E+02  0.29794100822E+02  0.00000000000E+00 0.  1.
</event>
<event>
 5    1  0.1044283E-009  0.9118800E+02  0.7815553E-02  0.1125453E+00
         25   -1    0    0    0    0  0.00000000000E+00  0.00000000000E+00  0.99999998245E-14  0.12509000000E+03  0.12509000000E+03 0.  0.
        -11    1    3    3    0    0 -0.35384807441E+02 -0.18478792974E+02 -0.37458055558E+02  0.54741723702E+02  0.51100000000E-03 0. -1.
         23    2    1    0    0    0 -0.99266318721E+01 -0.29823664436E+02 -0.16678666792E+02  0.89506760874E+02  0.82129734783E+02 0.  0.
         11    1    3    3    0    0  0.25458175569E+02 -0.11344871462E+02  0.20779388766E+02  0.34765037172E+02  0.51100000000E-03 0.  1.
         22    1    1    0    0    0  0.99266318721E+01  0.29823664436E+02  0.16678666792E+02  0.35583239126E+02  0.00000000000E+00 0. -1.
</event>
<event>
 5    1  0.1044283E-009  0.9118800E+02  0.7815553E-02  0.1125453E+00
         25   -1    0    0    0    0  0.00000000000E+00  0.00000000000E+00  0.99999998245E-14  0.12509000000E+03  0.12509000000E+03 0.  0.
        -11    1    3    3    0    0 -0.34152757781E+02 -0.80645037803E+01 -0.14207818059E+02  0.37859069977E+02  0.51100000000E-03 0. -1.
         23    2    1    0    0    0  0.75644020232E+01 -0.94842348125E+01  0.26363788732E+02  0.96068968932E+02  0.91580710564E+02 0.  0.
         11    1    3    3    0    0  0.41717159805E+02 -0.14197310322E+01  0.40571606791E+02  0.58209898954E+02  0.51100000000E-03 0.  1.
         22    1    1    0    0    0 -0.75644020232E+01  0.94842348125E+01 -0.26363788732E+02  0.29021031068E+02  0.00000000000E+00 0.  1.
</event>
<event>
 5    1  0.1044283E-009  0.9118800E+02  0.7815553E-02  0.1125453E+00
         25   -1    0    0    0    0  0.00000000000E+00  0.00000000000E+00  0.99999998245E-14  0.12509000000E+03  0.12509000000E+03 0.  0.
        -11    1    3    3    0    0  0.66681338353E+00 -0.13237910398E+02 -0.53200459745E+02  0.54826780218E+02  0.51100000000E-03 0.  1.
         23    2    1    0    0    0  0.62258298880E+01 -0.25829948049E+02 -0.17021650603E+02  0.93535542894E+02  0.88052336830E+02 0.  0.
         11    1    3    3    0    0  0.55590165044E+01 -0.12592037651E+02  0.36178809142E+02  0.38708762676E+02  0.51100000000E-03 0. -1.
         22    1    1    0    0    0 -0.62258298880E+01  0.25829948049E+02  0.17021650603E+02  0.31554457106E+02  0.00000000000E+00 0.  1.
</event>
<event>
 5    1  0.1044283E-009  0.9118800E+02  0.7815553E-02  0.1125453E+00
         25   -1    0    0    0    0  0.00000000000E+00  0.00000000000E+00  0.99999998245E-14  0.12509000000E+03  0.12509000000E+03 0.  0.
        -11    1    3    3    0    0 -0.97424379994E+01 -0.10761778800E+01  0.36810772152E+02  0.38093387926E+02  0.51100000000E-03 0. -1.
         23    2    1    0    0    0 -0.46073323413E+01  0.25087339380E+02 -0.14377981701E+02  0.95809828104E+02  0.91226063683E+02 0.  0.
         11    1    3    3    0    0  0.51351056581E+01  0.26163517260E+02 -0.51188753853E+02  0.57716440178E+02  0.51100000000E-03 0.  1.
         22    1    1    0    0    0  0.46073323413E+01 -0.25087339380E+02  0.14377981701E+02  0.29280171896E+02  0.00000000000E+00 0.  1.
</event>
<event>
 5    1  0.1044283E-009  0.9118800E+02  0.7815553E-02  0.1125453E+00
         25   -1    0    0    0    0  0.00000000000E+00  0.00000000000E+00  0.99999998245E-14  0.12509000000E+03  0.12509000000E+03 0.  0.
        -11    1    3    3    0    0  0.42956342479E+02 -0.87385090058E+01  0.56624958451E+01  0.44200370567E+02  0.51100000000E-03 0.  1.
         23    2    1    0    0    0  0.50736540888E+01  0.26942116659E+02 -0.47325734586E+01  0.97268841372E+02  0.93205207121E+02 0.  0.
         11    1    3    3    0    0 -0.37882688390E+02  0.35680625664E+02 -0.10395069304E+02  0.53068470805E+02  0.51100000000E-03 0. -1.
         22    1    1    0    0    0 -0.50736540888E+01 -0.26942116659E+02  0.47325734586E+01  0.27821158628E+02  0.00000000000E+00 0.  1.
</event>
<event>
 5    1  0.1044283E-009  0.9118800E+02  0.7815553E-02  0.1125453E+00
         25   -1    0    0    0    0  0.00000000000E+00  0.00000000000E+00  0.99999998245E-14  0.12509000000E+03  0.12509000000E+03 0.  0.
        -11    1    3    3    0    0 -0.33999922051E+02  0.11378597758E+02 -0.13110761692E+02  0.38175375032E+02  0.51100000000E-03 0.  1.
         23    2    1    0    0    0  0.23515314593E+01 -0.13481890715E+02  0.25113447364E+02  0.96489714757E+02  0.92153614893E+02 0.  0.
         11    1    3    3    0    0  0.36351453510E+02 -0.24860488473E+02  0.38224209056E+02  0.58314339726E+02  0.51100000000E-03 0. -1.
         22    1    1    0    0    0 -0.23515314593E+01  0.13481890715E+02 -0.25113447364E+02  0.28600285243E+02  0.00000000000E+00 0. -1.
</event>
<event>
 5    1  0.1044283E-009  0.9118800E+02  0.7815553E-02  0.1125453E+00
         25   -1    0    0    0    0  0.00000000000E+00  0.00000000000E+00  0.99999998245E-14  0.12509000000E+03  0.12509000000E+03 0.  0.
        -11    1    3    3    0    0  0.66169918140E+01  0.11870191821E+02  0.44444000703E+02  0.46475318539E+02  0.51100000000E-03 0. -1.
         23    2    1    0    0    0 -0.25023945293E+01 -0.25866547834E+02  0.16548140785E+02  0.94281214911E+02  0.89105365980E+02 0.  0.
         11    1    3    3    0    0 -0.91193863432E+01 -0.37736739655E+02 -0.27895859918E+02  0.47805896372E+02  0.51100000000E-03 0.  1.
         22    1    1    0    0    0  0.25023945293E+01  0.25866547834E+02 -0.16548140785E+02  0.30808785089E+02  0.00000000000E+00 0.  1.
</event>
<event>
 5    1  0.1044283E-009  0.9118800E+02  0.7815553E-02  0.1125453E+00
         25   -1    0    0    0    0  0.00000000000E+00  0.00000000000E+00  0.99999998245E-14  0.12509000000E+03  0.12509000000E+03 0.  0.
        -11    1    3    3    0    0 -0.13990613655E+02  0.16245528583E+01 -0.27153013465E+02  0.30588602173E+02  0.51100000000E-03 0.  1.
         23    2    1    0    0    0  0.31155206530E+02  0.17119924206E+02  0.64484511801E+01  0.88960770540E+02  0.81293895673E+02 0.  0.
         11    1    3    3    0    0  0.45145820185E+02  0.15495371348E+02  0.33601464645E+02  0.58372168367E+02  0.51100000000E-03 0. -1.
         22    1    1    0    0    0 -0.31155206530E+02 -0.17119924206E+02 -0.64484511801E+01  0.36129229460E+02  0.00000000000E+00 0. -1.
</event>
<event>
 5    1  0.1044283E-009  0.9118800E+02  0.7815553E-02  0.1125453E+00
         25   -1    0    0    0    0  0.00000000000E+00  0.00000000000E+00  0.99999998245E-14  0.12509000000E+03  0.12509000000E+03 0.  0.
        -11    1    3    3    0    0 -0.11916957192E+02 -0.38541177888E+02  0.54005517746E+01  0.40701378618E+02  0.51100000000E-03 0. -1.
         23    2    1    0    0    0  0.24650454812E+02 -0.53025248045E+01 -0.16712570456E+02  0.94839847885E+02  0.89886178269E+02 0.  0.
         11    1    3    3    0    0  0.36567412004E+02  0.33238653083E+02 -0.22113122231E+02  0.54138469267E+02  0.51100000000E-03 0.  1.
         22    1    1    0    0    0 -0.24650454812E+02  0.53025248045E+01  0.16712570456E+02  0.30250152115E+02  0.00000000000E+00 0.  1.
</event>
<event>
 5    1  0.1044283E-009  0.9118800E+02  0.7815553E-02  0.1125453E+00
         25   -1    0    0    0    0  0.00000000000E+00  0.00000000000E+00  0.99999998245E-14  0.12509000000E+03  0.12509000000E+03 0.  0.
        -11    1    3    3    0    0  0.77663028185E+01  0.30575642729E+02  0.13168876976E+02  0.34184860814E+02  0.51100000000E-03 0.  1.
         23    2    1    0    0    0  0.13686380710E+02 -0.26355248244E+02 -0.64665409986E+01  0.94697035692E+02  0.89687213634E+02 0.  0.
         11    1    3    3    0    0  0.59200778912E+01 -0.56930890973E+02 -0.19635417974E+02  0.60512174879E+02  0.51100000000E-03 0. -1.
         22    1    1    0    0    0 -0.13686380710E+02  0.26355248244E+02  0.64665409986E+01  0.30392964308E+02  0.00000000000E+00 0. -1.
</event>
<event>
 5    1  0.1044283E-009  0.9118800E+02  0.7815553E-02  0.1125453E+00
         25   -1    0    0    0    0  0.00000000000E+00  0.00000000000E+00  0.99999998245E-14  0.12509000000E+03  0.12509000000E+03 0.  0.
        -11    1    3    3    0    0  0.16048489426E+02 -0.15119591426E+02  0.28198147220E+02  0.35795133253E+02  0.51100000000E-03 0. -1.
         23    2    1    0    0    0  0.54354819445E+01  0.43810772282E+01 -0.28006823148E+02  0.96226174119E+02  0.91795185827E+02 0.  0.
         11    1    3    3    0    0 -0.10613007482E+02  0.19500668654E+02 -0.56204970368E+02  0.60431040865E+02  0.51100000000E-03 0.  1.
         22    1    1    0    0    0 -0.54354819445E+01 -0.43810772282E+01  0.28006823148E+02  0.28863825881E+02  0.00000000000E+00 0.  1.
</event>
<event>
 5    1  0.1044283E-009  0.9118800E+02  0.7815553E-02  0.1125453E+00
         25   -1    0    0    0    0  0.00000000000E+00  0.00000000000E+00  0.99999998245E-14  0.12509000000E+03  0.12509000000E+03 0.  0.
        -11    1    3    3    0    0  0.13271199569E+02 -0.37596993122E+02  0.14680273647E+02  0.42487281207E+02  0.51100000000E-03 0.  1.
         23    2    1    0    0    0  0.11608045892E+01 -0.12977634849E+02 -0.28560393411E+02  0.93697922252E+02  0.88282716819E+02 0.  0.
         11    1    3    3    0    0 -0.12110394979E+02  0.24619358273E+02 -0.43240667058E+02  0.51210641045E+02  0.51100000000E-03 0. -1.
         22    1    1    0    0    0 -0.11608045892E+01  0.12977634849E+02  0.28560393411E+02  0.31392077748E+02  0.00000000000E+00 0. -1.
</event>
<event>
 5    1  0.1044283E-009  0.9118800E+02  0.7815553E-02  0.1125453E+00
         25   -1    0    0    0    0  0.00000000000E+00  0.00000000000E+00  0.99999998245E-14  0.12509000000E+03  0.12509000000E+03 0.  0.
        -11    1    3    3    0    0 -0.53558095403E+02 -0.59954954414E+01 -0.30786279663E+02  0.62066178910E+02  0.51100000000E-03 0.  1.
         23    2    1    0    0    0 -0.28555194853E+02 -0.58277938573E+01 -0.11045360505E+02  0.93923313891E+02  0.88601504328E+02 0.  0.
         11    1    3    3    0    0  0.25002900549E+02  0.16770158411E+00  0.19740919158E+02  0.31857134981E+02  0.51100000000E-03 0. -1.
         22    1    1    0    0    0  0.28555194853E+02  0.58277938573E+01  0.11045360505E+02  0.31166686109E+02  0.00000000000E+00 0.  1.
</event>
<event>
 5    1  0.1044283E-009  0.9118800E+02  0.7815553E-02  0.1125453E+00
         25   -1    0    0    0    0  0.00000000000E+00  0.00000000000E+00  0.99999998245E-14  0.12509000000E+03  0.12509000000E+03 0.  0.
        -11    1    3    3    0    0 -0.30934019636E+02  0.33992629841E+02 -0.33591417653E+02  0.56927987796E+02  0.51100000000E-03 0. -1.
         23    2    1    0    0    0 -0.21737557121E+02  0.22066249712E+02  0.40672435959E+00  0.94112488953E+02  0.88868185457E+02 0.  0.
         11    1    3    3    0    0  0.91964625146E+01 -0.11926380129E+02  0.33998142012E+02  0.37184501157E+02  0.51100000000E-03 0.  1.
         22    1    1    0    0    0  0.21737557121E+02 -0.22066249712E+02 -0.40672435959E+00  0.30977511047E+02  0.00000000000E+00 0. -1.
</event>
<event>
 5    1  0.1044283E-009  0.9118800E+02  0.7815553E-02  0.1125453E+00
         25   -1    0    0    0    0  0.00000000000E+00  0.00000000000E+00  0.99999998245E-14  0.12509000000E+03  0.12509000000E+03 0.  0.
        -11    1    3    3    0    0  0.95736612969E+01  0.34135482000E+02 -0.13846974817E+02  0.38060804430E+02  0.51100000000E-03 0. -1.
         23    2    1    0    0    0  0.98335659257E+01 -0.24722934640E+02 -0.84825028653E+01  0.97163751220E+02  0.93064059552E+02 0.  0.
         11    1    3    3    0    0  0.25990462882E+00 -0.58858416640E+02  0.53644719520E+01  0.59102946791E+02  0.51100000000E-03 0.  1.
         22    1    1    0    0    0 -0.98335659257E+01  0.24722934640E+02  0.84825028653E+01  0.27926248780E+02  0.00000000000E+00 0.  1.
</event>
<event>
 5    1  0.1044283E-009  0.9118800E+02  0.7815553E-02  0.1125453E+00
         25   -1    0    0    0    0  0.00000000000E+00  0.00000000000E+00  0.99999998245E-14  0.12509000000E+03  0.12509000000E+03 0.  0.
        -11    1    3    3    0    0  0.22818243319E+02  0.10856735997E+02 -0.41337930665E+02  0.48449617714E+02  0.51100000000E-03 0. -1.
         23    2    1    0    0    0  0.27519771160E+02  0.99347564908E+01  0.53193717968E+01  0.95352264586E+02  0.90596475947E+02 0.  0.
         11    1    3    3    0    0  0.47015278411E+01 -0.92197950660E+00  0.46657302462E+02  0.46902646872E+02  0.51100000000E-03 0.  1.
         22    1    1    0    0    0 -0.27519771160E+02 -0.99347564908E+01 -0.53193717968E+01  0.29737735414E+02  0.00000000000E+00 0.  1.
</event>
<event>
 5    1  0.1044283E-009  0.9118800E+02  0.7815553E-02  0.1125453E+00
         25   -1    0    0    0    0  0.00000000000E+00  0.00000000000E+00  0.99999998245E-14  0.12509000000E+03  0.12509000000E+03 0.  0.
        -11    1    3    3    0    0 -0.33212910481E+02 -0.24007197379E+02 -0.45632258934E+02  0.61333074310E+02  0.51100000000E-03 0. -1.
         23    2    1    0    0    0 -0.98443296836E+01 -0.17509628602E+02 -0.23575887752E+02  0.94117102105E+02  0.88874678647E+02 0.  0.
         11    1    3    3    0    0  0.23368580797E+02  0.64975687771E+01  0.22056371182E+02  0.32784027795E+02  0.51100000000E-03 0.  1.
         22    1    1    0    0    0  0.98443296836E+01  0.17509628602E+02  0.23575887752E+02  0.30972897895E+02  0.00000000000E+00 0. -1.
</event>
<event>
 5    1  0.1044283E-009  0.9118800E+02  0.7815553E-02  0.1125453E+00
         25   -1    0    0    0    0  0.00000000000E+00  0.00000000000E+00  0.99999998245E-14  0.12509000000E+03  0.12509000000E+03 0.  0.
        -11    1    3    3    0    0  0.51797330287E+01 -0.25148389578E+02  0.33405897003E+02  0.42133420077E+02  0.51100000000E-03 0.  1.
         23    2    1    0    0    0 -0.11529653170E+02 -0.30220980415E+02 -0.11850433164E+02  0.90641874860E+02  0.83840778577E+02 0.  0.
         11    1    3    3    0    0 -0.16709386199E+02 -0.50725908375E+01 -0.45256330167E+02  0.48508454783E+02  0.51100000000E-03 0. -1.
         22    1    1    0    0    0  0.11529653170E+02  0.30220980415E+02  0.11850433164E+02  0.34448125140E+02  0.00000000000E+00 0. -1.
</event>
<event>
 5    1  0.1044283E-009  0.9118800E+02  0.7815553E-02  0.1125453E+00
         25   -1    0    0    0    0  0.00000000000E+00  0.00000000000E+00  0.99999998245E-14  0.12509000000E+03  0.12509000000E+03 0.  0.
        -11    1    3    3    0    0  0.32017613507E+02  0.36608768402E+02  0.31454613176E+02  0.57919963648E+02  0.51100000000E-03 0.  1.
         23    2    1    0    0    0  0.25847036123E+02  0.41115314285E+01  0.11963892278E+02  0.96313122381E+02  0.91913594518E+02 0.  0.
         11    1    3    3    0    0 -0.61705773840E+01 -0.32497236973E+02 -0.19490720898E+02  0.38393158733E+02  0.51100000000E-03 0. -1.
         22    1    1    0    0    0 -0.25847036123E+02 -0.41115314285E+01 -0.11963892278E+02  0.28776877619E+02  0.00000000000E+00 0.  1.
</event>
<event>
 5    1  0.1044283E-009  0.9118800E+02  0.7815553E-02  0.1125453E+00
         25   -1    0    0    0    0  0.00000000000E+00  0.00000000000E+00  0.99999998245E-14  0.12509000000E+03  0.12509000000E+03 0.  0.
        -11    1    3    3    0    0  0.38436992303E+02 -0.31761424277E+00  0.24092173548E+02  0.45364480408E+02  0.51100000000E-03 0. -1.
         23    2    1    0    0    0 -0.57406382050E+01 -0.23857258427E+02  0.15255360296E+02  0.96196233814E+02  0.91754376874E+02 0.  0.
         11    1    3    3    0    0 -0.44177630508E+02 -0.23539644184E+02 -0.88368132523E+01  0.50831753406E+02  0.51100000000E-03 0.  1.
         22    1    1    0    0    0  0.57406382050E+01  0.23857258427E+02 -0.15255360296E+02  0.28893766186E+02  0.00000000000E+00 0.  1.
</event>
<event>
 5    1  0.1044283E-009  0.9118800E+02  0.7815553E-02  0.1125453E+00
         25   -1    0    0    0    0  0.00000000000E+00  0.00000000000E+00  0.99999998245E-14  0.12509000000E+03  0.12509000000E+03 0.  0.
        -11    1    3    3    0    0  0.53675945933E+02  0.18100671009E+02 -0.11108664685E+02  0.57724725154E+02  0.51100000000E-03 0. -1.
         23    2    1    0    0    0  0.25105481991E+02  0.84616830218E+01  0.12284055888E+02  0.95887545743E+02  0.91332568638E+02 0.  0.
         11    1    3    3    0    0 -0.28570463942E+02 -0.96389879872E+01  0.23392720573E+02  0.38162820589E+02  0.51100000000E-03 0.  1.
         22    1    1    0    0    0 -0.25105481991E+02 -0.84616830218E+01 -0.12284055888E+02  0.29202454257E+02  0.00000000000E+00 0. -1.
</event>
<event>
 5    1  0.1044283E-009  0.9118800E+02  0.7815553E-02  0.1125453E+00
         25   -1    0    0    0    0  0.00000000000E+00  0.00000000000E+00  0.99999998245E-14  0.12509000000E+03  0.12509000000E+03 0.  0.
        -11    1    3    3    0    0  0.52176214811E+02 -0.75466207257E+01 -0.33644050474E+02  0.62539835377E+02  0.51100000000E-03 0. -1.
         23    2    1    0    0    0  0.25534624192E+02 -0.32980922489E+01 -0.16918140075E+02  0.94282242719E+02  0.89106808850E+02 0.  0.
         11    1    3    3    0    0 -0.26641590619E+02  0.42485284768E+01  0.16725910399E+02  0.31742407342E+02  0.51100000000E-03 0.  1.
         22    1    1    0    0    0 -0.25534624192E+02  0.32980922489E+01  0.16918140075E+02  0.30807757281E+02  0.00000000000E+00 0. -1.
</event>
<event>
 5    1  0.1044283E-009  0.9118800E+02  0.7815553E-02  0.1125453E+00
         25   -1    0    0    0    0  0.00000000000E+00  0.00000000000E+00  0.99999998245E-14  0.12509000000E+03  0.12509000000E+03 0.  0.
        -11    1    3    3    0    0  0.30416860525E+02  0.18230106788E+01 -0.53020280870E+02  0.61152751009E+02  0.51100000000E-03 0. -1.
         23    2    1    0    0    0  0.66418573792E+01  0.56580129789E+01 -0.27487726694E+02  0.96250747251E+02  0.91828665717E+02 0.  0.
         11    1    3    3    0    0 -0.23775003146E+02  0.38350023002E+01  0.25532554176E+02  0.35097996243E+02  0.51100000000E-03 0.  1.
         22    1    1    0    0    0 -0.66418573792E+01 -0.56580129789E+01  0.27487726694E+02  0.28839252749E+02  0.00000000000E+00 0. -1.
</event>
<event>
 5    1  0.1044283E-009  0.9118800E+02  0.7815553E-02  0.1125453E+00
         25   -1    0    0    0    0  0.00000000000E+00  0.00000000000E+00  0.99999998245E-14  0.12509000000E+03  0.12509000000E+03 0.  0.
        -11    1    3    3    0    0 -0.31078041857E+02  0.13444691652E+02 -0.38903692498E+02  0.51576173855E+02  0.51100000000E-03 0. -1.
         23    2    1    0    0    0 -0.14771545183E+02  0.23467967841E+02  0.25576348990E+01  0.97242458674E+02  0.93169792374E+02 0.  0.
         11    1    3    3    0    0  0.16306496674E+02  0.10023276189E+02  0.41461327397E+02  0.45666284819E+02  0.51100000000E-03 0.  1.
         22    1    1    0    0    0  0.14771545183E+02 -0.23467967841E+02 -0.25576348990E+01  0.27847541326E+02  0.00000000000E+00 0. -1.
</event>
<event>
 5    1  0.1044283E-009  0.9118800E+02  0.7815553E-02  0.1125453E+00
         25   -1    0    0    0    0  0.00000000000E+00  0.00000000000E+00  0.99999998245E-14  0.12509000000E+03  0.12509000000E+03 0.  0.
        -11    1    3    3    0    0  0.36526113461E+02 -0.26716739272E+02 -0.31565723832E+02  0.55175502202E+02  0.51100000000E-03 0. -1.
         23    2    1    0    0    0  0.16603472507E+01 -0.27456229990E+02 -0.14261335650E+02  0.94106342811E+02  0.88859533785E+02 0.  0.
         11    1    3    3    0    0 -0.34865766210E+02 -0.73949071812E+00  0.17304388182E+02  0.38930840610E+02  0.51100000000E-03 0.  1.
         22    1    1    0    0    0 -0.16603472507E+01  0.27456229990E+02  0.14261335650E+02  0.30983657189E+02  0.00000000000E+00 0. -1.
</event>
<event>
 5    1  0.1044283E-009  0.9118800E+02  0.7815553E-02  0.1125453E+00
         25   -1    0    0    0    0  0.00000000000E+00  0.00000000000E+00  0.99999998245E-14  0.12509000000E+03  0.12509000000E+03 0.  0.
        -11    1    3    3    0    0  0.37879214208E+02 -0.13695415190E+02 -0.17520185100E+01  0.40317103509E+02  0.51100000000E-03 0.  1.
         23    2    1    0    0    0 -0.10734179060E+02 -0.95280102992E+01  0.25223121283E+02  0.96069120833E+02  0.91580918045E+02 0.  0.
         11    1    3    3    0    0 -0.48613393268E+02  0.41674048909E+01  0.26975139793E+02  0.55752017324E+02  0.51100000000E-03 0. -1.
         22    1    1    0    0    0  0.10734179060E+02  0.95280102992E+01 -0.25223121283E+02  0.29020879167E+02  0.00000000000E+00 0. -1.
</event>
<event>
 5    1  0.1044283E-009  0.9118800E+02  0.7815553E-02  0.1125453E+00
         25   -1    0    0    0    0  0.00000000000E+00  0.00000000000E+00  0.99999998245E-14  0.12509000000E+03  0.12509000000E+03 0.  0.
        -11    1    3    3    0    0 -0.25799286036E+02  0.17323514723E+02 -0.27876311047E+02  0.41746808743E+02  0.51100000000E-03 0. -1.
         23    2    1    0    0    0  0.55605676933E+01  0.25567574657E+02  0.14554732533E+02  0.95149040997E+02  0.90315441518E+02 0.  0.
         11    1    3    3    0    0  0.31359853729E+02  0.82440599334E+01  0.42431043581E+02  0.53402232254E+02  0.51100000000E-03 0.  1.
         22    1    1    0    0    0 -0.55605676933E+01 -0.25567574657E+02 -0.14554732533E+02  0.29940959003E+02  0.00000000000E+00 0.  1.
</event>
<event>
 5    1  0.1044283E-009  0.9118800E+02  0.7815553E-02  0.1125453E+00
         25   -1    0    0    0    0  0.00000000000E+00  0.00000000000E+00  0.99999998245E-14  0.12509000000E+03  0.12509000000E+03 0.  0.
        -11    1    3    3    0    0 -0.12254054871E+02  0.31104636491E+02 -0.35294583605E+02  0.48614482453E+02  0.51100000000E-03 0.  1.
         23    2    1    0    0    0 -0.14233292950E+02  0.23751419085E+02  0.10825808369E+02  0.95359297627E+02  0.90606186215E+02 0.  0.
         11    1    3    3    0    0 -0.19792380790E+01 -0.73532174065E+01  0.46120391974E+02  0.46744815174E+02  0.51100000000E-03 0. -1.
         22    1    1    0    0    0  0.14233292950E+02 -0.23751419085E+02 -0.10825808369E+02  0.29730702373E+02  0.00000000000E+00 0.  1.
</event>
<event>
 5    1  0.1044283E-009  0.9118800E+02  0.7815553E-02  0.1125453E+00
         25   -1    0    0    0    0  0.00000000000E+00  0.00000000000E+00  0.99999998245E-14  0.12509000000E+03  0.12509000000E+03 0.  0.
        -11    1    3    3    0    0 -0.61700486040E+01 -0.22435390017E+02  0.11243522785E+02  0.25842465631E+02  0.51100000000E-03 0.  1.
         23    2    1    0    0    0 -0.37606438995E+01  0.37783431683E+02  0.85472492116E+01  0.86169753067E+02  0.76879390751E+02 0.  0.
         11    1    3    3    0    0  0.24094047045E+01  0.60218821700E+02 -0.26962735734E+01  0.60327287436E+02  0.51100000000E-03 0. -1.
         22    1    1    0    0    0  0.37606438995E+01 -0.37783431683E+02 -0.85472492116E+01  0.38920246933E+02  0.00000000000E+00 0. -1.
</event>
<event>
 5    1  0.1044283E-009  0.9118800E+02  0.7815553E-02  0.1125453E+00
         25   -1    0    0    0    0  0.00000000000E+00  0.00000000000E+00  0.99999998245E-14  0.12509000000E+03  0.12509000000E+03 0.  0.
        -11    1    3    3    0    0 -0.72607138724E+01 -0.16059408311E+02 -0.44805920357E+02  0.48147617392E+02  0.51100000000E-03 0.  1.
         23    2    1    0    0    0 -0.28050556898E+02  0.65669290300E+01 -0.99562193486E+01  0.94609110858E+02  0.89564497734E+02 0.  0.
         11    1    3    3    0    0 -0.20789843026E+02  0.22626337341E+02  0.34849701008E+02  0.46461493466E+02  0.51100000000E-03 0. -1.
         22    1    1    0    0    0  0.28050556898E+02 -0.65669290300E+01  0.99562193486E+01  0.30480889142E+02  0.00000000000E+00 0. -1.
</event>
<event>
 5    1  0.1044283E-009  0.9118800E+02  0.7815553E-02  0.1125453E+00
         25   -1    0    0    0    0  0.00000000000E+00  0.00000000000E+00  0.99999998245E-14  0.12509000000E+03  0.12509000000E+03 0.  0.
        -11    1    3    3    0    0 -0.18247117832E+02  0.56787357944E+01  0.35371850955E+02  0.40204143936E+02  0.51100000000E-03 0.  1.
         23    2    1    0    0    0  0.69322418404E+01  0.28937175470E+02 -0.68174507034E+01  0.94563065414E+02  0.89500165393E+02 0.  0.
         11    1    3    3    0    0  0.25179359672E+02  0.23258439675E+02 -0.42189301658E+02  0.54358921478E+02  0.51100000000E-03 0. -1.
         22    1    1    0    0    0 -0.69322418404E+01 -0.28937175470E+02  0.68174507034E+01  0.30526934586E+02  0.00000000000E+00 0. -1.
</event>
<event>
 5    1  0.1044283E-009  0.9118800E+02  0.7815553E-02  0.1125453E+00
         25   -1    0    0    0    0  0.00000000000E+00  0.00000000000E+00  0.99999998245E-14  0.12509000000E+03  0.12509000000E+03 0.  0.
        -11    1    3    3    0    0 -0.80824340911E+01 -0.53935709692E+02 -0.17892959015E+02  0.57398122821E+02  0.51100000000E-03 0. -1.
         23    2    1    0    0    0  0.77803189338E+01 -0.28763916578E+02  0.49180266256E+01  0.94889284023E+02  0.89954949707E+02 0.  0.
         11    1    3    3    0    0  0.15862753025E+02  0.25171793114E+02  0.22810985640E+02  0.37491161202E+02  0.51100000000E-03 0.  1.
         22    1    1    0    0    0 -0.77803189338E+01  0.28763916578E+02 -0.49180266256E+01  0.30200715977E+02  0.00000000000E+00 0. -1.
</event>
<event>
 5    1  0.1044283E-009  0.9118800E+02  0.7815553E-02  0.1125453E+00
         25   -1    0    0    0    0  0.00000000000E+00  0.00000000000E+00  0.99999998245E-14  0.12509000000E+03  0.12509000000E+03 0.  0.
        -11    1    3    3    0    0 -0.36489006060E+02 -0.44109296454E+02  0.47971221518E+01  0.57446409619E+02  0.51100000000E-03 0. -1.
         23    2    1    0    0    0 -0.14975672842E+01 -0.27987574328E+02  0.75255257970E+01  0.96069652603E+02  0.91581644384E+02 0.  0.
         11    1    3    3    0    0  0.34991438776E+02  0.16121722126E+02  0.27284036452E+01  0.38623242984E+02  0.51100000000E-03 0.  1.
         22    1    1    0    0    0  0.14975672842E+01  0.27987574328E+02 -0.75255257970E+01  0.29020347397E+02  0.00000000000E+00 0. -1.
</event>
<event>
 5    1  0.1044283E-009  0.9118800E+02  0.7815553E-02  0.1125453E+00
         25   -1    0    0    0    0  0.00000000000E+00  0.00000000000E+00  0.99999998245E-14  0.12509000000E+03  0.12509000000E+03 0.  0.
        -11    1    3    3    0    0  0.11554115287E+01  0.36600914858E+02  0.91005390027E+01  0.37733032672E+02  0.51100000000E-03 0.  1.
         23    2    1    0    0    0  0.10232521985E+02 -0.21992748619E+02  0.13749310883E+02  0.97207585332E+02  0.93122959566E+02 0.  0.
         11    1    3    3    0    0  0.90771104562E+01 -0.58593663477E+02  0.46487718800E+01  0.59474552660E+02  0.51100000000E-03 0. -1.
         22    1    1    0    0    0 -0.10232521985E+02  0.21992748619E+02 -0.13749310883E+02  0.27882414668E+02  0.00000000000E+00 0. -1.
</event>
<event>
 5    1  0.1044283E-009  0.9118800E+02  0.7815553E-02  0.1125453E+00
         25   -1    0    0    0    0  0.00000000000E+00  0.00000000000E+00  0.99999998245E-14  0.12509000000E+03  0.12509000000E+03 0.  0.
        -11    1    3    3    0    0  0.10176617805E+02 -0.33413943603E+02  0.46522595409E+02  0.58175656944E+02  0.51100000000E-03 0. -1.
         23    2    1    0    0    0 -0.16131534746E+01 -0.27140986087E+02  0.11664142540E+02  0.95504739969E+02  0.90806760462E+02 0.  0.
         11    1    3    3    0    0 -0.11789771279E+02  0.62729575167E+01 -0.34858452869E+02  0.37329083025E+02  0.51100000000E-03 0.  1.
         22    1    1    0    0    0  0.16131534746E+01  0.27140986087E+02 -0.11664142540E+02  0.29585260031E+02  0.00000000000E+00 0. -1.
</event>
<event>
 5    1  0.1044283E-009  0.9118800E+02  0.7815553E-02  0.1125453E+00
         25   -1    0    0    0    0  0.00000000000E+00  0.00000000000E+00  0.99999998245E-14  0.12509000000E+03  0.12509000000E+03 0.  0.
        -11    1    3    3    0    0 -0.46564920850E+01 -0.23765853993E+02 -0.51681556660E+02  0.57074355307E+02  0.51100000000E-03 0. -1.
         23    2    1    0    0    0  0.10503305292E+02 -0.25750640135E+02 -0.25686927815E+02  0.87231934149E+02  0.78588658121E+02 0.  0.
         11    1    3    3    0    0  0.15159797377E+02 -0.19847861423E+01  0.25994628845E+02  0.30157578842E+02  0.51100000000E-03 0.  1.
         22    1    1    0    0    0 -0.10503305292E+02  0.25750640135E+02  0.25686927815E+02  0.37858065851E+02  0.00000000000E+00 0. -1.
</event>
<event>
 5    1  0.1044283E-009  0.9118800E+02  0.7815553E-02  0.1125453E+00
         25   -1    0    0    0    0  0.00000000000E+00  0.00000000000E+00  0.99999998245E-14  0.12509000000E+03  0.12509000000E+03 0.  0.
        -11    1    3    3    0    0 -0.31202471621E+02  0.10870747954E+02 -0.88760390880E+00  0.33053823339E+02  0.51100000000E-03 0. -1.
         23    2    1    0    0    0  0.16568883740E+02  0.38494353612E+01  0.30163416942E+02  0.90460853568E+02  0.83570259337E+02 0.  0.
         11    1    3    3    0    0  0.47771355361E+02 -0.70213125930E+01  0.31051020851E+02  0.57407030229E+02  0.51100000000E-03 0.  1.
         22    1    1    0    0    0 -0.16568883740E+02 -0.38494353612E+01 -0.30163416942E+02  0.34629146432E+02  0.00000000000E+00 0.  1.
</event>
<event>
 5    1  0.1044283E-009  0.9118800E+02  0.7815553E-02  0.1125453E+00
         25   -1    0    0    0    0  0.00000000000E+00  0.00000000000E+00  0.99999998245E-14  0.12509000000E+03  0.12509000000E+03 0.  0.
        -11    1    3    3    0    0  0.13155290681E+02  0.50762034121E+02 -0.58260975264E+00  0.52442208339E+02  0.51100000000E-03 0.  1.
         23    2    1    0    0    0  0.16759274692E+02  0.10868830493E+02  0.19434124487E+02  0.97220842154E+02  0.93140765457E+02 0.  0.
         11    1    3    3    0    0  0.36039840108E+01 -0.39893203628E+02  0.20016734240E+02  0.44778633815E+02  0.51100000000E-03 0. -1.
         22    1    1    0    0    0 -0.16759274692E+02 -0.10868830493E+02 -0.19434124487E+02  0.27869157846E+02  0.00000000000E+00 0.  1.
</event>
<event>
 5    1  0.1044283E-009  0.9118800E+02  0.7815553E-02  0.1125453E+00
         25   -1    0    0    0    0  0.00000000000E+00  0.00000000000E+00  0.99999998245E-14  0.12509000000E+03  0.12509000000E+03 0.  0.
        -11    1    3    3    0    0 -0.67803087065E+01 -0.59641101100E+02 -0.35354561904E+01  0.60129302152E+02  0.51100000000E-03 0. -1.
         23    2    1    0    0    0 -0.13633399303E+01 -0.26412950990E+02  0.10538742708E+02  0.96619528040E+02  0.92329656259E+02 0.  0.
         11    1    3    3    0    0  0.54169687762E+01  0.33228150110E+02  0.14074198898E+02  0.36490225887E+02  0.51100000000E-03 0.  1.
         22    1    1    0    0    0  0.13633399303E+01  0.26412950990E+02 -0.10538742708E+02  0.28470471960E+02  0.00000000000E+00 0. -1.
</event>
<event>
 5    1  0.1044283E-009  0.9118800E+02  0.7815553E-02  0.1125453E+00
         25   -1    0    0    0    0  0.00000000000E+00  0.00000000000E+00  0.99999998245E-14  0.12509000000E+03  0.12509000000E+03 0.  0.
        -11    1    3    3    0    0  0.26141813575E+01  0.42978060120E+02  0.12547801865E+02  0.44848577767E+02  0.51100000000E-03 0. -1.
         23    2    1    0    0    0 -0.20726154761E+02  0.85076199367E+01  0.27979449499E+02  0.89245855674E+02  0.81731389763E+02 0.  0.
         11    1    3    3    0    0 -0.23340336119E+02 -0.34470440183E+02  0.15431647634E+02  0.44397277907E+02  0.51100000000E-03 0.  1.
         22    1    1    0    0    0  0.20726154761E+02 -0.85076199367E+01 -0.27979449499E+02  0.35844144326E+02  0.00000000000E+00 0.  1.
</event>
<event>
 5    1  0.1044283E-009  0.9118800E+02  0.7815553E-02  0.1125453E+00
         25   -1    0    0    0    0  0.00000000000E+00  0.00000000000E+00  0.99999998245E-14  0.12509000000E+03  0.12509000000E+03 0.  0.
        -11    1    3    3    0    0  0.11378382646E+02  0.31503976114E+02 -0.21669461456E+02  0.39894030414E+02  0.51100000000E-03 0.  1.
         23    2    1    0    0    0  0.12503281444E+01 -0.23925747841E+02 -0.15446124070E+02  0.96584079931E+02  0.92281617980E+02 0.  0.
         11    1    3    3    0    0 -0.10128054502E+02 -0.55429723955E+02  0.62233373863E+01  0.56690049517E+02  0.51100000000E-03 0. -1.
         22    1    1    0    0    0 -0.12503281444E+01  0.23925747841E+02  0.15446124070E+02  0.28505920069E+02  0.00000000000E+00 0. -1.
</event>
<event>
 5    1  0.1044283E-009  0.9118800E+02  0.7815553E-02  0.1125453E+00
         25   -1    0    0    0    0  0.00000000000E+00  0.00000000000E+00  0.99999998245E-14  0.12509000000E+03  0.12509000000E+03 0.  0.
        -11    1    3    3    0    0  0.18496052430E+02 -0.46727300251E+02 -0.80477718318E+01  0.50895099725E+02  0.51100000000E-03 0. -1.
         23    2    1    0    0    0 -0.17827408643E+02 -0.21578612369E+02  0.43082094867E+01  0.96770153961E+02  0.92533502138E+02 0.  0.
         11    1    3    3    0    0 -0.36323461073E+02  0.25148687882E+02  0.12355981319E+02  0.45875054236E+02  0.51100000000E-03 0.  1.
         22    1    1    0    0    0  0.17827408643E+02  0.21578612369E+02 -0.43082094867E+01  0.28319846039E+02  0.00000000000E+00 0. -1.
</event>
<event>
 5    1  0.1044283E-009  0.9118800E+02  0.7815553E-02  0.1125453E+00
         25   -1    0    0    0    0  0.00000000000E+00  0.00000000000E+00  0.99999998245E-14  0.12509000000E+03  0.12509000000E+03 0.  0.
        -11    1    3    3    0    0  0.40153245867E+02 -0.18947397846E+02  0.11109986463E+02  0.45768098477E+02  0.51100000000E-03 0. -1.
         23    2    1    0    0    0  0.30754301218E+01 -0.93268337383E+01 -0.24888260781E+02  0.98334185254E+02  0.94624195462E+02 0.  0.
         11    1    3    3    0    0 -0.37077815745E+02  0.96205641074E+01 -0.35998247244E+02  0.52566086777E+02  0.51100000000E-03 0.  1.
         22    1    1    0    0    0 -0.30754301218E+01  0.93268337383E+01  0.24888260781E+02  0.26755814746E+02  0.00000000000E+00 0.  1.
</event>
<event>
 5    1  0.1044283E-009  0.9118800E+02  0.7815553E-02  0.1125453E+00
         25   -1    0    0    0    0  0.00000000000E+00  0.00000000000E+00  0.99999998245E-14  0.12509000000E+03  0.12509000000E+03 0.  0.
        -11    1    3    3    0    0  0.42670081363E+02  0.20124752722E+02  0.19673246166E+02  0.51115341441E+02  0.51100000000E-03 0.  1.
         23    2    1    0    0    0 -0.34193364511E-01  0.65903739372E+01  0.27691564090E+02  0.96624987800E+02  0.92337052952E+02 0.  0.
         11    1    3    3    0    0 -0.42704274728E+02 -0.13534378785E+02  0.80183179239E+01  0.45509646359E+02  0.51100000000E-03 0. -1.
         22    1    1    0    0    0  0.34193364511E-01 -0.65903739372E+01 -0.27691564090E+02  0.28465012200E+02  0.00000000000E+00 0.  1.
</event>
<event>
 5    1  0.1044283E-009  0.9118800E+02  0.7815553E-02  0.1125453E+00
         25   -1    0    0    0    0  0.00000000000E+00  0.00000000000E+00  0.99999998245E-14  0.12509000000E+03  0.12509000000E+03 0.  0.
        -11    1    3    3    0    0 -0.17454566057E+02  0.22955047827E+02  0.36826471332E+02  0.46773764954E+02  0.51100000000E-03 0.  1.
         23    2    1    0    0    0 -0.69592327856E+01  0.24771197201E+02 -0.11964690021E+02  0.96714007699E+02  0.92457570519E+02 0.  0.
         11    1    3    3    0    0  0.10495333271E+02  0.18161493742E+01 -0.48791161353E+02  0.49940242745E+02  0.51100000000E-03 0. -1.
         22    1    1    0    0    0  0.69592327856E+01 -0.24771197201E+02  0.11964690021E+02  0.28375992301E+02  0.00000000000E+00 0. -1.
</event>
<event>
 5    1  0.1044283E-009  0.9118800E+02  0.7815553E-02  0.1125453E+00
         25   -1    0    0    0    0  0.00000000000E+00  0.00000000000E+00  0.99999998245E-14  0.12509000000E+03  0.12509000000E+03 0.  0.
        -11    1    3    3    0    0 -0.17646625989E+01  0.38322445528E+02  0.26075618087E+02  0.46386007850E+02  0.51100000000E-03 0. -1.
         23    2    1    0    0    0 -0.23012903674E+02 -0.24106284635E+01  0.23053036872E+02  0.92427370374E+02  0.86463700014E+02 0.  0.
         11    1    3    3    0    0 -0.21248241075E+02 -0.40733073991E+02 -0.30225812158E+01  0.46041362524E+02  0.51100000000E-03 0.  1.
         22    1    1    0    0    0  0.23012903674E+02  0.24106284635E+01 -0.23053036872E+02  0.32662629626E+02  0.00000000000E+00 0.  1.
</event>
<event>
 5    1  0.1044283E-009  0.9118800E+02  0.7815553E-02  0.1125453E+00
         25   -1    0    0    0    0  0.00000000000E+00  0.00000000000E+00  0.99999998245E-14  0.12509000000E+03  0.12509000000E+03 0.  0.
        -11    1    3    3    0    0  0.32918092667E+02  0.30643718637E+02 -0.40580628319E+02  0.60575784863E+02  0.51100000000E-03 0.  1.
         23    2    1    0    0    0  0.12198522471E+02  0.86637946381E+01 -0.28092027320E+02  0.93261910409E+02  0.87662743775E+02 0.  0.
         11    1    3    3    0    0 -0.20719570195E+02 -0.21979923999E+02  0.12488600999E+02  0.32686125547E+02  0.51100000000E-03 0. -1.
         22    1    1    0    0    0 -0.12198522471E+02 -0.86637946381E+01  0.28092027320E+02  0.31828089591E+02  0.00000000000E+00 0.  1.
</event>
<event>
 5    1  0.1044283E-009  0.9118800E+02  0.7815553E-02  0.1125453E+00
         25   -1    0    0    0    0  0.00000000000E+00  0.00000000000E+00  0.99999998245E-14  0.12509000000E+03  0.12509000000E+03 0.  0.
        -11    1    3    3    0    0 -0.13404443665E+02 -0.21721213713E+02  0.38132330562E+02  0.45886434482E+02  0.51100000000E-03 0.  1.
         23    2    1    0    0    0  0.25817841408E+02 -0.11993707595E+02  0.10947605991E+02  0.94589835512E+02  0.89537572831E+02 0.  0.
         11    1    3    3    0    0  0.39222285073E+02  0.97275061180E+01 -0.27184724571E+02  0.48703401030E+02  0.51100000000E-03 0. -1.
         22    1    1    0    0    0 -0.25817841408E+02  0.11993707595E+02 -0.10947605991E+02  0.30500164488E+02  0.00000000000E+00 0.  1.
</event>
<event>
 5    1  0.1044283E-009  0.9118800E+02  0.7815553E-02  0.1125453E+00
         25   -1    0    0    0    0  0.00000000000E+00  0.00000000000E+00  0.99999998245E-14  0.12509000000E+03  0.12509000000E+03 0.  0.
        -11    1    3    3    0    0 -0.20522304165E+02 -0.15004069103E+02  0.76549341195E+01  0.26549671835E+02  0.51100000000E-03 0. -1.
         23    2    1    0    0    0  0.23854202967E+02  0.15502218671E+02 -0.22993058320E+02  0.88511009940E+02  0.80598860828E+02 0.  0.
         11    1    3    3    0    0  0.44376507132E+02  0.30506287774E+02 -0.30647992440E+02  0.61961338105E+02  0.51100000000E-03 0.  1.
         22    1    1    0    0    0 -0.23854202967E+02 -0.15502218671E+02  0.22993058320E+02  0.36578990060E+02  0.00000000000E+00 0.  1.
</event>
<event>
 5    1  0.1044283E-009  0.9118800E+02  0.7815553E-02  0.1125453E+00
         25   -1    0    0    0    0  0.00000000000E+00  0.00000000000E+00  0.99999998245E-14  0.12509000000E+03  0.12509000000E+03 0.  0.
        -11    1    3    3    0    0 -0.44689207291E+02 -0.33569247048E+02 -0.24443763338E+02  0.61004238886E+02  0.51100000000E-03 0. -1.
         23    2    1    0    0    0 -0.25506074696E+02 -0.15765435791E+02 -0.27850899544E+01  0.94975791756E+02  0.90075165732E+02 0.  0.
         11    1    3    3    0    0  0.19183132595E+02  0.17803811257E+02  0.21658673384E+02  0.33971552870E+02  0.51100000000E-03 0.  1.
         22    1    1    0    0    0  0.25506074696E+02  0.15765435791E+02  0.27850899544E+01  0.30114208244E+02  0.00000000000E+00 0. -1.
</event>
<event>
 5    1  0.1044283E-009  0.9118800E+02  0.7815553E-02  0.1125453E+00
         25   -1    0    0    0    0  0.00000000000E+00  0.00000000000E+00  0.99999998245E-14  0.12509000000E+03  0.12509000000E+03 0.  0.
        -11    1    3    3    0    0  0.92165366750E+01  0.11801408133E+02 -0.13721902914E+02  0.20310302855E+02  0.51100000000E-03 0. -1.
         23    2    1    0    0    0  0.58548932391E+01  0.10608049359E+02  0.44667361477E+02  0.78808430586E+02  0.63787028965E+02 0.  0.
         11    1    3    3    0    0 -0.33616434358E+01 -0.11933587737E+01  0.58389264391E+02  0.58498127732E+02  0.51100000000E-03 0.  1.
         22    1    1    0    0    0 -0.58548932391E+01 -0.10608049359E+02 -0.44667361477E+02  0.46281569414E+02  0.00000000000E+00 0.  1.
</event>
<event>
 5    1  0.1044283E-009  0.9118800E+02  0.7815553E-02  0.1125453E+00
         25   -1    0    0    0    0  0.00000000000E+00  0.00000000000E+00  0.99999998245E-14  0.12509000000E+03  0.12509000000E+03 0.  0.
        -11    1    3    3    0    0  0.10837442192E+02 -0.32149429306E+02  0.14825666145E+00  0.33927244779E+02  0.51100000000E-03 0. -1.
         23    2    1    0    0    0 -0.17546666314E+02  0.22939891975E+02 -0.34508422100E+01  0.96003362956E+02  0.91491055543E+02 0.  0.
         11    1    3    3    0    0 -0.28384108506E+02  0.55089321282E+02 -0.35990988714E+01  0.62076118177E+02  0.51100000000E-03 0.  1.
         22    1    1    0    0    0  0.17546666314E+02 -0.22939891975E+02  0.34508422100E+01  0.29086637044E+02  0.00000000000E+00 0.  1.
</event>
<event>
 5    1  0.1044283E-009  0.9118800E+02  0.7815553E-02  0.1125453E+00
         25   -1    0    0    0    0  0.00000000000E+00  0.00000000000E+00  0.99999998245E-14  0.12509000000E+03  0.12509000000E+03 0.  0.
        -11    1    3    3    0    0 -0.41661060537E+01 -0.23182094575E+02 -0.33245518954E+02  0.40743471616E+02  0.51100000000E-03 0. -1.
         23    2    1    0    0    0  0.26252000361E+02 -0.10180124778E+02  0.10017376332E+02  0.95204379846E+02  0.90392055236E+02 0.  0.
         11    1    3    3    0    0  0.30418106415E+02  0.13001969797E+02  0.43262895286E+02  0.54460908230E+02  0.51100000000E-03 0.  1.
         22    1    1    0    0    0 -0.26252000361E+02  0.10180124778E+02 -0.10017376332E+02  0.29885620154E+02  0.00000000000E+00 0.  1.
</event>
<event>
 5    1  0.1044283E-009  0.9118800E+02  0.7815553E-02  0.1125453E+00
         25   -1    0    0    0    0  0.00000000000E+00  0.00000000000E+00  0.99999998245E-14  0.12509000000E+03  0.12509000000E+03 0.  0.
        -11    1    3    3    0    0  0.10609259874E+02  0.10562767889E+02 -0.24889762930E+02  0.29045288078E+02  0.51100000000E-03 0.  1.
         23    2    1    0    0    0  0.22367173098E+01 -0.22525787515E+02  0.26186316428E+02  0.90475881846E+02  0.83592751003E+02 0.  0.
         11    1    3    3    0    0 -0.83725425646E+01 -0.33088555405E+02  0.51076079358E+02  0.61430593768E+02  0.51100000000E-03 0. -1.
         22    1    1    0    0    0 -0.22367173098E+01  0.22525787515E+02 -0.26186316428E+02  0.34614118154E+02  0.00000000000E+00 0. -1.
</event>
<event>
 5    1  0.1044283E-009  0.9118800E+02  0.7815553E-02  0.1125453E+00
         25   -1    0    0    0    0  0.00000000000E+00  0.00000000000E+00  0.99999998245E-14  0.12509000000E+03  0.12509000000E+03 0.  0.
        -11    1    3    3    0    0 -0.25203628821E+01 -0.19732280734E+02 -0.30156319982E+02  0.36126427544E+02  0.51100000000E-03 0. -1.
         23    2    1    0    0    0  0.21701298052E+02  0.47130944426E+01  0.18817647188E+02  0.95982209942E+02  0.91462129777E+02 0.  0.
         11    1    3    3    0    0  0.24221660934E+02  0.24445375176E+02  0.48973967170E+02  0.59855782398E+02  0.51100000000E-03 0.  1.
         22    1    1    0    0    0 -0.21701298052E+02 -0.47130944426E+01 -0.18817647188E+02  0.29107790058E+02  0.00000000000E+00 0.  1.
</event>
<event>
 5    1  0.1044283E-009  0.9118800E+02  0.7815553E-02  0.1125453E+00
         25   -1    0    0    0    0  0.00000000000E+00  0.00000000000E+00  0.99999998245E-14  0.12509000000E+03  0.12509000000E+03 0.  0.
        -11    1    3    3    0    0  0.34713119342E+02 -0.18749054071E+01  0.23681535847E+01  0.34844283268E+02  0.51100000000E-03 0. -1.
         23    2    1    0    0    0 -0.23383919693E+02 -0.18929742637E+01  0.18582733564E+02  0.95161601472E+02  0.90332836533E+02 0.  0.
         11    1    3    3    0    0 -0.58097039035E+02 -0.18068856609E-01  0.16214579980E+02  0.60317318204E+02  0.51100000000E-03 0.  1.
         22    1    1    0    0    0  0.23383919693E+02  0.18929742637E+01 -0.18582733564E+02  0.29928398528E+02  0.00000000000E+00 0.  1.
</event>
<event>
 5    1  0.1044283E-009  0.9118800E+02  0.7815553E-02  0.1125453E+00
         25   -1    0    0    0    0  0.00000000000E+00  0.00000000000E+00  0.99999998245E-14  0.12509000000E+03  0.12509000000E+03 0.  0.
        -11    1    3    3    0    0  0.29725688994E+02  0.42238298079E+02  0.12583922370E+01  0.51665016811E+02  0.51100000000E-03 0. -1.
         23    2    1    0    0    0  0.36775104037E-01  0.18376162968E+02  0.23099647983E+02  0.95572573710E+02  0.90900156165E+02 0.  0.
         11    1    3    3    0    0 -0.29688913890E+02 -0.23862135111E+02  0.21841255746E+02  0.43907556899E+02  0.51100000000E-03 0.  1.
         22    1    1    0    0    0 -0.36775104037E-01 -0.18376162968E+02 -0.23099647983E+02  0.29517426290E+02  0.00000000000E+00 0. -1.
</event>
<event>
 5    1  0.1044283E-009  0.9118800E+02  0.7815553E-02  0.1125453E+00
         25   -1    0    0    0    0  0.00000000000E+00  0.00000000000E+00  0.99999998245E-14  0.12509000000E+03  0.12509000000E+03 0.  0.
        -11    1    3    3    0    0 -0.27074456282E+02  0.47433098140E+02  0.20922392406E+02  0.58486506875E+02  0.51100000000E-03 0.  1.
         23    2    1    0    0    0 -0.53958242241E+01  0.18265018491E+02  0.23407355721E+02  0.94913351389E+02  0.89988411201E+02 0.  0.
         11    1    3    3    0    0  0.21678632058E+02 -0.29168079649E+02  0.24849633148E+01  0.36426844514E+02  0.51100000000E-03 0. -1.
         22    1    1    0    0    0  0.53958242241E+01 -0.18265018491E+02 -0.23407355721E+02  0.30176648611E+02  0.00000000000E+00 0.  1.
</event>
<event>
 5    1  0.1044283E-009  0.9118800E+02  0.7815553E-02  0.1125453E+00
         25   -1    0    0    0    0  0.00000000000E+00  0.00000000000E+00  0.99999998245E-14  0.12509000000E+03  0.12509000000E+03 0.  0.
        -11    1    3    3    0    0  0.54271624671E+01  0.11632495558E+02  0.57117507197E+02  0.58542110262E+02  0.51100000000E-03 0.  1.
         23    2    1    0    0    0 -0.77841324134E+01 -0.61645235661E+01  0.29558134910E+02  0.93908636855E+02  0.88580780469E+02 0.  0.
         11    1    3    3    0    0 -0.13211294880E+02 -0.17797019124E+02 -0.27559372287E+02  0.35366526593E+02  0.51100000000E-03 0. -1.
         22    1    1    0    0    0  0.77841324134E+01  0.61645235661E+01 -0.29558134910E+02  0.31181363145E+02  0.00000000000E+00 0.  1.
</event>
<event>
 5    1  0.1044283E-009  0.9118800E+02  0.7815553E-02  0.1125453E+00
         25   -1    0    0    0    0  0.00000000000E+00  0.00000000000E+00  0.99999998245E-14  0.12509000000E+03  0.12509000000E+03 0.  0.
        -11    1    3    3    0    0 -0.12522838484E+01  0.17214812003E+02  0.33611284588E+02  0.37784076263E+02  0.51100000000E-03 0. -1.
         23    2    1    0    0    0 -0.13259081724E+02  0.80946043893E+01 -0.23537387982E+02  0.96888324493E+02  0.92693111512E+02 0.  0.
         11    1    3    3    0    0 -0.12006797875E+02 -0.91202076138E+01 -0.57148672570E+02  0.59104248230E+02  0.51100000000E-03 0.  1.
         22    1    1    0    0    0  0.13259081724E+02 -0.80946043893E+01  0.23537387982E+02  0.28201675507E+02  0.00000000000E+00 0.  1.
</event>
<event>
 5    1  0.1044283E-009  0.9118800E+02  0.7815553E-02  0.1125453E+00
         25   -1    0    0    0    0  0.00000000000E+00  0.00000000000E+00  0.99999998245E-14  0.12509000000E+03  0.12509000000E+03 0.  0.
        -11    1    3    3    0    0 -0.25582037671E+02  0.30007901904E+02 -0.62758286428E+01  0.39928697117E+02  0.51100000000E-03 0. -1.
         23    2    1    0    0    0  0.13253731534E+02  0.12504866556E+02  0.25977070123E+02  0.93359237965E+02  0.87801515101E+02 0.  0.
         11    1    3    3    0    0  0.38835769205E+02 -0.17503035348E+02  0.32252898766E+02  0.53430540847E+02  0.51100000000E-03 0.  1.
         22    1    1    0    0    0 -0.13253731534E+02 -0.12504866556E+02 -0.25977070123E+02  0.31730762035E+02  0.00000000000E+00 0.  1.
</event>
<event>
 5    1  0.1044283E-009  0.9118800E+02  0.7815553E-02  0.1125453E+00
         25   -1    0    0    0    0  0.00000000000E+00  0.00000000000E+00  0.99999998245E-14  0.12509000000E+03  0.12509000000E+03 0.  0.
        -11    1    3    3    0    0 -0.15844374054E+02  0.22213046191E+02 -0.52948394874E+02  0.59565057964E+02  0.51100000000E-03 0.  1.
         23    2    1    0    0    0 -0.25186926113E+01 -0.16702890808E+01 -0.29045415135E+02  0.95887777166E+02  0.91332885597E+02 0.  0.
         11    1    3    3    0    0  0.13325681442E+02 -0.23883335272E+02  0.23902979739E+02  0.36322719203E+02  0.51100000000E-03 0. -1.
         22    1    1    0    0    0  0.25186926113E+01  0.16702890808E+01  0.29045415135E+02  0.29202222834E+02  0.00000000000E+00 0.  1.
</event>
<event>
 5    1  0.1044283E-009  0.9118800E+02  0.7815553E-02  0.1125453E+00
         25   -1    0    0    0    0  0.00000000000E+00  0.00000000000E+00  0.99999998245E-14  0.12509000000E+03  0.12509000000E+03 0.  0.
        -11    1    3    3    0    0  0.31260008626E+02 -0.43594565599E+01 -0.24289280757E+02  0.39826651387E+02  0.51100000000E-03 0. -1.
         23    2    1    0    0    0 -0.80797518625E+01 -0.25462170870E+02  0.10462591896E+02  0.96400797070E+02  0.92032838221E+02 0.  0.
         11    1    3    3    0    0 -0.39339760489E+02 -0.21102714310E+02  0.34751872653E+02  0.56574145682E+02  0.51100000000E-03 0.  1.
         22    1    1    0    0    0  0.80797518625E+01  0.25462170870E+02 -0.10462591896E+02  0.28689202930E+02  0.00000000000E+00 0.  1.
</event>
<event>
 5    1  0.1044283E-009  0.9118800E+02  0.7815553E-02  0.1125453E+00
         25   -1    0    0    0    0  0.00000000000E+00  0.00000000000E+00  0.99999998245E-14  0.12509000000E+03  0.12509000000E+03 0.  0.
        -11    1    3    3    0    0 -0.29716853605E+02  0.26279482073E+02 -0.11219905480E+02  0.41226069973E+02  0.51100000000E-03 0. -1.
         23    2    1    0    0    0 -0.29243391526E+02 -0.12343537732E+02  0.17018832738E+02  0.89073621233E+02  0.81467358250E+02 0.  0.
         11    1    3    3    0    0  0.47346207833E+00 -0.38623019806E+02  0.28238738217E+02  0.47847551260E+02  0.51100000000E-03 0.  1.
         22    1    1    0    0    0  0.29243391526E+02  0.12343537732E+02 -0.17018832738E+02  0.36016378767E+02  0.00000000000E+00 0. -1.
</event>
<event>
 5    1  0.1044283E-009  0.9118800E+02  0.7815553E-02  0.1125453E+00
         25   -1    0    0    0    0  0.00000000000E+00  0.00000000000E+00  0.99999998245E-14  0.12509000000E+03  0.12509000000E+03 0.  0.
        -11    1    3    3    0    0  0.32616940993E+02  0.17063254784E+01 -0.68270580638E+01  0.33367425859E+02  0.51100000000E-03 0.  1.
         23    2    1    0    0    0 -0.23758407999E+02 -0.19998309625E+02 -0.27368031356E+01  0.93914938975E+02  0.88589679607E+02 0.  0.
         11    1    3    3    0    0 -0.56375348992E+02 -0.21704635103E+02  0.40902549283E+01  0.60547513116E+02  0.51100000000E-03 0. -1.
         22    1    1    0    0    0  0.23758407999E+02  0.19998309625E+02  0.27368031356E+01  0.31175061025E+02  0.00000000000E+00 0. -1.
</event>
<event>
 5    1  0.1044283E-009  0.9118800E+02  0.7815553E-02  0.1125453E+00
         25   -1    0    0    0    0  0.00000000000E+00  0.00000000000E+00  0.99999998245E-14  0.12509000000E+03  0.12509000000E+03 0.  0.
        -11    1    3    3    0    0 -0.11714799796E+02 -0.13156659549E+02 -0.27730301940E+02  0.32852760472E+02  0.51100000000E-03 0.  1.
         23    2    1    0    0    0  0.22658877671E+02  0.32019240707E+01  0.20548356641E+02  0.94334317343E+02  0.89179882333E+02 0.  0.
         11    1    3    3    0    0  0.34373677467E+02  0.16358583619E+02  0.48278658581E+02  0.61481556871E+02  0.51100000000E-03 0. -1.
         22    1    1    0    0    0 -0.22658877671E+02 -0.32019240707E+01 -0.20548356641E+02  0.30755682657E+02  0.00000000000E+00 0. -1.
</event>
<event>
 5    1  0.1044283E-009  0.9118800E+02  0.7815553E-02  0.1125453E+00
         25   -1    0    0    0    0  0.00000000000E+00  0.00000000000E+00  0.99999998245E-14  0.12509000000E+03  0.12509000000E+03 0.  0.
        -11    1    3    3    0    0  0.22865627626E+02  0.52780982761E+02 -0.18393841202E+02  0.60390416975E+02  0.51100000000E-03 0.  1.
         23    2    1    0    0    0  0.21130151307E+02  0.19714568083E+02 -0.77735166529E+01  0.95163840038E+02  0.90335936374E+02 0.  0.
         11    1    3    3    0    0 -0.17354763194E+01 -0.33066414678E+02  0.10620324549E+02  0.34773423063E+02  0.51100000000E-03 0. -1.
         22    1    1    0    0    0 -0.21130151307E+02 -0.19714568083E+02  0.77735166529E+01  0.29926159962E+02  0.00000000000E+00 0.  1.
</event>
<event>
 5    1  0.1044283E-009  0.9118800E+02  0.7815553E-02  0.1125453E+00
         25   -1    0    0    0    0  0.00000000000E+00  0.00000000000E+00  0.99999998245E-14  0.12509000000E+03  0.12509000000E+03 0.  0.
        -11    1    3    3    0    0 -0.39658151095E+02 -0.30064244004E+02 -0.30741376401E+02  0.58494956527E+02  0.51100000000E-03 0. -1.
         23    2    1    0    0    0 -0.13181642506E+02 -0.32710539257E+01 -0.25056301311E+02  0.96589583717E+02  0.92289078196E+02 0.  0.
         11    1    3    3    0    0  0.26476508589E+02  0.26793190078E+02  0.56850750909E+01  0.38094627189E+02  0.51100000000E-03 0.  1.
         22    1    1    0    0    0  0.13181642506E+02  0.32710539257E+01  0.25056301311E+02  0.28500416283E+02  0.00000000000E+00 0. -1.
</event>
<event>
 5    1  0.1044283E-009  0.9118800E+02  0.7815553E-02  0.1125453E+00
         25   -1    0    0    0    0  0.00000000000E+00  0.00000000000E+00  0.99999998245E-14  0.12509000000E+03  0.12509000000E+03 0.  0.
        -11    1    3    3    0    0  0.19371577144E+02  0.70916280834E+01 -0.27370055523E+02  0.34273446420E+02  0.51100000000E-03 0.  1.
         23    2    1    0    0    0 -0.17358945099E+02 -0.25307777627E+02  0.63682630860E+01  0.93747196071E+02  0.88352506546E+02 0.  0.
         11    1    3    3    0    0 -0.36730522244E+02 -0.32399405711E+02  0.33738318609E+02  0.59473749651E+02  0.51100000000E-03 0. -1.
         22    1    1    0    0    0  0.17358945099E+02  0.25307777627E+02 -0.63682630860E+01  0.31342803929E+02  0.00000000000E+00 0. -1.
</event>
<event>
 5    1  0.1044283E-009  0.9118800E+02  0.7815553E-02  0.1125453E+00
         25   -1    0    0    0    0  0.00000000000E+00  0.00000000000E+00  0.99999998245E-14  0.12509000000E+03  0.12509000000E+03 0.  0.
        -11    1    3    3    0    0  0.57800681679E+01 -0.46903897801E+02 -0.13219248776E+02  0.49072735357E+02  0.51100000000E-03 0.  1.
         23    2    1    0    0    0  0.20564974078E+02 -0.29592687541E+01 -0.20378640735E+02  0.95987346709E+02  0.91469154908E+02 0.  0.
         11    1    3    3    0    0  0.14784905910E+02  0.43944629047E+02 -0.71593919591E+01  0.46914611352E+02  0.51100000000E-03 0. -1.
         22    1    1    0    0    0 -0.20564974078E+02  0.29592687541E+01  0.20378640735E+02  0.29102653291E+02  0.00000000000E+00 0. -1.
</event>
<event>
 5    1  0.1044283E-009  0.9118800E+02  0.7815553E-02  0.1125453E+00
         25   -1    0    0    0    0  0.00000000000E+00  0.00000000000E+00  0.99999998245E-14  0.12509000000E+03  0.12509000000E+03 0.  0.
        -11    1    3    3    0    0  0.39794329227E+02  0.94346858139E+01  0.13737089037E+02  0.43142896871E+02  0.51100000000E-03 0.  1.
         23    2    1    0    0    0  0.58239986394E+01 -0.42296920972E+00 -0.27214753921E+02  0.97255835848E+02  0.93187750871E+02 0.  0.
         11    1    3    3    0    0 -0.33970330587E+02 -0.98576550236E+01 -0.40951842957E+02  0.54112938976E+02  0.51100000000E-03 0. -1.
         22    1    1    0    0    0 -0.58239986394E+01  0.42296920972E+00  0.27214753921E+02  0.27834164152E+02  0.00000000000E+00 0.  1.
</event>
<event>
 5    1  0.1044283E-009  0.9118800E+02  0.7815553E-02  0.1125453E+00
         25   -1    0    0    0    0  0.00000000000E+00  0.00000000000E+00  0.99999998245E-14  0.12509000000E+03  0.12509000000E+03 0.  0.
        -11    1    3    3    0    0 -0.35255504075E+02  0.29691344702E+02  0.24013581597E+02  0.51972864258E+02  0.51100000000E-03 0.  1.
         23    2    1    0    0    0 -0.12660923559E+02  0.41208292521E+02  0.10452451657E+02  0.80731504720E+02  0.67452944717E+02 0.  0.
         11    1    3    3    0    0  0.22594580516E+02  0.11516947818E+02 -0.13561129940E+02  0.28758640462E+02  0.51100000000E-03 0. -1.
         22    1    1    0    0    0  0.12660923559E+02 -0.41208292521E+02 -0.10452451657E+02  0.44358495280E+02  0.00000000000E+00 0.  1.
</event>
<event>
 5    1  0.1044283E-009  0.9118800E+02  0.7815553E-02  0.1125453E+00
         25   -1    0    0    0    0  0.00000000000E+00  0.00000000000E+00  0.99999998245E-14  0.12509000000E+03  0.12509000000E+03 0.  0.
        -11    1    3    3    0    0  0.25684867160E+02 -0.26555361669E+02  0.44266282585E+02  0.57657639638E+02  0.51100000000E-03 0.  1.
         23    2    1    0    0    0  0.25081516438E+02 -0.52158526947E+01  0.10943150025E+02  0.97232503368E+02  0.93156425396E+02 0.  0.
         11    1    3    3    0    0 -0.60335072242E+00  0.21339508975E+02 -0.33323132560E+02  0.39574863730E+02  0.51100000000E-03 0. -1.
         22    1    1    0    0    0 -0.25081516438E+02  0.52158526947E+01 -0.10943150025E+02  0.27857496632E+02  0.00000000000E+00 0.  1.
</event>
<event>
 5    1  0.1044283E-009  0.9118800E+02  0.7815553E-02  0.1125453E+00
         25   -1    0    0    0    0  0.00000000000E+00  0.00000000000E+00  0.99999998245E-14  0.12509000000E+03  0.12509000000E+03 0.  0.
        -11    1    3    3    0    0 -0.24065371847E+02  0.18214803499E+02 -0.33089369596E+02  0.44786466362E+02  0.51100000000E-03 0.  1.
         23    2    1    0    0    0  0.14822529495E+02 -0.88130184095E+01 -0.27714561438E+02  0.92448407057E+02  0.86494129151E+02 0.  0.
         11    1    3    3    0    0  0.38887901342E+02 -0.27027821908E+02  0.53748081580E+01  0.47661940696E+02  0.51100000000E-03 0. -1.
         22    1    1    0    0    0 -0.14822529495E+02  0.88130184095E+01  0.27714561438E+02  0.32641592943E+02  0.00000000000E+00 0. -1.
</event>
<event>
 5    1  0.1044283E-009  0.9118800E+02  0.7815553E-02  0.1125453E+00
         25   -1    0    0    0    0  0.00000000000E+00  0.00000000000E+00  0.99999998245E-14  0.12509000000E+03  0.12509000000E+03 0.  0.
        -11    1    3    3    0    0  0.16798413682E+01  0.28875612859E+02 -0.19467211426E+02  0.34865386933E+02  0.51100000000E-03 0.  1.
         23    2    1    0    0    0 -0.15526736582E+02 -0.22041829218E+02  0.10209181478E+02  0.96260342169E+02  0.91841735088E+02 0.  0.
         11    1    3    3    0    0 -0.17206577950E+02 -0.50917442077E+02  0.29676392904E+02  0.61394955237E+02  0.51100000000E-03 0. -1.
         22    1    1    0    0    0  0.15526736582E+02  0.22041829218E+02 -0.10209181478E+02  0.28829657831E+02  0.00000000000E+00 0. -1.
</event>
<event>
 5    1  0.1044283E-009  0.9118800E+02  0.7815553E-02  0.1125453E+00
         25   -1    0    0    0    0  0.00000000000E+00  0.00000000000E+00  0.99999998245E-14  0.12509000000E+03  0.12509000000E+03 0.  0.
        -11    1    3    3    0    0  0.66178113863E+01  0.57760949862E+02 -0.15200407588E+02  0.60093054071E+02  0.51100000000E-03 0. -1.
         23    2    1    0    0    0 -0.71680496781E+01  0.38443529551E+02 -0.12781632065E+02  0.83948098989E+02  0.73175318962E+02 0.  0.
         11    1    3    3    0    0 -0.13785861064E+02 -0.19317420311E+02  0.24187755226E+01  0.23855044918E+02  0.51100000000E-03 0.  1.
         22    1    1    0    0    0  0.71680496781E+01 -0.38443529551E+02  0.12781632065E+02  0.41141901011E+02  0.00000000000E+00 0. -1.
</event>
<event>
 5    1  0.1044283E-009  0.9118800E+02  0.7815553E-02  0.1125453E+00
         25   -1    0    0    0    0  0.00000000000E+00  0.00000000000E+00  0.99999998245E-14  0.12509000000E+03  0.12509000000E+03 0.  0.
        -11    1    3    3    0    0 -0.11407050937E+02  0.47437294538E+02 -0.30254442343E+02  0.57408614388E+02  0.51100000000E-03 0. -1.
         23    2    1    0    0    0 -0.72885721361E+01  0.10496921115E+02 -0.27603028741E+02  0.94672310535E+02  0.89652721931E+02 0.  0.
         11    1    3    3    0    0  0.41184788006E+01 -0.36940373423E+02  0.26514136018E+01  0.37263696148E+02  0.51100000000E-03 0.  1.
         22    1    1    0    0    0  0.72885721361E+01 -0.10496921115E+02  0.27603028741E+02  0.30417689465E+02  0.00000000000E+00 0. -1.
</event>
<event>
 5    1  0.1044283E-009  0.9118800E+02  0.7815553E-02  0.1125453E+00
         25   -1    0    0    0    0  0.00000000000E+00  0.00000000000E+00  0.99999998245E-14  0.12509000000E+03  0.12509000000E+03 0.  0.
        -11    1    3    3    0    0 -0.64738829596E+01  0.33735204370E+02  0.11895149959E+02  0.36352025628E+02  0.51100000000E-03 0. -1.
         23    2    1    0    0    0  0.19232596157E+02 -0.46906995709E+01 -0.23343658735E+02  0.94482454843E+02  0.89387428941E+02 0.  0.
         11    1    3    3    0    0  0.25706479117E+02 -0.38425903941E+02 -0.35238808694E+02  0.58130429215E+02  0.51100000000E-03 0.  1.
         22    1    1    0    0    0 -0.19232596157E+02  0.46906995709E+01  0.23343658735E+02  0.30607545157E+02  0.00000000000E+00 0.  1.
</event>
<event>
 5    1  0.1044283E-009  0.9118800E+02  0.7815553E-02  0.1125453E+00
         25   -1    0    0    0    0  0.00000000000E+00  0.00000000000E+00  0.99999998245E-14  0.12509000000E+03  0.12509000000E+03 0.  0.
        -11    1    3    3    0    0 -0.17441002029E+02 -0.30612373823E+02  0.56546160511E+01  0.35683058526E+02  0.51100000000E-03 0. -1.
         23    2    1    0    0    0  0.23949349301E+02  0.14479785083E+02  0.29073347414E+01  0.96953047370E+02  0.92780414372E+02 0.  0.
         11    1    3    3    0    0  0.41390351330E+02  0.45092158906E+02 -0.27472813097E+01  0.61269988844E+02  0.51100000000E-03 0.  1.
         22    1    1    0    0    0 -0.23949349301E+02 -0.14479785083E+02 -0.29073347414E+01  0.28136952630E+02  0.00000000000E+00 0.  1.
</event>
<event>
 5    1  0.1044283E-009  0.9118800E+02  0.7815553E-02  0.1125453E+00
         25   -1    0    0    0    0  0.00000000000E+00  0.00000000000E+00  0.99999998245E-14  0.12509000000E+03  0.12509000000E+03 0.  0.
        -11    1    3    3    0    0 -0.11295285250E+02  0.35438642083E+02  0.49636925102E+02  0.62026648752E+02  0.51100000000E-03 0. -1.
         23    2    1    0    0    0 -0.21501324583E+00  0.18537577664E+02  0.26531585779E+02  0.92723148743E+02  0.86890559053E+02 0.  0.
         11    1    3    3    0    0  0.11080272005E+02 -0.16901064420E+02 -0.23105339323E+02  0.30696499991E+02  0.51100000000E-03 0.  1.
         22    1    1    0    0    0  0.21501324583E+00 -0.18537577664E+02 -0.26531585779E+02  0.32366851257E+02  0.00000000000E+00 0. -1.
</event>
<event>
 5    1  0.1044283E-009  0.9118800E+02  0.7815553E-02  0.1125453E+00
         25   -1    0    0    0    0  0.00000000000E+00  0.00000000000E+00  0.99999998245E-14  0.12509000000E+03  0.12509000000E+03 0.  0.
        -11    1    3    3    0    0  0.25573310623E+02 -0.29127032713E+01 -0.13132704643E+01  0.25772130997E+02  0.51100000000E-03 0. -1.
         23    2    1    0    0    0  0.29592165809E+01  0.36487404529E+02 -0.28484307862E+02  0.78706345051E+02  0.63586518263E+02 0.  0.
         11    1    3    3    0    0 -0.22614094042E+02  0.39400107800E+02 -0.27171037398E+02  0.52934214054E+02  0.51100000000E-03 0.  1.
         22    1    1    0    0    0 -0.29592165809E+01 -0.36487404529E+02  0.28484307862E+02  0.46383654949E+02  0.00000000000E+00 0.  1.
</event>
<event>
 5    1  0.1044283E-009  0.9118800E+02  0.7815553E-02  0.1125453E+00
         25   -1    0    0    0    0  0.00000000000E+00  0.00000000000E+00  0.99999998245E-14  0.12509000000E+03  0.12509000000E+03 0.  0.
        -11    1    3    3    0    0  0.22532966978E+02 -0.12388559214E+02  0.12993665240E+02  0.28810524759E+02  0.51100000000E-03 0. -1.
         23    2    1    0    0    0 -0.33459816362E+02 -0.57288335722E+01 -0.99925586995E+01  0.89703136979E+02  0.82428288284E+02 0.  0.
         11    1    3    3    0    0 -0.55992783340E+02  0.66597256420E+01 -0.22986223940E+02  0.60892612221E+02  0.51100000000E-03 0.  1.
         22    1    1    0    0    0  0.33459816362E+02  0.57288335722E+01  0.99925586995E+01  0.35386863021E+02  0.00000000000E+00 0.  1.
</event>
<event>
 5    1  0.1044283E-009  0.9118800E+02  0.7815553E-02  0.1125453E+00
         25   -1    0    0    0    0  0.00000000000E+00  0.00000000000E+00  0.99999998245E-14  0.12509000000E+03  0.12509000000E+03 0.  0.
        -11    1    3    3    0    0 -0.24081994987E+02 -0.28158252837E+02  0.45958091786E+01  0.37335655179E+02  0.51100000000E-03 0. -1.
         23    2    1    0    0    0 -0.83403342865E+01  0.27937314031E+02 -0.13659189002E+01  0.95902324078E+02  0.91352806951E+02 0.  0.
         11    1    3    3    0    0  0.15741660701E+02  0.56095566868E+02 -0.59617280788E+01  0.58566668898E+02  0.51100000000E-03 0.  1.
         22    1    1    0    0    0  0.83403342865E+01 -0.27937314031E+02  0.13659189002E+01  0.29187675922E+02  0.00000000000E+00 0.  1.
</event>
<event>
 5    1  0.1044283E-009  0.9118800E+02  0.7815553E-02  0.1125453E+00
         25   -1    0    0    0    0  0.00000000000E+00  0.00000000000E+00  0.99999998245E-14  0.12509000000E+03  0.12509000000E+03 0.  0.
        -11    1    3    3    0    0  0.35059778149E+02  0.37826535567E+02  0.21426010361E+02  0.55848981702E+02  0.51100000000E-03 0.  1.
         23    2    1    0    0    0  0.19864441082E+01  0.28942297942E+02  0.31702654151E+00  0.96077880529E+02  0.91592882097E+02 0.  0.
         11    1    3    3    0    0 -0.33073334041E+02 -0.88842376251E+01 -0.21108983819E+02  0.40228898828E+02  0.51100000000E-03 0. -1.
         22    1    1    0    0    0 -0.19864441082E+01 -0.28942297942E+02 -0.31702654151E+00  0.29012119471E+02  0.00000000000E+00 0.  1.
</event>
<event>
 5    1  0.1044283E-009  0.9118800E+02  0.7815553E-02  0.1125453E+00
         25   -1    0    0    0    0  0.00000000000E+00  0.00000000000E+00  0.99999998245E-14  0.12509000000E+03  0.12509000000E+03 0.  0.
        -11    1    3    3    0    0  0.34124072812E+02  0.27041590627E+02 -0.15053158328E+02  0.46068400719E+02  0.51100000000E-03 0.  1.
         23    2    1    0    0    0  0.77762011863E+00  0.18019651537E+02  0.21943050468E+02  0.96685598960E+02  0.92419127067E+02 0.  0.
         11    1    3    3    0    0 -0.33346452694E+02 -0.90219390898E+01  0.36996208796E+02  0.50617198241E+02  0.51100000000E-03 0. -1.
         22    1    1    0    0    0 -0.77762011863E+00 -0.18019651537E+02 -0.21943050468E+02  0.28404401040E+02  0.00000000000E+00 0. -1.
</event>
<event>
 5    1  0.1044283E-009  0.9118800E+02  0.7815553E-02  0.1125453E+00
         25   -1    0    0    0    0  0.00000000000E+00  0.00000000000E+00  0.99999998245E-14  0.12509000000E+03  0.12509000000E+03 0.  0.
        -11    1    3    3    0    0 -0.32549924460E+02  0.16109824659E+02  0.51127812276E+01  0.36676485178E+02  0.51100000000E-03 0.  1.
         23    2    1    0    0    0  0.53161484674E+01 -0.22016668669E+02 -0.18955083955E+02  0.95555438185E+02  0.90876572477E+02 0.  0.
         11    1    3    3    0    0  0.37866072928E+02 -0.38126493328E+02 -0.24067865183E+02  0.58878953007E+02  0.51100000000E-03 0. -1.
         22    1    1    0    0    0 -0.53161484674E+01  0.22016668669E+02  0.18955083955E+02  0.29534561815E+02  0.00000000000E+00 0. -1.
</event>
<event>
 5    1  0.1044283E-009  0.9118800E+02  0.7815553E-02  0.1125453E+00
         25   -1    0    0    0    0  0.00000000000E+00  0.00000000000E+00  0.99999998245E-14  0.12509000000E+03  0.12509000000E+03 0.  0.
        -11    1    3    3    0    0  0.11885714679E+02  0.15738637145E+02 -0.35857822974E+02  0.40923811911E+02  0.51100000000E-03 0.  1.
         23    2    1    0    0    0 -0.24247883050E+02 -0.96301786001E+01  0.17794764045E+01  0.98939154726E+02  0.95420593319E+02 0.  0.
         11    1    3    3    0    0 -0.36133597729E+02 -0.25368815746E+02  0.37637299378E+02  0.58015342815E+02  0.51100000000E-03 0. -1.
         22    1    1    0    0    0  0.24247883050E+02  0.96301786001E+01 -0.17794764045E+01  0.26150845274E+02  0.00000000000E+00 0. -1.
</event>
<event>
 5    1  0.1044283E-009  0.9118800E+02  0.7815553E-02  0.1125453E+00
         25   -1    0    0    0    0  0.00000000000E+00  0.00000000000E+00  0.99999998245E-14  0.12509000000E+03  0.12509000000E+03 0.  0.
        -11    1    3    3    0    0  0.28721513691E+02 -0.15182244063E+02 -0.46786885870E+02  0.56959973430E+02  0.51100000000E-03 0.  1.
         23    2    1    0    0    0  0.40307149302E+01  0.82012266841E+01 -0.27623908976E+02  0.95993829649E+02  0.91478020319E+02 0.  0.
         11    1    3    3    0    0 -0.24690798761E+02  0.23383470747E+02  0.19162976894E+02  0.39033856219E+02  0.51100000000E-03 0. -1.
         22    1    1    0    0    0 -0.40307149302E+01 -0.82012266841E+01  0.27623908976E+02  0.29096170351E+02  0.00000000000E+00 0.  1.
</event>
<event>
 5    1  0.1044283E-009  0.9118800E+02  0.7815553E-02  0.1125453E+00
         25   -1    0    0    0    0  0.00000000000E+00  0.00000000000E+00  0.99999998245E-14  0.12509000000E+03  0.12509000000E+03 0.  0.
        -11    1    3    3    0    0  0.11861355565E+01  0.47023482213E+02  0.32639211389E+02  0.57253234995E+02  0.51100000000E-03 0.  1.
         23    2    1    0    0    0  0.17355713259E+02  0.18156094416E+02  0.21072202098E+02  0.92304298110E+02  0.86285463441E+02 0.  0.
         11    1    3    3    0    0  0.16169577702E+02 -0.28867387797E+02 -0.11567009292E+02  0.35051063115E+02  0.51100000000E-03 0. -1.
         22    1    1    0    0    0 -0.17355713259E+02 -0.18156094416E+02 -0.21072202098E+02  0.32785701890E+02  0.00000000000E+00 0.  1.
</event>
<event>
 5    1  0.1044283E-009  0.9118800E+02  0.7815553E-02  0.1125453E+00
         25   -1    0    0    0    0  0.00000000000E+00  0.00000000000E+00  0.99999998245E-14  0.12509000000E+03  0.12509000000E+03 0.  0.
        -11    1    3    3    0    0 -0.32536694245E+02  0.49187336836E+00 -0.34783583049E+02  0.47631670785E+02  0.51100000000E-03 0.  1.
         23    2    1    0    0    0  0.14784063994E+02  0.14556616308E+01 -0.25070575246E+02  0.95948599174E+02  0.91416149784E+02 0.  0.
         11    1    3    3    0    0  0.47320758239E+02  0.96378826244E+00  0.97130078032E+01  0.48316928389E+02  0.51100000000E-03 0. -1.
         22    1    1    0    0    0 -0.14784063994E+02 -0.14556616308E+01  0.25070575246E+02  0.29141400826E+02  0.00000000000E+00 0.  1.
</event>
<event>
 5    1  0.1044283E-009  0.9118800E+02  0.7815553E-02  0.1125453E+00
         25   -1    0    0    0    0  0.00000000000E+00  0.00000000000E+00  0.99999998245E-14  0.12509000000E+03  0.12509000000E+03 0.  0.
        -11    1    3    3    0    0 -0.16886543223E+02 -0.11987761209E+02 -0.23432019429E+02  0.31271733172E+02  0.51100000000E-03 0.  1.
         23    2    1    0    0    0  0.21533268880E+02  0.13302729475E+02  0.18678279321E+02  0.93633325055E+02  0.88191139931E+02 0.  0.
         11    1    3    3    0    0  0.38419812103E+02  0.25290490685E+02  0.42110298750E+02  0.62361591883E+02  0.51100000000E-03 0. -1.
         22    1    1    0    0    0 -0.21533268880E+02 -0.13302729475E+02 -0.18678279321E+02  0.31456674945E+02  0.00000000000E+00 0. -1.
</event>
<event>
 5    1  0.1044283E-009  0.9118800E+02  0.7815553E-02  0.1125453E+00
         25   -1    0    0    0    0  0.00000000000E+00  0.00000000000E+00  0.99999998245E-14  0.12509000000E+03  0.12509000000E+03 0.  0.
        -11    1    3    3    0    0 -0.92146293798E+01 -0.15728708928E+02  0.42365640798E+02  0.46121027738E+02  0.51100000000E-03 0.  1.
         23    2    1    0    0    0 -0.21287595149E+02 -0.18526621364E+02 -0.61606926920E+01  0.96204856053E+02  0.91766130938E+02 0.  0.
         11    1    3    3    0    0 -0.12072965769E+02 -0.27979124368E+01 -0.48526333490E+02  0.50083828315E+02  0.51100000000E-03 0. -1.
         22    1    1    0    0    0  0.21287595149E+02  0.18526621364E+02  0.61606926920E+01  0.28885143947E+02  0.00000000000E+00 0. -1.
</event>
<event>
 5    1  0.1044283E-009  0.9118800E+02  0.7815553E-02  0.1125453E+00
         25   -1    0    0    0    0  0.00000000000E+00  0.00000000000E+00  0.99999998245E-14  0.12509000000E+03  0.12509000000E+03 0.  0.
        -11    1    3    3    0    0 -0.32503466615E+02 -0.51983644821E+01  0.26357358984E+02  0.42168812031E+02  0.51100000000E-03 0.  1.
         23    2    1    0    0    0 -0.82513517805E+01  0.26180384785E+02 -0.99060906607E+01  0.95907334154E+02  0.91359667023E+02 0.  0.
         11    1    3    3    0    0  0.24252114834E+02  0.31378749267E+02 -0.36263449645E+02  0.53738522123E+02  0.51100000000E-03 0. -1.
         22    1    1    0    0    0  0.82513517805E+01 -0.26180384785E+02  0.99060906607E+01  0.29182665846E+02  0.00000000000E+00 0. -1.
</event>
<event>
 5    1  0.1044283E-009  0.9118800E+02  0.7815553E-02  0.1125453E+00
         25   -1    0    0    0    0  0.00000000000E+00  0.00000000000E+00  0.99999998245E-14  0.12509000000E+03  0.12509000000E+03 0.  0.
        -11    1    3    3    0    0  0.25094454379E+02  0.41329874090E+01 -0.54281308688E+02  0.59943921282E+02  0.51100000000E-03 0.  1.
         23    2    1    0    0    0  0.19928438544E+02 -0.72636723274E+01 -0.22167624614E+02  0.94409270226E+02  0.89284954640E+02 0.  0.
         11    1    3    3    0    0 -0.51660158352E+01 -0.11396659736E+02  0.32113684074E+02  0.34465348944E+02  0.51100000000E-03 0. -1.
         22    1    1    0    0    0 -0.19928438544E+02  0.72636723274E+01  0.22167624614E+02  0.30680729774E+02  0.00000000000E+00 0.  1.
</event>
<event>
 5    1  0.1044283E-009  0.9118800E+02  0.7815553E-02  0.1125453E+00
         25   -1    0    0    0    0  0.00000000000E+00  0.00000000000E+00  0.99999998245E-14  0.12509000000E+03  0.12509000000E+03 0.  0.
        -11    1    3    3    0    0 -0.12578887047E+02 -0.48632157189E+02  0.15572746694E+02  0.52591116665E+02  0.51100000000E-03 0.  1.
         23    2    1    0    0    0  0.14745392403E+02 -0.24304338458E+02 -0.73031536923E+01  0.95739301220E+02  0.91129305271E+02 0.  0.
         11    1    3    3    0    0  0.27324279450E+02  0.24327818731E+02 -0.22875900386E+02  0.43148184555E+02  0.51100000000E-03 0. -1.
         22    1    1    0    0    0 -0.14745392403E+02  0.24304338458E+02  0.73031536923E+01  0.29350698780E+02  0.00000000000E+00 0.  1.
</event>
<event>
 5    1  0.1044283E-009  0.9118800E+02  0.7815553E-02  0.1125453E+00
         25   -1    0    0    0    0  0.00000000000E+00  0.00000000000E+00  0.99999998245E-14  0.12509000000E+03  0.12509000000E+03 0.  0.
        -11    1    3    3    0    0  0.31022333160E+01  0.29884829078E+02 -0.41888515100E+02  0.51549728982E+02  0.51100000000E-03 0. -1.
         23    2    1    0    0    0 -0.17867552392E+02 -0.23338464010E+01 -0.26689358878E+02  0.92887233894E+02  0.87126460250E+02 0.  0.
         11    1    3    3    0    0 -0.20969785708E+02 -0.32218675479E+02  0.15199156222E+02  0.41337504912E+02  0.51100000000E-03 0.  1.
         22    1    1    0    0    0  0.17867552392E+02  0.23338464010E+01  0.26689358878E+02  0.32202766106E+02  0.00000000000E+00 0. -1.
</event>
<event>
 5    1  0.1044283E-009  0.9118800E+02  0.7815553E-02  0.1125453E+00
         25   -1    0    0    0    0  0.00000000000E+00  0.00000000000E+00  0.99999998245E-14  0.12509000000E+03  0.12509000000E+03 0.  0.
        -11    1    3    3    0    0  0.11493111835E+02 -0.30319610631E+02 -0.23216566802E+02  0.39879560965E+02  0.51100000000E-03 0.  1.
         23    2    1    0    0    0  0.23668427850E+02  0.90445277875E+01  0.14634032314E+02  0.95829910090E+02  0.91253596128E+02 0.  0.
         11    1    3    3    0    0  0.12175316015E+02  0.39364138418E+02  0.37850599116E+02  0.55950349125E+02  0.51100000000E-03 0. -1.
         22    1    1    0    0    0 -0.23668427850E+02 -0.90445277875E+01 -0.14634032314E+02  0.29260089910E+02  0.00000000000E+00 0. -1.
</event>
<event>
 5    1  0.1044283E-009  0.9118800E+02  0.7815553E-02  0.1125453E+00
         25   -1    0    0    0    0  0.00000000000E+00  0.00000000000E+00  0.99999998245E-14  0.12509000000E+03  0.12509000000E+03 0.  0.
        -11    1    3    3    0    0 -0.29252984413E+02  0.19942133698E+02 -0.48056311457E+02  0.59689487052E+02  0.51100000000E-03 0. -1.
         23    2    1    0    0    0 -0.14584898699E+02 -0.38248672593E+01 -0.24950929922E+02  0.95936993575E+02  0.91400267793E+02 0.  0.
         11    1    3    3    0    0  0.14668085713E+02 -0.23767000957E+02  0.23105381535E+02  0.36247506523E+02  0.51100000000E-03 0.  1.
         22    1    1    0    0    0  0.14584898699E+02  0.38248672593E+01  0.24950929922E+02  0.29153006425E+02  0.00000000000E+00 0. -1.
</event>
<event>
 5    1  0.1044283E-009  0.9118800E+02  0.7815553E-02  0.1125453E+00
         25   -1    0    0    0    0  0.00000000000E+00  0.00000000000E+00  0.99999998245E-14  0.12509000000E+03  0.12509000000E+03 0.  0.
        -11    1    3    3    0    0 -0.11966396497E+02 -0.17386262615E+02 -0.32339350574E+02  0.38617487860E+02  0.51100000000E-03 0.  1.
         23    2    1    0    0    0 -0.19407657175E+02  0.17512296043E+02  0.12657810733E+02  0.96045932753E+02  0.91549240063E+02 0.  0.
         11    1    3    3    0    0 -0.74412606783E+01  0.34898558657E+02  0.44997161307E+02  0.57428444893E+02  0.51100000000E-03 0. -1.
         22    1    1    0    0    0  0.19407657175E+02 -0.17512296043E+02 -0.12657810733E+02  0.29044067247E+02  0.00000000000E+00 0. -1.
</event>
<event>
 5    1  0.1044283E-009  0.9118800E+02  0.7815553E-02  0.1125453E+00
         25   -1    0    0    0    0  0.00000000000E+00  0.00000000000E+00  0.99999998245E-14  0.12509000000E+03  0.12509000000E+03 0.  0.
        -11    1    3    3    0    0 -0.35956575131E+01  0.49961949247E+02  0.37068302180E+02  0.62315200010E+02  0.51100000000E-03 0. -1.
         23    2    1    0    0    0 -0.53949816865E+01  0.22824232964E+02  0.16503377852E+02  0.96412257440E+02  0.92048413710E+02 0.  0.
         11    1    3    3    0    0 -0.17993241734E+01 -0.27137716283E+02 -0.20564924329E+02  0.34097057431E+02  0.51100000000E-03 0.  1.
         22    1    1    0    0    0  0.53949816865E+01 -0.22824232964E+02 -0.16503377852E+02  0.28677742560E+02  0.00000000000E+00 0. -1.
</event>
<event>
 5    1  0.1044283E-009  0.9118800E+02  0.7815553E-02  0.1125453E+00
         25   -1    0    0    0    0  0.00000000000E+00  0.00000000000E+00  0.99999998245E-14  0.12509000000E+03  0.12509000000E+03 0.  0.
        -11    1    3    3    0    0 -0.30681860082E+02  0.84725961006E+01 -0.40556283281E+02  0.51555538370E+02  0.51100000000E-03 0.  1.
         23    2    1    0    0    0  0.51664342889E+01 -0.11921668810E+02 -0.27264298165E+02  0.94888010249E+02  0.89953178400E+02 0.  0.
         11    1    3    3    0    0  0.35848294371E+02 -0.20394264911E+02  0.13291985117E+02  0.43332471879E+02  0.51100000000E-03 0. -1.
         22    1    1    0    0    0 -0.51664342889E+01  0.11921668810E+02  0.27264298165E+02  0.30201989751E+02  0.00000000000E+00 0.  1.
</event>
<event>
 5    1  0.1044283E-009  0.9118800E+02  0.7815553E-02  0.1125453E+00
         25   -1    0    0    0    0  0.00000000000E+00  0.00000000000E+00  0.99999998245E-14  0.12509000000E+03  0.12509000000E+03 0.  0.
        -11    1    3    3    0    0  0.19276292615E+02 -0.14759616350E+02 -0.28061063037E+02  0.37105861946E+02  0.51100000000E-03 0. -1.
         23    2    1    0    0    0 -0.11450256278E+01 -0.82837195654E+01  0.27337235867E+02  0.96502318066E+02  0.92170721131E+02 0.  0.
         11    1    3    3    0    0 -0.20421318243E+02  0.64758967846E+01  0.55398298903E+02  0.59396456120E+02  0.51100000000E-03 0.  1.
         22    1    1    0    0    0  0.11450256278E+01  0.82837195654E+01 -0.27337235867E+02  0.28587681934E+02  0.00000000000E+00 0.  1.
</event>
<event>
 5    1  0.1044283E-009  0.9118800E+02  0.7815553E-02  0.1125453E+00
         25   -1    0    0    0    0  0.00000000000E+00  0.00000000000E+00  0.99999998245E-14  0.12509000000E+03  0.12509000000E+03 0.  0.
        -11    1    3    3    0    0  0.41886882855E+02  0.22880253210E+02  0.25352093783E+02  0.54043922893E+02  0.51100000000E-03 0. -1.
         23    2    1    0    0    0  0.47140051557E+01 -0.22734236830E+01  0.25632853697E+02  0.98928320228E+02  0.95406388962E+02 0.  0.
         11    1    3    3    0    0 -0.37172877700E+02 -0.25153676893E+02  0.28075991394E+00  0.44884397335E+02  0.51100000000E-03 0.  1.
         22    1    1    0    0    0 -0.47140051557E+01  0.22734236830E+01 -0.25632853697E+02  0.26161679772E+02  0.00000000000E+00 0. -1.
</event>
<event>
 5    1  0.1044283E-009  0.9118800E+02  0.7815553E-02  0.1125453E+00
         25   -1    0    0    0    0  0.00000000000E+00  0.00000000000E+00  0.99999998245E-14  0.12509000000E+03  0.12509000000E+03 0.  0.
        -11    1    3    3    0    0 -0.56597400210E+02 -0.12099151233E+02 -0.86369998396E+01  0.58517116620E+02  0.51100000000E-03 0. -1.
         23    2    1    0    0    0 -0.23656608042E+02 -0.17206216283E+02  0.64953263349E+01  0.95125383416E+02  0.90282669007E+02 0.  0.
         11    1    3    3    0    0  0.32940792168E+02 -0.51070650497E+01  0.15132326174E+02  0.36608266796E+02  0.51100000000E-03 0.  1.
         22    1    1    0    0    0  0.23656608042E+02  0.17206216283E+02 -0.64953263349E+01  0.29964616584E+02  0.00000000000E+00 0. -1.
</event>
<event>
 5    1  0.1044283E-009  0.9118800E+02  0.7815553E-02  0.1125453E+00
         25   -1    0    0    0    0  0.00000000000E+00  0.00000000000E+00  0.99999998245E-14  0.12509000000E+03  0.12509000000E+03 0.  0.
        -11    1    3    3    0    0 -0.16104463075E+02  0.40781929574E+01  0.23680407767E+02  0.28926581218E+02  0.51100000000E-03 0.  1.
         23    2    1    0    0    0  0.29393177651E+02 -0.25396064925E+02  0.12553285800E+02  0.84267163370E+02  0.73718727824E+02 0.  0.
         11    1    3    3    0    0  0.45497640726E+02 -0.29474257883E+02 -0.11127121967E+02  0.55340582152E+02  0.51100000000E-03 0. -1.
         22    1    1    0    0    0 -0.29393177651E+02  0.25396064925E+02 -0.12553285800E+02  0.40822836630E+02  0.00000000000E+00 0. -1.
</event>
<event>
 5    1  0.1044283E-009  0.9118800E+02  0.7815553E-02  0.1125453E+00
         25   -1    0    0    0    0  0.00000000000E+00  0.00000000000E+00  0.99999998245E-14  0.12509000000E+03  0.12509000000E+03 0.  0.
        -11    1    3    3    0    0 -0.40109246775E+02 -0.94118486333E+01 -0.16259274530E+02  0.44291066594E+02  0.51100000000E-03 0.  1.
         23    2    1    0    0    0 -0.21876349844E+01 -0.26272379406E+02  0.13607746648E+02  0.95421929026E+02  0.90692613281E+02 0.  0.
         11    1    3    3    0    0  0.37921611790E+02 -0.16860530773E+02  0.29867021178E+02  0.51130862432E+02  0.51100000000E-03 0. -1.
         22    1    1    0    0    0  0.21876349844E+01  0.26272379406E+02 -0.13607746648E+02  0.29668070974E+02  0.00000000000E+00 0. -1.
</event>
<event>
 5    1  0.1044283E-009  0.9118800E+02  0.7815553E-02  0.1125453E+00
         25   -1    0    0    0    0  0.00000000000E+00  0.00000000000E+00  0.99999998245E-14  0.12509000000E+03  0.12509000000E+03 0.  0.
        -11    1    3    3    0    0  0.34434363660E+02 -0.36507105667E+02  0.14010165687E+02  0.52103540261E+02  0.51100000000E-03 0.  1.
         23    2    1    0    0    0  0.14396420059E+02  0.10289776591E+00  0.25863807330E+02  0.95489256292E+02  0.90785428562E+02 0.  0.
         11    1    3    3    0    0 -0.20037943602E+02  0.36610003433E+02  0.11853641643E+02  0.43385716032E+02  0.51100000000E-03 0. -1.
         22    1    1    0    0    0 -0.14396420059E+02 -0.10289776591E+00 -0.25863807330E+02  0.29600743708E+02  0.00000000000E+00 0.  1.
</event>
<event>
 5    1  0.1044283E-009  0.9118800E+02  0.7815553E-02  0.1125453E+00
         25   -1    0    0    0    0  0.00000000000E+00  0.00000000000E+00  0.99999998245E-14  0.12509000000E+03  0.12509000000E+03 0.  0.
        -11    1    3    3    0    0 -0.24431350796E+02  0.30021986338E+02  0.85789542247E+01  0.39646046729E+02  0.51100000000E-03 0.  1.
         23    2    1    0    0    0  0.62603933998E+01 -0.14214576236E+02  0.24756050681E+02  0.95864861019E+02  0.91301494127E+02 0.  0.
         11    1    3    3    0    0  0.30691744195E+02 -0.44236562575E+02  0.16177096457E+02  0.56218814290E+02  0.51100000000E-03 0. -1.
         22    1    1    0    0    0 -0.62603933998E+01  0.14214576236E+02 -0.24756050681E+02  0.29225138981E+02  0.00000000000E+00 0. -1.
</event>
<event>
 5    1  0.1044283E-009  0.9118800E+02  0.7815553E-02  0.1125453E+00
         25   -1    0    0    0    0  0.00000000000E+00  0.00000000000E+00  0.99999998245E-14  0.12509000000E+03  0.12509000000E+03 0.  0.
        -11    1    3    3    0    0 -0.46354649056E+02  0.73093174680E+01  0.24278147813E+02  0.52835670455E+02  0.51100000000E-03 0. -1.
         23    2    1    0    0    0 -0.14675765019E+02  0.25769305094E+02  0.28624183271E+01  0.95296903440E+02  0.90520004434E+02 0.  0.
         11    1    3    3    0    0  0.31678884037E+02  0.18459987626E+02 -0.21415729486E+02  0.42461232985E+02  0.51100000000E-03 0.  1.
         22    1    1    0    0    0  0.14675765019E+02 -0.25769305094E+02 -0.28624183271E+01  0.29793096560E+02  0.00000000000E+00 0. -1.
</event>
<event>
 5    1  0.1044283E-009  0.9118800E+02  0.7815553E-02  0.1125453E+00
         25   -1    0    0    0    0  0.00000000000E+00  0.00000000000E+00  0.99999998245E-14  0.12509000000E+03  0.12509000000E+03 0.  0.
        -11    1    3    3    0    0  0.19170640046E+02  0.35506714736E+02  0.79634510896E+01  0.41129755466E+02  0.51100000000E-03 0.  1.
         23    2    1    0    0    0 -0.15734140503E+00 -0.11564023324E+02  0.27203525851E+02  0.95530175737E+02  0.90841792506E+02 0.  0.
         11    1    3    3    0    0 -0.19327981451E+02 -0.47070738061E+02  0.19240074761E+02  0.54400420271E+02  0.51100000000E-03 0. -1.
         22    1    1    0    0    0  0.15734140503E+00  0.11564023324E+02 -0.27203525851E+02  0.29559824263E+02  0.00000000000E+00 0. -1.
</event>
<event>
 5    1  0.1044283E-009  0.9118800E+02  0.7815553E-02  0.1125453E+00
         25   -1    0    0    0    0  0.00000000000E+00  0.00000000000E+00  0.99999998245E-14  0.12509000000E+03  0.12509000000E+03 0.  0.
        -11    1    3    3    0    0  0.31323585563E+02  0.89486165972E+01  0.11101418198E+01  0.32595661776E+02  0.51100000000E-03 0.  1.
         23    2    1    0    0    0 -0.30172514119E+02  0.34348624888E+01  0.42941576582E+01  0.94420492691E+02  0.89300676153E+02 0.  0.
         11    1    3    3    0    0 -0.61496099682E+02 -0.55137541084E+01  0.31840158384E+01  0.61824830914E+02  0.51100000000E-03 0. -1.
         22    1    1    0    0    0  0.30172514119E+02 -0.34348624888E+01 -0.42941576582E+01  0.30669507309E+02  0.00000000000E+00 0. -1.
</event>
<event>
 5    1  0.1044283E-009  0.9118800E+02  0.7815553E-02  0.1125453E+00
         25   -1    0    0    0    0  0.00000000000E+00  0.00000000000E+00  0.99999998245E-14  0.12509000000E+03  0.12509000000E+03 0.  0.
        -11    1    3    3    0    0 -0.23829504973E+02 -0.10515597662E+02 -0.22364010782E+02  0.34330337604E+02  0.51100000000E-03 0.  1.
         23    2    1    0    0    0  0.26012032663E+02  0.11499644402E+02  0.63918415815E+01  0.95939986219E+02  0.91404363420E+02 0.  0.
         11    1    3    3    0    0  0.49841537636E+02  0.22015242064E+02  0.28755852363E+02  0.61609648615E+02  0.51100000000E-03 0. -1.
         22    1    1    0    0    0 -0.26012032663E+02 -0.11499644402E+02 -0.63918415815E+01  0.29150013781E+02  0.00000000000E+00 0. -1.
</event>
<event>
 5    1  0.1044283E-009  0.9118800E+02  0.7815553E-02  0.1125453E+00
         25   -1    0    0    0    0  0.00000000000E+00  0.00000000000E+00  0.99999998245E-14  0.12509000000E+03  0.12509000000E+03 0.  0.
        -11    1    3    3    0    0 -0.36392563497E+01 -0.14158909601E+02  0.41844470514E+02  0.44324695382E+02  0.51100000000E-03 0.  1.
         23    2    1    0    0    0  0.22838233818E+02  0.16415491984E+02  0.12404249969E+02  0.94350469777E+02  0.89202536000E+02 0.  0.
         11    1    3    3    0    0  0.26477490168E+02  0.30574401585E+02 -0.29440220544E+02  0.50025774395E+02  0.51100000000E-03 0. -1.
         22    1    1    0    0    0 -0.22838233818E+02 -0.16415491984E+02 -0.12404249969E+02  0.30739530223E+02  0.00000000000E+00 0. -1.
</event>
<event>
 5    1  0.1044283E-009  0.9118800E+02  0.7815553E-02  0.1125453E+00
         25   -1    0    0    0    0  0.00000000000E+00  0.00000000000E+00  0.99999998245E-14  0.12509000000E+03  0.12509000000E+03 0.  0.
        -11    1    3    3    0    0 -0.21129947228E+02 -0.54897535389E+02 -0.21231838976E+02  0.62538028816E+02  0.51100000000E-03 0.  1.
         23    2    1    0    0    0 -0.10553955280E+02 -0.27580502319E+02 -0.11358150143E+02  0.93450188767E+02  0.87930996387E+02 0.  0.
         11    1    3    3    0    0  0.10575991947E+02  0.27317033070E+02  0.98736888332E+01  0.30912159951E+02  0.51100000000E-03 0. -1.
         22    1    1    0    0    0  0.10553955280E+02  0.27580502319E+02  0.11358150143E+02  0.31639811233E+02  0.00000000000E+00 0.  1.
</event>
<event>
 5    1  0.1044283E-009  0.9118800E+02  0.7815553E-02  0.1125453E+00
         25   -1    0    0    0    0  0.00000000000E+00  0.00000000000E+00  0.99999998245E-14  0.12509000000E+03  0.12509000000E+03 0.  0.
        -11    1    3    3    0    0  0.72461129567E+01  0.10286545504E+02  0.31369577666E+02  0.33798958188E+02  0.51100000000E-03 0.  1.
         23    2    1    0    0    0  0.34912081905E+01 -0.19792864881E+02 -0.22071646428E+02  0.95238641390E+02  0.90439456007E+02 0.  0.
         11    1    3    3    0    0 -0.37549047662E+01 -0.30079410386E+02 -0.53441224094E+02  0.61439683201E+02  0.51100000000E-03 0. -1.
         22    1    1    0    0    0 -0.34912081905E+01  0.19792864881E+02  0.22071646428E+02  0.29851358610E+02  0.00000000000E+00 0. -1.
</event>
<event>
 5    1  0.1044283E-009  0.9118800E+02  0.7815553E-02  0.1125453E+00
         25   -1    0    0    0    0  0.00000000000E+00  0.00000000000E+00  0.99999998245E-14  0.12509000000E+03  0.12509000000E+03 0.  0.
        -11    1    3    3    0    0  0.90835039947E+01 -0.25959693433E+02  0.32823159774E+02  0.42822605547E+02  0.51100000000E-03 0.  1.
         23    2    1    0    0    0 -0.30369939659E+02 -0.51222181962E+01  0.12501611295E+02  0.91850555975E+02  0.85625136461E+02 0.  0.
         11    1    3    3    0    0 -0.39453443653E+02  0.20837475237E+02 -0.20321548480E+02  0.49027950429E+02  0.51100000000E-03 0. -1.
         22    1    1    0    0    0  0.30369939659E+02  0.51222181962E+01 -0.12501611295E+02  0.33239444025E+02  0.00000000000E+00 0. -1.
</event>
<event>
 5    1  0.1044283E-009  0.9118800E+02  0.7815553E-02  0.1125453E+00
         25   -1    0    0    0    0  0.00000000000E+00  0.00000000000E+00  0.99999998245E-14  0.12509000000E+03  0.12509000000E+03 0.  0.
        -11    1    3    3    0    0 -0.13544414216E+02  0.46686109972E+02  0.39123546735E+01  0.48768335425E+02  0.51100000000E-03 0.  1.
         23    2    1    0    0    0 -0.31534408403E+02  0.21449839122E+02 -0.13880142502E+02  0.84504622491E+02  0.74120566342E+02 0.  0.
         11    1    3    3    0    0 -0.17989994187E+02 -0.25236270850E+02 -0.17792497175E+02  0.35736287066E+02  0.51100000000E-03 0. -1.
         22    1    1    0    0    0  0.31534408403E+02 -0.21449839122E+02  0.13880142502E+02  0.40585377509E+02  0.00000000000E+00 0. -1.
</event>
<event>
 5    1  0.1044283E-009  0.9118800E+02  0.7815553E-02  0.1125453E+00
         25   -1    0    0    0    0  0.00000000000E+00  0.00000000000E+00  0.99999998245E-14  0.12509000000E+03  0.12509000000E+03 0.  0.
        -11    1    3    3    0    0  0.57418799398E+02  0.54681108428E+01  0.17967662118E+02  0.60412379879E+02  0.51100000000E-03 0. -1.
         23    2    1    0    0    0  0.22452964891E+02 -0.12407045365E+01  0.18424230502E+02  0.96018927612E+02  0.91512333650E+02 0.  0.
         11    1    3    3    0    0 -0.34965834506E+02 -0.67088153794E+01  0.45656838422E+00  0.35606547733E+02  0.51100000000E-03 0.  1.
         22    1    1    0    0    0 -0.22452964891E+02  0.12407045365E+01 -0.18424230502E+02  0.29071072388E+02  0.00000000000E+00 0. -1.
</event>
<event>
 5    1  0.1044283E-009  0.9118800E+02  0.7815553E-02  0.1125453E+00
         25   -1    0    0    0    0  0.00000000000E+00  0.00000000000E+00  0.99999998245E-14  0.12509000000E+03  0.12509000000E+03 0.  0.
        -11    1    3    3    0    0  0.38700898238E+02 -0.18573200035E+02  0.10155290621E+02  0.44111826213E+02  0.51100000000E-03 0.  1.
         23    2    1    0    0    0 -0.10449044241E+02 -0.43841643039E+01  0.25220309136E+02  0.97440996128E+02  0.93435969045E+02 0.  0.
         11    1    3    3    0    0 -0.49149942479E+02  0.14189035731E+02  0.15065018515E+02  0.53329169915E+02  0.51100000000E-03 0. -1.
         22    1    1    0    0    0  0.10449044241E+02  0.43841643039E+01 -0.25220309136E+02  0.27649003872E+02  0.00000000000E+00 0. -1.
</event>
<event>
 5    1  0.1044283E-009  0.9118800E+02  0.7815553E-02  0.1125453E+00
         25   -1    0    0    0    0  0.00000000000E+00  0.00000000000E+00  0.99999998245E-14  0.12509000000E+03  0.12509000000E+03 0.  0.
        -11    1    3    3    0    0 -0.12461225709E+02 -0.84568680966E+01 -0.57656853175E+02  0.59591219844E+02  0.51100000000E-03 0.  1.
         23    2    1    0    0    0  0.20719212101E+01  0.71491938194E+01 -0.27989464406E+02  0.96127715085E+02  0.91660916753E+02 0.  0.
         11    1    3    3    0    0  0.14533146919E+02  0.15606061916E+02  0.29667388769E+02  0.36536495241E+02  0.51100000000E-03 0. -1.
         22    1    1    0    0    0 -0.20719212101E+01 -0.71491938194E+01  0.27989464406E+02  0.28962284915E+02  0.00000000000E+00 0.  1.
</event>
<event>
 5    1  0.1044283E-009  0.9118800E+02  0.7815553E-02  0.1125453E+00
         25   -1    0    0    0    0  0.00000000000E+00  0.00000000000E+00  0.99999998245E-14  0.12509000000E+03  0.12509000000E+03 0.  0.
        -11    1    3    3    0    0  0.28774340986E+02 -0.21241548653E+02 -0.18263974974E+02  0.40158920185E+02  0.51100000000E-03 0. -1.
         23    2    1    0    0    0  0.12508537104E+02  0.81945211024E+01  0.25606377545E+02  0.95437002723E+02  0.90713401662E+02 0.  0.
         11    1    3    3    0    0 -0.16265803882E+02  0.29436069756E+02  0.43870352519E+02  0.55278082537E+02  0.51100000000E-03 0.  1.
         22    1    1    0    0    0 -0.12508537104E+02 -0.81945211024E+01 -0.25606377545E+02  0.29652997277E+02  0.00000000000E+00 0.  1.
</event>
<event>
 5    1  0.1044283E-009  0.9118800E+02  0.7815553E-02  0.1125453E+00
         25   -1    0    0    0    0  0.00000000000E+00  0.00000000000E+00  0.99999998245E-14  0.12509000000E+03  0.12509000000E+03 0.  0.
        -11    1    3    3    0    0  0.33185849184E+02 -0.88809257864E+01  0.58861688211E+01  0.34854245258E+02  0.51100000000E-03 0.  1.
         23    2    1    0    0    0 -0.19390103262E+02  0.20322906302E+02 -0.64997981271E+01  0.96258697554E+02  0.91839495066E+02 0.  0.
         11    1    3    3    0    0 -0.52575952445E+02  0.29203832088E+02 -0.12385966948E+02  0.61404452295E+02  0.51100000000E-03 0. -1.
         22    1    1    0    0    0  0.19390103262E+02 -0.20322906302E+02  0.64997981271E+01  0.28831302446E+02  0.00000000000E+00 0. -1.
</event>
<event>
 5    1  0.1044283E-009  0.9118800E+02  0.7815553E-02  0.1125453E+00
         25   -1    0    0    0    0  0.00000000000E+00  0.00000000000E+00  0.99999998245E-14  0.12509000000E+03  0.12509000000E+03 0.  0.
        -11    1    3    3    0    0 -0.30804498558E+02  0.35184043137E+02 -0.19547460257E+02  0.50684684330E+02  0.51100000000E-03 0.  1.
         23    2    1    0    0    0 -0.28144639696E+01  0.25504320305E+02  0.14344377716E+02  0.95693525148E+02  0.91066448386E+02 0.  0.
         11    1    3    3    0    0  0.27990034589E+02 -0.96797228320E+01  0.33891837973E+02  0.45008840819E+02  0.51100000000E-03 0. -1.
         22    1    1    0    0    0  0.28144639696E+01 -0.25504320305E+02 -0.14344377716E+02  0.29396474852E+02  0.00000000000E+00 0. -1.
</event>
<event>
 5    1  0.1044283E-009  0.9118800E+02  0.7815553E-02  0.1125453E+00
         25   -1    0    0    0    0  0.00000000000E+00  0.00000000000E+00  0.99999998245E-14  0.12509000000E+03  0.12509000000E+03 0.  0.
        -11    1    3    3    0    0  0.42403840803E+02  0.49311135962E+01  0.40322937692E+02  0.58722575732E+02  0.51100000000E-03 0. -1.
         23    2    1    0    0    0  0.15204618357E+02  0.15981763838E+02  0.24680840633E+02  0.91988019861E+02  0.85825722886E+02 0.  0.
         11    1    3    3    0    0 -0.27199222446E+02  0.11050650242E+02 -0.15642097060E+02  0.33265444129E+02  0.51100000000E-03 0.  1.
         22    1    1    0    0    0 -0.15204618357E+02 -0.15981763838E+02 -0.24680840633E+02  0.33101980139E+02  0.00000000000E+00 0. -1.
</event>
<event>
 5    1  0.1044283E-009  0.9118800E+02  0.7815553E-02  0.1125453E+00
         25   -1    0    0    0    0  0.00000000000E+00  0.00000000000E+00  0.99999998245E-14  0.12509000000E+03  0.12509000000E+03 0.  0.
        -11    1    3    3    0    0 -0.10611050229E+01  0.33012161251E+02  0.22338553430E+02  0.39874048001E+02  0.51100000000E-03 0.  1.
         23    2    1    0    0    0  0.18572597768E+02  0.94225510034E+01 -0.22641292131E+02  0.94327133349E+02  0.89169804985E+02 0.  0.
         11    1    3    3    0    0  0.19633702791E+02 -0.23589610248E+02 -0.44979845561E+02  0.54453085348E+02  0.51100000000E-03 0. -1.
         22    1    1    0    0    0 -0.18572597768E+02 -0.94225510034E+01  0.22641292131E+02  0.30762866651E+02  0.00000000000E+00 0. -1.
</event>
<event>
 5    1  0.1044283E-009  0.9118800E+02  0.7815553E-02  0.1125453E+00
         25   -1    0    0    0    0  0.00000000000E+00  0.00000000000E+00  0.99999998245E-14  0.12509000000E+03  0.12509000000E+03 0.  0.
        -11    1    3    3    0    0  0.52635530527E+02  0.21166733694E+02 -0.17360426968E+02  0.59328864087E+02  0.51100000000E-03 0. -1.
         23    2    1    0    0    0  0.17923833595E+02  0.11558172005E+02 -0.20532480623E+02  0.95485305924E+02  0.90779985327E+02 0.  0.
         11    1    3    3    0    0 -0.34711696932E+02 -0.96085616895E+01 -0.31720536546E+01  0.36156441837E+02  0.51100000000E-03 0.  1.
         22    1    1    0    0    0 -0.17923833595E+02 -0.11558172005E+02  0.20532480623E+02  0.29604694076E+02  0.00000000000E+00 0. -1.
</event>
<event>
 5    1  0.1044283E-009  0.9118800E+02  0.7815553E-02  0.1125453E+00
         25   -1    0    0    0    0  0.00000000000E+00  0.00000000000E+00  0.99999998245E-14  0.12509000000E+03  0.12509000000E+03 0.  0.
        -11    1    3    3    0    0 -0.25754674828E+02  0.16273302204E+02 -0.17635201672E+02  0.35201192854E+02  0.51100000000E-03 0.  1.
         23    2    1    0    0    0  0.24998459472E+02  0.87368820452E+01  0.13651302349E+02  0.95297146164E+02  0.90520339854E+02 0.  0.
         11    1    3    3    0    0  0.50753134300E+02 -0.75364201587E+01  0.31286504021E+02  0.60095953310E+02  0.51100000000E-03 0. -1.
         22    1    1    0    0    0 -0.24998459472E+02 -0.87368820452E+01 -0.13651302349E+02  0.29792853836E+02  0.00000000000E+00 0. -1.
</event>
<event>
 5    1  0.1044283E-009  0.9118800E+02  0.7815553E-02  0.1125453E+00
         25   -1    0    0    0    0  0.00000000000E+00  0.00000000000E+00  0.99999998245E-14  0.12509000000E+03  0.12509000000E+03 0.  0.
        -11    1    3    3    0    0 -0.50499593510E+02  0.29584830194E+02  0.47733112911E+01  0.58721849624E+02  0.51100000000E-03 0.  1.
         23    2    1    0    0    0 -0.20016999216E+02  0.17719021182E+02 -0.12348874409E+02  0.95642781652E+02  0.90996719796E+02 0.  0.
         11    1    3    3    0    0  0.30482594294E+02 -0.11865809012E+02 -0.17122185700E+02  0.36920932028E+02  0.51100000000E-03 0. -1.
         22    1    1    0    0    0  0.20016999216E+02 -0.17719021182E+02  0.12348874409E+02  0.29447218348E+02  0.00000000000E+00 0.  1.
</event>
<event>
 5    1  0.1044283E-009  0.9118800E+02  0.7815553E-02  0.1125453E+00
         25   -1    0    0    0    0  0.00000000000E+00  0.00000000000E+00  0.99999998245E-14  0.12509000000E+03  0.12509000000E+03 0.  0.
        -11    1    3    3    0    0 -0.32958069884E+00  0.48998501373E+02  0.36392367285E+02  0.61035777680E+02  0.51100000000E-03 0. -1.
         23    2    1    0    0    0  0.27493050225E+01  0.27694185953E+02  0.90697787356E+01  0.95819067319E+02  0.91238731698E+02 0.  0.
         11    1    3    3    0    0  0.30788857213E+01 -0.21304315420E+02 -0.27322588549E+02  0.34783289639E+02  0.51100000000E-03 0.  1.
         22    1    1    0    0    0 -0.27493050225E+01 -0.27694185953E+02 -0.90697787356E+01  0.29270932681E+02  0.00000000000E+00 0. -1.
</event>
<event>
 5    1  0.1044283E-009  0.9118800E+02  0.7815553E-02  0.1125453E+00
         25   -1    0    0    0    0  0.00000000000E+00  0.00000000000E+00  0.99999998245E-14  0.12509000000E+03  0.12509000000E+03 0.  0.
        -11    1    3    3    0    0  0.23268625381E+02 -0.14176730497E+02 -0.25178416972E+02  0.37099343609E+02  0.51100000000E-03 0.  1.
         23    2    1    0    0    0 -0.21822592596E+02 -0.10624179793E+02  0.14113595979E+02  0.97013455780E+02  0.92861823517E+02 0.  0.
         11    1    3    3    0    0 -0.45091217977E+02  0.35525507031E+01  0.39292012952E+02  0.59914112171E+02  0.51100000000E-03 0. -1.
         22    1    1    0    0    0  0.21822592596E+02  0.10624179793E+02 -0.14113595979E+02  0.28076544220E+02  0.00000000000E+00 0. -1.
</event>
<event>
 5    1  0.1044283E-009  0.9118800E+02  0.7815553E-02  0.1125453E+00
         25   -1    0    0    0    0  0.00000000000E+00  0.00000000000E+00  0.99999998245E-14  0.12509000000E+03  0.12509000000E+03 0.  0.
        -11    1    3    3    0    0  0.24409814128E+01 -0.25638609067E+02  0.27938224358E+02  0.37997908439E+02  0.51100000000E-03 0. -1.
         23    2    1    0    0    0 -0.24331524124E+02 -0.14359480253E+01 -0.16806304322E+02  0.95483634504E+02  0.90777682170E+02 0.  0.
         11    1    3    3    0    0 -0.26772505537E+02  0.24202661042E+02 -0.44744528680E+02  0.57485726065E+02  0.51100000000E-03 0.  1.
         22    1    1    0    0    0  0.24331524124E+02  0.14359480253E+01  0.16806304322E+02  0.29606365496E+02  0.00000000000E+00 0.  1.
</event>
<event>
 5    1  0.1044283E-009  0.9118800E+02  0.7815553E-02  0.1125453E+00
         25   -1    0    0    0    0  0.00000000000E+00  0.00000000000E+00  0.99999998245E-14  0.12509000000E+03  0.12509000000E+03 0.  0.
        -11    1    3    3    0    0 -0.42306029118E+02  0.12624380601E+02  0.41178043224E+02  0.60372231442E+02  0.51100000000E-03 0.  1.
         23    2    1    0    0    0 -0.19319582490E+02 -0.49130567898E+01  0.23552991502E+02  0.94233431764E+02  0.89038260645E+02 0.  0.
         11    1    3    3    0    0  0.22986446627E+02 -0.17537437390E+02 -0.17625051722E+02  0.33861200322E+02  0.51100000000E-03 0. -1.
         22    1    1    0    0    0  0.19319582490E+02  0.49130567898E+01 -0.23552991502E+02  0.30856568236E+02  0.00000000000E+00 0.  1.
</event>
<event>
 5    1  0.1044283E-009  0.9118800E+02  0.7815553E-02  0.1125453E+00
         25   -1    0    0    0    0  0.00000000000E+00  0.00000000000E+00  0.99999998245E-14  0.12509000000E+03  0.12509000000E+03 0.  0.
        -11    1    3    3    0    0 -0.51102463400E+02 -0.21290631491E+02 -0.23605551814E+02  0.60182844994E+02  0.51100000000E-03 0.  1.
         23    2    1    0    0    0 -0.27470362825E+02 -0.11223388302E+02  0.50260966324E+00  0.95411086691E+02  0.90677657492E+02 0.  0.
         11    1    3    3    0    0  0.23632100575E+02  0.10067243189E+02  0.24108161477E+02  0.35228241697E+02  0.51100000000E-03 0. -1.
         22    1    1    0    0    0  0.27470362825E+02  0.11223388302E+02 -0.50260966324E+00  0.29678913309E+02  0.00000000000E+00 0.  1.
</event>
<event>
 5    1  0.1044283E-009  0.9118800E+02  0.7815553E-02  0.1125453E+00
         25   -1    0    0    0    0  0.00000000000E+00  0.00000000000E+00  0.99999998245E-14  0.12509000000E+03  0.12509000000E+03 0.  0.
        -11    1    3    3    0    0 -0.10584310792E+02  0.22801702631E+02  0.25118221846E+02  0.35536887129E+02  0.51100000000E-03 0.  1.
         23    2    1    0    0    0  0.64171770865E+01  0.42446835244E+01 -0.28928296306E+02  0.95156008834E+02  0.90325091697E+02 0.  0.
         11    1    3    3    0    0  0.17001487878E+02 -0.18557019107E+02 -0.54046518152E+02  0.59619121705E+02  0.51100000000E-03 0. -1.
         22    1    1    0    0    0 -0.64171770865E+01 -0.42446835244E+01  0.28928296306E+02  0.29933991166E+02  0.00000000000E+00 0. -1.
</event>
<event>
 5    1  0.1044283E-009  0.9118800E+02  0.7815553E-02  0.1125453E+00
         25   -1    0    0    0    0  0.00000000000E+00  0.00000000000E+00  0.99999998245E-14  0.12509000000E+03  0.12509000000E+03 0.  0.
        -11    1    3    3    0    0  0.38751587189E+02 -0.27000644951E+01  0.35587501515E+02  0.52682503000E+02  0.51100000000E-03 0.  1.
         23    2    1    0    0    0  0.31036292850E+02 -0.79877152295E+01 -0.34798535373E+01  0.92853926276E+02  0.87078626401E+02 0.  0.
         11    1    3    3    0    0 -0.77152943387E+01 -0.52876507345E+01 -0.39067355052E+02  0.40171423277E+02  0.51100000000E-03 0. -1.
         22    1    1    0    0    0 -0.31036292850E+02  0.79877152295E+01  0.34798535373E+01  0.32236073724E+02  0.00000000000E+00 0.  1.
</event>
<event>
 5    1  0.1044283E-009  0.9118800E+02  0.7815553E-02  0.1125453E+00
         25   -1    0    0    0    0  0.00000000000E+00  0.00000000000E+00  0.99999998245E-14  0.12509000000E+03  0.12509000000E+03 0.  0.
        -11    1    3    3    0    0 -0.61928654089E+02  0.79936311900E+01 -0.33728627894E+01  0.62533451373E+02  0.51100000000E-03 0. -1.
         23    2    1    0    0    0 -0.29326633540E+02  0.46385960259E+01 -0.15354483246E+01  0.95359113545E+02  0.90605932072E+02 0.  0.
         11    1    3    3    0    0  0.32602020550E+02 -0.33550351641E+01  0.18374144648E+01  0.32825662172E+02  0.51100000000E-03 0.  1.
         22    1    1    0    0    0  0.29326633540E+02 -0.46385960259E+01  0.15354483246E+01  0.29730886455E+02  0.00000000000E+00 0. -1.
</event>
<event>
 5    1  0.1044283E-009  0.9118800E+02  0.7815553E-02  0.1125453E+00
         25   -1    0    0    0    0  0.00000000000E+00  0.00000000000E+00  0.99999998245E-14  0.12509000000E+03  0.12509000000E+03 0.  0.
        -11    1    3    3    0    0  0.11638948310E+02 -0.45573242105E+02  0.18061352480E+02  0.50384501262E+02  0.51100000000E-03 0. -1.
         23    2    1    0    0    0 -0.15492876258E+02 -0.10203563146E+02  0.23342448322E+02  0.95273698933E+02  0.90487932340E+02 0.  0.
         11    1    3    3    0    0 -0.27131824568E+02  0.35369678959E+02  0.52810958419E+01  0.44889197672E+02  0.51100000000E-03 0.  1.
         22    1    1    0    0    0  0.15492876258E+02  0.10203563146E+02 -0.23342448322E+02  0.29816301067E+02  0.00000000000E+00 0. -1.
</event>
<event>
 5    1  0.1044283E-009  0.9118800E+02  0.7815553E-02  0.1125453E+00
         25   -1    0    0    0    0  0.00000000000E+00  0.00000000000E+00  0.99999998245E-14  0.12509000000E+03  0.12509000000E+03 0.  0.
        -11    1    3    3    0    0  0.30907137674E+02 -0.14746307327E+02 -0.41817253233E+02  0.54049860381E+02  0.51100000000E-03 0.  1.
         23    2    1    0    0    0  0.26527446229E+01  0.13272653545E+02 -0.23756121668E+02  0.97748571675E+02  0.93846840978E+02 0.  0.
         11    1    3    3    0    0 -0.28254393051E+02  0.28018960873E+02  0.18061131565E+02  0.43698711294E+02  0.51100000000E-03 0. -1.
         22    1    1    0    0    0 -0.26527446229E+01 -0.13272653545E+02  0.23756121668E+02  0.27341428325E+02  0.00000000000E+00 0.  1.
</event>
<event>
 5    1  0.1044283E-009  0.9118800E+02  0.7815553E-02  0.1125453E+00
         25   -1    0    0    0    0  0.00000000000E+00  0.00000000000E+00  0.99999998245E-14  0.12509000000E+03  0.12509000000E+03 0.  0.
        -11    1    3    3    0    0 -0.42340605186E+02 -0.28401123352E+02 -0.12023176600E+01  0.50998002149E+02  0.51100000000E-03 0.  1.
         23    2    1    0    0    0 -0.23660222540E+02  0.12146591654E+02 -0.10317452648E+02  0.96562896246E+02  0.92252898506E+02 0.  0.
         11    1    3    3    0    0  0.18680382645E+02  0.40547715006E+02 -0.91151349877E+01  0.45564894097E+02  0.51100000000E-03 0. -1.
         22    1    1    0    0    0  0.23660222540E+02 -0.12146591654E+02  0.10317452648E+02  0.28527103754E+02  0.00000000000E+00 0.  1.
</event>
<event>
 5    1  0.1044283E-009  0.9118800E+02  0.7815553E-02  0.1125453E+00
         25   -1    0    0    0    0  0.00000000000E+00  0.00000000000E+00  0.99999998245E-14  0.12509000000E+03  0.12509000000E+03 0.  0.
        -11    1    3    3    0    0 -0.14604781184E+02  0.29718901034E+02 -0.19896140371E+02  0.38631193536E+02  0.51100000000E-03 0. -1.
         23    2    1    0    0    0  0.85620741117E+00 -0.24317478932E+02 -0.17920272833E+02  0.94870651047E+02  0.89929035238E+02 0.  0.
         11    1    3    3    0    0  0.15460988595E+02 -0.54036379967E+02  0.19758675382E+01  0.56239457510E+02  0.51100000000E-03 0.  1.
         22    1    1    0    0    0 -0.85620741117E+00  0.24317478932E+02  0.17920272833E+02  0.30219348953E+02  0.00000000000E+00 0.  1.
</event>
<event>
 5    1  0.1044283E-009  0.9118800E+02  0.7815553E-02  0.1125453E+00
         25   -1    0    0    0    0  0.00000000000E+00  0.00000000000E+00  0.99999998245E-14  0.12509000000E+03  0.12509000000E+03 0.  0.
        -11    1    3    3    0    0 -0.52825887727E+01  0.29681075508E+02 -0.18384608207E+02  0.35310987053E+02  0.51100000000E-03 0.  1.
         23    2    1    0    0    0  0.14314597784E+02 -0.25358231105E+02 -0.24585910133E+01  0.95866853964E+02  0.91304224572E+02 0.  0.
         11    1    3    3    0    0  0.19597186557E+02 -0.55039306613E+02  0.15926017194E+02  0.60555866911E+02  0.51100000000E-03 0. -1.
         22    1    1    0    0    0 -0.14314597784E+02  0.25358231105E+02  0.24585910133E+01  0.29223146036E+02  0.00000000000E+00 0. -1.
</event>
<event>
 5    1  0.1044283E-009  0.9118800E+02  0.7815553E-02  0.1125453E+00
         25   -1    0    0    0    0  0.00000000000E+00  0.00000000000E+00  0.99999998245E-14  0.12509000000E+03  0.12509000000E+03 0.  0.
        -11    1    3    3    0    0 -0.77865286758E+01  0.44320030781E+02 -0.37898655266E+02  0.58831991539E+02  0.51100000000E-03 0.  1.
         23    2    1    0    0    0 -0.13718636841E+02  0.26193131053E+02 -0.77232614592E+01  0.94529733661E+02  0.89453567102E+02 0.  0.
         11    1    3    3    0    0 -0.59321081650E+01 -0.18126899727E+02  0.30175393806E+02  0.35697742122E+02  0.51100000000E-03 0. -1.
         22    1    1    0    0    0  0.13718636841E+02 -0.26193131053E+02  0.77232614592E+01  0.30560266339E+02  0.00000000000E+00 0.  1.
</event>
<event>
 5    1  0.1044283E-009  0.9118800E+02  0.7815553E-02  0.1125453E+00
         25   -1    0    0    0    0  0.00000000000E+00  0.00000000000E+00  0.99999998245E-14  0.12509000000E+03  0.12509000000E+03 0.  0.
        -11    1    3    3    0    0 -0.47620235927E+02 -0.28482349538E+02 -0.15085327319E+01  0.55508618936E+02  0.51100000000E-03 0.  1.
         23    2    1    0    0    0 -0.22476359549E+02 -0.53786141534E+01 -0.20164036340E+02  0.94419092117E+02  0.89298714246E+02 0.  0.
         11    1    3    3    0    0  0.25143876378E+02  0.23103735384E+02 -0.18655503608E+02  0.38910473181E+02  0.51100000000E-03 0. -1.
         22    1    1    0    0    0  0.22476359549E+02  0.53786141534E+01  0.20164036340E+02  0.30670907883E+02  0.00000000000E+00 0.  1.
</event>
<event>
 5    1  0.1044283E-009  0.9118800E+02  0.7815553E-02  0.1125453E+00
         25   -1    0    0    0    0  0.00000000000E+00  0.00000000000E+00  0.99999998245E-14  0.12509000000E+03  0.12509000000E+03 0.  0.
        -11    1    3    3    0    0 -0.44481105154E+02  0.22837392654E+02 -0.31397414891E+02  0.59041619906E+02  0.51100000000E-03 0.  1.
         23    2    1    0    0    0 -0.21371197630E+02  0.21138364286E+02 -0.30552948527E+02  0.82229281428E+02  0.70175590682E+02 0.  0.
         11    1    3    3    0    0  0.23109907524E+02 -0.16990283678E+01  0.84446636393E+00  0.23187661522E+02  0.51100000000E-03 0. -1.
         22    1    1    0    0    0  0.21371197630E+02 -0.21138364286E+02  0.30552948527E+02  0.42860718572E+02  0.00000000000E+00 0.  1.
</event>
<event>
 5    1  0.1044283E-009  0.9118800E+02  0.7815553E-02  0.1125453E+00
         25   -1    0    0    0    0  0.00000000000E+00  0.00000000000E+00  0.99999998245E-14  0.12509000000E+03  0.12509000000E+03 0.  0.
        -11    1    3    3    0    0 -0.84158107897E+01 -0.14755585133E+02 -0.33100108072E+02  0.37204439500E+02  0.51100000000E-03 0. -1.
         23    2    1    0    0    0 -0.10690587097E+02  0.11462869255E+02  0.21889601907E+02  0.98167134334E+02  0.94403101473E+02 0.  0.
         11    1    3    3    0    0 -0.22747763069E+01  0.26218454388E+02  0.54989709978E+02  0.60962694835E+02  0.51100000000E-03 0.  1.
         22    1    1    0    0    0  0.10690587097E+02 -0.11462869255E+02 -0.21889601907E+02  0.26922865666E+02  0.00000000000E+00 0.  1.
</event>
<event>
 5    1  0.1044283E-009  0.9118800E+02  0.7815553E-02  0.1125453E+00
         25   -1    0    0    0    0  0.00000000000E+00  0.00000000000E+00  0.99999998245E-14  0.12509000000E+03  0.12509000000E+03 0.  0.
        -11    1    3    3    0    0 -0.67354124020E+01 -0.31352927286E+02 -0.15158690428E+02  0.35470519102E+02  0.51100000000E-03 0.  1.
         23    2    1    0    0    0 -0.17778741997E+02  0.19828792725E+02  0.13576755687E+02  0.95196974343E+02  0.90381806472E+02 0.  0.
         11    1    3    3    0    0 -0.11043329595E+02  0.51181720012E+02  0.28735446115E+02  0.59726455240E+02  0.51100000000E-03 0. -1.
         22    1    1    0    0    0  0.17778741997E+02 -0.19828792725E+02 -0.13576755687E+02  0.29893025657E+02  0.00000000000E+00 0. -1.
</event>
<event>
 5    1  0.1044283E-009  0.9118800E+02  0.7815553E-02  0.1125453E+00
         25   -1    0    0    0    0  0.00000000000E+00  0.00000000000E+00  0.99999998245E-14  0.12509000000E+03  0.12509000000E+03 0.  0.
        -11    1    3    3    0    0  0.16635722010E+02  0.17675659867E+02  0.54789505811E+02  0.59925504970E+02  0.51100000000E-03 0. -1.
         23    2    1    0    0    0  0.17822433473E+02  0.60781361922E+00  0.23466636865E+02  0.95616425089E+02  0.90960481137E+02 0.  0.
         11    1    3    3    0    0  0.11867114630E+01 -0.17067846248E+02 -0.31322868946E+02  0.35690920119E+02  0.51100000000E-03 0.  1.
         22    1    1    0    0    0 -0.17822433473E+02 -0.60781361922E+00 -0.23466636865E+02  0.29473574911E+02  0.00000000000E+00 0. -1.
</event>
<event>
 5    1  0.1044283E-009  0.9118800E+02  0.7815553E-02  0.1125453E+00
         25   -1    0    0    0    0  0.00000000000E+00  0.00000000000E+00  0.99999998245E-14  0.12509000000E+03  0.12509000000E+03 0.  0.
        -11    1    3    3    0    0 -0.31007258164E+02 -0.90141178716E+01  0.37035896576E+02  0.49136157921E+02  0.51100000000E-03 0.  1.
         23    2    1    0    0    0 -0.14899520210E+02  0.24363697011E+02  0.10738921143E+02  0.94579184510E+02  0.89522691430E+02 0.  0.
         11    1    3    3    0    0  0.16107737954E+02  0.33377814883E+02 -0.26296975433E+02  0.45443026589E+02  0.51100000000E-03 0. -1.
         22    1    1    0    0    0  0.14899520210E+02 -0.24363697011E+02 -0.10738921143E+02  0.30510815490E+02  0.00000000000E+00 0.  1.
</event>
<event>
 5    1  0.1044283E-009  0.9118800E+02  0.7815553E-02  0.1125453E+00
         25   -1    0    0    0    0  0.00000000000E+00  0.00000000000E+00  0.99999998245E-14  0.12509000000E+03  0.12509000000E+03 0.  0.
        -11    1    3    3    0    0  0.49112449405E+02  0.93233198123E+01  0.17638639818E+02  0.53010174437E+02  0.51100000000E-03 0. -1.
         23    2    1    0    0    0  0.14567534492E+02 -0.86471731338E+01  0.27144253936E+02  0.93093169124E+02  0.87421627481E+02 0.  0.
         11    1    3    3    0    0 -0.34544914913E+02 -0.17970492946E+02  0.95056141178E+01  0.40082994687E+02  0.51100000000E-03 0.  1.
         22    1    1    0    0    0 -0.14567534492E+02  0.86471731338E+01 -0.27144253936E+02  0.31996830876E+02  0.00000000000E+00 0. -1.
</event>
<event>
 5    1  0.1044283E-009  0.9118800E+02  0.7815553E-02  0.1125453E+00
         25   -1    0    0    0    0  0.00000000000E+00  0.00000000000E+00  0.99999998245E-14  0.12509000000E+03  0.12509000000E+03 0.  0.
        -11    1    3    3    0    0  0.31842393990E+01 -0.33810986259E+02 -0.37180967768E+02  0.50356196608E+02  0.51100000000E-03 0. -1.
         23    2    1    0    0    0  0.21226831595E+02 -0.11551431725E+02  0.40709641047E+01  0.10058312947E+03  0.97551930943E+02 0.  0.
         11    1    3    3    0    0  0.18042592196E+02  0.22259554534E+02  0.41251931873E+02  0.50226932862E+02  0.51100000000E-03 0.  1.
         22    1    1    0    0    0 -0.21226831595E+02  0.11551431725E+02 -0.40709641047E+01  0.24506870530E+02  0.00000000000E+00 0. -1.
</event>
<event>
 5    1  0.1044283E-009  0.9118800E+02  0.7815553E-02  0.1125453E+00
         25   -1    0    0    0    0  0.00000000000E+00  0.00000000000E+00  0.99999998245E-14  0.12509000000E+03  0.12509000000E+03 0.  0.
        -11    1    3    3    0    0  0.29135589903E+02 -0.25957845284E+02 -0.11369381488E+02  0.40644251334E+02  0.51100000000E-03 0. -1.
         23    2    1    0    0    0  0.43097584034E+02  0.10713595874E+02 -0.49416924386E+01  0.80406633852E+02  0.66847764039E+02 0.  0.
         11    1    3    3    0    0  0.13961994131E+02  0.36671441158E+02  0.64276890494E+01  0.39762382518E+02  0.51100000000E-03 0.  1.
         22    1    1    0    0    0 -0.43097584034E+02 -0.10713595874E+02  0.49416924386E+01  0.44683366148E+02  0.00000000000E+00 0.  1.
</event>
<event>
 5    1  0.1044283E-009  0.9118800E+02  0.7815553E-02  0.1125453E+00
         25   -1    0    0    0    0  0.00000000000E+00  0.00000000000E+00  0.99999998245E-14  0.12509000000E+03  0.12509000000E+03 0.  0.
        -11    1    3    3    0    0  0.52994339587E+02  0.20218648369E+02  0.56716741137E+01  0.57003172347E+02  0.51100000000E-03 0.  1.
         23    2    1    0    0    0  0.92458518289E+01  0.57919154120E+01  0.17412657085E+02  0.10454169868E+03  0.10250236132E+03 0.  0.
         11    1    3    3    0    0 -0.43748487758E+02 -0.14426732957E+02  0.11740982971E+02  0.47538526337E+02  0.51100000000E-03 0. -1.
         22    1    1    0    0    0 -0.92458518289E+01 -0.57919154120E+01 -0.17412657085E+02  0.20548301315E+02  0.00000000000E+00 0.  1.
</event>
<event>
 5    1  0.1044283E-009  0.9118800E+02  0.7815553E-02  0.1125453E+00
         25   -1    0    0    0    0  0.00000000000E+00  0.00000000000E+00  0.99999998245E-14  0.12509000000E+03  0.12509000000E+03 0.  0.
        -11    1    3    3    0    0 -0.30160495701E+01  0.37201760768E+02 -0.26310340714E+02  0.45665102518E+02  0.51100000000E-03 0.  1.
         23    2    1    0    0    0 -0.25716022847E+02  0.37249514335E+01  0.71290638967E+01  0.98145378156E+02  0.94374268776E+02 0.  0.
         11    1    3    3    0    0 -0.22699973277E+02 -0.33476809335E+02  0.33439404611E+02  0.52480275638E+02  0.51100000000E-03 0. -1.
         22    1    1    0    0    0  0.25716022847E+02 -0.37249514335E+01 -0.71290638967E+01  0.26944621844E+02  0.00000000000E+00 0. -1.
</event>
<event>
 5    1  0.1044283E-009  0.9118800E+02  0.7815553E-02  0.1125453E+00
         25   -1    0    0    0    0  0.00000000000E+00  0.00000000000E+00  0.99999998245E-14  0.12509000000E+03  0.12509000000E+03 0.  0.
        -11    1    3    3    0    0 -0.40053181163E+02  0.19434782560E+02  0.62128009698E+01  0.44950717354E+02  0.51100000000E-03 0.  1.
         23    2    1    0    0    0  0.79020589546E+01  0.14257799818E+02  0.23758676043E+02  0.96276772505E+02  0.91864110758E+02 0.  0.
         11    1    3    3    0    0  0.47955240118E+02 -0.51769827418E+01  0.17545875073E+02  0.51326055152E+02  0.51100000000E-03 0. -1.
         22    1    1    0    0    0 -0.79020589546E+01 -0.14257799818E+02 -0.23758676043E+02  0.28813227495E+02  0.00000000000E+00 0.  1.
</event>
<event>
 5    1  0.1044283E-009  0.9118800E+02  0.7815553E-02  0.1125453E+00
         25   -1    0    0    0    0  0.00000000000E+00  0.00000000000E+00  0.99999998245E-14  0.12509000000E+03  0.12509000000E+03 0.  0.
        -11    1    3    3    0    0  0.25177094345E+02 -0.28473878961E+02 -0.40290067589E+02  0.55388964689E+02  0.51100000000E-03 0.  1.
         23    2    1    0    0    0  0.11285791621E+02 -0.27100677024E+02 -0.25559627709E+01  0.95622242478E+02  0.90968480933E+02 0.  0.
         11    1    3    3    0    0 -0.13891302724E+02  0.13732019372E+01  0.37734104818E+02  0.40233277789E+02  0.51100000000E-03 0. -1.
         22    1    1    0    0    0 -0.11285791621E+02  0.27100677024E+02  0.25559627709E+01  0.29467757522E+02  0.00000000000E+00 0.  1.
</event>
<event>
 5    1  0.1044283E-009  0.9118800E+02  0.7815553E-02  0.1125453E+00
         25   -1    0    0    0    0  0.00000000000E+00  0.00000000000E+00  0.99999998245E-14  0.12509000000E+03  0.12509000000E+03 0.  0.
        -11    1    3    3    0    0 -0.16309811471E+02  0.42746195924E+02  0.44408591451E+01  0.45967036519E+02  0.51100000000E-03 0. -1.
         23    2    1    0    0    0  0.14265097811E+02  0.77886752835E+01  0.23789747635E+02  0.96278395207E+02  0.91866320340E+02 0.  0.
         11    1    3    3    0    0  0.30574909282E+02 -0.34957520640E+02  0.19348888490E+02  0.50311358687E+02  0.51100000000E-03 0.  1.
         22    1    1    0    0    0 -0.14265097811E+02 -0.77886752835E+01 -0.23789747635E+02  0.28811604793E+02  0.00000000000E+00 0.  1.
</event>
<event>
 5    1  0.1044283E-009  0.9118800E+02  0.7815553E-02  0.1125453E+00
         25   -1    0    0    0    0  0.00000000000E+00  0.00000000000E+00  0.99999998245E-14  0.12509000000E+03  0.12509000000E+03 0.  0.
        -11    1    3    3    0    0 -0.98012399857E+01 -0.25797958026E+01 -0.58707616245E+02  0.59576034251E+02  0.51100000000E-03 0.  1.
         23    2    1    0    0    0  0.86458210675E+01  0.15746661096E+01 -0.28970518260E+02  0.94815906726E+02  0.89852854405E+02 0.  0.
         11    1    3    3    0    0  0.18447061053E+02  0.41544619122E+01  0.29737097985E+02  0.35239872475E+02  0.51100000000E-03 0. -1.
         22    1    1    0    0    0 -0.86458210675E+01 -0.15746661096E+01  0.28970518260E+02  0.30274093274E+02  0.00000000000E+00 0.  1.
</event>
<event>
 5    1  0.1044283E-009  0.9118800E+02  0.7815553E-02  0.1125453E+00
         25   -1    0    0    0    0  0.00000000000E+00  0.00000000000E+00  0.99999998245E-14  0.12509000000E+03  0.12509000000E+03 0.  0.
        -11    1    3    3    0    0  0.34721929085E+02 -0.44032856385E+01 -0.24530704686E+02  0.42740575060E+02  0.51100000000E-03 0.  1.
         23    2    1    0    0    0  0.27611750552E+01  0.29380976961E+02  0.54057920378E+00  0.95574612136E+02  0.90902961251E+02 0.  0.
         11    1    3    3    0    0 -0.31960754030E+02  0.33784262600E+02  0.25071283890E+02  0.52834037076E+02  0.51100000000E-03 0. -1.
         22    1    1    0    0    0 -0.27611750552E+01 -0.29380976961E+02 -0.54057920378E+00  0.29515387864E+02  0.00000000000E+00 0. -1.
</event>
<event>
 5    1  0.1044283E-009  0.9118800E+02  0.7815553E-02  0.1125453E+00
         25   -1    0    0    0    0  0.00000000000E+00  0.00000000000E+00  0.99999998245E-14  0.12509000000E+03  0.12509000000E+03 0.  0.
        -11    1    3    3    0    0  0.31767122382E+02  0.10524448247E+02 -0.18066300463E+01  0.33513847701E+02  0.51100000000E-03 0. -1.
         23    2    1    0    0    0 -0.28375829369E+02 -0.46881423112E+00  0.83864068949E+01  0.95497107277E+02  0.90796245509E+02 0.  0.
         11    1    3    3    0    0 -0.60142951751E+02 -0.10993262478E+02  0.10193036941E+02  0.61983259575E+02  0.51100000000E-03 0.  1.
         22    1    1    0    0    0  0.28375829369E+02  0.46881423112E+00 -0.83864068949E+01  0.29592892723E+02  0.00000000000E+00 0.  1.
</event>
<event>
 5    1  0.1044283E-009  0.9118800E+02  0.7815553E-02  0.1125453E+00
         25   -1    0    0    0    0  0.00000000000E+00  0.00000000000E+00  0.99999998245E-14  0.12509000000E+03  0.12509000000E+03 0.  0.
        -11    1    3    3    0    0 -0.23265060755E+02  0.20967986763E+02 -0.44613729651E+02  0.54509672485E+02  0.51100000000E-03 0. -1.
         23    2    1    0    0    0 -0.26278716615E+02 -0.57957396088E+01 -0.16104791423E+02  0.93728784282E+02  0.88326435180E+02 0.  0.
         11    1    3    3    0    0 -0.30136558604E+01 -0.26763726372E+02  0.28508938228E+02  0.39219111796E+02  0.51100000000E-03 0.  1.
         22    1    1    0    0    0  0.26278716615E+02  0.57957396088E+01  0.16104791423E+02  0.31361215718E+02  0.00000000000E+00 0. -1.
</event>
<event>
 5    1  0.1044283E-009  0.9118800E+02  0.7815553E-02  0.1125453E+00
         25   -1    0    0    0    0  0.00000000000E+00  0.00000000000E+00  0.99999998245E-14  0.12509000000E+03  0.12509000000E+03 0.  0.
        -11    1    3    3    0    0 -0.31497492402E+02  0.19005803606E+02 -0.22973395729E+02  0.43371528794E+02  0.51100000000E-03 0. -1.
         23    2    1    0    0    0  0.20279405393E+01 -0.20629387140E+02 -0.21383743146E+02  0.95308317248E+02  0.90535775852E+02 0.  0.
         11    1    3    3    0    0  0.33525432941E+02 -0.39635190746E+02  0.15896525834E+01  0.51936788454E+02  0.51100000000E-03 0.  1.
         22    1    1    0    0    0 -0.20279405393E+01  0.20629387140E+02  0.21383743146E+02  0.29781682752E+02  0.00000000000E+00 0.  1.
</event>
<event>
 5    1  0.1044283E-009  0.9118800E+02  0.7815553E-02  0.1125453E+00
         25   -1    0    0    0    0  0.00000000000E+00  0.00000000000E+00  0.99999998245E-14  0.12509000000E+03  0.12509000000E+03 0.  0.
        -11    1    3    3    0    0  0.27775186248E+02 -0.39226765013E+02 -0.21457616671E+02  0.52636768308E+02  0.51100000000E-03 0.  1.
         23    2    1    0    0    0  0.74336323917E+01 -0.45263847235E+02 -0.61307307733E+01  0.78811920774E+02  0.63793873054E+02 0.  0.
         11    1    3    3    0    0 -0.20341553856E+02 -0.60370822222E+01  0.15326885897E+02  0.26175152466E+02  0.51100000000E-03 0. -1.
         22    1    1    0    0    0 -0.74336323917E+01  0.45263847235E+02  0.61307307733E+01  0.46278079226E+02  0.00000000000E+00 0.  1.
</event>
<event>
 5    1  0.1044283E-009  0.9118800E+02  0.7815553E-02  0.1125453E+00
         25   -1    0    0    0    0  0.00000000000E+00  0.00000000000E+00  0.99999998245E-14  0.12509000000E+03  0.12509000000E+03 0.  0.
        -11    1    3    3    0    0  0.13333253308E+02  0.32302962331E+02  0.25783889139E+02  0.43428860894E+02  0.51100000000E-03 0. -1.
         23    2    1    0    0    0 -0.28015572562E+02  0.65514795281E+01  0.94661800611E+01  0.94801342800E+02  0.89832576729E+02 0.  0.
         11    1    3    3    0    0 -0.41348825871E+02 -0.25751482803E+02 -0.16317709078E+02  0.51372481907E+02  0.51100000000E-03 0.  1.
         22    1    1    0    0    0  0.28015572562E+02 -0.65514795281E+01 -0.94661800611E+01  0.30288657200E+02  0.00000000000E+00 0.  1.
</event>
<event>
 5    1  0.1044283E-009  0.9118800E+02  0.7815553E-02  0.1125453E+00
         25   -1    0    0    0    0  0.00000000000E+00  0.00000000000E+00  0.99999998245E-14  0.12509000000E+03  0.12509000000E+03 0.  0.
        -11    1    3    3    0    0 -0.14813845682E+02 -0.16838158784E+02  0.20707602969E+02  0.30525046046E+02  0.51100000000E-03 0. -1.
         23    2    1    0    0    0 -0.74802334689E+01  0.23419529444E+02 -0.23721148891E+02  0.90926845040E+02  0.84264879945E+02 0.  0.
         11    1    3    3    0    0  0.73336122132E+01  0.40257688228E+02 -0.44428751860E+02  0.60401798994E+02  0.51100000000E-03 0.  1.
         22    1    1    0    0    0  0.74802334689E+01 -0.23419529444E+02  0.23721148891E+02  0.34163154960E+02  0.00000000000E+00 0.  1.
</event>
<event>
 5    1  0.1044283E-009  0.9118800E+02  0.7815553E-02  0.1125453E+00
         25   -1    0    0    0    0  0.00000000000E+00  0.00000000000E+00  0.99999998245E-14  0.12509000000E+03  0.12509000000E+03 0.  0.
        -11    1    3    3    0    0 -0.12245783907E+02 -0.46410950014E+02  0.34483185369E+02  0.59101823814E+02  0.51100000000E-03 0.  1.
         23    2    1    0    0    0  0.88153975161E+01 -0.23488889857E+02  0.16691179181E+02  0.94956386832E+02  0.90048213518E+02 0.  0.
         11    1    3    3    0    0  0.21061181423E+02  0.22922060158E+02 -0.17792006187E+02  0.35854563018E+02  0.51100000000E-03 0. -1.
         22    1    1    0    0    0 -0.88153975161E+01  0.23488889857E+02 -0.16691179181E+02  0.30133613168E+02  0.00000000000E+00 0.  1.
</event>
<event>
 5    1  0.1044283E-009  0.9118800E+02  0.7815553E-02  0.1125453E+00
         25   -1    0    0    0    0  0.00000000000E+00  0.00000000000E+00  0.99999998245E-14  0.12509000000E+03  0.12509000000E+03 0.  0.
        -11    1    3    3    0    0  0.14154825342E+02  0.36728930536E+02 -0.13734094554E+02  0.41689312447E+02  0.51100000000E-03 0. -1.
         23    2    1    0    0    0 -0.25569686595E+02  0.15553285187E+00 -0.14506312998E+02  0.95691595625E+02  0.91063797930E+02 0.  0.
         11    1    3    3    0    0 -0.39724511937E+02 -0.36573397684E+02 -0.77221844376E+00  0.54002283178E+02  0.51100000000E-03 0.  1.
         22    1    1    0    0    0  0.25569686595E+02 -0.15553285187E+00  0.14506312998E+02  0.29398404375E+02  0.00000000000E+00 0.  1.
</event>
<event>
 5    1  0.1044283E-009  0.9118800E+02  0.7815553E-02  0.1125453E+00
         25   -1    0    0    0    0  0.00000000000E+00  0.00000000000E+00  0.99999998245E-14  0.12509000000E+03  0.12509000000E+03 0.  0.
        -11    1    3    3    0    0 -0.19876254119E+02  0.14368196355E+02  0.24069184487E+02  0.34363297083E+02  0.51100000000E-03 0. -1.
         23    2    1    0    0    0  0.48262546549E+01 -0.15629072757E+02 -0.23919418569E+02  0.96112435680E+02  0.91640062519E+02 0.  0.
         11    1    3    3    0    0  0.24702508774E+02 -0.29997269112E+02 -0.47988603056E+02  0.61749138597E+02  0.51100000000E-03 0.  1.
         22    1    1    0    0    0 -0.48262546549E+01  0.15629072757E+02  0.23919418569E+02  0.28977564320E+02  0.00000000000E+00 0.  1.
</event>
<event>
 5    1  0.1044283E-009  0.9118800E+02  0.7815553E-02  0.1125453E+00
         25   -1    0    0    0    0  0.00000000000E+00  0.00000000000E+00  0.99999998245E-14  0.12509000000E+03  0.12509000000E+03 0.  0.
        -11    1    3    3    0    0  0.28358269685E+02 -0.18550516163E+01 -0.22756722814E+02  0.36407432064E+02  0.51100000000E-03 0.  1.
         23    2    1    0    0    0 -0.77673757403E+01  0.28441385299E+02  0.10155993839E+02  0.93906851755E+02  0.88578259591E+02 0.  0.
         11    1    3    3    0    0 -0.36125645425E+02  0.30296436915E+02  0.32912716653E+02  0.57499419691E+02  0.51100000000E-03 0. -1.
         22    1    1    0    0    0  0.77673757403E+01 -0.28441385299E+02 -0.10155993839E+02  0.31183148245E+02  0.00000000000E+00 0. -1.
</event>
<event>
 5    1  0.1044283E-009  0.9118800E+02  0.7815553E-02  0.1125453E+00
         25   -1    0    0    0    0  0.00000000000E+00  0.00000000000E+00  0.99999998245E-14  0.12509000000E+03  0.12509000000E+03 0.  0.
        -11    1    3    3    0    0  0.34063921000E+02  0.27617944892E+02  0.22346485081E+02  0.49218563466E+02  0.51100000000E-03 0. -1.
         23    2    1    0    0    0  0.71337486876E+01  0.24213783864E+02 -0.15256186923E+02  0.95595103174E+02  0.90931154243E+02 0.  0.
         11    1    3    3    0    0 -0.26930172313E+02 -0.34041610282E+01 -0.37602672005E+02  0.46376539707E+02  0.51100000000E-03 0.  1.
         22    1    1    0    0    0 -0.71337486876E+01 -0.24213783864E+02  0.15256186923E+02  0.29494896826E+02  0.00000000000E+00 0.  1.
</event>
<event>
 5    1  0.1044283E-009  0.9118800E+02  0.7815553E-02  0.1125453E+00
         25   -1    0    0    0    0  0.00000000000E+00  0.00000000000E+00  0.99999998245E-14  0.12509000000E+03  0.12509000000E+03 0.  0.
        -11    1    3    3    0    0 -0.19733278247E+01 -0.49549132112E+02  0.29559445308E+02  0.57730159561E+02  0.51100000000E-03 0. -1.
         23    2    1    0    0    0  0.13162661369E+01 -0.11454297408E+02  0.26620952343E+02  0.96079508979E+02  0.91595106072E+02 0.  0.
         11    1    3    3    0    0  0.32895939616E+01  0.38094834704E+02 -0.29384929649E+01  0.38349349418E+02  0.51100000000E-03 0.  1.
         22    1    1    0    0    0 -0.13162661369E+01  0.11454297408E+02 -0.26620952343E+02  0.29010491021E+02  0.00000000000E+00 0.  1.
</event>
<event>
 5    1  0.1044283E-009  0.9118800E+02  0.7815553E-02  0.1125453E+00
         25   -1    0    0    0    0  0.00000000000E+00  0.00000000000E+00  0.99999998245E-14  0.12509000000E+03  0.12509000000E+03 0.  0.
        -11    1    3    3    0    0  0.22347185167E+02  0.42510827976E+02 -0.27706967495E+02  0.55445858530E+02  0.51100000000E-03 0. -1.
         23    2    1    0    0    0  0.25458429807E+02  0.71373909763E+01 -0.20387859157E+02  0.91702295689E+02  0.85408267957E+02 0.  0.
         11    1    3    3    0    0  0.31112446395E+01 -0.35373436999E+02  0.73191083375E+01  0.36256437159E+02  0.51100000000E-03 0.  1.
         22    1    1    0    0    0 -0.25458429807E+02 -0.71373909763E+01  0.20387859157E+02  0.33387704311E+02  0.00000000000E+00 0. -1.
</event>
<event>
 5    1  0.1044283E-009  0.9118800E+02  0.7815553E-02  0.1125453E+00
         25   -1    0    0    0    0  0.00000000000E+00  0.00000000000E+00  0.99999998245E-14  0.12509000000E+03  0.12509000000E+03 0.  0.
        -11    1    3    3    0    0  0.15236717225E+02 -0.26631001305E+02 -0.16905309718E+02  0.35030804718E+02  0.51100000000E-03 0. -1.
         23    2    1    0    0    0 -0.16362018713E+02  0.73626347310E+01  0.22777517539E+02  0.96094494283E+02  0.91615568981E+02 0.  0.
         11    1    3    3    0    0 -0.31598735938E+02  0.33993636036E+02  0.39682827257E+02  0.61063689564E+02  0.51100000000E-03 0.  1.
         22    1    1    0    0    0  0.16362018713E+02 -0.73626347310E+01 -0.22777517539E+02  0.28995505717E+02  0.00000000000E+00 0.  1.
</event>
<event>
 5    1  0.1044283E-009  0.9118800E+02  0.7815553E-02  0.1125453E+00
         25   -1    0    0    0    0  0.00000000000E+00  0.00000000000E+00  0.99999998245E-14  0.12509000000E+03  0.12509000000E+03 0.  0.
        -11    1    3    3    0    0 -0.23597206279E+02 -0.37586807528E+02  0.22317353912E+02  0.49675552641E+02  0.51100000000E-03 0.  1.
         23    2    1    0    0    0 -0.20403106818E+02  0.11092983409E+02  0.62103823788E+01  0.10105024339E+03  0.98149079417E+02 0.  0.
         11    1    3    3    0    0  0.31940994607E+01  0.48679790937E+02 -0.16106971533E+02  0.51374690746E+02  0.51100000000E-03 0. -1.
         22    1    1    0    0    0  0.20403106818E+02 -0.11092983409E+02 -0.62103823788E+01  0.24039756613E+02  0.00000000000E+00 0.  1.
</event>
<event>
 5    1  0.1044283E-009  0.9118800E+02  0.7815553E-02  0.1125453E+00
         25   -1    0    0    0    0  0.00000000000E+00  0.00000000000E+00  0.99999998245E-14  0.12509000000E+03  0.12509000000E+03 0.  0.
        -11    1    3    3    0    0 -0.33698412119E+02 -0.28812787930E+02 -0.94531878520E+01  0.45333458819E+02  0.51100000000E-03 0.  1.
         23    2    1    0    0    0  0.14576469449E+02 -0.19616387346E+02 -0.17365515214E+02  0.95109385718E+02  0.90260500879E+02 0.  0.
         11    1    3    3    0    0  0.48274881568E+02  0.91964005847E+01 -0.79123273616E+01  0.49775926899E+02  0.51100000000E-03 0. -1.
         22    1    1    0    0    0 -0.14576469449E+02  0.19616387346E+02  0.17365515214E+02  0.29980614282E+02  0.00000000000E+00 0. -1.
</event>
<event>
 5    1  0.1044283E-009  0.9118800E+02  0.7815553E-02  0.1125453E+00
         25   -1    0    0    0    0  0.00000000000E+00  0.00000000000E+00  0.99999998245E-14  0.12509000000E+03  0.12509000000E+03 0.  0.
        -11    1    3    3    0    0  0.34024072535E+02  0.45727287985E+01  0.50444092964E+01  0.34698608415E+02  0.51100000000E-03 0. -1.
         23    2    1    0    0    0 -0.25196321546E+02  0.10799922397E+02 -0.96429051971E+01  0.96030086651E+02  0.91527585887E+02 0.  0.
         11    1    3    3    0    0 -0.59220394081E+02  0.62271935983E+01 -0.14687314493E+02  0.61331478235E+02  0.51100000000E-03 0.  1.
         22    1    1    0    0    0  0.25196321546E+02 -0.10799922397E+02  0.96429051971E+01  0.29059913349E+02  0.00000000000E+00 0.  1.
</event>
<event>
 5    1  0.1044283E-009  0.9118800E+02  0.7815553E-02  0.1125453E+00
         25   -1    0    0    0    0  0.00000000000E+00  0.00000000000E+00  0.99999998245E-14  0.12509000000E+03  0.12509000000E+03 0.  0.
        -11    1    3    3    0    0 -0.36478326776E+01  0.52187647076E+02  0.30036225635E+02  0.60324390103E+02  0.51100000000E-03 0. -1.
         23    2    1    0    0    0 -0.13227831248E+02  0.23973852044E+02  0.11671828659E+02  0.95325042658E+02  0.90558881796E+02 0.  0.
         11    1    3    3    0    0 -0.95799985700E+01 -0.28213795032E+02 -0.18364396976E+02  0.35000652555E+02  0.51100000000E-03 0.  1.
         22    1    1    0    0    0  0.13227831248E+02 -0.23973852044E+02 -0.11671828659E+02  0.29764957342E+02  0.00000000000E+00 0. -1.
</event>
<event>
 5    1  0.1044283E-009  0.9118800E+02  0.7815553E-02  0.1125453E+00
         25   -1    0    0    0    0  0.00000000000E+00  0.00000000000E+00  0.99999998245E-14  0.12509000000E+03  0.12509000000E+03 0.  0.
        -11    1    3    3    0    0  0.66395714189E+01  0.46691631396E+02  0.15675555013E+02  0.49698243191E+02  0.51100000000E-03 0.  1.
         23    2    1    0    0    0  0.38609777529E+01  0.35305012252E+01  0.29519597445E+02  0.95110369891E+02  0.90261864813E+02 0.  0.
         11    1    3    3    0    0 -0.27785936660E+01 -0.43161130171E+02  0.13844042433E+02  0.45412126701E+02  0.51100000000E-03 0. -1.
         22    1    1    0    0    0 -0.38609777529E+01 -0.35305012252E+01 -0.29519597445E+02  0.29979630109E+02  0.00000000000E+00 0.  1.
</event>
<event>
 5    1  0.1044283E-009  0.9118800E+02  0.7815553E-02  0.1125453E+00
         25   -1    0    0    0    0  0.00000000000E+00  0.00000000000E+00  0.99999998245E-14  0.12509000000E+03  0.12509000000E+03 0.  0.
        -11    1    3    3    0    0  0.11675408846E+01 -0.48661268398E+02  0.28969910009E+02  0.56643957136E+02  0.51100000000E-03 0. -1.
         23    2    1    0    0    0  0.14484545132E+02 -0.24977262290E+02  0.20057698495E+00  0.96216034040E+02  0.91781366824E+02 0.  0.
         11    1    3    3    0    0  0.13317004247E+02  0.23684006109E+02 -0.28769333025E+02  0.39572076903E+02  0.51100000000E-03 0.  1.
         22    1    1    0    0    0 -0.14484545132E+02  0.24977262290E+02 -0.20057698495E+00  0.28873965960E+02  0.00000000000E+00 0. -1.
</event>
<event>
 5    1  0.1044283E-009  0.9118800E+02  0.7815553E-02  0.1125453E+00
         25   -1    0    0    0    0  0.00000000000E+00  0.00000000000E+00  0.99999998245E-14  0.12509000000E+03  0.12509000000E+03 0.  0.
        -11    1    3    3    0    0  0.16495013453E+02  0.29380792271E+02  0.44575695496E+01  0.33988032450E+02  0.51100000000E-03 0.  1.
         23    2    1    0    0    0 -0.69196735215E+01 -0.25908000695E+02 -0.11185005826E+02  0.96034695200E+02  0.91533884137E+02 0.  0.
         11    1    3    3    0    0 -0.23414686974E+02 -0.55288792966E+02 -0.15642575376E+02  0.62046662750E+02  0.51100000000E-03 0. -1.
         22    1    1    0    0    0  0.69196735215E+01  0.25908000695E+02  0.11185005826E+02  0.29055304800E+02  0.00000000000E+00 0. -1.
</event>
<event>
 5    1  0.1044283E-009  0.9118800E+02  0.7815553E-02  0.1125453E+00
         25   -1    0    0    0    0  0.00000000000E+00  0.00000000000E+00  0.99999998245E-14  0.12509000000E+03  0.12509000000E+03 0.  0.
        -11    1    3    3    0    0  0.58255356763E+01 -0.37630803785E+02 -0.10202856998E+02  0.39422234216E+02  0.51100000000E-03 0. -1.
         23    2    1    0    0    0  0.17924348560E+01  0.23607100980E+02 -0.34966976430E+01  0.10115811888E+03  0.98286469477E+02 0.  0.
         11    1    3    3    0    0 -0.40331008203E+01  0.61237904764E+02  0.67061593554E+01  0.61735884668E+02  0.51100000000E-03 0.  1.
         22    1    1    0    0    0 -0.17924348560E+01 -0.23607100980E+02  0.34966976430E+01  0.23931881117E+02  0.00000000000E+00 0.  1.
</event>
<event>
 5    1  0.1044283E-009  0.9118800E+02  0.7815553E-02  0.1125453E+00
         25   -1    0    0    0    0  0.00000000000E+00  0.00000000000E+00  0.99999998245E-14  0.12509000000E+03  0.12509000000E+03 0.  0.
        -11    1    3    3    0    0  0.47431347148E+02 -0.10099555576E+01 -0.13121916623E+02  0.49223342010E+02  0.51100000000E-03 0.  1.
         23    2    1    0    0    0  0.11520591368E+02  0.24960328843E+02  0.50812137668E+01  0.97133591526E+02  0.93023512233E+02 0.  0.
         11    1    3    3    0    0 -0.35910755780E+02  0.25970284400E+02  0.18203130390E+02  0.47910249517E+02  0.51100000000E-03 0. -1.
         22    1    1    0    0    0 -0.11520591368E+02 -0.24960328843E+02 -0.50812137668E+01  0.27956408474E+02  0.00000000000E+00 0. -1.
</event>
<event>
 5    1  0.1044283E-009  0.9118800E+02  0.7815553E-02  0.1125453E+00
         25   -1    0    0    0    0  0.00000000000E+00  0.00000000000E+00  0.99999998245E-14  0.12509000000E+03  0.12509000000E+03 0.  0.
        -11    1    3    3    0    0 -0.29401655358E+02 -0.69798653316E+01  0.27853736001E+02  0.41097523858E+02  0.51100000000E-03 0. -1.
         23    2    1    0    0    0 -0.17422343052E+02  0.27273807517E+01 -0.24063903632E+02  0.95256326053E+02  0.90463912981E+02 0.  0.
         11    1    3    3    0    0  0.11979312305E+02  0.97072460833E+01 -0.51917639633E+02  0.54158802194E+02  0.51100000000E-03 0.  1.
         22    1    1    0    0    0  0.17422343052E+02 -0.27273807517E+01  0.24063903632E+02  0.29833673947E+02  0.00000000000E+00 0.  1.
</event>
<event>
 5    1  0.1044283E-009  0.9118800E+02  0.7815553E-02  0.1125453E+00
         25   -1    0    0    0    0  0.00000000000E+00  0.00000000000E+00  0.99999998245E-14  0.12509000000E+03  0.12509000000E+03 0.  0.
        -11    1    3    3    0    0 -0.26502011190E+02 -0.18742884678E+02  0.76819813130E+01  0.33356635926E+02  0.51100000000E-03 0. -1.
         23    2    1    0    0    0  0.24439687041E+02  0.16292706616E+02 -0.43646442840E+00  0.95714140987E+02  0.91094762156E+02 0.  0.
         11    1    3    3    0    0  0.50941698231E+02  0.35035591294E+02 -0.81184457414E+01  0.62357505061E+02  0.51100000000E-03 0.  1.
         22    1    1    0    0    0 -0.24439687041E+02 -0.16292706616E+02  0.43646442840E+00  0.29375859013E+02  0.00000000000E+00 0.  1.
</event>
<event>
 5    1  0.1044283E-009  0.9118800E+02  0.7815553E-02  0.1125453E+00
         25   -1    0    0    0    0  0.00000000000E+00  0.00000000000E+00  0.99999998245E-14  0.12509000000E+03  0.12509000000E+03 0.  0.
        -11    1    3    3    0    0  0.23821423240E+02 -0.22879203208E+02  0.48413578524E+01  0.33381984524E+02  0.51100000000E-03 0.  1.
         23    2    1    0    0    0 -0.28658263116E+02  0.69880846573E+01  0.98950434733E+01  0.93976638604E+02  0.88676757642E+02 0.  0.
         11    1    3    3    0    0 -0.52479686356E+02  0.29867287865E+02  0.50536856208E+01  0.60594654080E+02  0.51100000000E-03 0. -1.
         22    1    1    0    0    0  0.28658263116E+02 -0.69880846573E+01 -0.98950434733E+01  0.31113361396E+02  0.00000000000E+00 0. -1.
</event>
<event>
 5    1  0.1044283E-009  0.9118800E+02  0.7815553E-02  0.1125453E+00
         25   -1    0    0    0    0  0.00000000000E+00  0.00000000000E+00  0.99999998245E-14  0.12509000000E+03  0.12509000000E+03 0.  0.
        -11    1    3    3    0    0 -0.12490622265E+02 -0.38344812168E+02  0.29720174306E+02  0.50096197718E+02  0.51100000000E-03 0. -1.
         23    2    1    0    0    0  0.18000144648E+02 -0.21384753130E+02 -0.17512384392E+01  0.97083220287E+02  0.92955752654E+02 0.  0.
         11    1    3    3    0    0  0.30490766913E+02  0.16960059037E+02 -0.31471412745E+02  0.46987022570E+02  0.51100000000E-03 0.  1.
         22    1    1    0    0    0 -0.18000144648E+02  0.21384753130E+02  0.17512384392E+01  0.28006779713E+02  0.00000000000E+00 0.  1.
</event>
<event>
 5    1  0.1044283E-009  0.9118800E+02  0.7815553E-02  0.1125453E+00
         25   -1    0    0    0    0  0.00000000000E+00  0.00000000000E+00  0.99999998245E-14  0.12509000000E+03  0.12509000000E+03 0.  0.
        -11    1    3    3    0    0  0.17072771957E+02 -0.30935466613E+02 -0.41371198331E+02  0.54406421390E+02  0.51100000000E-03 0.  1.
         23    2    1    0    0    0  0.22063827222E+02 -0.18542384759E+02 -0.17537614143E+01  0.96215994678E+02  0.91781313178E+02 0.  0.
         11    1    3    3    0    0  0.49910552649E+01  0.12393081854E+02  0.39617436916E+02  0.41809573289E+02  0.51100000000E-03 0. -1.
         22    1    1    0    0    0 -0.22063827222E+02  0.18542384759E+02  0.17537614143E+01  0.28874005322E+02  0.00000000000E+00 0.  1.
</event>
<event>
 5    1  0.1044283E-009  0.9118800E+02  0.7815553E-02  0.1125453E+00
         25   -1    0    0    0    0  0.00000000000E+00  0.00000000000E+00  0.99999998245E-14  0.12509000000E+03  0.12509000000E+03 0.  0.
        -11    1    3    3    0    0  0.19639491595E+02 -0.25865817938E+02 -0.21171141253E+02  0.38768123374E+02  0.51100000000E-03 0.  1.
         23    2    1    0    0    0  0.76031897189E+01  0.17621511808E+02  0.18191414552E+02  0.98646593720E+02  0.95036291578E+02 0.  0.
         11    1    3    3    0    0 -0.12036301876E+02  0.43487329745E+02  0.39362555805E+02  0.59878470346E+02  0.51100000000E-03 0. -1.
         22    1    1    0    0    0 -0.76031897189E+01 -0.17621511808E+02 -0.18191414552E+02  0.26443406280E+02  0.00000000000E+00 0. -1.
</event>
<event>
 5    1  0.1044283E-009  0.9118800E+02  0.7815553E-02  0.1125453E+00
         25   -1    0    0    0    0  0.00000000000E+00  0.00000000000E+00  0.99999998245E-14  0.12509000000E+03  0.12509000000E+03 0.  0.
        -11    1    3    3    0    0  0.22658294647E+02  0.22190900870E+02 -0.62909453416E+01  0.32332806734E+02  0.51100000000E-03 0. -1.
         23    2    1    0    0    0 -0.27856024000E+02  0.65844342489E+01  0.18789571755E+02  0.90850244536E+02  0.84151090772E+02 0.  0.
         11    1    3    3    0    0 -0.50514318648E+02 -0.15606466621E+02  0.25080517097E+02  0.58517437802E+02  0.51100000000E-03 0.  1.
         22    1    1    0    0    0  0.27856024000E+02 -0.65844342489E+01 -0.18789571755E+02  0.34239755464E+02  0.00000000000E+00 0.  1.
</event>
<event>
 5    1  0.1044283E-009  0.9118800E+02  0.7815553E-02  0.1125453E+00
         25   -1    0    0    0    0  0.00000000000E+00  0.00000000000E+00  0.99999998245E-14  0.12509000000E+03  0.12509000000E+03 0.  0.
        -11    1    3    3    0    0 -0.12643883364E+02 -0.85988222357E+01  0.40428758384E+02  0.43223743881E+02  0.51100000000E-03 0. -1.
         23    2    1    0    0    0 -0.34873744301E+00 -0.29537877453E+02 -0.53742798848E+01  0.95065165171E+02  0.90199195798E+02 0.  0.
         11    1    3    3    0    0  0.12295145921E+02 -0.20939055217E+02 -0.45803038268E+02  0.51841421291E+02  0.51100000000E-03 0.  1.
         22    1    1    0    0    0  0.34873744301E+00  0.29537877453E+02  0.53742798848E+01  0.30024834829E+02  0.00000000000E+00 0. -1.
</event>
<event>
 5    1  0.1044283E-009  0.9118800E+02  0.7815553E-02  0.1125453E+00
         25   -1    0    0    0    0  0.00000000000E+00  0.00000000000E+00  0.99999998245E-14  0.12509000000E+03  0.12509000000E+03 0.  0.
        -11    1    3    3    0    0  0.32997159047E+02  0.19819428208E+02  0.18518171368E+02  0.42714691977E+02  0.51100000000E-03 0.  1.
         23    2    1    0    0    0 -0.97944539297E+01 -0.13612230698E+02  0.22344945277E+02  0.97152198874E+02  0.93048530425E+02 0.  0.
         11    1    3    3    0    0 -0.42791612976E+02 -0.33431658905E+02  0.38267739090E+01  0.54437506896E+02  0.51100000000E-03 0. -1.
         22    1    1    0    0    0  0.97944539297E+01  0.13612230698E+02 -0.22344945277E+02  0.27937801126E+02  0.00000000000E+00 0. -1.
</event>
<event>
 5    1  0.1044283E-009  0.9118800E+02  0.7815553E-02  0.1125453E+00
         25   -1    0    0    0    0  0.00000000000E+00  0.00000000000E+00  0.99999998245E-14  0.12509000000E+03  0.12509000000E+03 0.  0.
        -11    1    3    3    0    0  0.27005754653E+02  0.70880223287E+01 -0.30520885342E+02  0.41365145802E+02  0.51100000000E-03 0. -1.
         23    2    1    0    0    0 -0.25023620120E+02  0.47746134462E+01 -0.14099279329E+02  0.95973541166E+02  0.91450272984E+02 0.  0.
         11    1    3    3    0    0 -0.52029374772E+02 -0.23134088825E+01  0.16421606013E+02  0.54608395363E+02  0.51100000000E-03 0.  1.
         22    1    1    0    0    0  0.25023620120E+02 -0.47746134462E+01  0.14099279329E+02  0.29116458834E+02  0.00000000000E+00 0.  1.
</event>
<event>
 5    1  0.1044283E-009  0.9118800E+02  0.7815553E-02  0.1125453E+00
         25   -1    0    0    0    0  0.00000000000E+00  0.00000000000E+00  0.99999998245E-14  0.12509000000E+03  0.12509000000E+03 0.  0.
        -11    1    3    3    0    0 -0.27953432699E+02 -0.34362422551E+02  0.42418262377E+02  0.61330901401E+02  0.51100000000E-03 0.  1.
         23    2    1    0    0    0 -0.20021036950E+02 -0.10876093895E+02  0.19234973724E+02  0.95271959267E+02  0.90485527404E+02 0.  0.
         11    1    3    3    0    0  0.79323957485E+01  0.23486328656E+02 -0.23183288654E+02  0.33941057867E+02  0.51100000000E-03 0. -1.
         22    1    1    0    0    0  0.20021036950E+02  0.10876093895E+02 -0.19234973724E+02  0.29818040733E+02  0.00000000000E+00 0.  1.
</event>
<event>
 5    1  0.1044283E-009  0.9118800E+02  0.7815553E-02  0.1125453E+00
         25   -1    0    0    0    0  0.00000000000E+00  0.00000000000E+00  0.99999998245E-14  0.12509000000E+03  0.12509000000E+03 0.  0.
        -11    1    3    3    0    0 -0.28786829741E+02 -0.17669646641E+02 -0.11616284836E+01  0.33797150175E+02  0.51100000000E-03 0. -1.
         23    2    1    0    0    0  0.11972071932E+02  0.27394056688E+02  0.46425444854E+01  0.94835776039E+02  0.89880511511E+02 0.  0.
         11    1    3    3    0    0  0.40758901673E+02  0.45063703329E+02  0.58041729690E+01  0.61038625864E+02  0.51100000000E-03 0.  1.
         22    1    1    0    0    0 -0.11972071932E+02 -0.27394056688E+02 -0.46425444854E+01  0.30254223961E+02  0.00000000000E+00 0.  1.
</event>
<event>
 5    1  0.1044283E-009  0.9118800E+02  0.7815553E-02  0.1125453E+00
         25   -1    0    0    0    0  0.00000000000E+00  0.00000000000E+00  0.99999998245E-14  0.12509000000E+03  0.12509000000E+03 0.  0.
        -11    1    3    3    0    0 -0.73044408936E+01 -0.30879977593E+01 -0.57643808403E+02  0.58186761676E+02  0.51100000000E-03 0. -1.
         23    2    1    0    0    0 -0.69130835983E+00  0.14836768602E+02 -0.25004766729E+02  0.96006568823E+02  0.91495438620E+02 0.  0.
         11    1    3    3    0    0  0.66131325338E+01  0.17924766361E+02  0.32639041673E+02  0.37819807147E+02  0.51100000000E-03 0.  1.
         22    1    1    0    0    0  0.69130835983E+00 -0.14836768602E+02  0.25004766729E+02  0.29083431177E+02  0.00000000000E+00 0. -1.
</event>
<event>
 5    1  0.1044283E-009  0.9118800E+02  0.7815553E-02  0.1125453E+00
         25   -1    0    0    0    0  0.00000000000E+00  0.00000000000E+00  0.99999998245E-14  0.12509000000E+03  0.12509000000E+03 0.  0.
        -11    1    3    3    0    0  0.23665873211E+02 -0.31745866743E+02  0.18894131569E+02  0.43873247180E+02  0.51100000000E-03 0.  1.
         23    2    1    0    0    0 -0.22704378061E+02 -0.11744988734E+02  0.16965683319E+02  0.94409909486E+02  0.89285850251E+02 0.  0.
         11    1    3    3    0    0 -0.46370251272E+02  0.20000878008E+02 -0.19284482500E+01  0.50536662306E+02  0.51100000000E-03 0. -1.
         22    1    1    0    0    0  0.22704378061E+02  0.11744988734E+02 -0.16965683319E+02  0.30680090514E+02  0.00000000000E+00 0. -1.
</event>
<event>
 5    1  0.1044283E-009  0.9118800E+02  0.7815553E-02  0.1125453E+00
         25   -1    0    0    0    0  0.00000000000E+00  0.00000000000E+00  0.99999998245E-14  0.12509000000E+03  0.12509000000E+03 0.  0.
        -11    1    3    3    0    0 -0.46836981173E+02 -0.21871320380E+02 -0.38017554659E+01  0.51831561866E+02  0.51100000000E-03 0.  1.
         23    2    1    0    0    0 -0.82855016941E+01 -0.20285713549E+02  0.18513162016E+02  0.96403820744E+02  0.92036947872E+02 0.  0.
         11    1    3    3    0    0  0.38551479479E+02  0.15856068313E+01  0.22314917482E+02  0.44572258878E+02  0.51100000000E-03 0. -1.
         22    1    1    0    0    0  0.82855016941E+01  0.20285713549E+02 -0.18513162016E+02  0.28686179256E+02  0.00000000000E+00 0.  1.
</event>
<event>
 5    1  0.1044283E-009  0.9118800E+02  0.7815553E-02  0.1125453E+00
         25   -1    0    0    0    0  0.00000000000E+00  0.00000000000E+00  0.99999998245E-14  0.12509000000E+03  0.12509000000E+03 0.  0.
        -11    1    3    3    0    0  0.40369675455E+02 -0.79587610813E+00 -0.31807079122E+02  0.51400723707E+02  0.51100000000E-03 0. -1.
         23    2    1    0    0    0 -0.15460452155E+01  0.10311901819E+02 -0.28329489141E+02  0.94902493811E+02  0.89973317164E+02 0.  0.
         11    1    3    3    0    0 -0.41915720670E+02  0.11107777927E+02  0.34775899805E+01  0.43501770103E+02  0.51100000000E-03 0.  1.
         22    1    1    0    0    0  0.15460452155E+01 -0.10311901819E+02  0.28329489141E+02  0.30187506189E+02  0.00000000000E+00 0.  1.
</event>
<event>
 5    1  0.1044283E-009  0.9118800E+02  0.7815553E-02  0.1125453E+00
         25   -1    0    0    0    0  0.00000000000E+00  0.00000000000E+00  0.99999998245E-14  0.12509000000E+03  0.12509000000E+03 0.  0.
        -11    1    3    3    0    0  0.55706475606E+02  0.60854327966E+01  0.26167389875E+01  0.56098941523E+02  0.51100000000E-03 0. -1.
         23    2    1    0    0    0  0.23017904454E+02 -0.95173651634E+01  0.16851602151E+02  0.95017077626E+02  0.90132482382E+02 0.  0.
         11    1    3    3    0    0 -0.32688571153E+02 -0.15602797960E+02  0.14234863163E+02  0.38918136103E+02  0.51100000000E-03 0.  1.
         22    1    1    0    0    0 -0.23017904454E+02  0.95173651634E+01 -0.16851602151E+02  0.30072922374E+02  0.00000000000E+00 0. -1.
</event>
<event>
 5    1  0.1044283E-009  0.9118800E+02  0.7815553E-02  0.1125453E+00
         25   -1    0    0    0    0  0.00000000000E+00  0.00000000000E+00  0.99999998245E-14  0.12509000000E+03  0.12509000000E+03 0.  0.
        -11    1    3    3    0    0  0.52170504343E+02  0.61274928534E+01 -0.31568730745E+02  0.61285336364E+02  0.51100000000E-03 0. -1.
         23    2    1    0    0    0  0.18407861210E+02  0.10137849459E+01 -0.21248747861E+02  0.96958409218E+02  0.92787643133E+02 0.  0.
         11    1    3    3    0    0 -0.33762643133E+02 -0.51137079074E+01  0.10319982884E+02  0.35673072854E+02  0.51100000000E-03 0.  1.
         22    1    1    0    0    0 -0.18407861210E+02 -0.10137849459E+01  0.21248747861E+02  0.28131590782E+02  0.00000000000E+00 0. -1.
</event>
<event>
 5    1  0.1044283E-009  0.9118800E+02  0.7815553E-02  0.1125453E+00
         25   -1    0    0    0    0  0.00000000000E+00  0.00000000000E+00  0.99999998245E-14  0.12509000000E+03  0.12509000000E+03 0.  0.
        -11    1    3    3    0    0  0.69567008209E+01  0.29979043107E+02 -0.14286722386E+02  0.33930062610E+02  0.51100000000E-03 0.  1.
         23    2    1    0    0    0 -0.26227098128E+02 -0.51024357748E+01 -0.30193500213E+02  0.84771976956E+02  0.74570403612E+02 0.  0.
         11    1    3    3    0    0 -0.33183798949E+02 -0.35081478882E+02 -0.15906777827E+02  0.50841914346E+02  0.51100000000E-03 0. -1.
         22    1    1    0    0    0  0.26227098128E+02  0.51024357748E+01  0.30193500213E+02  0.40318023044E+02  0.00000000000E+00 0. -1.
</event>
<event>
 5    1  0.1044283E-009  0.9118800E+02  0.7815553E-02  0.1125453E+00
         25   -1    0    0    0    0  0.00000000000E+00  0.00000000000E+00  0.99999998245E-14  0.12509000000E+03  0.12509000000E+03 0.  0.
        -11    1    3    3    0    0  0.67458710951E+01 -0.49199538450E+02  0.31448797256E+02  0.58780338632E+02  0.51100000000E-03 0. -1.
         23    2    1    0    0    0 -0.71634727034E+01 -0.27306519703E+02  0.39455937163E+01  0.96585104469E+02  0.92283006757E+02 0.  0.
         11    1    3    3    0    0 -0.13909343799E+02  0.21893018747E+02 -0.27503203540E+02  0.37804765837E+02  0.51100000000E-03 0.  1.
         22    1    1    0    0    0  0.71634727034E+01  0.27306519703E+02 -0.39455937163E+01  0.28504895531E+02  0.00000000000E+00 0. -1.
</event>
<event>
 5    1  0.1044283E-009  0.9118800E+02  0.7815553E-02  0.1125453E+00
         25   -1    0    0    0    0  0.00000000000E+00  0.00000000000E+00  0.99999998245E-14  0.12509000000E+03  0.12509000000E+03 0.  0.
        -11    1    3    3    0    0  0.27507624705E+02  0.10277356532E+02 -0.29277807038E+02  0.41466654789E+02  0.51100000000E-03 0.  1.
         23    2    1    0    0    0 -0.23309355255E+02  0.14284631271E+02 -0.11067885549E+02  0.95596359609E+02  0.90932882650E+02 0.  0.
         11    1    3    3    0    0 -0.50816979960E+02  0.40072747391E+01  0.18209921489E+02  0.54129704821E+02  0.51100000000E-03 0. -1.
         22    1    1    0    0    0  0.23309355255E+02 -0.14284631271E+02  0.11067885549E+02  0.29493640391E+02  0.00000000000E+00 0.  1.
</event>
<event>
 5    1  0.1044283E-009  0.9118800E+02  0.7815553E-02  0.1125453E+00
         25   -1    0    0    0    0  0.00000000000E+00  0.00000000000E+00  0.99999998245E-14  0.12509000000E+03  0.12509000000E+03 0.  0.
        -11    1    3    3    0    0  0.17585381862E+02  0.25460957131E+02 -0.54872261959E+01  0.31426352713E+02  0.51100000000E-03 0. -1.
         23    2    1    0    0    0 -0.26226967466E+02 -0.17117047345E+02  0.48813161621E+01  0.93393401132E+02  0.87850173564E+02 0.  0.
         11    1    3    3    0    0 -0.43812349328E+02 -0.42578004477E+02  0.10368542358E+02  0.61967048419E+02  0.51100000000E-03 0.  1.
         22    1    1    0    0    0  0.26226967466E+02  0.17117047345E+02 -0.48813161621E+01  0.31696598868E+02  0.00000000000E+00 0.  1.
</event>
<event>
 5    1  0.1044283E-009  0.9118800E+02  0.7815553E-02  0.1125453E+00
         25   -1    0    0    0    0  0.00000000000E+00  0.00000000000E+00  0.99999998245E-14  0.12509000000E+03  0.12509000000E+03 0.  0.
        -11    1    3    3    0    0 -0.25763273593E+00  0.40563419672E+02  0.60787411561E+01  0.41017173043E+02  0.51100000000E-03 0. -1.
         23    2    1    0    0    0  0.42947865034E+01 -0.39501571096E+00 -0.29387401579E+02  0.95387801426E+02  0.90645529734E+02 0.  0.
         11    1    3    3    0    0  0.45524192394E+01 -0.40958435383E+02 -0.35466142736E+02  0.54370628383E+02  0.51100000000E-03 0.  1.
         22    1    1    0    0    0 -0.42947865034E+01  0.39501571096E+00  0.29387401579E+02  0.29702198574E+02  0.00000000000E+00 0.  1.
</event>
<event>
 5    1  0.1044283E-009  0.9118800E+02  0.7815553E-02  0.1125453E+00
         25   -1    0    0    0    0  0.00000000000E+00  0.00000000000E+00  0.99999998245E-14  0.12509000000E+03  0.12509000000E+03 0.  0.
        -11    1    3    3    0    0  0.60941632353E+01  0.41247060613E+02  0.26615099079E+02  0.49465364994E+02  0.51100000000E-03 0. -1.
         23    2    1    0    0    0 -0.98739750262E+00 -0.36427550267E+01  0.29828390680E+02  0.95023781272E+02  0.90141785531E+02 0.  0.
         11    1    3    3    0    0 -0.70815607380E+01 -0.44889815639E+02  0.32132916006E+01  0.45558416278E+02  0.51100000000E-03 0.  1.
         22    1    1    0    0    0  0.98739750262E+00  0.36427550267E+01 -0.29828390680E+02  0.30066218728E+02  0.00000000000E+00 0. -1.
</event>
<event>
 5    1  0.1044283E-009  0.9118800E+02  0.7815553E-02  0.1125453E+00
         25   -1    0    0    0    0  0.00000000000E+00  0.00000000000E+00  0.99999998245E-14  0.12509000000E+03  0.12509000000E+03 0.  0.
        -11    1    3    3    0    0 -0.24540057676E+01 -0.54662174589E+02 -0.20125467859E+02  0.58301028566E+02  0.51100000000E-03 0. -1.
         23    2    1    0    0    0  0.11295598381E+02 -0.22194854413E+02 -0.19322988856E+02  0.93568895903E+02  0.88099706452E+02 0.  0.
         11    1    3    3    0    0  0.13749604148E+02  0.32467320176E+02  0.80247900316E+00  0.35267867336E+02  0.51100000000E-03 0.  1.
         22    1    1    0    0    0 -0.11295598381E+02  0.22194854413E+02  0.19322988856E+02  0.31521104097E+02  0.00000000000E+00 0. -1.
</event>
<event>
 5    1  0.1044283E-009  0.9118800E+02  0.7815553E-02  0.1125453E+00
         25   -1    0    0    0    0  0.00000000000E+00  0.00000000000E+00  0.99999998245E-14  0.12509000000E+03  0.12509000000E+03 0.  0.
        -11    1    3    3    0    0  0.22665769823E+02  0.24123662197E+02  0.30882454334E+01  0.33244931337E+02  0.51100000000E-03 0.  1.
         23    2    1    0    0    0  0.59510020477E+01 -0.32201288550E+02 -0.24130036449E+01  0.92254653249E+02  0.86213462115E+02 0.  0.
         11    1    3    3    0    0 -0.16714767776E+02 -0.56324950747E+02 -0.55012490782E+01  0.59009721912E+02  0.51100000000E-03 0. -1.
         22    1    1    0    0    0 -0.59510020477E+01  0.32201288550E+02  0.24130036449E+01  0.32835346751E+02  0.00000000000E+00 0. -1.
</event>
<event>
 5    1  0.1044283E-009  0.9118800E+02  0.7815553E-02  0.1125453E+00
         25   -1    0    0    0    0  0.00000000000E+00  0.00000000000E+00  0.99999998245E-14  0.12509000000E+03  0.12509000000E+03 0.  0.
        -11    1    3    3    0    0 -0.49484142426E+02  0.29690302870E+02  0.82037865095E+01  0.58288048085E+02  0.51100000000E-03 0.  1.
         23    2    1    0    0    0 -0.23388668525E+02  0.35898917485E+01  0.16658036180E+02  0.96152009269E+02  0.91694065124E+02 0.  0.
         11    1    3    3    0    0  0.26095473901E+02 -0.26100411121E+02  0.84542496710E+01  0.37863961184E+02  0.51100000000E-03 0. -1.
         22    1    1    0    0    0  0.23388668525E+02 -0.35898917485E+01 -0.16658036180E+02  0.28937990731E+02  0.00000000000E+00 0.  1.
</event>
<event>
 5    1  0.1044283E-009  0.9118800E+02  0.7815553E-02  0.1125453E+00
         25   -1    0    0    0    0  0.00000000000E+00  0.00000000000E+00  0.99999998245E-14  0.12509000000E+03  0.12509000000E+03 0.  0.
        -11    1    3    3    0    0 -0.44371597144E+02  0.63433634350E+00 -0.26921073041E+02  0.51903614418E+02  0.51100000000E-03 0.  1.
         23    2    1    0    0    0 -0.12451499696E+02 -0.22921697433E+02 -0.20105228733E+02  0.92155758241E+02  0.86069852426E+02 0.  0.
         11    1    3    3    0    0  0.31920097449E+02 -0.23556033776E+02  0.68158443081E+01  0.40252143822E+02  0.51100000000E-03 0. -1.
         22    1    1    0    0    0  0.12451499696E+02  0.22921697433E+02  0.20105228733E+02  0.32934241759E+02  0.00000000000E+00 0.  1.
</event>
<event>
 5    1  0.1044283E-009  0.9118800E+02  0.7815553E-02  0.1125453E+00
         25   -1    0    0    0    0  0.00000000000E+00  0.00000000000E+00  0.99999998245E-14  0.12509000000E+03  0.12509000000E+03 0.  0.
        -11    1    3    3    0    0  0.14308117513E+02 -0.13626461103E+02 -0.30376251563E+02  0.36236988399E+02  0.51100000000E-03 0.  1.
         23    2    1    0    0    0 -0.89077049348E+01 -0.39370842193E+02  0.33281040144E+01  0.84587077901E+02  0.74259592305E+02 0.  0.
         11    1    3    3    0    0 -0.23215822448E+02 -0.25744381091E+02  0.33704355578E+02  0.48350089502E+02  0.51100000000E-03 0. -1.
         22    1    1    0    0    0  0.89077049348E+01  0.39370842193E+02 -0.33281040144E+01  0.40502922099E+02  0.00000000000E+00 0. -1.
</event>
<event>
 5    1  0.1044283E-009  0.9118800E+02  0.7815553E-02  0.1125453E+00
         25   -1    0    0    0    0  0.00000000000E+00  0.00000000000E+00  0.99999998245E-14  0.12509000000E+03  0.12509000000E+03 0.  0.
        -11    1    3    3    0    0  0.52466833338E+02 -0.36892773277E+01  0.32788911895E+02  0.61979771790E+02  0.51100000000E-03 0. -1.
         23    2    1    0    0    0  0.26931252282E+02 -0.13842964816E+01  0.98570671028E+01  0.96378148821E+02  0.92002049826E+02 0.  0.
         11    1    3    3    0    0 -0.25535581056E+02  0.23049808461E+01 -0.22931844792E+02  0.34398377031E+02  0.51100000000E-03 0.  1.
         22    1    1    0    0    0 -0.26931252282E+02  0.13842964816E+01 -0.98570671028E+01  0.28711851179E+02  0.00000000000E+00 0. -1.
</event>
<event>
 5    1  0.1044283E-009  0.9118800E+02  0.7815553E-02  0.1125453E+00
         25   -1    0    0    0    0  0.00000000000E+00  0.00000000000E+00  0.99999998245E-14  0.12509000000E+03  0.12509000000E+03 0.  0.
        -11    1    3    3    0    0  0.35915515627E+02 -0.48156183301E+02 -0.31212016802E+01  0.60155499774E+02  0.51100000000E-03 0. -1.
         23    2    1    0    0    0  0.12746712470E+02 -0.27358692333E+02  0.90438186425E+01  0.93581788680E+02  0.88118010599E+02 0.  0.
         11    1    3    3    0    0 -0.23168803157E+02  0.20797490968E+02  0.12165020323E+02  0.33426288906E+02  0.51100000000E-03 0.  1.
         22    1    1    0    0    0 -0.12746712470E+02  0.27358692333E+02 -0.90438186425E+01  0.31508211320E+02  0.00000000000E+00 0. -1.
</event>
<event>
 5    1  0.1044283E-009  0.9118800E+02  0.7815553E-02  0.1125453E+00
         25   -1    0    0    0    0  0.00000000000E+00  0.00000000000E+00  0.99999998245E-14  0.12509000000E+03  0.12509000000E+03 0.  0.
        -11    1    3    3    0    0  0.49351747316E+02 -0.23575674481E+02 -0.20689538626E+01  0.54732878242E+02  0.51100000000E-03 0.  1.
         23    2    1    0    0    0  0.10071913243E+02 -0.25321202887E+02 -0.12042809889E+02  0.95296778924E+02  0.90519832364E+02 0.  0.
         11    1    3    3    0    0 -0.39279834073E+02 -0.17455284067E+01 -0.99738560269E+01  0.40563900682E+02  0.51100000000E-03 0. -1.
         22    1    1    0    0    0 -0.10071913243E+02  0.25321202887E+02  0.12042809889E+02  0.29793221076E+02  0.00000000000E+00 0.  1.
</event>
<event>
 5    1  0.1044283E-009  0.9118800E+02  0.7815553E-02  0.1125453E+00
         25   -1    0    0    0    0  0.00000000000E+00  0.00000000000E+00  0.99999998245E-14  0.12509000000E+03  0.12509000000E+03 0.  0.
        -11    1    3    3    0    0 -0.42556294603E+02  0.17474806724E+01  0.24919700105E+02  0.49346563737E+02  0.51100000000E-03 0.  1.
         23    2    1    0    0    0 -0.14295769524E+02 -0.93022536697E+01 -0.16942424250E+02  0.10104947819E+03  0.98148104172E+02 0.  0.
         11    1    3    3    0    0  0.28260525079E+02 -0.11049734342E+02 -0.41862124355E+02  0.51702914449E+02  0.51100000000E-03 0. -1.
         22    1    1    0    0    0  0.14295769524E+02  0.93022536697E+01  0.16942424250E+02  0.24040521814E+02  0.00000000000E+00 0. -1.
</event>
<event>
 5    1  0.1044283E-009  0.9118800E+02  0.7815553E-02  0.1125453E+00
         25   -1    0    0    0    0  0.00000000000E+00  0.00000000000E+00  0.99999998245E-14  0.12509000000E+03  0.12509000000E+03 0.  0.
        -11    1    3    3    0    0  0.46509801741E+01 -0.34860308316E+02  0.17822747647E+02  0.39427440272E+02  0.51100000000E-03 0.  1.
         23    2    1    0    0    0  0.15034244606E+02 -0.26450221165E+00 -0.25287567670E+02  0.95669606547E+02  0.91033587570E+02 0.  0.
         11    1    3    3    0    0  0.10383264432E+02  0.34595806105E+02 -0.43110315316E+02  0.56242166274E+02  0.51100000000E-03 0. -1.
         22    1    1    0    0    0 -0.15034244606E+02  0.26450221165E+00  0.25287567670E+02  0.29420393453E+02  0.00000000000E+00 0.  1.
</event>
<event>
 5    1  0.1044283E-009  0.9118800E+02  0.7815553E-02  0.1125453E+00
         25   -1    0    0    0    0  0.00000000000E+00  0.00000000000E+00  0.99999998245E-14  0.12509000000E+03  0.12509000000E+03 0.  0.
        -11    1    3    3    0    0 -0.16875934310E+02 -0.35831005753E+02 -0.38084299274E+02  0.54946082513E+02  0.51100000000E-03 0.  1.
         23    2    1    0    0    0 -0.24858906572E+02 -0.15402211539E+02 -0.38638359800E+01  0.95592159660E+02  0.90927104890E+02 0.  0.
         11    1    3    3    0    0 -0.79829722626E+01  0.20428794214E+02  0.34220463294E+02  0.40646077147E+02  0.51100000000E-03 0. -1.
         22    1    1    0    0    0  0.24858906572E+02  0.15402211539E+02  0.38638359800E+01  0.29497840340E+02  0.00000000000E+00 0. -1.
</event>
<event>
 5    1  0.1044283E-009  0.9118800E+02  0.7815553E-02  0.1125453E+00
         25   -1    0    0    0    0  0.00000000000E+00  0.00000000000E+00  0.99999998245E-14  0.12509000000E+03  0.12509000000E+03 0.  0.
        -11    1    3    3    0    0 -0.12481193559E+02  0.14361727492E+02 -0.46502111876E+02  0.50244261547E+02  0.51100000000E-03 0. -1.
         23    2    1    0    0    0 -0.77828026952E+00 -0.19029622415E+02 -0.30624663946E+02  0.89026135936E+02  0.81394413742E+02 0.  0.
         11    1    3    3    0    0  0.11702913290E+02 -0.33391349907E+02  0.15877447930E+02  0.38781874388E+02  0.51100000000E-03 0.  1.
         22    1    1    0    0    0  0.77828026952E+00  0.19029622415E+02  0.30624663946E+02  0.36063864064E+02  0.00000000000E+00 0. -1.
</event>
<event>
 5    1  0.1044283E-009  0.9118800E+02  0.7815553E-02  0.1125453E+00
         25   -1    0    0    0    0  0.00000000000E+00  0.00000000000E+00  0.99999998245E-14  0.12509000000E+03  0.12509000000E+03 0.  0.
        -11    1    3    3    0    0  0.54956252377E+02  0.41549690011E+01  0.21486783185E+02  0.59153489285E+02  0.51100000000E-03 0.  1.
         23    2    1    0    0    0  0.17494396762E+02  0.23523971466E+01  0.22277303091E+02  0.96667017690E+02  0.92393973752E+02 0.  0.
         11    1    3    3    0    0 -0.37461855615E+02 -0.18025718546E+01  0.79051990639E+00  0.37513528405E+02  0.51100000000E-03 0. -1.
         22    1    1    0    0    0 -0.17494396762E+02 -0.23523971466E+01 -0.22277303091E+02  0.28422982310E+02  0.00000000000E+00 0.  1.
</event>
<event>
 5    1  0.1044283E-009  0.9118800E+02  0.7815553E-02  0.1125453E+00
         25   -1    0    0    0    0  0.00000000000E+00  0.00000000000E+00  0.99999998245E-14  0.12509000000E+03  0.12509000000E+03 0.  0.
        -11    1    3    3    0    0  0.14424485420E+02 -0.23514598489E+02  0.32443464400E+02  0.42586153903E+02  0.51100000000E-03 0. -1.
         23    2    1    0    0    0  0.19658057776E+02  0.22092428109E+02  0.87263184357E+01  0.94257172547E+02  0.89071607866E+02 0.  0.
         11    1    3    3    0    0  0.52335723560E+01  0.45607026599E+02 -0.23717145964E+02  0.51671018644E+02  0.51100000000E-03 0.  1.
         22    1    1    0    0    0 -0.19658057776E+02 -0.22092428109E+02 -0.87263184357E+01  0.30832827453E+02  0.00000000000E+00 0.  1.
</event>
<event>
 5    1  0.1044283E-009  0.9118800E+02  0.7815553E-02  0.1125453E+00
         25   -1    0    0    0    0  0.00000000000E+00  0.00000000000E+00  0.99999998245E-14  0.12509000000E+03  0.12509000000E+03 0.  0.
        -11    1    3    3    0    0 -0.11856730376E+02 -0.14619212086E+02  0.84168790630E+00  0.18841758305E+02  0.51100000000E-03 0.  1.
         23    2    1    0    0    0  0.10332021857E+02  0.43071027074E+02  0.30572243184E+01  0.80691681683E+02  0.67379053299E+02 0.  0.
         11    1    3    3    0    0  0.22188752232E+02  0.57690239160E+02  0.22155364121E+01  0.61849923378E+02  0.51100000000E-03 0. -1.
         22    1    1    0    0    0 -0.10332021857E+02 -0.43071027074E+02 -0.30572243184E+01  0.44398318317E+02  0.00000000000E+00 0. -1.
</event>
<event>
 5    1  0.1044283E-009  0.9118800E+02  0.7815553E-02  0.1125453E+00
         25   -1    0    0    0    0  0.00000000000E+00  0.00000000000E+00  0.99999998245E-14  0.12509000000E+03  0.12509000000E+03 0.  0.
        -11    1    3    3    0    0 -0.13227892844E+02  0.47872380796E+02 -0.16279896165E+02  0.52266404234E+02  0.51100000000E-03 0.  1.
         23    2    1    0    0    0  0.12435008293E+02  0.23861249893E+02  0.10246648838E+02  0.96297943976E+02  0.91892935114E+02 0.  0.
         11    1    3    3    0    0  0.25662901137E+02 -0.24011130903E+02  0.26526545002E+02  0.44031539742E+02  0.51100000000E-03 0. -1.
         22    1    1    0    0    0 -0.12435008293E+02 -0.23861249893E+02 -0.10246648838E+02  0.28792056024E+02  0.00000000000E+00 0. -1.
</event>
<event>
 5    1  0.1044283E-009  0.9118800E+02  0.7815553E-02  0.1125453E+00
         25   -1    0    0    0    0  0.00000000000E+00  0.00000000000E+00  0.99999998245E-14  0.12509000000E+03  0.12509000000E+03 0.  0.
        -11    1    3    3    0    0  0.44109964477E+02  0.23580033937E+02  0.33724069546E+01  0.50130630313E+02  0.51100000000E-03 0.  1.
         23    2    1    0    0    0  0.73588222047E+01  0.98600533928E+01  0.26643933899E+02  0.95742561768E+02  0.91133780802E+02 0.  0.
         11    1    3    3    0    0 -0.36751142273E+02 -0.13719980544E+02  0.23271526944E+02  0.45611931455E+02  0.51100000000E-03 0. -1.
         22    1    1    0    0    0 -0.73588222047E+01 -0.98600533928E+01 -0.26643933899E+02  0.29347438232E+02  0.00000000000E+00 0.  1.
</event>
<event>
 5    1  0.1044283E-009  0.9118800E+02  0.7815553E-02  0.1125453E+00
         25   -1    0    0    0    0  0.00000000000E+00  0.00000000000E+00  0.99999998245E-14  0.12509000000E+03  0.12509000000E+03 0.  0.
        -11    1    3    3    0    0 -0.49579807584E+02 -0.48883632101E+01 -0.71184422573E+01  0.50326192340E+02  0.51100000000E-03 0.  1.
         23    2    1    0    0    0 -0.62479078977E+01 -0.20688499072E+02 -0.17118197311E+02  0.97520396699E+02  0.93542208367E+02 0.  0.
         11    1    3    3    0    0  0.43331899687E+02 -0.15800135862E+02 -0.99997550540E+01  0.47194204360E+02  0.51100000000E-03 0. -1.
         22    1    1    0    0    0  0.62479078977E+01  0.20688499072E+02  0.17118197311E+02  0.27569603301E+02  0.00000000000E+00 0. -1.
</event>
<event>
 5    1  0.1044283E-009  0.9118800E+02  0.7815553E-02  0.1125453E+00
         25   -1    0    0    0    0  0.00000000000E+00  0.00000000000E+00  0.99999998245E-14  0.12509000000E+03  0.12509000000E+03 0.  0.
        -11    1    3    3    0    0 -0.17389389229E+02  0.58040368980E+02  0.12087113442E+02  0.61783279297E+02  0.51100000000E-03 0. -1.
         23    2    1    0    0    0 -0.10402000053E+02  0.30017964723E+02  0.13206018797E+02  0.90685367410E+02  0.83905644140E+02 0.  0.
         11    1    3    3    0    0  0.69873891758E+01 -0.28022404257E+02  0.11189053554E+01  0.28902088113E+02  0.51100000000E-03 0.  1.
         22    1    1    0    0    0  0.10402000053E+02 -0.30017964723E+02 -0.13206018797E+02  0.34404632590E+02  0.00000000000E+00 0. -1.
</event>
<event>
 5    1  0.1044283E-009  0.9118800E+02  0.7815553E-02  0.1125453E+00
         25   -1    0    0    0    0  0.00000000000E+00  0.00000000000E+00  0.99999998245E-14  0.12509000000E+03  0.12509000000E+03 0.  0.
        -11    1    3    3    0    0 -0.43214263809E+02  0.17493289871E+02 -0.68372471978E+01  0.47119377506E+02  0.51100000000E-03 0.  1.
         23    2    1    0    0    0  0.35120969352E+01  0.26770692807E+02  0.78523801219E+01  0.96971239504E+02  0.92804938441E+02 0.  0.
         11    1    3    3    0    0  0.46726360744E+02  0.92774029368E+01  0.14689627320E+02  0.49851861998E+02  0.51100000000E-03 0. -1.
         22    1    1    0    0    0 -0.35120969352E+01 -0.26770692807E+02 -0.78523801219E+01  0.28118760496E+02  0.00000000000E+00 0.  1.
</event>
<event>
 5    1  0.1044283E-009  0.9118800E+02  0.7815553E-02  0.1125453E+00
         25   -1    0    0    0    0  0.00000000000E+00  0.00000000000E+00  0.99999998245E-14  0.12509000000E+03  0.12509000000E+03 0.  0.
        -11    1    3    3    0    0  0.21909571217E+02  0.16370254660E+02 -0.31388172044E+02  0.41632101713E+02  0.51100000000E-03 0. -1.
         23    2    1    0    0    0 -0.20157820958E+02 -0.14443067671E+02 -0.14073203490E+02  0.96576932715E+02  0.92271929245E+02 0.  0.
         11    1    3    3    0    0 -0.42067392175E+02 -0.30813322331E+02  0.17314968554E+02  0.54944831001E+02  0.51100000000E-03 0.  1.
         22    1    1    0    0    0  0.20157820958E+02  0.14443067671E+02  0.14073203490E+02  0.28513067285E+02  0.00000000000E+00 0.  1.
</event>
<event>
 5    1  0.1044283E-009  0.9118800E+02  0.7815553E-02  0.1125453E+00
         25   -1    0    0    0    0  0.00000000000E+00  0.00000000000E+00  0.99999998245E-14  0.12509000000E+03  0.12509000000E+03 0.  0.
        -11    1    3    3    0    0 -0.35330745212E+02 -0.37192888313E+02  0.10082675991E+02  0.52280329511E+02  0.51100000000E-03 0.  1.
         23    2    1    0    0    0 -0.23663713173E+02 -0.24237668219E+01 -0.15232402674E+02  0.96843370857E+02  0.92632426401E+02 0.  0.
         11    1    3    3    0    0  0.11667032039E+02  0.34769121491E+02 -0.25315078666E+02  0.44563041346E+02  0.51100000000E-03 0. -1.
         22    1    1    0    0    0  0.23663713173E+02  0.24237668219E+01  0.15232402674E+02  0.28246629143E+02  0.00000000000E+00 0. -1.
</event>
<event>
 5    1  0.1044283E-009  0.9118800E+02  0.7815553E-02  0.1125453E+00
         25   -1    0    0    0    0  0.00000000000E+00  0.00000000000E+00  0.99999998245E-14  0.12509000000E+03  0.12509000000E+03 0.  0.
        -11    1    3    3    0    0 -0.33068896211E+02  0.39974146517E+02 -0.20025309300E+01  0.51918151130E+02  0.51100000000E-03 0.  1.
         23    2    1    0    0    0 -0.24291745598E+02  0.19995250596E+00  0.15524788324E+02  0.96260363553E+02  0.91841764212E+02 0.  0.
         11    1    3    3    0    0  0.87771506129E+01 -0.39774194011E+02  0.17527319254E+02  0.44342212423E+02  0.51100000000E-03 0. -1.
         22    1    1    0    0    0  0.24291745598E+02 -0.19995250596E+00 -0.15524788324E+02  0.28829636447E+02  0.00000000000E+00 0.  1.
</event>
<event>
 5    1  0.1044283E-009  0.9118800E+02  0.7815553E-02  0.1125453E+00
         25   -1    0    0    0    0  0.00000000000E+00  0.00000000000E+00  0.99999998245E-14  0.12509000000E+03  0.12509000000E+03 0.  0.
        -11    1    3    3    0    0 -0.25339817603E+01  0.52192894829E+01  0.43325419603E+02  0.43712172564E+02  0.51100000000E-03 0.  1.
         23    2    1    0    0    0  0.28174221327E+02  0.93605025890E+01  0.20409618898E+01  0.95331450278E+02  0.90567732282E+02 0.  0.
         11    1    3    3    0    0  0.30708203087E+02  0.41412131061E+01 -0.41284457713E+02  0.51619277714E+02  0.51100000000E-03 0. -1.
         22    1    1    0    0    0 -0.28174221327E+02 -0.93605025890E+01 -0.20409618898E+01  0.29758549722E+02  0.00000000000E+00 0. -1.
</event>
<event>
 5    1  0.1044283E-009  0.9118800E+02  0.7815553E-02  0.1125453E+00
         25   -1    0    0    0    0  0.00000000000E+00  0.00000000000E+00  0.99999998245E-14  0.12509000000E+03  0.12509000000E+03 0.  0.
        -11    1    3    3    0    0 -0.20983006503E+02  0.29411734548E+02  0.35868437805E+02  0.50910524667E+02  0.51100000000E-03 0.  1.
         23    2    1    0    0    0 -0.11105447277E+02 -0.12517986883E+02  0.24425585831E+02  0.95481889658E+02  0.90775277772E+02 0.  0.
         11    1    3    3    0    0  0.98775592265E+01 -0.41929721431E+02 -0.11442851974E+02  0.44571364991E+02  0.51100000000E-03 0. -1.
         22    1    1    0    0    0  0.11105447277E+02  0.12517986883E+02 -0.24425585831E+02  0.29608110342E+02  0.00000000000E+00 0.  1.
</event>
<event>
 5    1  0.1044283E-009  0.9118800E+02  0.7815553E-02  0.1125453E+00
         25   -1    0    0    0    0  0.00000000000E+00  0.00000000000E+00  0.99999998245E-14  0.12509000000E+03  0.12509000000E+03 0.  0.
        -11    1    3    3    0    0  0.11400069174E+02  0.12373537480E+02  0.57605578729E+02  0.60012237985E+02  0.51100000000E-03 0. -1.
         23    2    1    0    0    0 -0.17323966314E+01  0.13568041353E+02  0.44222676515E+02  0.78800281246E+02  0.63771045640E+02 0.  0.
         11    1    3    3    0    0 -0.13132465805E+02  0.11945038733E+01 -0.13382902215E+02  0.18788043261E+02  0.51100000000E-03 0.  1.
         22    1    1    0    0    0  0.17323966314E+01 -0.13568041353E+02 -0.44222676515E+02  0.46289718754E+02  0.00000000000E+00 0. -1.
</event>
<event>
 5    1  0.1044283E-009  0.9118800E+02  0.7815553E-02  0.1125453E+00
         25   -1    0    0    0    0  0.00000000000E+00  0.00000000000E+00  0.99999998245E-14  0.12509000000E+03  0.12509000000E+03 0.  0.
        -11    1    3    3    0    0 -0.20422419891E+02  0.17407656155E+01  0.10951057340E+02  0.23238570443E+02  0.51100000000E-03 0.  1.
         23    2    1    0    0    0 -0.14777613687E+02  0.17372648494E+02 -0.41213377847E+02  0.77986610573E+02  0.62154502114E+02 0.  0.
         11    1    3    3    0    0  0.56448062044E+01  0.15631882879E+02 -0.52164435186E+02  0.54748040129E+02  0.51100000000E-03 0. -1.
         22    1    1    0    0    0  0.14777613687E+02 -0.17372648494E+02  0.41213377847E+02  0.47103389427E+02  0.00000000000E+00 0. -1.
</event>
<event>
 5    1  0.1044283E-009  0.9118800E+02  0.7815553E-02  0.1125453E+00
         25   -1    0    0    0    0  0.00000000000E+00  0.00000000000E+00  0.99999998245E-14  0.12509000000E+03  0.12509000000E+03 0.  0.
        -11    1    3    3    0    0  0.30598392487E+02  0.22130125120E+02 -0.12933701043E+02  0.39915970282E+02  0.51100000000E-03 0. -1.
         23    2    1    0    0    0 -0.18669277437E+01 -0.23063755523E+02 -0.17974312881E+02  0.95789860724E+02  0.91198680122E+02 0.  0.
         11    1    3    3    0    0 -0.32465320231E+02 -0.45193880643E+02 -0.50406118383E+01  0.55873890443E+02  0.51100000000E-03 0.  1.
         22    1    1    0    0    0  0.18669277437E+01  0.23063755523E+02  0.17974312881E+02  0.29300139276E+02  0.00000000000E+00 0.  1.
</event>
<event>
 5    1  0.1044283E-009  0.9118800E+02  0.7815553E-02  0.1125453E+00
         25   -1    0    0    0    0  0.00000000000E+00  0.00000000000E+00  0.99999998245E-14  0.12509000000E+03  0.12509000000E+03 0.  0.
        -11    1    3    3    0    0 -0.20014999809E+02  0.40921071267E+01 -0.43455020878E+02  0.48017542605E+02  0.51100000000E-03 0.  1.
         23    2    1    0    0    0 -0.93013364506E+00 -0.26545781603E+02 -0.11810380846E+02  0.96020621520E+02  0.91514649056E+02 0.  0.
         11    1    3    3    0    0  0.19084866164E+02 -0.30637888729E+02  0.31644640032E+02  0.48003078915E+02  0.51100000000E-03 0. -1.
         22    1    1    0    0    0  0.93013364506E+00  0.26545781603E+02  0.11810380846E+02  0.29069378480E+02  0.00000000000E+00 0.  1.
</event>
<event>
 5    1  0.1044283E-009  0.9118800E+02  0.7815553E-02  0.1125453E+00
         25   -1    0    0    0    0  0.00000000000E+00  0.00000000000E+00  0.99999998245E-14  0.12509000000E+03  0.12509000000E+03 0.  0.
        -11    1    3    3    0    0 -0.59414806643E+02  0.12542970753E+02 -0.24199074008E+01  0.60772537513E+02  0.51100000000E-03 0.  1.
         23    2    1    0    0    0 -0.24217407584E+02  0.15703059204E+02 -0.25811981090E+01  0.96111879252E+02  0.91639302983E+02 0.  0.
         11    1    3    3    0    0  0.35197399059E+02  0.31600884511E+01 -0.16129070824E+00  0.35339341739E+02  0.51100000000E-03 0. -1.
         22    1    1    0    0    0  0.24217407584E+02 -0.15703059204E+02  0.25811981090E+01  0.28978120748E+02  0.00000000000E+00 0.  1.
</event>
<event>
 5    1  0.1044283E-009  0.9118800E+02  0.7815553E-02  0.1125453E+00
         25   -1    0    0    0    0  0.00000000000E+00  0.00000000000E+00  0.99999998245E-14  0.12509000000E+03  0.12509000000E+03 0.  0.
        -11    1    3    3    0    0 -0.90361273475E+01 -0.54056210290E+02  0.61579991027E+01  0.55151123485E+02  0.51100000000E-03 0. -1.
         23    2    1    0    0    0 -0.16468056469E+02 -0.14397757317E+02  0.17514523236E+02  0.97067672763E+02  0.92934828088E+02 0.  0.
         11    1    3    3    0    0 -0.74319291218E+01  0.39658452974E+02  0.11356524133E+02  0.41916549278E+02  0.51100000000E-03 0.  1.
         22    1    1    0    0    0  0.16468056469E+02  0.14397757317E+02 -0.17514523236E+02  0.28022327237E+02  0.00000000000E+00 0. -1.
</event>
<event>
 5    1  0.1044283E-009  0.9118800E+02  0.7815553E-02  0.1125453E+00
         25   -1    0    0    0    0  0.00000000000E+00  0.00000000000E+00  0.99999998245E-14  0.12509000000E+03  0.12509000000E+03 0.  0.
        -11    1    3    3    0    0 -0.19796454855E+02 -0.41758783165E+02  0.52396945668E+01  0.46509676366E+02  0.51100000000E-03 0.  1.
         23    2    1    0    0    0  0.37080566023E+01 -0.31187917741E+01 -0.24157511433E+02  0.10045137373E+03  0.97382835137E+02 0.  0.
         11    1    3    3    0    0  0.23504511457E+02  0.38639991391E+02 -0.29397206000E+02  0.53941697363E+02  0.51100000000E-03 0. -1.
         22    1    1    0    0    0 -0.37080566023E+01  0.31187917741E+01  0.24157511433E+02  0.24638626272E+02  0.00000000000E+00 0. -1.
</event>
<event>
 5    1  0.1044283E-009  0.9118800E+02  0.7815553E-02  0.1125453E+00
         25   -1    0    0    0    0  0.00000000000E+00  0.00000000000E+00  0.99999998245E-14  0.12509000000E+03  0.12509000000E+03 0.  0.
        -11    1    3    3    0    0  0.45366108008E+01 -0.71708506643E+00  0.34284584204E+02  0.34590862419E+02  0.51100000000E-03 0. -1.
         23    2    1    0    0    0  0.14441416791E+01  0.21221139869E+02 -0.21641641214E+02  0.94745594306E+02  0.89754914536E+02 0.  0.
         11    1    3    3    0    0 -0.30924691217E+01  0.21938224935E+02 -0.55926225418E+02  0.60154731887E+02  0.51100000000E-03 0.  1.
         22    1    1    0    0    0 -0.14441416791E+01 -0.21221139869E+02  0.21641641214E+02  0.30344405694E+02  0.00000000000E+00 0.  1.
</event>
<event>
 5    1  0.1044283E-009  0.9118800E+02  0.7815553E-02  0.1125453E+00
         25   -1    0    0    0    0  0.00000000000E+00  0.00000000000E+00  0.99999998245E-14  0.12509000000E+03  0.12509000000E+03 0.  0.
        -11    1    3    3    0    0  0.32190122012E+02  0.25158159469E+02  0.37733889775E+02  0.55614596832E+02  0.51100000000E-03 0. -1.
         23    2    1    0    0    0  0.71110325762E+01  0.28193481287E+02  0.74066380663E+01  0.95085042762E+02  0.90226758216E+02 0.  0.
         11    1    3    3    0    0 -0.25079089436E+02  0.30353218185E+01 -0.30327251708E+02  0.39470445930E+02  0.51100000000E-03 0.  1.
         22    1    1    0    0    0 -0.71110325762E+01 -0.28193481287E+02 -0.74066380663E+01  0.30004957238E+02  0.00000000000E+00 0. -1.
</event>
<event>
 5    1  0.1044283E-009  0.9118800E+02  0.7815553E-02  0.1125453E+00
         25   -1    0    0    0    0  0.00000000000E+00  0.00000000000E+00  0.99999998245E-14  0.12509000000E+03  0.12509000000E+03 0.  0.
        -11    1    3    3    0    0 -0.24074564186E+02 -0.40559724172E+02  0.11922848763E+02  0.48650079019E+02  0.51100000000E-03 0.  1.
         23    2    1    0    0    0  0.64056499930E+01 -0.21702791994E+02 -0.18655230130E+02  0.95763200935E+02  0.91162105669E+02 0.  0.
         11    1    3    3    0    0  0.30480214179E+02  0.18856932178E+02 -0.30578078894E+02  0.47113121916E+02  0.51100000000E-03 0. -1.
         22    1    1    0    0    0 -0.64056499930E+01  0.21702791994E+02  0.18655230130E+02  0.29326799065E+02  0.00000000000E+00 0. -1.
</event>
<event>
 5    1  0.1044283E-009  0.9118800E+02  0.7815553E-02  0.1125453E+00
         25   -1    0    0    0    0  0.00000000000E+00  0.00000000000E+00  0.99999998245E-14  0.12509000000E+03  0.12509000000E+03 0.  0.
        -11    1    3    3    0    0  0.47053191735E+02  0.63317338480E+00  0.36720151161E+02  0.59688971030E+02  0.51100000000E-03 0.  1.
         23    2    1    0    0    0  0.21160691536E+02 -0.12844954149E+02  0.14241433272E+02  0.96531531291E+02  0.92210359496E+02 0.  0.
         11    1    3    3    0    0 -0.25892500200E+02 -0.13478127534E+02 -0.22478717890E+02  0.36842560262E+02  0.51100000000E-03 0. -1.
         22    1    1    0    0    0 -0.21160691536E+02  0.12844954149E+02 -0.14241433272E+02  0.28558468709E+02  0.00000000000E+00 0.  1.
</event>
<event>
 5    1  0.1044283E-009  0.9118800E+02  0.7815553E-02  0.1125453E+00
         25   -1    0    0    0    0  0.00000000000E+00  0.00000000000E+00  0.99999998245E-14  0.12509000000E+03  0.12509000000E+03 0.  0.
        -11    1    3    3    0    0  0.21255469131E+02 -0.33327745021E+02 -0.35126870903E+02  0.52881287956E+02  0.51100000000E-03 0.  1.
         23    2    1    0    0    0  0.16772108631E+02  0.66755257210E+01 -0.24759323775E+02  0.94448681729E+02  0.89340153879E+02 0.  0.
         11    1    3    3    0    0 -0.44833604996E+01  0.40003270742E+02  0.10367547128E+02  0.41567393774E+02  0.51100000000E-03 0. -1.
         22    1    1    0    0    0 -0.16772108631E+02 -0.66755257210E+01  0.24759323775E+02  0.30641318271E+02  0.00000000000E+00 0.  1.
</event>
<event>
 5    1  0.1044283E-009  0.9118800E+02  0.7815553E-02  0.1125453E+00
         25   -1    0    0    0    0  0.00000000000E+00  0.00000000000E+00  0.99999998245E-14  0.12509000000E+03  0.12509000000E+03 0.  0.
        -11    1    3    3    0    0  0.20150121737E+02 -0.26037680551E+02  0.19290180775E+02  0.38158869075E+02  0.51100000000E-03 0.  1.
         23    2    1    0    0    0 -0.28186561927E+02 -0.69769928005E+01 -0.51843461967E+01  0.95593590942E+02  0.90929073909E+02 0.  0.
         11    1    3    3    0    0 -0.48336683664E+02  0.19060687750E+02 -0.24474526972E+02  0.57434721867E+02  0.51100000000E-03 0. -1.
         22    1    1    0    0    0  0.28186561927E+02  0.69769928005E+01  0.51843461967E+01  0.29496409058E+02  0.00000000000E+00 0. -1.
</event>
<event>
 5    1  0.1044283E-009  0.9118800E+02  0.7815553E-02  0.1125453E+00
         25   -1    0    0    0    0  0.00000000000E+00  0.00000000000E+00  0.99999998245E-14  0.12509000000E+03  0.12509000000E+03 0.  0.
        -11    1    3    3    0    0 -0.28221277602E+02 -0.17013163118E+02  0.21146871008E+02  0.39154544851E+02  0.51100000000E-03 0.  1.
         23    2    1    0    0    0 -0.68693244999E+01 -0.10053688203E+02 -0.28747510007E+02  0.93870076919E+02  0.88526311025E+02 0.  0.
         11    1    3    3    0    0  0.21351953102E+02  0.69594749152E+01 -0.49894381015E+02  0.54715532068E+02  0.51100000000E-03 0. -1.
         22    1    1    0    0    0  0.68693244999E+01  0.10053688203E+02  0.28747510007E+02  0.31219923081E+02  0.00000000000E+00 0. -1.
</event>
<event>
 5    1  0.1044283E-009  0.9118800E+02  0.7815553E-02  0.1125453E+00
         25   -1    0    0    0    0  0.00000000000E+00  0.00000000000E+00  0.99999998245E-14  0.12509000000E+03  0.12509000000E+03 0.  0.
        -11    1    3    3    0    0  0.38162957403E+02  0.27892085835E+02 -0.80265681458E+01  0.47945860786E+02  0.51100000000E-03 0. -1.
         23    2    1    0    0    0  0.21118008773E+02 -0.18775010328E+00  0.23513571677E+02  0.93484721997E+02  0.87980109396E+02 0.  0.
         11    1    3    3    0    0 -0.17044948630E+02 -0.28079835939E+02  0.31540139823E+02  0.45538861211E+02  0.51100000000E-03 0.  1.
         22    1    1    0    0    0 -0.21118008773E+02  0.18775010328E+00 -0.23513571677E+02  0.31605278003E+02  0.00000000000E+00 0. -1.
</event>
<event>
 5    1  0.1044283E-009  0.9118800E+02  0.7815553E-02  0.1125453E+00
         25   -1    0    0    0    0  0.00000000000E+00  0.00000000000E+00  0.99999998245E-14  0.12509000000E+03  0.12509000000E+03 0.  0.
        -11    1    3    3    0    0 -0.38396097428E+01  0.28952457837E+02 -0.36849451389E+02  0.47019883940E+02  0.51100000000E-03 0.  1.
         23    2    1    0    0    0 -0.10675198875E+02  0.27968017273E+02  0.93461627134E+01  0.93728867707E+02  0.88326553329E+02 0.  0.
         11    1    3    3    0    0 -0.68355891321E+01 -0.98444056369E+00  0.46195614103E+02  0.46708983767E+02  0.51100000000E-03 0. -1.
         22    1    1    0    0    0  0.10675198875E+02 -0.27968017273E+02 -0.93461627134E+01  0.31361132293E+02  0.00000000000E+00 0.  1.
</event>
<event>
 5    1  0.1044283E-009  0.9118800E+02  0.7815553E-02  0.1125453E+00
         25   -1    0    0    0    0  0.00000000000E+00  0.00000000000E+00  0.99999998245E-14  0.12509000000E+03  0.12509000000E+03 0.  0.
        -11    1    3    3    0    0  0.79419207188E+01  0.21130699024E+02 -0.43784627108E+02  0.49261284161E+02  0.51100000000E-03 0. -1.
         23    2    1    0    0    0  0.12019530079E+02  0.26578420674E+02  0.22850153701E+01  0.95830764807E+02  0.91254767763E+02 0.  0.
         11    1    3    3    0    0  0.40776093601E+01  0.54477216497E+01  0.46069642478E+02  0.46569480646E+02  0.51100000000E-03 0.  1.
         22    1    1    0    0    0 -0.12019530079E+02 -0.26578420674E+02 -0.22850153701E+01  0.29259235193E+02  0.00000000000E+00 0. -1.
</event>
<event>
 5    1  0.1044283E-009  0.9118800E+02  0.7815553E-02  0.1125453E+00
         25   -1    0    0    0    0  0.00000000000E+00  0.00000000000E+00  0.99999998245E-14  0.12509000000E+03  0.12509000000E+03 0.  0.
        -11    1    3    3    0    0  0.33750725831E+02  0.91032302836E+01 -0.27104053060E+02  0.44233584393E+02  0.51100000000E-03 0. -1.
         23    2    1    0    0    0  0.16916156058E+02  0.10693813852E+02  0.21513160569E+02  0.95707521068E+02  0.91085671326E+02 0.  0.
         11    1    3    3    0    0 -0.16834569773E+02  0.15905835689E+01  0.48617213629E+02  0.51473936675E+02  0.51100000000E-03 0.  1.
         22    1    1    0    0    0 -0.16916156058E+02 -0.10693813852E+02 -0.21513160569E+02  0.29382478932E+02  0.00000000000E+00 0.  1.
</event>
<event>
 5    1  0.1044283E-009  0.9118800E+02  0.7815553E-02  0.1125453E+00
         25   -1    0    0    0    0  0.00000000000E+00  0.00000000000E+00  0.99999998245E-14  0.12509000000E+03  0.12509000000E+03 0.  0.
        -11    1    3    3    0    0  0.10342306930E+02 -0.22863338899E+02 -0.34903592677E+02  0.42987862942E+02  0.51100000000E-03 0.  1.
         23    2    1    0    0    0 -0.72296153192E+00  0.24736443475E+02 -0.17147589594E+02  0.94982623196E+02  0.90084652251E+02 0.  0.
         11    1    3    3    0    0 -0.11065268462E+02  0.47599782374E+02  0.17756003084E+02  0.51994760254E+02  0.51100000000E-03 0. -1.
         22    1    1    0    0    0  0.72296153192E+00 -0.24736443475E+02  0.17147589594E+02  0.30107376804E+02  0.00000000000E+00 0. -1.
</event>
<event>
 5    1  0.1044283E-009  0.9118800E+02  0.7815553E-02  0.1125453E+00
         25   -1    0    0    0    0  0.00000000000E+00  0.00000000000E+00  0.99999998245E-14  0.12509000000E+03  0.12509000000E+03 0.  0.
        -11    1    3    3    0    0 -0.19696051415E+02 -0.17245688711E+02 -0.44417128261E+02  0.51558020750E+02  0.51100000000E-03 0.  1.
         23    2    1    0    0    0 -0.31868150146E+02 -0.30377782785E+01 -0.86394843165E+01  0.91932078174E+02  0.85744149756E+02 0.  0.
         11    1    3    3    0    0 -0.12172098731E+02  0.14207910432E+02  0.35777643944E+02  0.40374057424E+02  0.51100000000E-03 0. -1.
         22    1    1    0    0    0  0.31868150146E+02  0.30377782785E+01  0.86394843165E+01  0.33157921826E+02  0.00000000000E+00 0.  1.
</event>
<event>
 5    1  0.1044283E-009  0.9118800E+02  0.7815553E-02  0.1125453E+00
         25   -1    0    0    0    0  0.00000000000E+00  0.00000000000E+00  0.99999998245E-14  0.12509000000E+03  0.12509000000E+03 0.  0.
        -11    1    3    3    0    0 -0.19865709052E+02 -0.83774836776E+01 -0.13322237726E+02  0.25343848311E+02  0.51100000000E-03 0.  1.
         23    2    1    0    0    0 -0.10180212044E+02  0.44180394095E+02 -0.80056933601E+01  0.79050505370E+02  0.64259997926E+02 0.  0.
         11    1    3    3    0    0  0.96854970077E+01  0.52557877772E+02  0.53165443659E+01  0.53706657059E+02  0.51100000000E-03 0. -1.
         22    1    1    0    0    0  0.10180212044E+02 -0.44180394095E+02  0.80056933601E+01  0.46039494630E+02  0.00000000000E+00 0. -1.
</event>
<event>
 5    1  0.1044283E-009  0.9118800E+02  0.7815553E-02  0.1125453E+00
         25   -1    0    0    0    0  0.00000000000E+00  0.00000000000E+00  0.99999998245E-14  0.12509000000E+03  0.12509000000E+03 0.  0.
        -11    1    3    3    0    0 -0.14722613532E+02  0.29413761944E+02 -0.97664901385E+01  0.34311937730E+02  0.51100000000E-03 0.  1.
         23    2    1    0    0    0 -0.39859729001E+01 -0.25921417446E+02  0.13855722684E+02  0.95428764128E+02  0.90702040272E+02 0.  0.
         11    1    3    3    0    0  0.10736640632E+02 -0.55335179389E+02  0.23622212823E+02  0.61116826398E+02  0.51100000000E-03 0. -1.
         22    1    1    0    0    0  0.39859729001E+01  0.25921417446E+02 -0.13855722684E+02  0.29661235872E+02  0.00000000000E+00 0. -1.
</event>
<event>
 5    1  0.1044283E-009  0.9118800E+02  0.7815553E-02  0.1125453E+00
         25   -1    0    0    0    0  0.00000000000E+00  0.00000000000E+00  0.99999998245E-14  0.12509000000E+03  0.12509000000E+03 0.  0.
        -11    1    3    3    0    0  0.40373241987E+01  0.34051085075E+02  0.98120710151E+01  0.35665853689E+02  0.51100000000E-03 0.  1.
         23    2    1    0    0    0 -0.27383579573E+02 -0.62727127816E+01 -0.15816567273E+02  0.92850720291E+02  0.87074020823E+02 0.  0.
         11    1    3    3    0    0 -0.31420903772E+02 -0.40323797857E+02 -0.25628638288E+02  0.57184866601E+02  0.51100000000E-03 0. -1.
         22    1    1    0    0    0  0.27383579573E+02  0.62727127816E+01  0.15816567273E+02  0.32239279709E+02  0.00000000000E+00 0. -1.
</event>
<event>
 5    1  0.1044283E-009  0.9118800E+02  0.7815553E-02  0.1125453E+00
         25   -1    0    0    0    0  0.00000000000E+00  0.00000000000E+00  0.99999998245E-14  0.12509000000E+03  0.12509000000E+03 0.  0.
        -11    1    3    3    0    0 -0.30314514744E+02 -0.42764285144E+02  0.56959872280E+01  0.52727584421E+02  0.51100000000E-03 0.  1.
         23    2    1    0    0    0 -0.22132241168E+02 -0.30038617414E+01  0.19332184647E+02  0.95550320792E+02  0.90869528203E+02 0.  0.
         11    1    3    3    0    0  0.81822735761E+01  0.39760423403E+02  0.13636197419E+02  0.42822736371E+02  0.51100000000E-03 0. -1.
         22    1    1    0    0    0  0.22132241168E+02  0.30038617414E+01 -0.19332184647E+02  0.29539679208E+02  0.00000000000E+00 0.  1.
</event>
<event>
 5    1  0.1044283E-009  0.9118800E+02  0.7815553E-02  0.1125453E+00
         25   -1    0    0    0    0  0.00000000000E+00  0.00000000000E+00  0.99999998245E-14  0.12509000000E+03  0.12509000000E+03 0.  0.
        -11    1    3    3    0    0  0.82118926352E+01 -0.24957910259E+02 -0.33292936793E+02  0.42411697746E+02  0.51100000000E-03 0. -1.
         23    2    1    0    0    0  0.39690114146E+02 -0.10619737646E+02 -0.17733805203E+02  0.80339895692E+02  0.66722762265E+02 0.  0.
         11    1    3    3    0    0  0.31478221511E+02  0.14338172613E+02  0.15559131590E+02  0.37928197946E+02  0.51100000000E-03 0.  1.
         22    1    1    0    0    0 -0.39690114146E+02  0.10619737646E+02  0.17733805203E+02  0.44750104308E+02  0.00000000000E+00 0. -1.
</event>
<event>
 5    1  0.1044283E-009  0.9118800E+02  0.7815553E-02  0.1125453E+00
         25   -1    0    0    0    0  0.00000000000E+00  0.00000000000E+00  0.99999998245E-14  0.12509000000E+03  0.12509000000E+03 0.  0.
        -11    1    3    3    0    0 -0.16398260542E+02 -0.20351256195E+02  0.32235975848E+02  0.41499815863E+02  0.51100000000E-03 0. -1.
         23    2    1    0    0    0 -0.20183961694E+02 -0.36559893057E+01 -0.19982809262E+02  0.96453114110E+02  0.92103919505E+02 0.  0.
         11    1    3    3    0    0 -0.37857011521E+01  0.16695266889E+02 -0.52218785110E+02  0.54953298248E+02  0.51100000000E-03 0.  1.
         22    1    1    0    0    0  0.20183961694E+02  0.36559893057E+01  0.19982809262E+02  0.28636885890E+02  0.00000000000E+00 0.  1.
</event>
<event>
 5    1  0.1044283E-009  0.9118800E+02  0.7815553E-02  0.1125453E+00
         25   -1    0    0    0    0  0.00000000000E+00  0.00000000000E+00  0.99999998245E-14  0.12509000000E+03  0.12509000000E+03 0.  0.
        -11    1    3    3    0    0  0.22927919337E+02  0.30341446519E+02  0.44939956326E+02  0.58871831438E+02  0.51100000000E-03 0. -1.
         23    2    1    0    0    0  0.99782085557E+01  0.25734734881E+02  0.11202265614E+02  0.95301881894E+02  0.90526883920E+02 0.  0.
         11    1    3    3    0    0 -0.12949710782E+02 -0.46067116375E+01 -0.33737690712E+02  0.36430050457E+02  0.51100000000E-03 0.  1.
         22    1    1    0    0    0 -0.99782085557E+01 -0.25734734881E+02 -0.11202265614E+02  0.29788118106E+02  0.00000000000E+00 0. -1.
</event>
<event>
 5    1  0.1044283E-009  0.9118800E+02  0.7815553E-02  0.1125453E+00
         25   -1    0    0    0    0  0.00000000000E+00  0.00000000000E+00  0.99999998245E-14  0.12509000000E+03  0.12509000000E+03 0.  0.
        -11    1    3    3    0    0  0.34320141153E+02  0.84421340267E+01 -0.39674122160E+02  0.53133583402E+02  0.51100000000E-03 0. -1.
         23    2    1    0    0    0  0.25608417143E+02  0.14936165831E+02  0.11925385235E+01  0.95420112464E+02  0.90690107708E+02 0.  0.
         11    1    3    3    0    0 -0.87117240108E+01  0.64940318047E+01  0.40866660684E+02  0.42286529061E+02  0.51100000000E-03 0.  1.
         22    1    1    0    0    0 -0.25608417143E+02 -0.14936165831E+02 -0.11925385235E+01  0.29669887536E+02  0.00000000000E+00 0. -1.
</event>
<event>
 5    1  0.1044283E-009  0.9118800E+02  0.7815553E-02  0.1125453E+00
         25   -1    0    0    0    0  0.00000000000E+00  0.00000000000E+00  0.99999998245E-14  0.12509000000E+03  0.12509000000E+03 0.  0.
        -11    1    3    3    0    0 -0.28078193851E+02 -0.46357189434E+02  0.19587476872E+02  0.57628493236E+02  0.51100000000E-03 0. -1.
         23    2    1    0    0    0 -0.26569796142E+02 -0.10404053490E+02  0.75395730369E+01  0.95576552935E+02  0.90905631912E+02 0.  0.
         11    1    3    3    0    0  0.15083977085E+01  0.35953135944E+02 -0.12047903835E+02  0.37948059699E+02  0.51100000000E-03 0.  1.
         22    1    1    0    0    0  0.26569796142E+02  0.10404053490E+02 -0.75395730369E+01  0.29513447065E+02  0.00000000000E+00 0. -1.
</event>
<event>
 5    1  0.1044283E-009  0.9118800E+02  0.7815553E-02  0.1125453E+00
         25   -1    0    0    0    0  0.00000000000E+00  0.00000000000E+00  0.99999998245E-14  0.12509000000E+03  0.12509000000E+03 0.  0.
        -11    1    3    3    0    0 -0.74663117521E+01 -0.33152301974E+02 -0.11336604202E+02  0.35823728623E+02  0.51100000000E-03 0.  1.
         23    2    1    0    0    0 -0.10918782580E+02  0.26559769598E+02 -0.44503147088E+01  0.96030638769E+02  0.91528340460E+02 0.  0.
         11    1    3    3    0    0 -0.34524708284E+01  0.59712071571E+02  0.68862894931E+01  0.60206910147E+02  0.51100000000E-03 0. -1.
         22    1    1    0    0    0  0.10918782580E+02 -0.26559769598E+02  0.44503147088E+01  0.29059361231E+02  0.00000000000E+00 0. -1.
</event>
<event>
 5    1  0.1044283E-009  0.9118800E+02  0.7815553E-02  0.1125453E+00
         25   -1    0    0    0    0  0.00000000000E+00  0.00000000000E+00  0.99999998245E-14  0.12509000000E+03  0.12509000000E+03 0.  0.
        -11    1    3    3    0    0 -0.20619634167E+01  0.37453719417E+02 -0.41127104212E+02  0.55663915533E+02  0.51100000000E-03 0.  1.
         23    2    1    0    0    0 -0.19071532033E+02  0.20578661827E+02 -0.92384817024E+01  0.95550971566E+02  0.90870424046E+02 0.  0.
         11    1    3    3    0    0 -0.17009568616E+02 -0.16875057590E+02  0.31888622510E+02  0.39887056033E+02  0.51100000000E-03 0. -1.
         22    1    1    0    0    0  0.19071532033E+02 -0.20578661827E+02  0.92384817024E+01  0.29539028434E+02  0.00000000000E+00 0.  1.
</event>
<event>
 5    1  0.1044283E-009  0.9118800E+02  0.7815553E-02  0.1125453E+00
         25   -1    0    0    0    0  0.00000000000E+00  0.00000000000E+00  0.99999998245E-14  0.12509000000E+03  0.12509000000E+03 0.  0.
        -11    1    3    3    0    0  0.15829640670E+02 -0.26557218877E+02  0.21658680150E+02  0.37748666524E+02  0.51100000000E-03 0. -1.
         23    2    1    0    0    0  0.17746533627E+02  0.10349808387E+02 -0.22026870323E+02  0.94969558342E+02  0.90066508792E+02 0.  0.
         11    1    3    3    0    0  0.19168929576E+01  0.36907027264E+02 -0.43685550473E+02  0.57220891818E+02  0.51100000000E-03 0.  1.
         22    1    1    0    0    0 -0.17746533627E+02 -0.10349808387E+02  0.22026870323E+02  0.30120441658E+02  0.00000000000E+00 0.  1.
</event>
<event>
 5    1  0.1044283E-009  0.9118800E+02  0.7815553E-02  0.1125453E+00
         25   -1    0    0    0    0  0.00000000000E+00  0.00000000000E+00  0.99999998245E-14  0.12509000000E+03  0.12509000000E+03 0.  0.
        -11    1    3    3    0    0 -0.30612244726E+02 -0.68921743238E+01 -0.18469922226E+02  0.36410844832E+02  0.51100000000E-03 0.  1.
         23    2    1    0    0    0  0.13261468430E+02 -0.26746748140E+02  0.11461236127E+02  0.93111647720E+02  0.87448064167E+02 0.  0.
         11    1    3    3    0    0  0.43873713157E+02 -0.19854573816E+02  0.29931158353E+02  0.56700802888E+02  0.51100000000E-03 0. -1.
         22    1    1    0    0    0 -0.13261468430E+02  0.26746748140E+02 -0.11461236127E+02  0.31978352280E+02  0.00000000000E+00 0. -1.
</event>
<event>
 5    1  0.1044283E-009  0.9118800E+02  0.7815553E-02  0.1125453E+00
         25   -1    0    0    0    0  0.00000000000E+00  0.00000000000E+00  0.99999998245E-14  0.12509000000E+03  0.12509000000E+03 0.  0.
        -11    1    3    3    0    0 -0.53088066604E+02 -0.16668357126E+02  0.63873118306E+01  0.56008701983E+02  0.51100000000E-03 0.  1.
         23    2    1    0    0    0 -0.25092064662E+02  0.11624284201E+02  0.92909605375E+01  0.95917107790E+02  0.91373048142E+02 0.  0.
         11    1    3    3    0    0  0.27996001942E+02  0.28292641327E+02  0.29036487068E+01  0.39908405807E+02  0.51100000000E-03 0. -1.
         22    1    1    0    0    0  0.25092064662E+02 -0.11624284201E+02 -0.92909605375E+01  0.29172892210E+02  0.00000000000E+00 0.  1.
</event>
<event>
 5    1  0.1044283E-009  0.9118800E+02  0.7815553E-02  0.1125453E+00
         25   -1    0    0    0    0  0.00000000000E+00  0.00000000000E+00  0.99999998245E-14  0.12509000000E+03  0.12509000000E+03 0.  0.
        -11    1    3    3    0    0 -0.48058601512E+01  0.28308214683E+02 -0.23419458932E+02  0.37052967051E+02  0.51100000000E-03 0. -1.
         23    2    1    0    0    0 -0.79817732395E+01 -0.59981961435E+01  0.25967046095E+02  0.97269602018E+02  0.93206227972E+02 0.  0.
         11    1    3    3    0    0 -0.31759130883E+01 -0.34306410826E+02  0.49386505027E+02  0.60216634967E+02  0.51100000000E-03 0.  1.
         22    1    1    0    0    0  0.79817732395E+01  0.59981961435E+01 -0.25967046095E+02  0.27820397982E+02  0.00000000000E+00 0.  1.
</event>
<event>
 5    1  0.1044283E-009  0.9118800E+02  0.7815553E-02  0.1125453E+00
         25   -1    0    0    0    0  0.00000000000E+00  0.00000000000E+00  0.99999998245E-14  0.12509000000E+03  0.12509000000E+03 0.  0.
        -11    1    3    3    0    0 -0.25004683896E+02 -0.23503799670E+02  0.10406793531E+02  0.35860342546E+02  0.51100000000E-03 0. -1.
         23    2    1    0    0    0  0.64597644226E+01  0.23259926227E+02 -0.13891213367E+02  0.97238275937E+02  0.93164176451E+02 0.  0.
         11    1    3    3    0    0  0.31464448318E+02  0.46763725897E+02 -0.24298006899E+02  0.61377933390E+02  0.51100000000E-03 0.  1.
         22    1    1    0    0    0 -0.64597644226E+01 -0.23259926227E+02  0.13891213367E+02  0.27851724063E+02  0.00000000000E+00 0.  1.
</event>
<event>
 5    1  0.1044283E-009  0.9118800E+02  0.7815553E-02  0.1125453E+00
         25   -1    0    0    0    0  0.00000000000E+00  0.00000000000E+00  0.99999998245E-14  0.12509000000E+03  0.12509000000E+03 0.  0.
        -11    1    3    3    0    0 -0.38627886635E+02  0.45699998683E+00 -0.43687758322E+02  0.58317601995E+02  0.51100000000E-03 0.  1.
         23    2    1    0    0    0 -0.14122649719E+02  0.16099841767E+02 -0.17936503523E+02  0.97154855493E+02  0.93052101788E+02 0.  0.
         11    1    3    3    0    0  0.24505236916E+02  0.15642841780E+02  0.25751254800E+02  0.38837253498E+02  0.51100000000E-03 0. -1.
         22    1    1    0    0    0  0.14122649719E+02 -0.16099841767E+02  0.17936503523E+02  0.27935144507E+02  0.00000000000E+00 0. -1.
</event>
<event>
 5    1  0.1044283E-009  0.9118800E+02  0.7815553E-02  0.1125453E+00
         25   -1    0    0    0    0  0.00000000000E+00  0.00000000000E+00  0.99999998245E-14  0.12509000000E+03  0.12509000000E+03 0.  0.
        -11    1    3    3    0    0 -0.24001629572E+02 -0.10154385486E+02 -0.52922849736E+02  0.58991675609E+02  0.51100000000E-03 0.  1.
         23    2    1    0    0    0 -0.22852523291E+02 -0.88060539493E+01 -0.16269211016E+02  0.95688101524E+02  0.91058998123E+02 0.  0.
         11    1    3    3    0    0  0.11491062810E+01  0.13483315364E+01  0.36653638721E+02  0.36696425915E+02  0.51100000000E-03 0. -1.
         22    1    1    0    0    0  0.22852523291E+02  0.88060539493E+01  0.16269211016E+02  0.29401898476E+02  0.00000000000E+00 0.  1.
</event>
<event>
 5    1  0.1044283E-009  0.9118800E+02  0.7815553E-02  0.1125453E+00
         25   -1    0    0    0    0  0.00000000000E+00  0.00000000000E+00  0.99999998245E-14  0.12509000000E+03  0.12509000000E+03 0.  0.
        -11    1    3    3    0    0  0.23907215666E+02 -0.39565654569E+02 -0.83464048412E+01  0.46975083357E+02  0.51100000000E-03 0.  1.
         23    2    1    0    0    0 -0.86755592122E+01 -0.11835283799E+02  0.21440711779E+02  0.99108402823E+02  0.95642208874E+02 0.  0.
         11    1    3    3    0    0 -0.32582774878E+02  0.27730370770E+02  0.29787116621E+02  0.52133319467E+02  0.51100000000E-03 0. -1.
         22    1    1    0    0    0  0.86755592122E+01  0.11835283799E+02 -0.21440711779E+02  0.25981597177E+02  0.00000000000E+00 0. -1.
</event>
<event>
 5    1  0.1044283E-009  0.9118800E+02  0.7815553E-02  0.1125453E+00
         25   -1    0    0    0    0  0.00000000000E+00  0.00000000000E+00  0.99999998245E-14  0.12509000000E+03  0.12509000000E+03 0.  0.
        -11    1    3    3    0    0 -0.48063066104E+02 -0.70559844137E+01 -0.70265660044E+01  0.49083784181E+02  0.51100000000E-03 0. -1.
         23    2    1    0    0    0 -0.13479089138E+02  0.24997170510E+02 -0.47800853375E+01  0.96290805682E+02  0.91883217540E+02 0.  0.
         11    1    3    3    0    0  0.34583976966E+02  0.32053154924E+02  0.22464806669E+01  0.47207021502E+02  0.51100000000E-03 0.  1.
         22    1    1    0    0    0  0.13479089138E+02 -0.24997170510E+02  0.47800853375E+01  0.28799194318E+02  0.00000000000E+00 0. -1.
</event>
<event>
 5    1  0.1044283E-009  0.9118800E+02  0.7815553E-02  0.1125453E+00
         25   -1    0    0    0    0  0.00000000000E+00  0.00000000000E+00  0.99999998245E-14  0.12509000000E+03  0.12509000000E+03 0.  0.
        -11    1    3    3    0    0 -0.29210476588E+02  0.30980397838E+02  0.23470514765E+02  0.48619975897E+02  0.51100000000E-03 0. -1.
         23    2    1    0    0    0 -0.56736937489E+01  0.23943227827E+02 -0.16448408014E+02  0.95492380404E+02  0.90789733062E+02 0.  0.
         11    1    3    3    0    0  0.23536782839E+02 -0.70371700109E+01 -0.39918922779E+02  0.46872404507E+02  0.51100000000E-03 0.  1.
         22    1    1    0    0    0  0.56736937489E+01 -0.23943227827E+02  0.16448408014E+02  0.29597619596E+02  0.00000000000E+00 0.  1.
</event>
<event>
 5    1  0.1044283E-009  0.9118800E+02  0.7815553E-02  0.1125453E+00
         25   -1    0    0    0    0  0.00000000000E+00  0.00000000000E+00  0.99999998245E-14  0.12509000000E+03  0.12509000000E+03 0.  0.
        -11    1    3    3    0    0  0.17432460638E+02 -0.39131092881E+02 -0.10876412309E+02  0.44197618249E+02  0.51100000000E-03 0.  1.
         23    2    1    0    0    0 -0.21652497599E+02 -0.17074982374E+02  0.12516439731E+02  0.94807217121E+02  0.89840756226E+02 0.  0.
         11    1    3    3    0    0 -0.39084958237E+02  0.22056110507E+02  0.23392852040E+02  0.50609598872E+02  0.51100000000E-03 0. -1.
         22    1    1    0    0    0  0.21652497599E+02  0.17074982374E+02 -0.12516439731E+02  0.30282782879E+02  0.00000000000E+00 0.  1.
</event>
<event>
 5    1  0.1044283E-009  0.9118800E+02  0.7815553E-02  0.1125453E+00
         25   -1    0    0    0    0  0.00000000000E+00  0.00000000000E+00  0.99999998245E-14  0.12509000000E+03  0.12509000000E+03 0.  0.
        -11    1    3    3    0    0  0.39726694786E+02  0.35476300120E+02  0.78090128187E+01  0.53830835311E+02  0.51100000000E-03 0.  1.
         23    2    1    0    0    0  0.11766638169E+02  0.20845135258E+02 -0.18437021344E+02  0.94875811384E+02  0.89936212907E+02 0.  0.
         11    1    3    3    0    0 -0.27960056617E+02 -0.14631164863E+02 -0.26246034162E+02  0.41044976072E+02  0.51100000000E-03 0. -1.
         22    1    1    0    0    0 -0.11766638169E+02 -0.20845135258E+02  0.18437021344E+02  0.30214188616E+02  0.00000000000E+00 0.  1.
</event>
<event>
 5    1  0.1044283E-009  0.9118800E+02  0.7815553E-02  0.1125453E+00
         25   -1    0    0    0    0  0.00000000000E+00  0.00000000000E+00  0.99999998245E-14  0.12509000000E+03  0.12509000000E+03 0.  0.
        -11    1    3    3    0    0 -0.23623749485E+02 -0.78706538561E+01 -0.33069576966E+02  0.41395961794E+02  0.51100000000E-03 0.  1.
         23    2    1    0    0    0  0.21421635862E+02 -0.20795519420E+02 -0.10209893896E+02  0.93537154735E+02  0.88054626633E+02 0.  0.
         11    1    3    3    0    0  0.45045385348E+02 -0.12924865564E+02  0.22859683070E+02  0.52141192941E+02  0.51100000000E-03 0. -1.
         22    1    1    0    0    0 -0.21421635862E+02  0.20795519420E+02  0.10209893896E+02  0.31552845265E+02  0.00000000000E+00 0. -1.
</event>
<event>
 5    1  0.1044283E-009  0.9118800E+02  0.7815553E-02  0.1125453E+00
         25   -1    0    0    0    0  0.00000000000E+00  0.00000000000E+00  0.99999998245E-14  0.12509000000E+03  0.12509000000E+03 0.  0.
        -11    1    3    3    0    0 -0.23305094247E+02  0.17646614941E+02 -0.54298835349E+02  0.61667608655E+02  0.51100000000E-03 0.  1.
         23    2    1    0    0    0 -0.51002870349E+01  0.41190554317E+01 -0.27706398290E+02  0.96618539699E+02  0.92328317227E+02 0.  0.
         11    1    3    3    0    0  0.18204807212E+02 -0.13527559509E+02  0.26592437059E+02  0.34950931044E+02  0.51100000000E-03 0. -1.
         22    1    1    0    0    0  0.51002870349E+01 -0.41190554317E+01  0.27706398290E+02  0.28471460301E+02  0.00000000000E+00 0.  1.
</event>
<event>
 5    1  0.1044283E-009  0.9118800E+02  0.7815553E-02  0.1125453E+00
         25   -1    0    0    0    0  0.00000000000E+00  0.00000000000E+00  0.99999998245E-14  0.12509000000E+03  0.12509000000E+03 0.  0.
        -11    1    3    3    0    0  0.11690729571E+02 -0.18476258975E+01  0.39975280835E+02  0.41690645922E+02  0.51100000000E-03 0. -1.
         23    2    1    0    0    0 -0.29624454724E+02 -0.33669242963E+01  0.72818033719E+01  0.94398483953E+02  0.89269841577E+02 0.  0.
         11    1    3    3    0    0 -0.41315184295E+02 -0.15192983988E+01 -0.32693477463E+02  0.52707838030E+02  0.51100000000E-03 0.  1.
         22    1    1    0    0    0  0.29624454724E+02  0.33669242963E+01 -0.72818033719E+01  0.30691516047E+02  0.00000000000E+00 0. -1.
</event>
<event>
 5    1  0.1044283E-009  0.9118800E+02  0.7815553E-02  0.1125453E+00
         25   -1    0    0    0    0  0.00000000000E+00  0.00000000000E+00  0.99999998245E-14  0.12509000000E+03  0.12509000000E+03 0.  0.
        -11    1    3    3    0    0  0.15110990398E+02  0.24357132982E+02 -0.28563458617E+02  0.40465826648E+02  0.51100000000E-03 0. -1.
         23    2    1    0    0    0  0.35376098935E+01  0.16291086389E+02  0.24546689951E+02  0.95417552055E+02  0.90686576036E+02 0.  0.
         11    1    3    3    0    0 -0.11573380505E+02 -0.80660465931E+01  0.53110148568E+02  0.54951725406E+02  0.51100000000E-03 0.  1.
         22    1    1    0    0    0 -0.35376098935E+01 -0.16291086389E+02 -0.24546689951E+02  0.29672447945E+02  0.00000000000E+00 0.  1.
</event>
<event>
 5    1  0.1044283E-009  0.9118800E+02  0.7815553E-02  0.1125453E+00
         25   -1    0    0    0    0  0.00000000000E+00  0.00000000000E+00  0.99999998245E-14  0.12509000000E+03  0.12509000000E+03 0.  0.
        -11    1    3    3    0    0  0.48509527420E+01  0.41629109873E+02  0.28392059740E+02  0.50622362527E+02  0.51100000000E-03 0.  1.
         23    2    1    0    0    0  0.18465998284E+02  0.19613811204E+02 -0.95115142470E+01  0.96521423105E+02  0.92196645993E+02 0.  0.
         11    1    3    3    0    0  0.13615045542E+02 -0.22015298669E+02 -0.37903573987E+02  0.45899060577E+02  0.51100000000E-03 0. -1.
         22    1    1    0    0    0 -0.18465998284E+02 -0.19613811204E+02  0.95115142470E+01  0.28568576895E+02  0.00000000000E+00 0.  1.
</event>
<event>
 5    1  0.1044283E-009  0.9118800E+02  0.7815553E-02  0.1125453E+00
         25   -1    0    0    0    0  0.00000000000E+00  0.00000000000E+00  0.99999998245E-14  0.12509000000E+03  0.12509000000E+03 0.  0.
        -11    1    3    3    0    0  0.47018034677E+02 -0.20951938819E+02 -0.16458309884E+02  0.54042162148E+02  0.51100000000E-03 0.  1.
         23    2    1    0    0    0  0.25776447503E+02 -0.12978759670E+01  0.13725801851E+02  0.95858042071E+02  0.91292151171E+02 0.  0.
         11    1    3    3    0    0 -0.21241587174E+02  0.19654062852E+02  0.30184111735E+02  0.41815879923E+02  0.51100000000E-03 0. -1.
         22    1    1    0    0    0 -0.25776447503E+02  0.12978759670E+01 -0.13725801851E+02  0.29231957929E+02  0.00000000000E+00 0.  1.
</event>
<event>
 5    1  0.1044283E-009  0.9118800E+02  0.7815553E-02  0.1125453E+00
         25   -1    0    0    0    0  0.00000000000E+00  0.00000000000E+00  0.99999998245E-14  0.12509000000E+03  0.12509000000E+03 0.  0.
        -11    1    3    3    0    0  0.26497210393E+02 -0.24807649661E+02 -0.92092567984E+01  0.37447724248E+02  0.51100000000E-03 0. -1.
         23    2    1    0    0    0 -0.26419920545E+02  0.36847116534E+01 -0.66276141989E+01  0.97603374679E+02  0.93653105539E+02 0.  0.
         11    1    3    3    0    0 -0.52917130938E+02  0.28492361314E+02  0.25816425994E+01  0.60155650431E+02  0.51100000000E-03 0.  1.
         22    1    1    0    0    0  0.26419920545E+02 -0.36847116534E+01  0.66276141989E+01  0.27486625321E+02  0.00000000000E+00 0.  1.
</event>
<event>
 5    1  0.1044283E-009  0.9118800E+02  0.7815553E-02  0.1125453E+00
         25   -1    0    0    0    0  0.00000000000E+00  0.00000000000E+00  0.99999998245E-14  0.12509000000E+03  0.12509000000E+03 0.  0.
        -11    1    3    3    0    0  0.11882020134E+02 -0.12390157435E+02  0.85916058117E+01  0.19196720929E+02  0.51100000000E-03 0. -1.
         23    2    1    0    0    0 -0.24835368538E+02  0.33300296743E+02  0.20115592332E+02  0.78934368183E+02  0.64033523502E+02 0.  0.
         11    1    3    3    0    0 -0.36717388672E+02  0.45690454178E+02  0.11523986520E+02  0.59737647254E+02  0.51100000000E-03 0.  1.
         22    1    1    0    0    0  0.24835368538E+02 -0.33300296743E+02 -0.20115592332E+02  0.46155631817E+02  0.00000000000E+00 0.  1.
</event>
<event>
 5    1  0.1044283E-009  0.9118800E+02  0.7815553E-02  0.1125453E+00
         25   -1    0    0    0    0  0.00000000000E+00  0.00000000000E+00  0.99999998245E-14  0.12509000000E+03  0.12509000000E+03 0.  0.
        -11    1    3    3    0    0 -0.21847473466E+02 -0.22486721157E+02  0.16834024416E+02  0.35585799184E+02  0.51100000000E-03 0. -1.
         23    2    1    0    0    0 -0.62525708557E+00  0.29616784163E+02 -0.31731692113E+01  0.95297150968E+02  0.90520346493E+02 0.  0.
         11    1    3    3    0    0  0.21222216381E+02  0.52103505320E+02 -0.20007193627E+02  0.59711351784E+02  0.51100000000E-03 0.  1.
         22    1    1    0    0    0  0.62525708557E+00 -0.29616784163E+02  0.31731692113E+01  0.29792849032E+02  0.00000000000E+00 0.  1.
</event>
<event>
 5    1  0.1044283E-009  0.9118800E+02  0.7815553E-02  0.1125453E+00
         25   -1    0    0    0    0  0.00000000000E+00  0.00000000000E+00  0.99999998245E-14  0.12509000000E+03  0.12509000000E+03 0.  0.
        -11    1    3    3    0    0  0.31389854086E+02 -0.37918105745E+02  0.29731790389E+02  0.57507260784E+02  0.51100000000E-03 0.  1.
         23    2    1    0    0    0  0.19214792961E+02 -0.22496874604E+02 -0.26521822164E+01  0.95385594502E+02  0.90642484148E+02 0.  0.
         11    1    3    3    0    0 -0.12175061125E+02  0.15421231141E+02 -0.32383972605E+02  0.37878333718E+02  0.51100000000E-03 0. -1.
         22    1    1    0    0    0 -0.19214792961E+02  0.22496874604E+02  0.26521822164E+01  0.29704405498E+02  0.00000000000E+00 0.  1.
</event>
<event>
 5    1  0.1044283E-009  0.9118800E+02  0.7815553E-02  0.1125453E+00
         25   -1    0    0    0    0  0.00000000000E+00  0.00000000000E+00  0.99999998245E-14  0.12509000000E+03  0.12509000000E+03 0.  0.
        -11    1    3    3    0    0  0.26196595616E+02  0.14702085251E+02 -0.17114627680E+02  0.34573449546E+02  0.51100000000E-03 0. -1.
         23    2    1    0    0    0 -0.20830721794E+02  0.14418058289E+02  0.18629679333E+02  0.93643786757E+02  0.88205977523E+02 0.  0.
         11    1    3    3    0    0 -0.47027317410E+02 -0.28402696286E+00  0.35744307014E+02  0.59070337211E+02  0.51100000000E-03 0.  1.
         22    1    1    0    0    0  0.20830721794E+02 -0.14418058289E+02 -0.18629679333E+02  0.31446213243E+02  0.00000000000E+00 0. -1.
</event>
<event>
 5    1  0.1044283E-009  0.9118800E+02  0.7815553E-02  0.1125453E+00
         25   -1    0    0    0    0  0.00000000000E+00  0.00000000000E+00  0.99999998245E-14  0.12509000000E+03  0.12509000000E+03 0.  0.
        -11    1    3    3    0    0 -0.23416896579E+00 -0.36564232026E+02  0.40818402847E+02  0.54800911581E+02  0.51100000000E-03 0. -1.
         23    2    1    0    0    0  0.19571195577E+02 -0.77315542398E+01  0.22486291156E+02  0.94293215798E+02  0.89122211756E+02 0.  0.
         11    1    3    3    0    0  0.19805364543E+02  0.28832677787E+02 -0.18332111692E+02  0.39492304217E+02  0.51100000000E-03 0.  1.
         22    1    1    0    0    0 -0.19571195577E+02  0.77315542398E+01 -0.22486291156E+02  0.30796784202E+02  0.00000000000E+00 0. -1.
</event>
<event>
 5    1  0.1044283E-009  0.9118800E+02  0.7815553E-02  0.1125453E+00
         25   -1    0    0    0    0  0.00000000000E+00  0.00000000000E+00  0.99999998245E-14  0.12509000000E+03  0.12509000000E+03 0.  0.
        -11    1    3    3    0    0 -0.37773862077E+02  0.43701808799E+01 -0.24495935758E+02  0.45232886333E+02  0.51100000000E-03 0.  1.
         23    2    1    0    0    0 -0.15892592213E+02  0.12223844458E+02  0.20833205062E+02  0.96176001768E+02  0.91726790102E+02 0.  0.
         11    1    3    3    0    0  0.21881269864E+02  0.78536635783E+01  0.45329140820E+02  0.50943115435E+02  0.51100000000E-03 0. -1.
         22    1    1    0    0    0  0.15892592213E+02 -0.12223844458E+02 -0.20833205062E+02  0.28913998232E+02  0.00000000000E+00 0. -1.
</event>
<event>
 5    1  0.1044283E-009  0.9118800E+02  0.7815553E-02  0.1125453E+00
         25   -1    0    0    0    0  0.00000000000E+00  0.00000000000E+00  0.99999998245E-14  0.12509000000E+03  0.12509000000E+03 0.  0.
        -11    1    3    3    0    0 -0.26468061382E+02 -0.29019618051E+02  0.41576726472E+01  0.39496616909E+02  0.51100000000E-03 0.  1.
         23    2    1    0    0    0  0.13495579870E+02 -0.36242919491E+01 -0.25956221010E+02  0.95611336915E+02  0.90953483548E+02 0.  0.
         11    1    3    3    0    0  0.39963641252E+02  0.25395326102E+02 -0.30113893657E+02  0.56114720006E+02  0.51100000000E-03 0. -1.
         22    1    1    0    0    0 -0.13495579870E+02  0.36242919491E+01  0.25956221010E+02  0.29478663085E+02  0.00000000000E+00 0. -1.
</event>
<event>
 5    1  0.1044283E-009  0.9118800E+02  0.7815553E-02  0.1125453E+00
         25   -1    0    0    0    0  0.00000000000E+00  0.00000000000E+00  0.99999998245E-14  0.12509000000E+03  0.12509000000E+03 0.  0.
        -11    1    3    3    0    0  0.24896028936E+02 -0.14926704410E+02 -0.53749442289E+02  0.61086997864E+02  0.51100000000E-03 0.  1.
         23    2    1    0    0    0  0.12743515990E+02  0.25560155236E+01 -0.25576386488E+02  0.96400594971E+02  0.92032563529E+02 0.  0.
         11    1    3    3    0    0 -0.12152512947E+02  0.17482719934E+02  0.28173055801E+02  0.35313597107E+02  0.51100000000E-03 0. -1.
         22    1    1    0    0    0 -0.12743515990E+02 -0.25560155236E+01  0.25576386488E+02  0.28689405029E+02  0.00000000000E+00 0.  1.
</event>
<event>
 5    1  0.1044283E-009  0.9118800E+02  0.7815553E-02  0.1125453E+00
         25   -1    0    0    0    0  0.00000000000E+00  0.00000000000E+00  0.99999998245E-14  0.12509000000E+03  0.12509000000E+03 0.  0.
        -11    1    3    3    0    0 -0.22681165111E+02 -0.33614898160E+02 -0.14047430389E+02  0.42915346088E+02  0.51100000000E-03 0.  1.
         23    2    1    0    0    0  0.14866308256E+02 -0.38815161891E+02  0.51465913270E+00  0.83522118314E+02  0.72443463887E+02 0.  0.
         11    1    3    3    0    0  0.37547473367E+02 -0.52002637314E+01  0.14562089521E+02  0.40606772226E+02  0.51100000000E-03 0. -1.
         22    1    1    0    0    0 -0.14866308256E+02  0.38815161891E+02 -0.51465913270E+00  0.41567881686E+02  0.00000000000E+00 0.  1.
</event>
<event>
 5    1  0.1044283E-009  0.9118800E+02  0.7815553E-02  0.1125453E+00
         25   -1    0    0    0    0  0.00000000000E+00  0.00000000000E+00  0.99999998245E-14  0.12509000000E+03  0.12509000000E+03 0.  0.
        -11    1    3    3    0    0  0.18974804712E+02  0.23744875185E+02 -0.20033236690E+02  0.36403198815E+02  0.51100000000E-03 0. -1.
         23    2    1    0    0    0 -0.10022215378E+02  0.32903372177E+01  0.27451059106E+02  0.95681977861E+02  0.91050585507E+02 0.  0.
         11    1    3    3    0    0 -0.28997020090E+02 -0.20454537968E+02  0.47484295797E+02  0.59278779046E+02  0.51100000000E-03 0.  1.
         22    1    1    0    0    0  0.10022215378E+02 -0.32903372177E+01 -0.27451059106E+02  0.29408022139E+02  0.00000000000E+00 0.  1.
</event>
<event>
 5    1  0.1044283E-009  0.9118800E+02  0.7815553E-02  0.1125453E+00
         25   -1    0    0    0    0  0.00000000000E+00  0.00000000000E+00  0.99999998245E-14  0.12509000000E+03  0.12509000000E+03 0.  0.
        -11    1    3    3    0    0 -0.33349492137E+02  0.29921467894E+02  0.40862679371E+02  0.60640262470E+02  0.51100000000E-03 0.  1.
         23    2    1    0    0    0 -0.22561427184E+02  0.16804950475E+02  0.11220968348E+02  0.94802469765E+02  0.89834145990E+02 0.  0.
         11    1    3    3    0    0  0.10788064953E+02 -0.13116517419E+02 -0.29641711023E+02  0.34162207295E+02  0.51100000000E-03 0. -1.
         22    1    1    0    0    0  0.22561427184E+02 -0.16804950475E+02 -0.11220968348E+02  0.30287530235E+02  0.00000000000E+00 0.  1.
</event>
<event>
 5    1  0.1044283E-009  0.9118800E+02  0.7815553E-02  0.1125453E+00
         25   -1    0    0    0    0  0.00000000000E+00  0.00000000000E+00  0.99999998245E-14  0.12509000000E+03  0.12509000000E+03 0.  0.
        -11    1    3    3    0    0  0.16564825320E+02 -0.28483042282E+02  0.73641276430E+01  0.33762516372E+02  0.51100000000E-03 0.  1.
         23    2    1    0    0    0 -0.18469089867E+02  0.19749409907E+02 -0.10635337115E+02  0.96033901368E+02  0.91532799281E+02 0.  0.
         11    1    3    3    0    0 -0.35033915187E+02  0.48232452189E+02 -0.17999464758E+02  0.62271384996E+02  0.51100000000E-03 0. -1.
         22    1    1    0    0    0  0.18469089867E+02 -0.19749409907E+02  0.10635337115E+02  0.29056098632E+02  0.00000000000E+00 0. -1.
</event>
<event>
 5    1  0.1044283E-009  0.9118800E+02  0.7815553E-02  0.1125453E+00
         25   -1    0    0    0    0  0.00000000000E+00  0.00000000000E+00  0.99999998245E-14  0.12509000000E+03  0.12509000000E+03 0.  0.
        -11    1    3    3    0    0 -0.15211766345E+02  0.11159726460E+02 -0.27881696445E+02  0.33664912400E+02  0.51100000000E-03 0. -1.
         23    2    1    0    0    0  0.19929553602E+02  0.20702208022E+01  0.21985599913E+02  0.95343747724E+02  0.90584715629E+02 0.  0.
         11    1    3    3    0    0  0.35141319947E+02 -0.90895056575E+01  0.49867296357E+02  0.61678835324E+02  0.51100000000E-03 0.  1.
         22    1    1    0    0    0 -0.19929553602E+02 -0.20702208022E+01 -0.21985599913E+02  0.29746252276E+02  0.00000000000E+00 0.  1.
</event>
<event>
 5    1  0.1044283E-009  0.9118800E+02  0.7815553E-02  0.1125453E+00
         25   -1    0    0    0    0  0.00000000000E+00  0.00000000000E+00  0.99999998245E-14  0.12509000000E+03  0.12509000000E+03 0.  0.
        -11    1    3    3    0    0  0.32729684254E+02  0.42265700006E+02 -0.65857121907E+01  0.53860869225E+02  0.51100000000E-03 0.  1.
         23    2    1    0    0    0  0.28433843182E+02  0.63098876013E+01  0.10795916202E+02  0.94027966482E+02  0.88749132697E+02 0.  0.
         11    1    3    3    0    0 -0.42958410722E+01 -0.35955812404E+02  0.17381628393E+02  0.40167097257E+02  0.51100000000E-03 0. -1.
         22    1    1    0    0    0 -0.28433843182E+02 -0.63098876013E+01 -0.10795916202E+02  0.31062033518E+02  0.00000000000E+00 0.  1.
</event>
<event>
 5    1  0.1044283E-009  0.9118800E+02  0.7815553E-02  0.1125453E+00
         25   -1    0    0    0    0  0.00000000000E+00  0.00000000000E+00  0.99999998245E-14  0.12509000000E+03  0.12509000000E+03 0.  0.
        -11    1    3    3    0    0  0.34696611529E+02  0.25526920352E+02  0.60188011727E+01  0.43493729227E+02  0.51100000000E-03 0. -1.
         23    2    1    0    0    0  0.15619190073E+02 -0.23757756222E+02  0.24106326544E+00  0.96656776638E+02  0.92380107595E+02 0.  0.
         11    1    3    3    0    0 -0.19077421456E+02 -0.49284676574E+02 -0.57777379073E+01  0.53163047411E+02  0.51100000000E-03 0.  1.
         22    1    1    0    0    0 -0.15619190073E+02  0.23757756222E+02 -0.24106326544E+00  0.28433223362E+02  0.00000000000E+00 0.  1.
</event>
<event>
 5    1  0.1044283E-009  0.9118800E+02  0.7815553E-02  0.1125453E+00
         25   -1    0    0    0    0  0.00000000000E+00  0.00000000000E+00  0.99999998245E-14  0.12509000000E+03  0.12509000000E+03 0.  0.
        -11    1    3    3    0    0 -0.36347652468E+02  0.57002172025E+01 -0.35777003509E+02  0.51318985730E+02  0.51100000000E-03 0.  1.
         23    2    1    0    0    0  0.31105267870E+01  0.19765120854E+02 -0.21849060762E+02  0.95463713776E+02  0.90750227617E+02 0.  0.
         11    1    3    3    0    0  0.39458179254E+02  0.14064903651E+02  0.13927942747E+02  0.44144728046E+02  0.51100000000E-03 0. -1.
         22    1    1    0    0    0 -0.31105267870E+01 -0.19765120854E+02  0.21849060762E+02  0.29626286224E+02  0.00000000000E+00 0.  1.
</event>
<event>
 5    1  0.1044283E-009  0.9118800E+02  0.7815553E-02  0.1125453E+00
         25   -1    0    0    0    0  0.00000000000E+00  0.00000000000E+00  0.99999998245E-14  0.12509000000E+03  0.12509000000E+03 0.  0.
        -11    1    3    3    0    0 -0.34317958179E+02 -0.19178827057E+02 -0.27242791337E+02  0.47830109147E+02  0.51100000000E-03 0.  1.
         23    2    1    0    0    0  0.12984842723E+02 -0.11508613218E+02 -0.23475134718E+02  0.95898626809E+02  0.91347744115E+02 0.  0.
         11    1    3    3    0    0  0.47302800902E+02  0.76702138390E+01  0.37676566189E+01  0.48068517662E+02  0.51100000000E-03 0. -1.
         22    1    1    0    0    0 -0.12984842723E+02  0.11508613218E+02  0.23475134718E+02  0.29191373191E+02  0.00000000000E+00 0.  1.
</event>
<event>
 5    1  0.1044283E-009  0.9118800E+02  0.7815553E-02  0.1125453E+00
         25   -1    0    0    0    0  0.00000000000E+00  0.00000000000E+00  0.99999998245E-14  0.12509000000E+03  0.12509000000E+03 0.  0.
        -11    1    3    3    0    0  0.16419918688E+02 -0.34328677448E+02 -0.24051077108E+02  0.45016953865E+02  0.51100000000E-03 0. -1.
         23    2    1    0    0    0  0.83140672435E+01 -0.15969517804E+02  0.22831135359E+02  0.96014065710E+02  0.91505687580E+02 0.  0.
         11    1    3    3    0    0 -0.81058514445E+01  0.18359159644E+02  0.46882212467E+02  0.50997111845E+02  0.51100000000E-03 0.  1.
         22    1    1    0    0    0 -0.83140672435E+01  0.15969517804E+02 -0.22831135359E+02  0.29075934290E+02  0.00000000000E+00 0.  1.
</event>
<event>
 5    1  0.1044283E-009  0.9118800E+02  0.7815553E-02  0.1125453E+00
         25   -1    0    0    0    0  0.00000000000E+00  0.00000000000E+00  0.99999998245E-14  0.12509000000E+03  0.12509000000E+03 0.  0.
        -11    1    3    3    0    0 -0.16670464413E+02 -0.40686574241E+01 -0.35054162807E+02  0.39028869921E+02  0.51100000000E-03 0. -1.
         23    2    1    0    0    0 -0.80528502463E+01 -0.20094696534E+02  0.19138564601E+02  0.96194846758E+02  0.91752485862E+02 0.  0.
         11    1    3    3    0    0  0.86176141669E+01 -0.16026039110E+02  0.54192727408E+02  0.57165976837E+02  0.51100000000E-03 0.  1.
         22    1    1    0    0    0  0.80528502463E+01  0.20094696534E+02 -0.19138564601E+02  0.28895153242E+02  0.00000000000E+00 0.  1.
</event>
<event>
 5    1  0.1044283E-009  0.9118800E+02  0.7815553E-02  0.1125453E+00
         25   -1    0    0    0    0  0.00000000000E+00  0.00000000000E+00  0.99999998245E-14  0.12509000000E+03  0.12509000000E+03 0.  0.
        -11    1    3    3    0    0 -0.48082157683E+02 -0.11770185698E+02 -0.31433457542E+02  0.58638668233E+02  0.51100000000E-03 0. -1.
         23    2    1    0    0    0 -0.29417824291E+02  0.40963929758E+01 -0.44948063233E+01  0.95050158034E+02  0.90178381206E+02 0.  0.
         11    1    3    3    0    0  0.18664333392E+02  0.15866578674E+02  0.26938651219E+02  0.36411489801E+02  0.51100000000E-03 0.  1.
         22    1    1    0    0    0  0.29417824291E+02 -0.40963929758E+01  0.44948063233E+01  0.30039841966E+02  0.00000000000E+00 0. -1.
</event>
<event>
 5    1  0.1044283E-009  0.9118800E+02  0.7815553E-02  0.1125453E+00
         25   -1    0    0    0    0  0.00000000000E+00  0.00000000000E+00  0.99999998245E-14  0.12509000000E+03  0.12509000000E+03 0.  0.
        -11    1    3    3    0    0  0.82712946411E+01  0.17700173582E+02 -0.54924201882E+02  0.58295612292E+02  0.51100000000E-03 0. -1.
         23    2    1    0    0    0 -0.11789214941E+02  0.17168639817E+01 -0.22421460282E+02  0.99699941078E+02  0.96412774875E+02 0.  0.
         11    1    3    3    0    0 -0.20060509582E+02 -0.15983309600E+02  0.32502741600E+02  0.41404328786E+02  0.51100000000E-03 0.  1.
         22    1    1    0    0    0  0.11789214941E+02 -0.17168639817E+01  0.22421460282E+02  0.25390058922E+02  0.00000000000E+00 0. -1.
</event>
<event>
 5    1  0.1044283E-009  0.9118800E+02  0.7815553E-02  0.1125453E+00
         25   -1    0    0    0    0  0.00000000000E+00  0.00000000000E+00  0.99999998245E-14  0.12509000000E+03  0.12509000000E+03 0.  0.
        -11    1    3    3    0    0  0.19459885078E+02  0.19961742244E+02 -0.34162266976E+02  0.44093296155E+02  0.51100000000E-03 0. -1.
         23    2    1    0    0    0 -0.24302378111E+02  0.14901755434E+01 -0.38564379192E+01  0.10043846215E+03  0.97366248569E+02 0.  0.
         11    1    3    3    0    0 -0.43762263188E+02 -0.18471566701E+02  0.30305829057E+02  0.56345165993E+02  0.51100000000E-03 0.  1.
         22    1    1    0    0    0  0.24302378111E+02 -0.14901755434E+01  0.38564379192E+01  0.24651537851E+02  0.00000000000E+00 0.  1.
</event>
<event>
 5    1  0.1044283E-009  0.9118800E+02  0.7815553E-02  0.1125453E+00
         25   -1    0    0    0    0  0.00000000000E+00  0.00000000000E+00  0.99999998245E-14  0.12509000000E+03  0.12509000000E+03 0.  0.
        -11    1    3    3    0    0  0.18454460574E+02 -0.26273192689E+02  0.48164653455E+01  0.32466076262E+02  0.51100000000E-03 0. -1.
         23    2    1    0    0    0 -0.10182115751E+02  0.24389177884E+02 -0.15908821428E+02  0.94242016626E+02  0.89050320716E+02 0.  0.
         11    1    3    3    0    0 -0.28636576325E+02  0.50662370573E+02 -0.20725286774E+02  0.61775940364E+02  0.51100000000E-03 0.  1.
         22    1    1    0    0    0  0.10182115751E+02 -0.24389177884E+02  0.15908821428E+02  0.30847983374E+02  0.00000000000E+00 0.  1.
</event>
<event>
 5    1  0.1044283E-009  0.9118800E+02  0.7815553E-02  0.1125453E+00
         25   -1    0    0    0    0  0.00000000000E+00  0.00000000000E+00  0.99999998245E-14  0.12509000000E+03  0.12509000000E+03 0.  0.
        -11    1    3    3    0    0  0.32749828694E+02  0.68416363064E+01  0.20326802927E+02  0.39147645962E+02  0.51100000000E-03 0.  1.
         23    2    1    0    0    0 -0.19713633319E+02  0.19905603807E+02 -0.45829489018E+00  0.97070891596E+02  0.92939160527E+02 0.  0.
         11    1    3    3    0    0 -0.52463462013E+02  0.13063967500E+02 -0.20785097817E+02  0.57923245634E+02  0.51100000000E-03 0. -1.
         22    1    1    0    0    0  0.19713633319E+02 -0.19905603807E+02  0.45829489018E+00  0.28019108404E+02  0.00000000000E+00 0. -1.
</event>
<event>
 5    1  0.1044283E-009  0.9118800E+02  0.7815553E-02  0.1125453E+00
         25   -1    0    0    0    0  0.00000000000E+00  0.00000000000E+00  0.99999998245E-14  0.12509000000E+03  0.12509000000E+03 0.  0.
        -11    1    3    3    0    0  0.35684077933E+02  0.25227506506E+02  0.21384678769E+02  0.48652697651E+02  0.51100000000E-03 0.  1.
         23    2    1    0    0    0  0.10250421488E+02  0.19246256019E+02 -0.18608169273E+02  0.96423757220E+02  0.92064040109E+02 0.  0.
         11    1    3    3    0    0 -0.25433656445E+02 -0.59812504861E+01 -0.39992848042E+02  0.47771059569E+02  0.51100000000E-03 0. -1.
         22    1    1    0    0    0 -0.10250421488E+02 -0.19246256019E+02  0.18608169273E+02  0.28666242780E+02  0.00000000000E+00 0.  1.
</event>
<event>
 5    1  0.1044283E-009  0.9118800E+02  0.7815553E-02  0.1125453E+00
         25   -1    0    0    0    0  0.00000000000E+00  0.00000000000E+00  0.99999998245E-14  0.12509000000E+03  0.12509000000E+03 0.  0.
        -11    1    3    3    0    0  0.39475184900E+02  0.25447895918E+02  0.40127307361E+02  0.61774480376E+02  0.51100000000E-03 0.  1.
         23    2    1    0    0    0  0.21695678008E+02  0.15223323913E+02  0.13615802015E+02  0.95293320660E+02  0.90515053238E+02 0.  0.
         11    1    3    3    0    0 -0.17779506891E+02 -0.10224572005E+02 -0.26511505346E+02  0.33518840283E+02  0.51100000000E-03 0. -1.
         22    1    1    0    0    0 -0.21695678008E+02 -0.15223323913E+02 -0.13615802015E+02  0.29796679340E+02  0.00000000000E+00 0.  1.
</event>
<event>
 5    1  0.1044283E-009  0.9118800E+02  0.7815553E-02  0.1125453E+00
         25   -1    0    0    0    0  0.00000000000E+00  0.00000000000E+00  0.99999998245E-14  0.12509000000E+03  0.12509000000E+03 0.  0.
        -11    1    3    3    0    0  0.46451827825E+02 -0.25666108817E+02 -0.94920772638E+01  0.53913087290E+02  0.51100000000E-03 0.  1.
         23    2    1    0    0    0  0.69297144727E+01 -0.28772710037E+02  0.26534065260E+01  0.95375856032E+02  0.90629043701E+02 0.  0.
         11    1    3    3    0    0 -0.39522113353E+02 -0.31066012204E+01  0.12145483790E+02  0.41462768742E+02  0.51100000000E-03 0. -1.
         22    1    1    0    0    0 -0.69297144727E+01  0.28772710037E+02 -0.26534065260E+01  0.29714143968E+02  0.00000000000E+00 0.  1.
</event>
<event>
 5    1  0.1044283E-009  0.9118800E+02  0.7815553E-02  0.1125453E+00
         25   -1    0    0    0    0  0.00000000000E+00  0.00000000000E+00  0.99999998245E-14  0.12509000000E+03  0.12509000000E+03 0.  0.
        -11    1    3    3    0    0 -0.28042242788E+02 -0.37520926719E+02  0.31789706442E+01  0.46949900714E+02  0.51100000000E-03 0.  1.
         23    2    1    0    0    0 -0.29864603304E+02  0.86640518687E+01 -0.40453213796E+01  0.93731987462E+02  0.88330971483E+02 0.  0.
         11    1    3    3    0    0 -0.18223605161E+01  0.46184978588E+02 -0.72242920238E+01  0.46782086748E+02  0.51100000000E-03 0. -1.
         22    1    1    0    0    0  0.29864603304E+02 -0.86640518687E+01  0.40453213796E+01  0.31358012538E+02  0.00000000000E+00 0. -1.
</event>
<event>
 5    1  0.1044283E-009  0.9118800E+02  0.7815553E-02  0.1125453E+00
         25   -1    0    0    0    0  0.00000000000E+00  0.00000000000E+00  0.99999998245E-14  0.12509000000E+03  0.12509000000E+03 0.  0.
        -11    1    3    3    0    0  0.31399685961E+02  0.26800036217E+02  0.45620952839E+02  0.61526039674E+02  0.51100000000E-03 0. -1.
         23    2    1    0    0    0  0.21215375603E+02  0.96717694846E+01  0.17757851525E+02  0.95781697802E+02  0.91187483001E+02 0.  0.
         11    1    3    3    0    0 -0.10184310359E+02 -0.17128266732E+02 -0.27863101314E+02  0.34255658129E+02  0.51100000000E-03 0.  1.
         22    1    1    0    0    0 -0.21215375603E+02 -0.96717694846E+01 -0.17757851525E+02  0.29308302198E+02  0.00000000000E+00 0. -1.
</event>
<event>
 5    1  0.1044283E-009  0.9118800E+02  0.7815553E-02  0.1125453E+00
         25   -1    0    0    0    0  0.00000000000E+00  0.00000000000E+00  0.99999998245E-14  0.12509000000E+03  0.12509000000E+03 0.  0.
        -11    1    3    3    0    0 -0.30847334593E+02 -0.26474779303E+02  0.37047313168E+02  0.54999776398E+02  0.51100000000E-03 0.  1.
         23    2    1    0    0    0  0.24504523699E+01 -0.25510088890E+02  0.20909576497E+02  0.92014635432E+02  0.85864506010E+02 0.  0.
         11    1    3    3    0    0  0.33297786963E+02  0.96469041221E+00 -0.16137736671E+02  0.37014859034E+02  0.51100000000E-03 0. -1.
         22    1    1    0    0    0 -0.24504523699E+01  0.25510088890E+02 -0.20909576497E+02  0.33075364568E+02  0.00000000000E+00 0.  1.
</event>
<event>
 5    1  0.1044283E-009  0.9118800E+02  0.7815553E-02  0.1125453E+00
         25   -1    0    0    0    0  0.00000000000E+00  0.00000000000E+00  0.99999998245E-14  0.12509000000E+03  0.12509000000E+03 0.  0.
        -11    1    3    3    0    0  0.83809616583E+01  0.22464211336E+02  0.35225047312E+02  0.42610858565E+02  0.51100000000E-03 0.  1.
         23    2    1    0    0    0 -0.12956961889E+02  0.24023750565E+02 -0.12617750716E+02  0.95019564591E+02  0.90135933840E+02 0.  0.
         11    1    3    3    0    0 -0.21337923547E+02  0.15595392286E+01 -0.47842798028E+02  0.52408706026E+02  0.51100000000E-03 0. -1.
         22    1    1    0    0    0  0.12956961889E+02 -0.24023750565E+02  0.12617750716E+02  0.30070435409E+02  0.00000000000E+00 0. -1.
</event>
<event>
 4    1  0.1044283E-009  0.9118800E+02  0.7815553E-02  0.1125453E+00
         25   -1    0    0    0    0  0.00000000000E+00  0.00000000000E+00  0.99999998245E-14  0.12509000000E+03  0.12509000000E+03 0.  0.
        -11    1    1    0    0    0 -0.22290977062E+02  0.35144670686E+02  0.31169366022E+02  0.51995816317E+02  0.51100000000E-03 0.  1.
         11    1    1    0    0    0 -0.16347392450E+02 -0.53773710404E+01 -0.10179336550E+02  0.19994305491E+02  0.51100000000E-03 0. -1.
         22    1    1    0    0    0  0.38638369512E+02 -0.29767299645E+02 -0.20990029472E+02  0.53099878192E+02  0.00000000000E+00 0. -1.
</event>
<event>
 5    1  0.1044283E-009  0.9118800E+02  0.7815553E-02  0.1125453E+00
         25   -1    0    0    0    0  0.00000000000E+00  0.00000000000E+00  0.99999998245E-14  0.12509000000E+03  0.12509000000E+03 0.  0.
        -11    1    3    3    0    0 -0.75608525715E+01  0.23648784520E+02 -0.26496872409E+02  0.36311372167E+02  0.51100000000E-03 0.  1.
         23    2    1    0    0    0 -0.19018627531E+02 -0.15818605713E+02  0.16158051054E+02  0.95543103484E+02  0.90859592392E+02 0.  0.
         11    1    3    3    0    0 -0.11457774959E+02 -0.39467390233E+02  0.42654923464E+02  0.59231731317E+02  0.51100000000E-03 0. -1.
         22    1    1    0    0    0  0.19018627531E+02  0.15818605713E+02 -0.16158051054E+02  0.29546896516E+02  0.00000000000E+00 0. -1.
</event>
<event>
 5    1  0.1044283E-009  0.9118800E+02  0.7815553E-02  0.1125453E+00
         25   -1    0    0    0    0  0.00000000000E+00  0.00000000000E+00  0.99999998245E-14  0.12509000000E+03  0.12509000000E+03 0.  0.
        -11    1    3    3    0    0  0.20487032354E+02 -0.33181063258E+02  0.18088968329E+02  0.42987349640E+02  0.51100000000E-03 0.  1.
         23    2    1    0    0    0 -0.22535621087E+02 -0.26052983410E+02 -0.10852703607E+01  0.90625670990E+02  0.83816599003E+02 0.  0.
         11    1    3    3    0    0 -0.43022653441E+02  0.71280798480E+01 -0.19174238690E+02  0.47638321350E+02  0.51100000000E-03 0. -1.
         22    1    1    0    0    0  0.22535621087E+02  0.26052983410E+02  0.10852703607E+01  0.34464329010E+02  0.00000000000E+00 0. -1.
</event>
<event>
 5    1  0.1044283E-009  0.9118800E+02  0.7815553E-02  0.1125453E+00
         25   -1    0    0    0    0  0.00000000000E+00  0.00000000000E+00  0.99999998245E-14  0.12509000000E+03  0.12509000000E+03 0.  0.
        -11    1    3    3    0    0 -0.68044979106E+01  0.35915100933E+02 -0.44698646702E+02  0.57742226178E+02  0.51100000000E-03 0. -1.
         23    2    1    0    0    0 -0.51540974282E+00  0.32602473585E+02 -0.13400844493E+02  0.89837063041E+02  0.82631279378E+02 0.  0.
         11    1    3    3    0    0  0.62890881678E+01 -0.33126273473E+01  0.31297802208E+02  0.32094836863E+02  0.51100000000E-03 0.  1.
         22    1    1    0    0    0  0.51540974282E+00 -0.32602473585E+02  0.13400844493E+02  0.35252936959E+02  0.00000000000E+00 0. -1.
</event>
<event>
 5    1  0.1044283E-009  0.9118800E+02  0.7815553E-02  0.1125453E+00
         25   -1    0    0    0    0  0.00000000000E+00  0.00000000000E+00  0.99999998245E-14  0.12509000000E+03  0.12509000000E+03 0.  0.
        -11    1    3    3    0    0 -0.39146906587E+02 -0.43649467218E+02  0.91420348828E+01  0.59340821412E+02  0.51100000000E-03 0.  1.
         23    2    1    0    0    0 -0.35135776264E+02 -0.18858853764E+02  0.36590548951E+01  0.85045427063E+02  0.75027707166E+02 0.  0.
         11    1    3    3    0    0  0.40111303225E+01  0.24790613454E+02 -0.54829799877E+01  0.25704605651E+02  0.51100000000E-03 0. -1.
         22    1    1    0    0    0  0.35135776264E+02  0.18858853764E+02 -0.36590548951E+01  0.40044572937E+02  0.00000000000E+00 0.  1.
</event>
<event>
 5    1  0.1044283E-009  0.9118800E+02  0.7815553E-02  0.1125453E+00
         25   -1    0    0    0    0  0.00000000000E+00  0.00000000000E+00  0.99999998245E-14  0.12509000000E+03  0.12509000000E+03 0.  0.
        -11    1    3    3    0    0  0.11957072149E+02 -0.11976347538E+02  0.30093992886E+02  0.34526118850E+02  0.51100000000E-03 0. -1.
         23    2    1    0    0    0 -0.26876207692E+02  0.81576720243E+01 -0.11361734449E+02  0.94792027090E+02  0.89819603859E+02 0.  0.
         11    1    3    3    0    0 -0.38833279841E+02  0.20134019562E+02 -0.41455727335E+02  0.60265908241E+02  0.51100000000E-03 0.  1.
         22    1    1    0    0    0  0.26876207692E+02 -0.81576720243E+01  0.11361734449E+02  0.30297972910E+02  0.00000000000E+00 0.  1.
</event>
<event>
 5    1  0.1044283E-009  0.9118800E+02  0.7815553E-02  0.1125453E+00
         25   -1    0    0    0    0  0.00000000000E+00  0.00000000000E+00  0.99999998245E-14  0.12509000000E+03  0.12509000000E+03 0.  0.
        -11    1    3    3    0    0  0.26739074467E+01  0.49534316942E+02 -0.21490964877E+01  0.49652965187E+02  0.51100000000E-03 0. -1.
         23    2    1    0    0    0  0.54847022464E+01  0.91441713408E+01 -0.26240181012E+02  0.96766071463E+02  0.92527983111E+02 0.  0.
         11    1    3    3    0    0  0.28107947997E+01 -0.40390145601E+02 -0.24091084524E+02  0.47113106275E+02  0.51100000000E-03 0.  1.
         22    1    1    0    0    0 -0.54847022464E+01 -0.91441713408E+01  0.26240181012E+02  0.28323928537E+02  0.00000000000E+00 0.  1.
</event>
<event>
 5    1  0.1044283E-009  0.9118800E+02  0.7815553E-02  0.1125453E+00
         25   -1    0    0    0    0  0.00000000000E+00  0.00000000000E+00  0.99999998245E-14  0.12509000000E+03  0.12509000000E+03 0.  0.
        -11    1    3    3    0    0  0.10208450069E+02 -0.29716095108E+02 -0.22824363934E+02  0.38835683984E+02  0.51100000000E-03 0.  1.
         23    2    1    0    0    0 -0.30175837998E+02  0.40657637445E+01 -0.65423765003E+01  0.93946552471E+02  0.88634307111E+02 0.  0.
         11    1    3    3    0    0 -0.40384288068E+02  0.33781858852E+02  0.16281987434E+02  0.55110868486E+02  0.51100000000E-03 0. -1.
         22    1    1    0    0    0  0.30175837998E+02 -0.40657637445E+01  0.65423765003E+01  0.31143447529E+02  0.00000000000E+00 0. -1.
</event>
<event>
 5    1  0.1044283E-009  0.9118800E+02  0.7815553E-02  0.1125453E+00
         25   -1    0    0    0    0  0.00000000000E+00  0.00000000000E+00  0.99999998245E-14  0.12509000000E+03  0.12509000000E+03 0.  0.
        -11    1    3    3    0    0 -0.10213991439E+02 -0.14574602343E+02 -0.14179760000E+02  0.22755444370E+02  0.51100000000E-03 0.  1.
         23    2    1    0    0    0 -0.27215878240E+02 -0.12993045653E+02  0.37375288200E+02  0.77064637620E+02  0.60270415129E+02 0.  0.
         11    1    3    3    0    0 -0.17001886800E+02  0.15815566894E+01  0.51555048199E+02  0.54309193250E+02  0.51100000000E-03 0. -1.
         22    1    1    0    0    0  0.27215878240E+02  0.12993045653E+02 -0.37375288200E+02  0.48025362380E+02  0.00000000000E+00 0. -1.
</event>
<event>
 5    1  0.1044283E-009  0.9118800E+02  0.7815553E-02  0.1125453E+00
         25   -1    0    0    0    0  0.00000000000E+00  0.00000000000E+00  0.99999998245E-14  0.12509000000E+03  0.12509000000E+03 0.  0.
        -11    1    3    3    0    0  0.10762989338E+02  0.62689540555E+01  0.37312945558E+02  0.39336975366E+02  0.51100000000E-03 0.  1.
         23    2    1    0    0    0  0.23121215266E+02 -0.91500851305E+01 -0.15543039032E+02  0.95765936236E+02  0.91165858892E+02 0.  0.
         11    1    3    3    0    0  0.12358225929E+02 -0.15419039186E+02 -0.52855984591E+02  0.56428960870E+02  0.51100000000E-03 0. -1.
         22    1    1    0    0    0 -0.23121215266E+02  0.91500851305E+01  0.15543039032E+02  0.29324063764E+02  0.00000000000E+00 0. -1.
</event>
<event>
 5    1  0.1044283E-009  0.9118800E+02  0.7815553E-02  0.1125453E+00
         25   -1    0    0    0    0  0.00000000000E+00  0.00000000000E+00  0.99999998245E-14  0.12509000000E+03  0.12509000000E+03 0.  0.
        -11    1    3    3    0    0 -0.31641476273E+02  0.69986659125E+01  0.31482991341E+02  0.45181224965E+02  0.51100000000E-03 0.  1.
         23    2    1    0    0    0  0.78600145612E+01  0.27485683208E+02  0.84916956631E+01  0.95268002992E+02  0.90480057960E+02 0.  0.
         11    1    3    3    0    0  0.39501490835E+02  0.20487017296E+02 -0.22991295678E+02  0.50086778026E+02  0.51100000000E-03 0. -1.
         22    1    1    0    0    0 -0.78600145612E+01 -0.27485683208E+02 -0.84916956631E+01  0.29821997008E+02  0.00000000000E+00 0.  1.
</event>
<event>
 5    1  0.1044283E-009  0.9118800E+02  0.7815553E-02  0.1125453E+00
         25   -1    0    0    0    0  0.00000000000E+00  0.00000000000E+00  0.99999998245E-14  0.12509000000E+03  0.12509000000E+03 0.  0.
        -11    1    3    3    0    0  0.31341079508E+02 -0.24270854251E+02 -0.17762418972E+00  0.39640499258E+02  0.51100000000E-03 0. -1.
         23    2    1    0    0    0 -0.20033110361E+02  0.55596015111E+01 -0.13207303273E+02  0.10045937801E+03  0.97393116242E+02 0.  0.
         11    1    3    3    0    0 -0.51374189870E+02  0.29830455762E+02 -0.13029679083E+02  0.60818878755E+02  0.51100000000E-03 0.  1.
         22    1    1    0    0    0  0.20033110361E+02 -0.55596015111E+01  0.13207303273E+02  0.24630621987E+02  0.00000000000E+00 0.  1.
</event>
<event>
 5    1  0.1044283E-009  0.9118800E+02  0.7815553E-02  0.1125453E+00
         25   -1    0    0    0    0  0.00000000000E+00  0.00000000000E+00  0.99999998245E-14  0.12509000000E+03  0.12509000000E+03 0.  0.
        -11    1    3    3    0    0  0.45393103976E+02  0.20171920631E+02  0.27220748763E+02  0.56642823323E+02  0.51100000000E-03 0.  1.
         23    2    1    0    0    0  0.87342593814E+01  0.12902690257E+01  0.25710006539E+02  0.97906245342E+02  0.94056772003E+02 0.  0.
         11    1    3    3    0    0 -0.36658844595E+02 -0.18881651606E+02 -0.15107422240E+01  0.41263422019E+02  0.51100000000E-03 0. -1.
         22    1    1    0    0    0 -0.87342593814E+01 -0.12902690257E+01 -0.25710006539E+02  0.27183754658E+02  0.00000000000E+00 0.  1.
</event>
<event>
 5    1  0.1044283E-009  0.9118800E+02  0.7815553E-02  0.1125453E+00
         25   -1    0    0    0    0  0.00000000000E+00  0.00000000000E+00  0.99999998245E-14  0.12509000000E+03  0.12509000000E+03 0.  0.
        -11    1    3    3    0    0  0.17030047615E+02 -0.18445932731E+02  0.45687414530E+02  0.52130747192E+02  0.51100000000E-03 0.  1.
         23    2    1    0    0    0  0.26709165554E+02  0.48541880640E+01  0.93305932551E+01  0.96384553882E+02  0.92010758013E+02 0.  0.
         11    1    3    3    0    0  0.96791179385E+01  0.23300120795E+02 -0.36356821274E+02  0.44253806690E+02  0.51100000000E-03 0. -1.
         22    1    1    0    0    0 -0.26709165554E+02 -0.48541880640E+01 -0.93305932551E+01  0.28705446118E+02  0.00000000000E+00 0.  1.
</event>
<event>
 5    1  0.1044283E-009  0.9118800E+02  0.7815553E-02  0.1125453E+00
         25   -1    0    0    0    0  0.00000000000E+00  0.00000000000E+00  0.99999998245E-14  0.12509000000E+03  0.12509000000E+03 0.  0.
        -11    1    3    3    0    0  0.43979106018E+02 -0.44622628041E+01 -0.11840762764E+01  0.44220759745E+02  0.51100000000E-03 0.  1.
         23    2    1    0    0    0  0.38845632690E+00 -0.19896803019E+02  0.21556239686E+02  0.95752223361E+02  0.91147041315E+02 0.  0.
         11    1    3    3    0    0 -0.43590649691E+02 -0.15434540215E+02  0.22740315962E+02  0.51531463617E+02  0.51100000000E-03 0. -1.
         22    1    1    0    0    0 -0.38845632690E+00  0.19896803019E+02 -0.21556239686E+02  0.29337776639E+02  0.00000000000E+00 0. -1.
</event>
<event>
 5    1  0.1044283E-009  0.9118800E+02  0.7815553E-02  0.1125453E+00
         25   -1    0    0    0    0  0.00000000000E+00  0.00000000000E+00  0.99999998245E-14  0.12509000000E+03  0.12509000000E+03 0.  0.
        -11    1    3    3    0    0 -0.34211979598E+02 -0.28504445178E+01  0.23540218861E+02  0.41626031354E+02  0.51100000000E-03 0. -1.
         23    2    1    0    0    0 -0.91300295129E+01  0.18343420943E+02 -0.20197713833E+02  0.96318726569E+02  0.91921221233E+02 0.  0.
         11    1    3    3    0    0  0.25081950085E+02  0.21193865461E+02 -0.43737932694E+02  0.54692695215E+02  0.51100000000E-03 0.  1.
         22    1    1    0    0    0  0.91300295129E+01 -0.18343420943E+02  0.20197713833E+02  0.28771273431E+02  0.00000000000E+00 0.  1.
</event>
<event>
 5    1  0.1044283E-009  0.9118800E+02  0.7815553E-02  0.1125453E+00
         25   -1    0    0    0    0  0.00000000000E+00  0.00000000000E+00  0.99999998245E-14  0.12509000000E+03  0.12509000000E+03 0.  0.
        -11    1    3    3    0    0  0.41231581886E+02 -0.20053052814E+02  0.19657958096E+02  0.49885905712E+02  0.51100000000E-03 0.  1.
         23    2    1    0    0    0 -0.43869959424E+01 -0.17731994124E+02  0.23038723423E+02  0.95688433274E+02  0.91059453855E+02 0.  0.
         11    1    3    3    0    0 -0.45618577828E+02  0.23210586905E+01  0.33807653273E+01  0.45802527561E+02  0.51100000000E-03 0. -1.
         22    1    1    0    0    0  0.43869959424E+01  0.17731994124E+02 -0.23038723423E+02  0.29401566726E+02  0.00000000000E+00 0.  1.
</event>
<event>
 5    1  0.1044283E-009  0.9118800E+02  0.7815553E-02  0.1125453E+00
         25   -1    0    0    0    0  0.00000000000E+00  0.00000000000E+00  0.99999998245E-14  0.12509000000E+03  0.12509000000E+03 0.  0.
        -11    1    3    3    0    0 -0.17534014669E+02  0.12824902274E+02 -0.33599978092E+02  0.40010977453E+02  0.51100000000E-03 0. -1.
         23    2    1    0    0    0 -0.18927275953E+02 -0.48845412651E+01  0.20387246449E+02  0.96845702590E+02  0.92635575100E+02 0.  0.
         11    1    3    3    0    0 -0.13932612847E+01 -0.17709443540E+02  0.53987224541E+02  0.56834725137E+02  0.51100000000E-03 0.  1.
         22    1    1    0    0    0  0.18927275953E+02  0.48845412651E+01 -0.20387246449E+02  0.28244297410E+02  0.00000000000E+00 0.  1.
</event>
<event>
 5    1  0.1044283E-009  0.9118800E+02  0.7815553E-02  0.1125453E+00
         25   -1    0    0    0    0  0.00000000000E+00  0.00000000000E+00  0.99999998245E-14  0.12509000000E+03  0.12509000000E+03 0.  0.
        -11    1    3    3    0    0  0.32222150205E+02 -0.27155981173E+02 -0.41584433327E+02  0.59202866254E+02  0.51100000000E-03 0. -1.
         23    2    1    0    0    0  0.22819615027E+02 -0.65377348716E+01 -0.73824505033E+01  0.10023084912E+03  0.97099154125E+02 0.  0.
         11    1    3    3    0    0 -0.94025351778E+01  0.20618246302E+02  0.34201982824E+02  0.41027982861E+02  0.51100000000E-03 0.  1.
         22    1    1    0    0    0 -0.22819615027E+02  0.65377348716E+01  0.73824505033E+01  0.24859150884E+02  0.00000000000E+00 0. -1.
</event>
<event>
 5    1  0.1044283E-009  0.9118800E+02  0.7815553E-02  0.1125453E+00
         25   -1    0    0    0    0  0.00000000000E+00  0.00000000000E+00  0.99999998245E-14  0.12509000000E+03  0.12509000000E+03 0.  0.
        -11    1    3    3    0    0 -0.53023730206E+02 -0.19166391658E+02  0.11082268555E+02  0.57460275067E+02  0.51100000000E-03 0. -1.
         23    2    1    0    0    0 -0.21643245443E+02  0.16893328723E+01  0.19319766097E+02  0.96029076393E+02  0.91526205165E+02 0.  0.
         11    1    3    3    0    0  0.31380484764E+02  0.20855724531E+02  0.82374975417E+01  0.38568801326E+02  0.51100000000E-03 0.  1.
         22    1    1    0    0    0  0.21643245443E+02 -0.16893328723E+01 -0.19319766097E+02  0.29060923607E+02  0.00000000000E+00 0. -1.
</event>
<event>
 5    1  0.1044283E-009  0.9118800E+02  0.7815553E-02  0.1125453E+00
         25   -1    0    0    0    0  0.00000000000E+00  0.00000000000E+00  0.99999998245E-14  0.12509000000E+03  0.12509000000E+03 0.  0.
        -11    1    3    3    0    0  0.15879170912E+02  0.24421062760E+02  0.24800943145E+02  0.38257328139E+02  0.51100000000E-03 0. -1.
         23    2    1    0    0    0  0.16558086216E+02 -0.17398720650E+02 -0.15633296288E+02  0.96431918204E+02  0.92075128001E+02 0.  0.
         11    1    3    3    0    0  0.67891530408E+00 -0.41819783410E+02 -0.40434239433E+02  0.58174590065E+02  0.51100000000E-03 0.  1.
         22    1    1    0    0    0 -0.16558086216E+02  0.17398720650E+02  0.15633296288E+02  0.28658081796E+02  0.00000000000E+00 0.  1.
</event>
<event>
 5    1  0.1044283E-009  0.9118800E+02  0.7815553E-02  0.1125453E+00
         25   -1    0    0    0    0  0.00000000000E+00  0.00000000000E+00  0.99999998245E-14  0.12509000000E+03  0.12509000000E+03 0.  0.
        -11    1    3    3    0    0  0.50715591633E+02 -0.25430711094E+02  0.17925127299E+01  0.56762711383E+02  0.51100000000E-03 0. -1.
         23    2    1    0    0    0  0.26184959932E+02  0.41225030815E+01  0.11212481529E+02  0.96308636232E+02  0.91907488882E+02 0.  0.
         11    1    3    3    0    0 -0.24530631701E+02  0.29553214175E+02  0.94199687991E+01  0.39545924849E+02  0.51100000000E-03 0.  1.
         22    1    1    0    0    0 -0.26184959932E+02 -0.41225030815E+01 -0.11212481529E+02  0.28781363768E+02  0.00000000000E+00 0. -1.
</event>
<event>
 5    1  0.1044283E-009  0.9118800E+02  0.7815553E-02  0.1125453E+00
         25   -1    0    0    0    0  0.00000000000E+00  0.00000000000E+00  0.99999998245E-14  0.12509000000E+03  0.12509000000E+03 0.  0.
        -11    1    3    3    0    0 -0.51817659711E+01 -0.28144677610E+02  0.18370277170E+02  0.34006479675E+02  0.51100000000E-03 0. -1.
         23    2    1    0    0    0  0.11225402140E+02  0.19783169280E+02 -0.17762071757E+02  0.96230432556E+02  0.91800988648E+02 0.  0.
         11    1    3    3    0    0  0.16407168111E+02  0.47927846889E+02 -0.36132348927E+02  0.62223952881E+02  0.51100000000E-03 0.  1.
         22    1    1    0    0    0 -0.11225402140E+02 -0.19783169280E+02  0.17762071757E+02  0.28859567444E+02  0.00000000000E+00 0.  1.
</event>
<event>
 5    1  0.1044283E-009  0.9118800E+02  0.7815553E-02  0.1125453E+00
         25   -1    0    0    0    0  0.00000000000E+00  0.00000000000E+00  0.99999998245E-14  0.12509000000E+03  0.12509000000E+03 0.  0.
        -11    1    3    3    0    0 -0.36536831412E+02 -0.27282080529E+02 -0.23564800355E+00  0.45599424315E+02  0.51100000000E-03 0. -1.
         23    2    1    0    0    0  0.13018705842E+02 -0.26865068370E+02 -0.18119351451E+01  0.95181778566E+02  0.90360772804E+02 0.  0.
         11    1    3    3    0    0  0.49555537254E+02  0.41701215910E+00 -0.15762871416E+01  0.49582354251E+02  0.51100000000E-03 0.  1.
         22    1    1    0    0    0 -0.13018705842E+02  0.26865068370E+02  0.18119351451E+01  0.29908221434E+02  0.00000000000E+00 0.  1.
</event>
<event>
 5    1  0.1044283E-009  0.9118800E+02  0.7815553E-02  0.1125453E+00
         25   -1    0    0    0    0  0.00000000000E+00  0.00000000000E+00  0.99999998245E-14  0.12509000000E+03  0.12509000000E+03 0.  0.
        -11    1    3    3    0    0  0.13544542602E+02  0.35848358402E+01  0.58505647406E+02  0.60159924044E+02  0.51100000000E-03 0.  1.
         23    2    1    0    0    0 -0.35354599317E+01  0.88798501099E+01  0.27798247595E+02  0.95694527827E+02  0.91067825667E+02 0.  0.
         11    1    3    3    0    0 -0.17080002534E+02  0.52950142697E+01 -0.30707399810E+02  0.35534603783E+02  0.51100000000E-03 0. -1.
         22    1    1    0    0    0  0.35354599317E+01 -0.88798501099E+01 -0.27798247595E+02  0.29395472173E+02  0.00000000000E+00 0.  1.
</event>
<event>
 5    1  0.1044283E-009  0.9118800E+02  0.7815553E-02  0.1125453E+00
         25   -1    0    0    0    0  0.00000000000E+00  0.00000000000E+00  0.99999998245E-14  0.12509000000E+03  0.12509000000E+03 0.  0.
        -11    1    3    3    0    0 -0.36896256956E+02  0.15759405151E+02 -0.40340472204E+02  0.56895046585E+02  0.51100000000E-03 0.  1.
         23    2    1    0    0    0 -0.28157628412E+02  0.25539802142E+01 -0.40005295142E+01  0.96535156469E+02  0.92215277180E+02 0.  0.
         11    1    3    3    0    0  0.87386285439E+01 -0.13205424937E+02  0.36339942690E+02  0.39640109883E+02  0.51100000000E-03 0. -1.
         22    1    1    0    0    0  0.28157628412E+02 -0.25539802142E+01  0.40005295142E+01  0.28554843531E+02  0.00000000000E+00 0.  1.
</event>
<event>
 5    1  0.1044283E-009  0.9118800E+02  0.7815553E-02  0.1125453E+00
         25   -1    0    0    0    0  0.00000000000E+00  0.00000000000E+00  0.99999998245E-14  0.12509000000E+03  0.12509000000E+03 0.  0.
        -11    1    3    3    0    0  0.92180615333E+01 -0.16332716579E+02  0.33033471360E+02  0.37986056911E+02  0.51100000000E-03 0. -1.
         23    2    1    0    0    0 -0.24135663796E+02  0.12608897984E+02 -0.63187360256E+01  0.97135733775E+02  0.93026392899E+02 0.  0.
         11    1    3    3    0    0 -0.33353725329E+02  0.28941614563E+02 -0.39352207385E+02  0.59149676864E+02  0.51100000000E-03 0.  1.
         22    1    1    0    0    0  0.24135663796E+02 -0.12608897984E+02  0.63187360256E+01  0.27954266225E+02  0.00000000000E+00 0.  1.
</event>
<event>
 5    1  0.1044283E-009  0.9118800E+02  0.7815553E-02  0.1125453E+00
         25   -1    0    0    0    0  0.00000000000E+00  0.00000000000E+00  0.99999998245E-14  0.12509000000E+03  0.12509000000E+03 0.  0.
        -11    1    3    3    0    0 -0.39331430217E+02 -0.19748466391E+01  0.40904213585E+02  0.56780420141E+02  0.51100000000E-03 0. -1.
         23    2    1    0    0    0 -0.13258453089E+02  0.17567371116E+02  0.18687772371E+02  0.96217314943E+02  0.91783112566E+02 0.  0.
         11    1    3    3    0    0  0.26072977128E+02  0.19542217755E+02 -0.22216441214E+02  0.39436894801E+02  0.51100000000E-03 0.  1.
         22    1    1    0    0    0  0.13258453089E+02 -0.17567371116E+02 -0.18687772371E+02  0.28872685057E+02  0.00000000000E+00 0. -1.
</event>
<event>
 5    1  0.1044283E-009  0.9118800E+02  0.7815553E-02  0.1125453E+00
         25   -1    0    0    0    0  0.00000000000E+00  0.00000000000E+00  0.99999998245E-14  0.12509000000E+03  0.12509000000E+03 0.  0.
        -11    1    3    3    0    0 -0.24591434465E+01  0.48973775427E+02  0.57000224673E+01  0.49365659344E+02  0.51100000000E-03 0.  1.
         23    2    1    0    0    0  0.17054127318E+02  0.14735926673E+02  0.23430564876E+02  0.92578737891E+02  0.86682411974E+02 0.  0.
         11    1    3    3    0    0  0.19513270765E+02 -0.34237848754E+02  0.17730542408E+02  0.43213078548E+02  0.51100000000E-03 0. -1.
         22    1    1    0    0    0 -0.17054127318E+02 -0.14735926673E+02 -0.23430564876E+02  0.32511262109E+02  0.00000000000E+00 0.  1.
</event>
<event>
 5    1  0.1044283E-009  0.9118800E+02  0.7815553E-02  0.1125453E+00
         25   -1    0    0    0    0  0.00000000000E+00  0.00000000000E+00  0.99999998245E-14  0.12509000000E+03  0.12509000000E+03 0.  0.
        -11    1    3    3    0    0  0.70956839389E+01 -0.60216800314E+02  0.12167215051E+02  0.61842161128E+02  0.51100000000E-03 0.  1.
         23    2    1    0    0    0 -0.28711845052E+01 -0.31426414341E+02  0.50219093025E+01  0.93135613888E+02  0.87482339832E+02 0.  0.
         11    1    3    3    0    0 -0.99668684441E+01  0.28790385974E+02 -0.71453057483E+01  0.31293452759E+02  0.51100000000E-03 0. -1.
         22    1    1    0    0    0  0.28711845052E+01  0.31426414341E+02 -0.50219093025E+01  0.31954386112E+02  0.00000000000E+00 0.  1.
</event>
<event>
 5    1  0.1044283E-009  0.9118800E+02  0.7815553E-02  0.1125453E+00
         25   -1    0    0    0    0  0.00000000000E+00  0.00000000000E+00  0.99999998245E-14  0.12509000000E+03  0.12509000000E+03 0.  0.
        -11    1    3    3    0    0  0.20779439617E+02  0.33554222046E+02  0.46213113263E+02  0.60772713989E+02  0.51100000000E-03 0. -1.
         23    2    1    0    0    0  0.20481902308E+02  0.15889498910E+02  0.20161705489E+02  0.92249798021E+02  0.86206417214E+02 0.  0.
         11    1    3    3    0    0 -0.29753730869E+00 -0.17664723136E+02 -0.26051407773E+02  0.31477084032E+02  0.51100000000E-03 0.  1.
         22    1    1    0    0    0 -0.20481902308E+02 -0.15889498910E+02 -0.20161705489E+02  0.32840201979E+02  0.00000000000E+00 0. -1.
</event>
<event>
 5    1  0.1044283E-009  0.9118800E+02  0.7815553E-02  0.1125453E+00
         25   -1    0    0    0    0  0.00000000000E+00  0.00000000000E+00  0.99999998245E-14  0.12509000000E+03  0.12509000000E+03 0.  0.
        -11    1    3    3    0    0  0.26319892147E+02  0.16394239149E+02  0.49687660630E+02  0.58569372705E+02  0.51100000000E-03 0.  1.
         23    2    1    0    0    0  0.20286192168E+02 -0.37709827601E+01  0.13503014110E+02  0.10043069560E+03  0.97356270081E+02 0.  0.
         11    1    3    3    0    0 -0.60336999790E+01 -0.20165221909E+02 -0.36184646520E+02  0.41861322890E+02  0.51100000000E-03 0. -1.
         22    1    1    0    0    0 -0.20286192168E+02  0.37709827601E+01 -0.13503014110E+02  0.24659304405E+02  0.00000000000E+00 0.  1.
</event>
<event>
 5    1  0.1044283E-009  0.9118800E+02  0.7815553E-02  0.1125453E+00
         25   -1    0    0    0    0  0.00000000000E+00  0.00000000000E+00  0.99999998245E-14  0.12509000000E+03  0.12509000000E+03 0.  0.
        -11    1    3    3    0    0  0.30206058662E+02 -0.27407532993E+02 -0.21148404774E+02  0.45943812091E+02  0.51100000000E-03 0.  1.
         23    2    1    0    0    0 -0.12257846687E+02 -0.27516170679E+02 -0.20931906635E+02  0.88408408301E+02  0.80439464747E+02 0.  0.
         11    1    3    3    0    0 -0.42463905349E+02 -0.10863768551E+00  0.21649813954E+00  0.42464596210E+02  0.51100000000E-03 0. -1.
         22    1    1    0    0    0  0.12257846687E+02  0.27516170679E+02  0.20931906635E+02  0.36681591699E+02  0.00000000000E+00 0.  1.
</event>
<event>
 5    1  0.1044283E-009  0.9118800E+02  0.7815553E-02  0.1125453E+00
         25   -1    0    0    0    0  0.00000000000E+00  0.00000000000E+00  0.99999998245E-14  0.12509000000E+03  0.12509000000E+03 0.  0.
        -11    1    3    3    0    0  0.48282909095E+02 -0.35054218589E+02  0.18229105545E+02  0.62388603453E+02  0.51100000000E-03 0. -1.
         23    2    1    0    0    0  0.19360075038E+02 -0.10343355710E+02  0.64468426112E+01  0.10221295272E+03  0.99619919747E+02 0.  0.
         11    1    3    3    0    0 -0.28922834058E+02  0.24710862878E+02 -0.11782262934E+02  0.39824349263E+02  0.51100000000E-03 0.  1.
         22    1    1    0    0    0 -0.19360075038E+02  0.10343355710E+02 -0.64468426112E+01  0.22877047285E+02  0.00000000000E+00 0. -1.
</event>
<event>
 5    1  0.1044283E-009  0.9118800E+02  0.7815553E-02  0.1125453E+00
         25   -1    0    0    0    0  0.00000000000E+00  0.00000000000E+00  0.99999998245E-14  0.12509000000E+03  0.12509000000E+03 0.  0.
        -11    1    3    3    0    0 -0.18493166384E+02  0.10143860579E+02 -0.29964299230E+02  0.36643612526E+02  0.51100000000E-03 0.  1.
         23    2    1    0    0    0 -0.89832075162E+01  0.30154579503E+00  0.27730348683E+02  0.95939336453E+02  0.91403474190E+02 0.  0.
         11    1    3    3    0    0  0.95099588675E+01 -0.98423147840E+01  0.57694647913E+02  0.59295723927E+02  0.51100000000E-03 0. -1.
         22    1    1    0    0    0  0.89832075162E+01 -0.30154579503E+00 -0.27730348683E+02  0.29150663547E+02  0.00000000000E+00 0. -1.
</event>
<event>
 5    1  0.1044283E-009  0.9118800E+02  0.7815553E-02  0.1125453E+00
         25   -1    0    0    0    0  0.00000000000E+00  0.00000000000E+00  0.99999998245E-14  0.12509000000E+03  0.12509000000E+03 0.  0.
        -11    1    3    3    0    0 -0.15702696152E+02 -0.41369807094E+02 -0.20841228139E+01  0.44298749120E+02  0.51100000000E-03 0. -1.
         23    2    1    0    0    0 -0.50960303512E+01 -0.12586339659E+02 -0.33946924357E+02  0.88528009564E+02  0.80625240047E+02 0.  0.
         11    1    3    3    0    0  0.10606665801E+02  0.28783467435E+02 -0.31862801543E+02  0.44229260444E+02  0.51100000000E-03 0.  1.
         22    1    1    0    0    0  0.50960303512E+01  0.12586339659E+02  0.33946924357E+02  0.36561990436E+02  0.00000000000E+00 0. -1.
</event>
<event>
 5    1  0.1044283E-009  0.9118800E+02  0.7815553E-02  0.1125453E+00
         25   -1    0    0    0    0  0.00000000000E+00  0.00000000000E+00  0.99999998245E-14  0.12509000000E+03  0.12509000000E+03 0.  0.
        -11    1    3    3    0    0 -0.30711475780E+02  0.48241569814E+01 -0.20224763315E+02  0.37087845536E+02  0.51100000000E-03 0.  1.
         23    2    1    0    0    0  0.25906805318E+00 -0.17212928135E+02  0.24096423564E+02  0.95475989130E+02  0.90767146372E+02 0.  0.
         11    1    3    3    0    0  0.30970543833E+02 -0.22037085116E+02  0.44321186879E+02  0.58388143594E+02  0.51100000000E-03 0. -1.
         22    1    1    0    0    0 -0.25906805318E+00  0.17212928135E+02 -0.24096423564E+02  0.29614010870E+02  0.00000000000E+00 0. -1.
</event>
<event>
 5    1  0.1044283E-009  0.9118800E+02  0.7815553E-02  0.1125453E+00
         25   -1    0    0    0    0  0.00000000000E+00  0.00000000000E+00  0.99999998245E-14  0.12509000000E+03  0.12509000000E+03 0.  0.
        -11    1    3    3    0    0  0.59391932256E+02 -0.11890171774E+02 -0.10821535927E+02  0.61529533088E+02  0.51100000000E-03 0. -1.
         23    2    1    0    0    0  0.27467003211E+02 -0.20251831149E+01 -0.12188745232E+02  0.94971846963E+02  0.90069687316E+02 0.  0.
         11    1    3    3    0    0 -0.31924929045E+02  0.98649886588E+01 -0.13672093052E+01  0.33442313875E+02  0.51100000000E-03 0.  1.
         22    1    1    0    0    0 -0.27467003211E+02  0.20251831149E+01  0.12188745232E+02  0.30118153037E+02  0.00000000000E+00 0. -1.
</event>
<event>
 5    1  0.1044283E-009  0.9118800E+02  0.7815553E-02  0.1125453E+00
         25   -1    0    0    0    0  0.00000000000E+00  0.00000000000E+00  0.99999998245E-14  0.12509000000E+03  0.12509000000E+03 0.  0.
        -11    1    3    3    0    0 -0.11004055619E+02 -0.56445943363E+02  0.22005144068E+01  0.57550638799E+02  0.51100000000E-03 0.  1.
         23    2    1    0    0    0 -0.18605637823E+02 -0.18143608778E+02 -0.79789614967E+01  0.97905001842E+02  0.94055118206E+02 0.  0.
         11    1    3    3    0    0 -0.76015822042E+01  0.38302334585E+02 -0.10179475903E+02  0.40354363043E+02  0.51100000000E-03 0. -1.
         22    1    1    0    0    0  0.18605637823E+02  0.18143608778E+02  0.79789614967E+01  0.27184998158E+02  0.00000000000E+00 0.  1.
</event>
<event>
 5    1  0.1044283E-009  0.9118800E+02  0.7815553E-02  0.1125453E+00
         25   -1    0    0    0    0  0.00000000000E+00  0.00000000000E+00  0.99999998245E-14  0.12509000000E+03  0.12509000000E+03 0.  0.
        -11    1    3    3    0    0  0.21297793236E+02 -0.42841934826E+01 -0.26298122092E+02  0.34110724653E+02  0.51100000000E-03 0. -1.
         23    2    1    0    0    0 -0.19424140768E+02 -0.13026774870E+02  0.18493065511E+02  0.95274105244E+02  0.90488494020E+02 0.  0.
         11    1    3    3    0    0 -0.40721934004E+02 -0.87425813876E+01  0.44791187602E+02  0.61163380592E+02  0.51100000000E-03 0.  1.
         22    1    1    0    0    0  0.19424140768E+02  0.13026774870E+02 -0.18493065511E+02  0.29815894756E+02  0.00000000000E+00 0.  1.
</event>
<event>
 5    1  0.1044283E-009  0.9118800E+02  0.7815553E-02  0.1125453E+00
         25   -1    0    0    0    0  0.00000000000E+00  0.00000000000E+00  0.99999998245E-14  0.12509000000E+03  0.12509000000E+03 0.  0.
        -11    1    3    3    0    0 -0.22372069191E+02 -0.21462046363E+02 -0.33416602439E+02  0.45582872143E+02  0.51100000000E-03 0.  1.
         23    2    1    0    0    0  0.13907180167E+02  0.10500734764E+02 -0.24930588225E+02  0.94672746343E+02  0.89653330000E+02 0.  0.
         11    1    3    3    0    0  0.36279249358E+02  0.31962781128E+02  0.84860142148E+01  0.49089874200E+02  0.51100000000E-03 0. -1.
         22    1    1    0    0    0 -0.13907180167E+02 -0.10500734764E+02  0.24930588225E+02  0.30417253657E+02  0.00000000000E+00 0. -1.
</event>
<event>
 5    1  0.1044283E-009  0.9118800E+02  0.7815553E-02  0.1125453E+00
         25   -1    0    0    0    0  0.00000000000E+00  0.00000000000E+00  0.99999998245E-14  0.12509000000E+03  0.12509000000E+03 0.  0.
        -11    1    3    3    0    0 -0.44401911132E+02  0.16667814361E+02 -0.34880627555E+00  0.47428550619E+02  0.51100000000E-03 0.  1.
         23    2    1    0    0    0 -0.13280250460E+01  0.31187687449E+02  0.59309763119E+01  0.93315608126E+02  0.87739334058E+02 0.  0.
         11    1    3    3    0    0  0.43073886086E+02  0.14519873088E+02  0.62797825875E+01  0.45887057507E+02  0.51100000000E-03 0. -1.
         22    1    1    0    0    0  0.13280250460E+01 -0.31187687449E+02 -0.59309763119E+01  0.31774391874E+02  0.00000000000E+00 0. -1.
</event>
<event>
 5    1  0.1044283E-009  0.9118800E+02  0.7815553E-02  0.1125453E+00
         25   -1    0    0    0    0  0.00000000000E+00  0.00000000000E+00  0.99999998245E-14  0.12509000000E+03  0.12509000000E+03 0.  0.
        -11    1    3    3    0    0 -0.53218767096E+02 -0.31841840241E+02 -0.47078855568E+01  0.62195692357E+02  0.51100000000E-03 0.  1.
         23    2    1    0    0    0 -0.25441706569E+02 -0.16375245950E+02  0.22827391112E+01  0.94747949790E+02  0.89758197278E+02 0.  0.
         11    1    3    3    0    0  0.27777060527E+02  0.15466594291E+02  0.69906246680E+01  0.32552257433E+02  0.51100000000E-03 0. -1.
         22    1    1    0    0    0  0.25441706569E+02  0.16375245950E+02 -0.22827391112E+01  0.30342050210E+02  0.00000000000E+00 0.  1.
</event>
<event>
 5    1  0.1044283E-009  0.9118800E+02  0.7815553E-02  0.1125453E+00
         25   -1    0    0    0    0  0.00000000000E+00  0.00000000000E+00  0.99999998245E-14  0.12509000000E+03  0.12509000000E+03 0.  0.
        -11    1    3    3    0    0  0.22655229449E+02  0.94620343916E+01  0.56703220014E+02  0.61790328341E+02  0.51100000000E-03 0. -1.
         23    2    1    0    0    0  0.42627491174E+01  0.23364078176E+01  0.28329604681E+02  0.96346368829E+02  0.91958830210E+02 0.  0.
         11    1    3    3    0    0 -0.18392480332E+02 -0.71256265740E+01 -0.28373615333E+02  0.34556040487E+02  0.51100000000E-03 0.  1.
         22    1    1    0    0    0 -0.42627491174E+01 -0.23364078176E+01 -0.28329604681E+02  0.28743631171E+02  0.00000000000E+00 0. -1.
</event>
<event>
 5    1  0.1044283E-009  0.9118800E+02  0.7815553E-02  0.1125453E+00
         25   -1    0    0    0    0  0.00000000000E+00  0.00000000000E+00  0.99999998245E-14  0.12509000000E+03  0.12509000000E+03 0.  0.
        -11    1    3    3    0    0 -0.30463615016E+02  0.13478991492E+02  0.48811890363E+02  0.59095817894E+02  0.51100000000E-03 0. -1.
         23    2    1    0    0    0 -0.21640147095E+02 -0.51901902488E+01  0.16729021101E+02  0.97249486569E+02  0.93179227566E+02 0.  0.
         11    1    3    3    0    0  0.88234679207E+01 -0.18669181741E+02 -0.32082869262E+02  0.38153668675E+02  0.51100000000E-03 0.  1.
         22    1    1    0    0    0  0.21640147095E+02  0.51901902488E+01 -0.16729021101E+02  0.27840513431E+02  0.00000000000E+00 0. -1.
</event>
<event>
 5    1  0.1044283E-009  0.9118800E+02  0.7815553E-02  0.1125453E+00
         25   -1    0    0    0    0  0.00000000000E+00  0.00000000000E+00  0.99999998245E-14  0.12509000000E+03  0.12509000000E+03 0.  0.
        -11    1    3    3    0    0  0.11424984845E+02  0.47655360495E+02  0.18223037195E+02  0.52284249516E+02  0.51100000000E-03 0. -1.
         23    2    1    0    0    0 -0.80028993801E+01  0.15428803475E+02  0.28870521125E+02  0.91391315082E+02  0.84951580958E+02 0.  0.
         11    1    3    3    0    0 -0.19427884225E+02 -0.32226557020E+02  0.10647483930E+02  0.39107065565E+02  0.51100000000E-03 0.  1.
         22    1    1    0    0    0  0.80028993801E+01 -0.15428803475E+02 -0.28870521125E+02  0.33698684918E+02  0.00000000000E+00 0.  1.
</event>
<event>
 5    1  0.1044283E-009  0.9118800E+02  0.7815553E-02  0.1125453E+00
         25   -1    0    0    0    0  0.00000000000E+00  0.00000000000E+00  0.99999998245E-14  0.12509000000E+03  0.12509000000E+03 0.  0.
        -11    1    3    3    0    0 -0.25712992177E+02  0.22735086239E+02  0.36931207198E+02  0.50417816081E+02  0.51100000000E-03 0.  1.
         23    2    1    0    0    0  0.10282734177E+02 -0.31488514886E+01  0.27244907325E+02  0.95799474859E+02  0.91211866116E+02 0.  0.
         11    1    3    3    0    0  0.35995726354E+02 -0.25883937728E+02 -0.96862998728E+01  0.45381658779E+02  0.51100000000E-03 0. -1.
         22    1    1    0    0    0 -0.10282734177E+02  0.31488514886E+01 -0.27244907325E+02  0.29290525141E+02  0.00000000000E+00 0.  1.
</event>
<event>
 5    1  0.1044283E-009  0.9118800E+02  0.7815553E-02  0.1125453E+00
         25   -1    0    0    0    0  0.00000000000E+00  0.00000000000E+00  0.99999998245E-14  0.12509000000E+03  0.12509000000E+03 0.  0.
        -11    1    3    3    0    0 -0.77472169003E+01 -0.23565081366E+02 -0.37909546231E+02  0.45304151302E+02  0.51100000000E-03 0. -1.
         23    2    1    0    0    0  0.17462158818E+02 -0.22400309650E+02  0.61036791235E+01  0.96039083287E+02  0.91539880690E+02 0.  0.
         11    1    3    3    0    0  0.25209375718E+02  0.11647717156E+01  0.44013225354E+02  0.50734931986E+02  0.51100000000E-03 0.  1.
         22    1    1    0    0    0 -0.17462158818E+02  0.22400309650E+02 -0.61036791235E+01  0.29050916713E+02  0.00000000000E+00 0. -1.
</event>
<event>
 5    1  0.1044283E-009  0.9118800E+02  0.7815553E-02  0.1125453E+00
         25   -1    0    0    0    0  0.00000000000E+00  0.00000000000E+00  0.99999998245E-14  0.12509000000E+03  0.12509000000E+03 0.  0.
        -11    1    3    3    0    0 -0.14920639476E+02  0.92687316329E+01 -0.27306607589E+02  0.32468225802E+02  0.51100000000E-03 0. -1.
         23    2    1    0    0    0 -0.15763126268E+02  0.11770965763E+02  0.29661429913E+02  0.89497413563E+02  0.82115496864E+02 0.  0.
         11    1    3    3    0    0 -0.84248679282E+00  0.25022341299E+01  0.56968037502E+02  0.57029187762E+02  0.51100000000E-03 0.  1.
         22    1    1    0    0    0  0.15763126268E+02 -0.11770965763E+02 -0.29661429913E+02  0.35592586437E+02  0.00000000000E+00 0.  1.
</event>
<event>
 5    1  0.1044283E-009  0.9118800E+02  0.7815553E-02  0.1125453E+00
         25   -1    0    0    0    0  0.00000000000E+00  0.00000000000E+00  0.99999998245E-14  0.12509000000E+03  0.12509000000E+03 0.  0.
        -11    1    3    3    0    0 -0.11980692407E+02  0.21333095370E+02 -0.39095918535E+02  0.46120806530E+02  0.51100000000E-03 0.  1.
         23    2    1    0    0    0 -0.10423336662E+02 -0.22215687824E+02 -0.96093064046E+01  0.98736224137E+02  0.95154193047E+02 0.  0.
         11    1    3    3    0    0  0.15573557451E+01 -0.43548783195E+02  0.29486612131E+02  0.52615417606E+02  0.51100000000E-03 0. -1.
         22    1    1    0    0    0  0.10423336662E+02  0.22215687824E+02  0.96093064046E+01  0.26353775863E+02  0.00000000000E+00 0. -1.
</event>
<event>
 5    1  0.1044283E-009  0.9118800E+02  0.7815553E-02  0.1125453E+00
         25   -1    0    0    0    0  0.00000000000E+00  0.00000000000E+00  0.99999998245E-14  0.12509000000E+03  0.12509000000E+03 0.  0.
        -11    1    3    3    0    0 -0.16671030199E+01 -0.12689790748E+02 -0.31964023106E+02  0.34431218321E+02  0.51100000000E-03 0.  1.
         23    2    1    0    0    0 -0.51349560007E+01  0.34945948285E+01  0.27882302761E+02  0.96524237742E+02  0.92200464740E+02 0.  0.
         11    1    3    3    0    0 -0.34678529808E+01  0.16184385576E+02  0.59846325867E+02  0.62093019421E+02  0.51100000000E-03 0. -1.
         22    1    1    0    0    0  0.51349560007E+01 -0.34945948285E+01 -0.27882302761E+02  0.28565762258E+02  0.00000000000E+00 0. -1.
</event>
<event>
 5    1  0.1044283E-009  0.9118800E+02  0.7815553E-02  0.1125453E+00
         25   -1    0    0    0    0  0.00000000000E+00  0.00000000000E+00  0.99999998245E-14  0.12509000000E+03  0.12509000000E+03 0.  0.
        -11    1    3    3    0    0 -0.41359983776E+01 -0.41363302959E+02 -0.16939460405E+02  0.44888468824E+02  0.51100000000E-03 0.  1.
         23    2    1    0    0    0  0.90458100110E+01  0.53253128316E+01 -0.28463872381E+02  0.94752273216E+02  0.89764222345E+02 0.  0.
         11    1    3    3    0    0  0.13181808389E+02  0.46688615791E+02 -0.11524411976E+02  0.49863804393E+02  0.51100000000E-03 0. -1.
         22    1    1    0    0    0 -0.90458100110E+01 -0.53253128316E+01  0.28463872381E+02  0.30337726784E+02  0.00000000000E+00 0. -1.
</event>
<event>
 5    1  0.1044283E-009  0.9118800E+02  0.7815553E-02  0.1125453E+00
         25   -1    0    0    0    0  0.00000000000E+00  0.00000000000E+00  0.99999998245E-14  0.12509000000E+03  0.12509000000E+03 0.  0.
        -11    1    3    3    0    0  0.10572178998E+02  0.27347403505E+02 -0.24522559218E+02  0.38223125959E+02  0.51100000000E-03 0. -1.
         23    2    1    0    0    0 -0.16167511304E+02  0.14691760114E+02  0.22469195649E+02  0.93751509447E+02  0.88358613239E+02 0.  0.
         11    1    3    3    0    0 -0.26739690301E+02 -0.12655643391E+02  0.46991754867E+02  0.55528383488E+02  0.51100000000E-03 0.  1.
         22    1    1    0    0    0  0.16167511304E+02 -0.14691760114E+02 -0.22469195649E+02  0.31338490553E+02  0.00000000000E+00 0.  1.
</event>
<event>
 5    1  0.1044283E-009  0.9118800E+02  0.7815553E-02  0.1125453E+00
         25   -1    0    0    0    0  0.00000000000E+00  0.00000000000E+00  0.99999998245E-14  0.12509000000E+03  0.12509000000E+03 0.  0.
        -11    1    3    3    0    0  0.23094508302E+02  0.33099029111E+02 -0.15409038386E+02  0.43201163249E+02  0.51100000000E-03 0.  1.
         23    2    1    0    0    0  0.23630045746E+02 -0.13673686869E+02  0.94842814488E+01  0.96188436562E+02  0.91743746158E+02 0.  0.
         11    1    3    3    0    0  0.53553744386E+00 -0.46772715981E+02  0.24893319834E+02  0.52987273313E+02  0.51100000000E-03 0. -1.
         22    1    1    0    0    0 -0.23630045746E+02  0.13673686869E+02 -0.94842814488E+01  0.28901563438E+02  0.00000000000E+00 0. -1.
</event>
<event>
 5    1  0.1044283E-009  0.9118800E+02  0.7815553E-02  0.1125453E+00
         25   -1    0    0    0    0  0.00000000000E+00  0.00000000000E+00  0.99999998245E-14  0.12509000000E+03  0.12509000000E+03 0.  0.
        -11    1    3    3    0    0  0.24602737344E+02 -0.16678275704E+02  0.27408461774E+02  0.40431217424E+02  0.51100000000E-03 0.  1.
         23    2    1    0    0    0  0.14890592777E+02  0.25220475175E+02 -0.63669422070E+01  0.95117678195E+02  0.90271992506E+02 0.  0.
         11    1    3    3    0    0 -0.97121445679E+01  0.41898750879E+02 -0.33775403981E+02  0.54686460771E+02  0.51100000000E-03 0. -1.
         22    1    1    0    0    0 -0.14890592777E+02 -0.25220475175E+02  0.63669422070E+01  0.29972321805E+02  0.00000000000E+00 0. -1.
</event>
<event>
 5    1  0.1044283E-009  0.9118800E+02  0.7815553E-02  0.1125453E+00
         25   -1    0    0    0    0  0.00000000000E+00  0.00000000000E+00  0.99999998245E-14  0.12509000000E+03  0.12509000000E+03 0.  0.
        -11    1    3    3    0    0 -0.96386425362E+01 -0.45697890212E+01 -0.34430163616E+02  0.36044730107E+02  0.51100000000E-03 0.  1.
         23    2    1    0    0    0  0.66194388934E+01 -0.16600263687E+02  0.22439315323E+02  0.96403616507E+02  0.92036670288E+02 0.  0.
         11    1    3    3    0    0  0.16258081430E+02 -0.12030474666E+02  0.56869478938E+02  0.60358886400E+02  0.51100000000E-03 0. -1.
         22    1    1    0    0    0 -0.66194388934E+01  0.16600263687E+02 -0.22439315323E+02  0.28686383493E+02  0.00000000000E+00 0. -1.
</event>
<event>
 5    1  0.1044283E-009  0.9118800E+02  0.7815553E-02  0.1125453E+00
         25   -1    0    0    0    0  0.00000000000E+00  0.00000000000E+00  0.99999998245E-14  0.12509000000E+03  0.12509000000E+03 0.  0.
        -11    1    3    3    0    0 -0.15710569067E+02  0.31810878282E+02  0.26519659566E+02  0.44294991831E+02  0.51100000000E-03 0.  1.
         23    2    1    0    0    0 -0.24813136992E+02  0.63341149301E+01 -0.16146765204E+02  0.94815740209E+02  0.89852622586E+02 0.  0.
         11    1    3    3    0    0 -0.91025679247E+01 -0.25476763352E+02 -0.42666424771E+02  0.50520748378E+02  0.51100000000E-03 0. -1.
         22    1    1    0    0    0  0.24813136992E+02 -0.63341149301E+01  0.16146765204E+02  0.30274259791E+02  0.00000000000E+00 0.  1.
</event>
<event>
 5    1  0.1044283E-009  0.9118800E+02  0.7815553E-02  0.1125453E+00
         25   -1    0    0    0    0  0.00000000000E+00  0.00000000000E+00  0.99999998245E-14  0.12509000000E+03  0.12509000000E+03 0.  0.
        -11    1    3    3    0    0 -0.89907024352E+01  0.31833974656E+02  0.19372989921E+02  0.38334676358E+02  0.51100000000E-03 0. -1.
         23    2    1    0    0    0 -0.46606280428E+00 -0.26046913425E+02  0.54096104040E+01  0.98483181358E+02  0.94820958718E+02 0.  0.
         11    1    3    3    0    0  0.85246396309E+01 -0.57880888082E+02 -0.13963379517E+02  0.60148505000E+02  0.51100000000E-03 0.  1.
         22    1    1    0    0    0  0.46606280428E+00  0.26046913425E+02 -0.54096104040E+01  0.26606818642E+02  0.00000000000E+00 0.  1.
</event>
<event>
 5    1  0.1044283E-009  0.9118800E+02  0.7815553E-02  0.1125453E+00
         25   -1    0    0    0    0  0.00000000000E+00  0.00000000000E+00  0.99999998245E-14  0.12509000000E+03  0.12509000000E+03 0.  0.
        -11    1    3    3    0    0  0.31095606572E+01 -0.27402602286E+02  0.39994105928E+02  0.48580865459E+02  0.51100000000E-03 0. -1.
         23    2    1    0    0    0  0.11341055537E+02  0.15322665844E+02  0.22811613478E+02  0.95361674471E+02  0.90609467602E+02 0.  0.
         11    1    3    3    0    0  0.82314948800E+01  0.42725268130E+02 -0.17182492449E+02  0.46780809012E+02  0.51100000000E-03 0.  1.
         22    1    1    0    0    0 -0.11341055537E+02 -0.15322665844E+02 -0.22811613478E+02  0.29728325529E+02  0.00000000000E+00 0. -1.
</event>
<event>
 5    1  0.1044283E-009  0.9118800E+02  0.7815553E-02  0.1125453E+00
         25   -1    0    0    0    0  0.00000000000E+00  0.00000000000E+00  0.99999998245E-14  0.12509000000E+03  0.12509000000E+03 0.  0.
        -11    1    3    3    0    0 -0.17870214704E+02 -0.16295991891E+02 -0.53466598653E+02  0.58682033852E+02  0.51100000000E-03 0.  1.
         23    2    1    0    0    0 -0.98634773438E+00  0.48401884053E+01 -0.30571611570E+02  0.94121891571E+02  0.88881419505E+02 0.  0.
         11    1    3    3    0    0  0.16883866969E+02  0.21136180296E+02  0.22894987083E+02  0.35439857719E+02  0.51100000000E-03 0. -1.
         22    1    1    0    0    0  0.98634773438E+00 -0.48401884053E+01  0.30571611570E+02  0.30968108429E+02  0.00000000000E+00 0.  1.
</event>
<event>
 5    1  0.1044283E-009  0.9118800E+02  0.7815553E-02  0.1125453E+00
         25   -1    0    0    0    0  0.00000000000E+00  0.00000000000E+00  0.99999998245E-14  0.12509000000E+03  0.12509000000E+03 0.  0.
        -11    1    3    3    0    0 -0.34708252605E+02  0.16511332546E+02  0.13173040925E+02  0.40630233925E+02  0.51100000000E-03 0.  1.
         23    2    1    0    0    0  0.22458268590E+01  0.73548133651E+01 -0.27614270527E+02  0.96424952387E+02  0.92065664003E+02 0.  0.
         11    1    3    3    0    0  0.36954079464E+02 -0.91565191808E+01 -0.40787311452E+02  0.55794718462E+02  0.51100000000E-03 0. -1.
         22    1    1    0    0    0 -0.22458268590E+01 -0.73548133651E+01  0.27614270527E+02  0.28665047613E+02  0.00000000000E+00 0. -1.
</event>
<event>
 5    1  0.1044283E-009  0.9118800E+02  0.7815553E-02  0.1125453E+00
         25   -1    0    0    0    0  0.00000000000E+00  0.00000000000E+00  0.99999998245E-14  0.12509000000E+03  0.12509000000E+03 0.  0.
        -11    1    3    3    0    0  0.21982871737E+02  0.31998711616E+01 -0.24150477353E+02  0.32813585326E+02  0.51100000000E-03 0.  1.
         23    2    1    0    0    0 -0.22391504521E+02 -0.14956029490E+02  0.14599323712E+02  0.94459907841E+02  0.89355870784E+02 0.  0.
         11    1    3    3    0    0 -0.44374376258E+02 -0.18155900652E+02  0.38749801065E+02  0.61646322515E+02  0.51100000000E-03 0. -1.
         22    1    1    0    0    0  0.22391504521E+02  0.14956029490E+02 -0.14599323712E+02  0.30630092159E+02  0.00000000000E+00 0. -1.
</event>
<event>
 5    1  0.1044283E-009  0.9118800E+02  0.7815553E-02  0.1125453E+00
         25   -1    0    0    0    0  0.00000000000E+00  0.00000000000E+00  0.99999998245E-14  0.12509000000E+03  0.12509000000E+03 0.  0.
        -11    1    3    3    0    0  0.14201643410E+02  0.19010684475E+02  0.35214418084E+02  0.42463490683E+02  0.51100000000E-03 0. -1.
         23    2    1    0    0    0 -0.13121978636E+02 -0.21515912248E+02  0.17307041617E+02  0.94517880467E+02  0.89436990308E+02 0.  0.
         11    1    3    3    0    0 -0.27323622046E+02 -0.40526596723E+02 -0.17907376467E+02  0.52054389784E+02  0.51100000000E-03 0.  1.
         22    1    1    0    0    0  0.13121978636E+02  0.21515912248E+02 -0.17307041617E+02  0.30572119533E+02  0.00000000000E+00 0.  1.
</event>
<event>
 5    1  0.1044283E-009  0.9118800E+02  0.7815553E-02  0.1125453E+00
         25   -1    0    0    0    0  0.00000000000E+00  0.00000000000E+00  0.99999998245E-14  0.12509000000E+03  0.12509000000E+03 0.  0.
        -11    1    3    3    0    0  0.33831960446E+02 -0.31067593795E+02  0.95863781687E+01  0.46922229044E+02  0.51100000000E-03 0.  1.
         23    2    1    0    0    0  0.23912377664E-01 -0.22227650039E+02 -0.21846370009E+02  0.93923786232E+02  0.88602171190E+02 0.  0.
         11    1    3    3    0    0 -0.33808048069E+02  0.88399437555E+01 -0.31432748178E+02  0.47001557188E+02  0.51100000000E-03 0. -1.
         22    1    1    0    0    0 -0.23912377664E-01  0.22227650039E+02  0.21846370009E+02  0.31166213768E+02  0.00000000000E+00 0. -1.
</event>
<event>
 5    1  0.1044283E-009  0.9118800E+02  0.7815553E-02  0.1125453E+00
         25   -1    0    0    0    0  0.00000000000E+00  0.00000000000E+00  0.99999998245E-14  0.12509000000E+03  0.12509000000E+03 0.  0.
        -11    1    3    3    0    0  0.22902547397E+02 -0.16113817419E+02 -0.41666301647E+02  0.50202215910E+02  0.51100000000E-03 0. -1.
         23    2    1    0    0    0 -0.14465607004E+01 -0.29085418470E+02 -0.58927504898E+01  0.95378409437E+02  0.90632567949E+02 0.  0.
         11    1    3    3    0    0 -0.24349108098E+02 -0.12971601051E+02  0.35773551157E+02  0.45176193527E+02  0.51100000000E-03 0.  1.
         22    1    1    0    0    0  0.14465607004E+01  0.29085418470E+02  0.58927504898E+01  0.29711590563E+02  0.00000000000E+00 0.  1.
</event>
<event>
 5    1  0.1044283E-009  0.9118800E+02  0.7815553E-02  0.1125453E+00
         25   -1    0    0    0    0  0.00000000000E+00  0.00000000000E+00  0.99999998245E-14  0.12509000000E+03  0.12509000000E+03 0.  0.
        -11    1    3    3    0    0  0.34416283898E+02 -0.11332276932E+02 -0.22567772413E+02  0.42687298460E+02  0.51100000000E-03 0.  1.
         23    2    1    0    0    0 -0.61723269910E+01  0.14020796287E+02 -0.30274724885E+02  0.91160082290E+02  0.84610408859E+02 0.  0.
         11    1    3    3    0    0 -0.40588610889E+02  0.25353073219E+02 -0.77069524716E+01  0.48472783830E+02  0.51100000000E-03 0. -1.
         22    1    1    0    0    0  0.61723269910E+01 -0.14020796287E+02  0.30274724885E+02  0.33929917710E+02  0.00000000000E+00 0.  1.
</event>
<event>
 5    1  0.1044283E-009  0.9118800E+02  0.7815553E-02  0.1125453E+00
         25   -1    0    0    0    0  0.00000000000E+00  0.00000000000E+00  0.99999998245E-14  0.12509000000E+03  0.12509000000E+03 0.  0.
        -11    1    3    3    0    0 -0.10911324945E+01 -0.19165297205E+02 -0.35904033560E+02  0.40713619505E+02  0.51100000000E-03 0. -1.
         23    2    1    0    0    0 -0.13356834119E+02  0.25357647580E+02 -0.57770559810E+01  0.95853213510E+02  0.91285534757E+02 0.  0.
         11    1    3    3    0    0 -0.12265701624E+02  0.44522944785E+02  0.30126977579E+02  0.55139594004E+02  0.51100000000E-03 0.  1.
         22    1    1    0    0    0  0.13356834119E+02 -0.25357647580E+02  0.57770559810E+01  0.29236786490E+02  0.00000000000E+00 0.  1.
</event>
<event>
 5    1  0.1044283E-009  0.9118800E+02  0.7815553E-02  0.1125453E+00
         25   -1    0    0    0    0  0.00000000000E+00  0.00000000000E+00  0.99999998245E-14  0.12509000000E+03  0.12509000000E+03 0.  0.
        -11    1    3    3    0    0 -0.28802583067E+02  0.27363081707E+02  0.63959192790E+01  0.40239716891E+02  0.51100000000E-03 0. -1.
         23    2    1    0    0    0 -0.14474701873E+02 -0.22942827695E+02 -0.11643358542E+02  0.95569530236E+02  0.90895967867E+02 0.  0.
         11    1    3    3    0    0  0.14327881194E+02 -0.50305909402E+02 -0.18039277821E+02  0.55329813345E+02  0.51100000000E-03 0.  1.
         22    1    1    0    0    0  0.14474701873E+02  0.22942827695E+02  0.11643358542E+02  0.29520469764E+02  0.00000000000E+00 0. -1.
</event>
<event>
 5    1  0.1044283E-009  0.9118800E+02  0.7815553E-02  0.1125453E+00
         25   -1    0    0    0    0  0.00000000000E+00  0.00000000000E+00  0.99999998245E-14  0.12509000000E+03  0.12509000000E+03 0.  0.
        -11    1    3    3    0    0 -0.24783086852E+02 -0.29527334046E+02  0.28241628549E+02  0.47787597064E+02  0.51100000000E-03 0.  1.
         23    2    1    0    0    0  0.11822666063E+02 -0.23161516095E+02 -0.60968021620E+01  0.98380408891E+02  0.94685281835E+02 0.  0.
         11    1    3    3    0    0  0.36605752914E+02  0.63658179518E+01 -0.34338430711E+02  0.50592811827E+02  0.51100000000E-03 0. -1.
         22    1    1    0    0    0 -0.11822666063E+02  0.23161516095E+02  0.60968021620E+01  0.26709591109E+02  0.00000000000E+00 0. -1.
</event>
<event>
 5    1  0.1044283E-009  0.9118800E+02  0.7815553E-02  0.1125453E+00
         25   -1    0    0    0    0  0.00000000000E+00  0.00000000000E+00  0.99999998245E-14  0.12509000000E+03  0.12509000000E+03 0.  0.
        -11    1    3    3    0    0 -0.12134461440E+02 -0.37174479296E+02  0.32210916259E+02  0.50662907456E+02  0.51100000000E-03 0.  1.
         23    2    1    0    0    0 -0.19552673244E+02  0.61054105111E+01  0.20503068279E+02  0.96107955950E+02  0.91633947419E+02 0.  0.
         11    1    3    3    0    0 -0.74182118039E+01  0.43279889807E+02 -0.11707847981E+02  0.45445048494E+02  0.51100000000E-03 0. -1.
         22    1    1    0    0    0  0.19552673244E+02 -0.61054105111E+01 -0.20503068279E+02  0.28982044050E+02  0.00000000000E+00 0. -1.
</event>
<event>
 5    1  0.1044283E-009  0.9118800E+02  0.7815553E-02  0.1125453E+00
         25   -1    0    0    0    0  0.00000000000E+00  0.00000000000E+00  0.99999998245E-14  0.12509000000E+03  0.12509000000E+03 0.  0.
        -11    1    3    3    0    0  0.10676925324E+02  0.65350841023E+01  0.52593059551E+02  0.54062315635E+02  0.51100000000E-03 0.  1.
         23    2    1    0    0    0  0.85537482558E+00 -0.19702850210E+02  0.21889661089E+02  0.95626611955E+02  0.90974489166E+02 0.  0.
         11    1    3    3    0    0 -0.98215504989E+01 -0.26237934313E+02 -0.30703398462E+02  0.41564296320E+02  0.51100000000E-03 0. -1.
         22    1    1    0    0    0 -0.85537482558E+00  0.19702850210E+02 -0.21889661089E+02  0.29463388045E+02  0.00000000000E+00 0.  1.
</event>
<event>
 5    1  0.1044283E-009  0.9118800E+02  0.7815553E-02  0.1125453E+00
         25   -1    0    0    0    0  0.00000000000E+00  0.00000000000E+00  0.99999998245E-14  0.12509000000E+03  0.12509000000E+03 0.  0.
        -11    1    3    3    0    0  0.42611442386E+02 -0.14564500961E+02  0.38325315196E+02  0.59132812343E+02  0.51100000000E-03 0.  1.
         23    2    1    0    0    0  0.30093825720E+02 -0.66320284500E+01  0.74412102882E+01  0.93388363475E+02  0.87843000143E+02 0.  0.
         11    1    3    3    0    0 -0.12517616667E+02  0.79324725106E+01 -0.30884104908E+02  0.34255551132E+02  0.51100000000E-03 0. -1.
         22    1    1    0    0    0 -0.30093825720E+02  0.66320284500E+01 -0.74412102882E+01  0.31701636525E+02  0.00000000000E+00 0.  1.
</event>
<event>
 5    1  0.1044283E-009  0.9118800E+02  0.7815553E-02  0.1125453E+00
         25   -1    0    0    0    0  0.00000000000E+00  0.00000000000E+00  0.99999998245E-14  0.12509000000E+03  0.12509000000E+03 0.  0.
        -11    1    3    3    0    0  0.21775506639E+02 -0.43045830771E+00 -0.26688249838E+02  0.34447360761E+02  0.51100000000E-03 0.  1.
         23    2    1    0    0    0 -0.27335739629E+02  0.41469365178E+01  0.97516536155E+01  0.95772181326E+02  0.91174427469E+02 0.  0.
         11    1    3    3    0    0 -0.49111246268E+02  0.45773948255E+01  0.36439903454E+02  0.61324820565E+02  0.51100000000E-03 0. -1.
         22    1    1    0    0    0  0.27335739629E+02 -0.41469365178E+01 -0.97516536155E+01  0.29317818674E+02  0.00000000000E+00 0. -1.
</event>
<event>
 5    1  0.1044283E-009  0.9118800E+02  0.7815553E-02  0.1125453E+00
         25   -1    0    0    0    0  0.00000000000E+00  0.00000000000E+00  0.99999998245E-14  0.12509000000E+03  0.12509000000E+03 0.  0.
        -11    1    3    3    0    0 -0.16021834503E+02 -0.60132528559E+02  0.40976377647E+01  0.62365140963E+02  0.51100000000E-03 0.  1.
         23    2    1    0    0    0 -0.47494286094E+01 -0.30077947888E+02  0.31332096676E+01  0.94478612836E+02  0.89382052221E+02 0.  0.
         11    1    3    3    0    0  0.11272405893E+02  0.30054580671E+02 -0.96442809716E+00  0.32113471873E+02  0.51100000000E-03 0. -1.
         22    1    1    0    0    0  0.47494286094E+01  0.30077947888E+02 -0.31332096676E+01  0.30611387164E+02  0.00000000000E+00 0.  1.
</event>
<event>
 5    1  0.1044283E-009  0.9118800E+02  0.7815553E-02  0.1125453E+00
         25   -1    0    0    0    0  0.00000000000E+00  0.00000000000E+00  0.99999998245E-14  0.12509000000E+03  0.12509000000E+03 0.  0.
        -11    1    3    3    0    0 -0.56121883443E+02  0.26841325514E+02  0.59781288930E+01  0.62496884577E+02  0.51100000000E-03 0.  1.
         23    2    1    0    0    0 -0.26231331051E+02  0.11312980671E+02  0.14139245934E+01  0.96488156648E+02  0.92151499880E+02 0.  0.
         11    1    3    3    0    0  0.29890552392E+02 -0.15528344843E+02 -0.45642042996E+01  0.33991272071E+02  0.51100000000E-03 0. -1.
         22    1    1    0    0    0  0.26231331051E+02 -0.11312980671E+02 -0.14139245934E+01  0.28601843352E+02  0.00000000000E+00 0.  1.
</event>
<event>
 5    1  0.1044283E-009  0.9118800E+02  0.7815553E-02  0.1125453E+00
         25   -1    0    0    0    0  0.00000000000E+00  0.00000000000E+00  0.99999998245E-14  0.12509000000E+03  0.12509000000E+03 0.  0.
        -11    1    3    3    0    0 -0.63127569475E+01 -0.53931083225E+02 -0.73061528328E+01  0.54788616588E+02  0.51100000000E-03 0.  1.
         23    2    1    0    0    0  0.15089553784E+02 -0.14885950623E+02 -0.13816423934E+02  0.99788226749E+02  0.96527252463E+02 0.  0.
         11    1    3    3    0    0  0.21402310731E+02  0.39045132602E+02 -0.65102711016E+01  0.44999610161E+02  0.51100000000E-03 0. -1.
         22    1    1    0    0    0 -0.15089553784E+02  0.14885950623E+02  0.13816423934E+02  0.25301773251E+02  0.00000000000E+00 0.  1.
</event>
<event>
 5    1  0.1044283E-009  0.9118800E+02  0.7815553E-02  0.1125453E+00
         25   -1    0    0    0    0  0.00000000000E+00  0.00000000000E+00  0.99999998245E-14  0.12509000000E+03  0.12509000000E+03 0.  0.
        -11    1    3    3    0    0  0.11211313517E+02  0.47547811087E+02 -0.20878612342E+02  0.53126305570E+02  0.51100000000E-03 0. -1.
         23    2    1    0    0    0 -0.11954936786E+02  0.11754636542E+02 -0.23929875906E+02  0.95871325242E+02  0.91310350174E+02 0.  0.
         11    1    3    3    0    0 -0.23166250302E+02 -0.35793174545E+02 -0.30512635638E+01  0.42745019671E+02  0.51100000000E-03 0.  1.
         22    1    1    0    0    0  0.11954936786E+02 -0.11754636542E+02  0.23929875906E+02  0.29218674758E+02  0.00000000000E+00 0.  1.
</event>
<event>
 5    1  0.1044283E-009  0.9118800E+02  0.7815553E-02  0.1125453E+00
         25   -1    0    0    0    0  0.00000000000E+00  0.00000000000E+00  0.99999998245E-14  0.12509000000E+03  0.12509000000E+03 0.  0.
        -11    1    3    3    0    0 -0.81933711092E+01 -0.13912837111E+02 -0.29169281296E+02  0.33339846104E+02  0.51100000000E-03 0.  1.
         23    2    1    0    0    0  0.14286030034E+02  0.27798180105E+01  0.26048812123E+02  0.95251121748E+02  0.90456716384E+02 0.  0.
         11    1    3    3    0    0  0.22479401143E+02  0.16692655121E+02  0.55218093420E+02  0.61911275644E+02  0.51100000000E-03 0. -1.
         22    1    1    0    0    0 -0.14286030034E+02 -0.27798180105E+01 -0.26048812123E+02  0.29838878252E+02  0.00000000000E+00 0. -1.
</event>
<event>
 5    1  0.1044283E-009  0.9118800E+02  0.7815553E-02  0.1125453E+00
         25   -1    0    0    0    0  0.00000000000E+00  0.00000000000E+00  0.99999998245E-14  0.12509000000E+03  0.12509000000E+03 0.  0.
        -11    1    3    3    0    0 -0.10089085394E+01 -0.15175204127E+02 -0.45889067450E+02  0.48343678268E+02  0.51100000000E-03 0.  1.
         23    2    1    0    0    0  0.62941784794E+01  0.21533114745E+02 -0.89308703907E+01  0.10094352698E+03  0.98012976079E+02 0.  0.
         11    1    3    3    0    0  0.73030870188E+01  0.36708318872E+02  0.36958197060E+02  0.52599848712E+02  0.51100000000E-03 0. -1.
         22    1    1    0    0    0 -0.62941784794E+01 -0.21533114745E+02  0.89308703907E+01  0.24146473020E+02  0.00000000000E+00 0.  1.
</event>
<event>
 5    1  0.1044283E-009  0.9118800E+02  0.7815553E-02  0.1125453E+00
         25   -1    0    0    0    0  0.00000000000E+00  0.00000000000E+00  0.99999998245E-14  0.12509000000E+03  0.12509000000E+03 0.  0.
        -11    1    3    3    0    0  0.21878659467E+02 -0.55092181009E+01  0.55760096279E+02  0.60151604812E+02  0.51100000000E-03 0.  1.
         23    2    1    0    0    0  0.42759489922E+01  0.79059244811E+01  0.28165630831E+02  0.95524984495E+02  0.90834643837E+02 0.  0.
         11    1    3    3    0    0 -0.17602710475E+02  0.13415142582E+02 -0.27594465448E+02  0.35373379683E+02  0.51100000000E-03 0. -1.
         22    1    1    0    0    0 -0.42759489922E+01 -0.79059244811E+01 -0.28165630831E+02  0.29565015505E+02  0.00000000000E+00 0.  1.
</event>
<event>
 5    1  0.1044283E-009  0.9118800E+02  0.7815553E-02  0.1125453E+00
         25   -1    0    0    0    0  0.00000000000E+00  0.00000000000E+00  0.99999998245E-14  0.12509000000E+03  0.12509000000E+03 0.  0.
        -11    1    3    3    0    0  0.17675368980E+02 -0.27294652477E+02  0.29618430046E+02  0.43984862409E+02  0.51100000000E-03 0. -1.
         23    2    1    0    0    0 -0.13699139798E+02 -0.11809444363E+02 -0.15632045992E+02  0.10118413735E+03  0.98319577812E+02 0.  0.
         11    1    3    3    0    0 -0.31374508778E+02  0.15485208114E+02 -0.45250476038E+02  0.57199274937E+02  0.51100000000E-03 0.  1.
         22    1    1    0    0    0  0.13699139798E+02  0.11809444363E+02  0.15632045992E+02  0.23905862654E+02  0.00000000000E+00 0.  1.
</event>
<event>
 5    1  0.1044283E-009  0.9118800E+02  0.7815553E-02  0.1125453E+00
         25   -1    0    0    0    0  0.00000000000E+00  0.00000000000E+00  0.99999998245E-14  0.12509000000E+03  0.12509000000E+03 0.  0.
        -11    1    3    3    0    0  0.56167471644E+02 -0.15952783249E+01  0.26498256384E+02  0.62124772639E+02  0.51100000000E-03 0. -1.
         23    2    1    0    0    0  0.25132900925E+02  0.43066769255E+01  0.12816228902E+02  0.96551151069E+02  0.92236971299E+02 0.  0.
         11    1    3    3    0    0 -0.31034570719E+02  0.59019552504E+01 -0.13682027482E+02  0.34426378430E+02  0.51100000000E-03 0.  1.
         22    1    1    0    0    0 -0.25132900925E+02 -0.43066769255E+01 -0.12816228902E+02  0.28538848931E+02  0.00000000000E+00 0. -1.
</event>
<event>
 5    1  0.1044283E-009  0.9118800E+02  0.7815553E-02  0.1125453E+00
         25   -1    0    0    0    0  0.00000000000E+00  0.00000000000E+00  0.99999998245E-14  0.12509000000E+03  0.12509000000E+03 0.  0.
        -11    1    3    3    0    0 -0.25732821202E+02  0.24659991218E+02  0.65003534939E+01  0.36229102248E+02  0.51100000000E-03 0.  1.
         23    2    1    0    0    0  0.29365151898E+02  0.62670433728E+01 -0.22855218126E+01  0.94976687519E+02  0.90076409695E+02 0.  0.
         11    1    3    3    0    0  0.55097973099E+02 -0.18392947845E+02 -0.87858753064E+01  0.58747585272E+02  0.51100000000E-03 0. -1.
         22    1    1    0    0    0 -0.29365151898E+02 -0.62670433728E+01  0.22855218126E+01  0.30113312481E+02  0.00000000000E+00 0. -1.
</event>
<event>
 5    1  0.1044283E-009  0.9118800E+02  0.7815553E-02  0.1125453E+00
         25   -1    0    0    0    0  0.00000000000E+00  0.00000000000E+00  0.99999998245E-14  0.12509000000E+03  0.12509000000E+03 0.  0.
        -11    1    3    3    0    0 -0.94844976168E+01  0.13857348379E+02  0.22115301639E+02  0.27768117797E+02  0.51100000000E-03 0.  1.
         23    2    1    0    0    0  0.12350430811E+02 -0.29652056486E+02 -0.15629864748E+02  0.89367874264E+02  0.81917926509E+02 0.  0.
         11    1    3    3    0    0  0.21834928428E+02 -0.43509404864E+02 -0.37745166386E+02  0.61599756468E+02  0.51100000000E-03 0. -1.
         22    1    1    0    0    0 -0.12350430811E+02  0.29652056486E+02  0.15629864748E+02  0.35722125736E+02  0.00000000000E+00 0. -1.
</event>
<event>
 5    1  0.1044283E-009  0.9118800E+02  0.7815553E-02  0.1125453E+00
         25   -1    0    0    0    0  0.00000000000E+00  0.00000000000E+00  0.99999998245E-14  0.12509000000E+03  0.12509000000E+03 0.  0.
        -11    1    3    3    0    0  0.32516275175E+01 -0.19307786510E+02  0.52414951577E+02  0.55952576800E+02  0.51100000000E-03 0.  1.
         23    2    1    0    0    0 -0.60337619447E+01 -0.26301407489E+02  0.17071222488E+02  0.93158871671E+02  0.87515589552E+02 0.  0.
         11    1    3    3    0    0 -0.92853894622E+01 -0.69936209791E+01 -0.35343729089E+02  0.37206294871E+02  0.51100000000E-03 0. -1.
         22    1    1    0    0    0  0.60337619447E+01  0.26301407489E+02 -0.17071222488E+02  0.31931128329E+02  0.00000000000E+00 0.  1.
</event>
<event>
 5    1  0.1044283E-009  0.9118800E+02  0.7815553E-02  0.1125453E+00
         25   -1    0    0    0    0  0.00000000000E+00  0.00000000000E+00  0.99999998245E-14  0.12509000000E+03  0.12509000000E+03 0.  0.
        -11    1    3    3    0    0  0.19324489115E+01 -0.14893610816E+02 -0.51397390205E+02  0.53546668636E+02  0.51100000000E-03 0.  1.
         23    2    1    0    0    0  0.13488428990E+02  0.13494842629E+02 -0.21062502697E+02  0.96670332267E+02  0.92398461170E+02 0.  0.
         11    1    3    3    0    0  0.11555980078E+02  0.28388453445E+02  0.30334887507E+02  0.43123663631E+02  0.51100000000E-03 0. -1.
         22    1    1    0    0    0 -0.13488428990E+02 -0.13494842629E+02  0.21062502697E+02  0.28419667733E+02  0.00000000000E+00 0.  1.
</event>
<event>
 5    1  0.1044283E-009  0.9118800E+02  0.7815553E-02  0.1125453E+00
         25   -1    0    0    0    0  0.00000000000E+00  0.00000000000E+00  0.99999998245E-14  0.12509000000E+03  0.12509000000E+03 0.  0.
        -11    1    3    3    0    0 -0.28618192847E+02 -0.15104757927E+02  0.17319395370E+02  0.36703080662E+02  0.51100000000E-03 0. -1.
         23    2    1    0    0    0  0.25155419281E+02 -0.20654218574E+02  0.48425563502E+01  0.92183432022E+02  0.86110062845E+02 0.  0.
         11    1    3    3    0    0  0.53773612128E+02 -0.55494606464E+01 -0.12476839020E+02  0.55480351359E+02  0.51100000000E-03 0.  1.
         22    1    1    0    0    0 -0.25155419281E+02  0.20654218574E+02 -0.48425563502E+01  0.32906567978E+02  0.00000000000E+00 0. -1.
</event>
<event>
 5    1  0.1044283E-009  0.9118800E+02  0.7815553E-02  0.1125453E+00
         25   -1    0    0    0    0  0.00000000000E+00  0.00000000000E+00  0.99999998245E-14  0.12509000000E+03  0.12509000000E+03 0.  0.
        -11    1    3    3    0    0 -0.51198584980E+02 -0.26509639861E+02 -0.20650304808E+02  0.61241254057E+02  0.51100000000E-03 0.  1.
         23    2    1    0    0    0 -0.23514236070E+02 -0.59994411201E+01 -0.16035347846E+02  0.96003147777E+02  0.91490761341E+02 0.  0.
         11    1    3    3    0    0  0.27684348910E+02  0.20510198741E+02  0.46149569620E+01  0.34761893720E+02  0.51100000000E-03 0. -1.
         22    1    1    0    0    0  0.23514236070E+02  0.59994411201E+01  0.16035347846E+02  0.29086852223E+02  0.00000000000E+00 0.  1.
</event>
<event>
 5    1  0.1044283E-009  0.9118800E+02  0.7815553E-02  0.1125453E+00
         25   -1    0    0    0    0  0.00000000000E+00  0.00000000000E+00  0.99999998245E-14  0.12509000000E+03  0.12509000000E+03 0.  0.
        -11    1    3    3    0    0 -0.85078131931E+01  0.11171072832E+02 -0.42049823025E+02  0.44332418953E+02  0.51100000000E-03 0.  1.
         23    2    1    0    0    0 -0.16499919289E+02 -0.23887837250E+02 -0.56217858168E+01  0.95518382175E+02  0.90825551210E+02 0.  0.
         11    1    3    3    0    0 -0.79921060963E+01 -0.35058910081E+02  0.36428037208E+02  0.51185963222E+02  0.51100000000E-03 0. -1.
         22    1    1    0    0    0  0.16499919289E+02  0.23887837250E+02  0.56217858168E+01  0.29571617825E+02  0.00000000000E+00 0. -1.
</event>
<event>
 5    1  0.1044283E-009  0.9118800E+02  0.7815553E-02  0.1125453E+00
         25   -1    0    0    0    0  0.00000000000E+00  0.00000000000E+00  0.99999998245E-14  0.12509000000E+03  0.12509000000E+03 0.  0.
        -11    1    3    3    0    0  0.30916901968E+02 -0.10192024464E+02  0.36498282939E+02  0.48906613538E+02  0.51100000000E-03 0. -1.
         23    2    1    0    0    0 -0.10111056357E+02 -0.21962747814E+02  0.12569342976E+02  0.97839603029E+02  0.93968099831E+02 0.  0.
         11    1    3    3    0    0 -0.41027958325E+02 -0.11770723350E+02 -0.23928939964E+02  0.48932989491E+02  0.51100000000E-03 0.  1.
         22    1    1    0    0    0  0.10111056357E+02  0.21962747814E+02 -0.12569342976E+02  0.27250396971E+02  0.00000000000E+00 0. -1.
</event>
<event>
 5    1  0.1044283E-009  0.9118800E+02  0.7815553E-02  0.1125453E+00
         25   -1    0    0    0    0  0.00000000000E+00  0.00000000000E+00  0.99999998245E-14  0.12509000000E+03  0.12509000000E+03 0.  0.
        -11    1    3    3    0    0  0.26472435856E+02  0.20698988744E+01 -0.42374170114E+02  0.50006445931E+02  0.51100000000E-03 0.  1.
         23    2    1    0    0    0 -0.63579150099E+01  0.22368371028E+02 -0.18312417443E+02  0.95490815242E+02  0.90787576558E+02 0.  0.
         11    1    3    3    0    0 -0.32830350866E+02  0.20298472154E+02  0.24061752671E+02  0.45484369311E+02  0.51100000000E-03 0. -1.
         22    1    1    0    0    0  0.63579150099E+01 -0.22368371028E+02  0.18312417443E+02  0.29599184758E+02  0.00000000000E+00 0.  1.
</event>
<event>
 5    1  0.1044283E-009  0.9118800E+02  0.7815553E-02  0.1125453E+00
         25   -1    0    0    0    0  0.00000000000E+00  0.00000000000E+00  0.99999998245E-14  0.12509000000E+03  0.12509000000E+03 0.  0.
        -11    1    3    3    0    0 -0.50116388130E+02  0.92548311946E+01  0.17343658596E+02  0.53834066848E+02  0.51100000000E-03 0.  1.
         23    2    1    0    0    0 -0.19400830889E+02  0.33011900278E+01 -0.16123843391E+02  0.99648529514E+02  0.96346048252E+02 0.  0.
         11    1    3    3    0    0  0.30715557241E+02 -0.59536411668E+01 -0.33467501988E+02  0.45814462666E+02  0.51100000000E-03 0. -1.
         22    1    1    0    0    0  0.19400830889E+02 -0.33011900278E+01  0.16123843391E+02  0.25441470486E+02  0.00000000000E+00 0.  1.
</event>
<event>
 5    1  0.1044283E-009  0.9118800E+02  0.7815553E-02  0.1125453E+00
         25   -1    0    0    0    0  0.00000000000E+00  0.00000000000E+00  0.99999998245E-14  0.12509000000E+03  0.12509000000E+03 0.  0.
        -11    1    3    3    0    0  0.46071863226E+02  0.31131079894E+02 -0.15332197098E+02  0.57678739451E+02  0.51100000000E-03 0. -1.
         23    2    1    0    0    0  0.28915297931E+02 -0.10845509320E+00 -0.81372717438E+00  0.96163051166E+02  0.91709127357E+02 0.  0.
         11    1    3    3    0    0 -0.17156565295E+02 -0.31239534987E+02  0.14518469924E+02  0.38484311715E+02  0.51100000000E-03 0.  1.
         22    1    1    0    0    0 -0.28915297931E+02  0.10845509320E+00  0.81372717438E+00  0.28926948834E+02  0.00000000000E+00 0. -1.
</event>
<event>
 5    1  0.1044283E-009  0.9118800E+02  0.7815553E-02  0.1125453E+00
         25   -1    0    0    0    0  0.00000000000E+00  0.00000000000E+00  0.99999998245E-14  0.12509000000E+03  0.12509000000E+03 0.  0.
        -11    1    3    3    0    0 -0.26216308105E+02  0.67608759236E+01  0.45877110398E+02  0.53270193473E+02  0.51100000000E-03 0. -1.
         23    2    1    0    0    0 -0.18772296721E+02 -0.17988482962E+02  0.10574113060E+02  0.97022287046E+02  0.92873718959E+02 0.  0.
         11    1    3    3    0    0  0.74440113844E+01 -0.24749358885E+02 -0.35302997338E+02  0.43752093573E+02  0.51100000000E-03 0.  1.
         22    1    1    0    0    0  0.18772296721E+02  0.17988482962E+02 -0.10574113060E+02  0.28067712954E+02  0.00000000000E+00 0. -1.
</event>
<event>
 5    1  0.1044283E-009  0.9118800E+02  0.7815553E-02  0.1125453E+00
         25   -1    0    0    0    0  0.00000000000E+00  0.00000000000E+00  0.99999998245E-14  0.12509000000E+03  0.12509000000E+03 0.  0.
        -11    1    3    3    0    0  0.48983054250E+01 -0.34452000608E+02  0.50700431907E+02  0.61493638189E+02  0.51100000000E-03 0. -1.
         23    2    1    0    0    0 -0.57460541559E+00 -0.97305964712E+01  0.27789456213E+02  0.95640576310E+02  0.90993688139E+02 0.  0.
         11    1    3    3    0    0 -0.54729108406E+01  0.24721404137E+02 -0.22910975694E+02  0.34146938121E+02  0.51100000000E-03 0.  1.
         22    1    1    0    0    0  0.57460541559E+00  0.97305964712E+01 -0.27789456213E+02  0.29449423690E+02  0.00000000000E+00 0. -1.
</event>
<event>
 5    1  0.1044283E-009  0.9118800E+02  0.7815553E-02  0.1125453E+00
         25   -1    0    0    0    0  0.00000000000E+00  0.00000000000E+00  0.99999998245E-14  0.12509000000E+03  0.12509000000E+03 0.  0.
        -11    1    3    3    0    0  0.21277616873E+01 -0.22541919809E+01  0.49370854339E+02  0.49468070608E+02  0.51100000000E-03 0. -1.
         23    2    1    0    0    0  0.26240990526E+02  0.58697120586E+01  0.98873129815E+01  0.96440356696E+02  0.92086591522E+02 0.  0.
         11    1    3    3    0    0  0.24113228839E+02  0.81239040395E+01 -0.39483541358E+02  0.46972286088E+02  0.51100000000E-03 0.  1.
         22    1    1    0    0    0 -0.26240990526E+02 -0.58697120586E+01 -0.98873129815E+01  0.28649643304E+02  0.00000000000E+00 0. -1.
</event>
<event>
 5    1  0.1044283E-009  0.9118800E+02  0.7815553E-02  0.1125453E+00
         25   -1    0    0    0    0  0.00000000000E+00  0.00000000000E+00  0.99999998245E-14  0.12509000000E+03  0.12509000000E+03 0.  0.
        -11    1    3    3    0    0  0.41286834000E+02 -0.57817417976E+01  0.21640825725E+02  0.46971869648E+02  0.51100000000E-03 0. -1.
         23    2    1    0    0    0 -0.11504380656E+01 -0.27185960294E+02  0.11376773987E+02  0.95597103716E+02  0.90933906260E+02 0.  0.
         11    1    3    3    0    0 -0.42437272065E+02 -0.21404218497E+02 -0.10264051738E+02  0.48625234068E+02  0.51100000000E-03 0.  1.
         22    1    1    0    0    0  0.11504380656E+01  0.27185960294E+02 -0.11376773987E+02  0.29492896284E+02  0.00000000000E+00 0.  1.
</event>
<event>
 5    1  0.1044283E-009  0.9118800E+02  0.7815553E-02  0.1125453E+00
         25   -1    0    0    0    0  0.00000000000E+00  0.00000000000E+00  0.99999998245E-14  0.12509000000E+03  0.12509000000E+03 0.  0.
        -11    1    3    3    0    0  0.80087251847E+01 -0.90526460958E-01  0.40869993855E+02  0.41647380134E+02  0.51100000000E-03 0. -1.
         23    2    1    0    0    0 -0.19651983657E+02 -0.25205520940E+02  0.63724220813E+01  0.92499717542E+02  0.86568303868E+02 0.  0.
         11    1    3    3    0    0 -0.27660708841E+02 -0.25114994479E+02 -0.34497571773E+02  0.50852337408E+02  0.51100000000E-03 0.  1.
         22    1    1    0    0    0  0.19651983657E+02  0.25205520940E+02 -0.63724220813E+01  0.32590282458E+02  0.00000000000E+00 0.  1.
</event>
<event>
 5    1  0.1044283E-009  0.9118800E+02  0.7815553E-02  0.1125453E+00
         25   -1    0    0    0    0  0.00000000000E+00  0.00000000000E+00  0.99999998245E-14  0.12509000000E+03  0.12509000000E+03 0.  0.
        -11    1    3    3    0    0 -0.31253471274E+02  0.31348586588E+02  0.20763975331E+02  0.48894335250E+02  0.51100000000E-03 0.  1.
         23    2    1    0    0    0 -0.25550972225E+02 -0.12548029731E+02  0.12835017657E+02  0.93864322905E+02  0.88518180079E+02 0.  0.
         11    1    3    3    0    0  0.57024990486E+01 -0.43896616319E+02 -0.79289576740E+01  0.44969987655E+02  0.51100000000E-03 0. -1.
         22    1    1    0    0    0  0.25550972225E+02  0.12548029731E+02 -0.12835017657E+02  0.31225677095E+02  0.00000000000E+00 0. -1.
</event>
<event>
 5    1  0.1044283E-009  0.9118800E+02  0.7815553E-02  0.1125453E+00
         25   -1    0    0    0    0  0.00000000000E+00  0.00000000000E+00  0.99999998245E-14  0.12509000000E+03  0.12509000000E+03 0.  0.
        -11    1    3    3    0    0  0.23366224419E+02  0.26865592092E+02  0.26861644688E+02  0.44601439861E+02  0.51100000000E-03 0.  1.
         23    2    1    0    0    0  0.26478333249E+02 -0.10069977272E+02 -0.81742237310E+01  0.95605690486E+02  0.90945717578E+02 0.  0.
         11    1    3    3    0    0  0.31121088294E+01 -0.36935569364E+02 -0.35035868419E+02  0.51004250625E+02  0.51100000000E-03 0. -1.
         22    1    1    0    0    0 -0.26478333249E+02  0.10069977272E+02  0.81742237310E+01  0.29484309514E+02  0.00000000000E+00 0. -1.
</event>
<event>
 5    1  0.1044283E-009  0.9118800E+02  0.7815553E-02  0.1125453E+00
         25   -1    0    0    0    0  0.00000000000E+00  0.00000000000E+00  0.99999998245E-14  0.12509000000E+03  0.12509000000E+03 0.  0.
        -11    1    3    3    0    0  0.61447126965E+01 -0.45318155666E+02 -0.27365583604E+02  0.53295101963E+02  0.51100000000E-03 0. -1.
         23    2    1    0    0    0 -0.16617337763E+02 -0.38511469222E+02 -0.12488681501E+02  0.81326586724E+02  0.68547628454E+02 0.  0.
         11    1    3    3    0    0 -0.22762050459E+02  0.68066864440E+01  0.14876902103E+02  0.28031484761E+02  0.51100000000E-03 0.  1.
         22    1    1    0    0    0  0.16617337763E+02  0.38511469222E+02  0.12488681501E+02  0.43763413276E+02  0.00000000000E+00 0. -1.
</event>
<event>
 5    1  0.1044283E-009  0.9118800E+02  0.7815553E-02  0.1125453E+00
         25   -1    0    0    0    0  0.00000000000E+00  0.00000000000E+00  0.99999998245E-14  0.12509000000E+03  0.12509000000E+03 0.  0.
        -11    1    3    3    0    0  0.30538656654E+01  0.24578375315E+02  0.20952665654E+02  0.32441282757E+02  0.51100000000E-03 0.  1.
         23    2    1    0    0    0 -0.22687168590E+02 -0.99654021985E+01 -0.21026286670E+02  0.92591975587E+02  0.86701512977E+02 0.  0.
         11    1    3    3    0    0 -0.25741034255E+02 -0.34543777514E+02 -0.41978952324E+02  0.60150692830E+02  0.51100000000E-03 0. -1.
         22    1    1    0    0    0  0.22687168590E+02  0.99654021985E+01  0.21026286670E+02  0.32498024413E+02  0.00000000000E+00 0. -1.
</event>
<event>
 5    1  0.1044283E-009  0.9118800E+02  0.7815553E-02  0.1125453E+00
         25   -1    0    0    0    0  0.00000000000E+00  0.00000000000E+00  0.99999998245E-14  0.12509000000E+03  0.12509000000E+03 0.  0.
        -11    1    3    3    0    0 -0.10396931340E+02 -0.28230631850E+02  0.18069526777E+02  0.35093768025E+02  0.51100000000E-03 0. -1.
         23    2    1    0    0    0 -0.87201075303E+01  0.28660162249E+02 -0.99141175061E+00  0.95116210237E+02  0.90269958331E+02 0.  0.
         11    1    3    3    0    0  0.16768238099E+01  0.56890794099E+02 -0.19060938528E+02  0.60022442213E+02  0.51100000000E-03 0.  1.
         22    1    1    0    0    0  0.87201075303E+01 -0.28660162249E+02  0.99141175061E+00  0.29973789763E+02  0.00000000000E+00 0.  1.
</event>
<event>
 5    1  0.1044283E-009  0.9118800E+02  0.7815553E-02  0.1125453E+00
         25   -1    0    0    0    0  0.00000000000E+00  0.00000000000E+00  0.99999998245E-14  0.12509000000E+03  0.12509000000E+03 0.  0.
        -11    1    3    3    0    0  0.26427990740E+02  0.52249658993E+02 -0.19258458209E+02  0.61638898208E+02  0.51100000000E-03 0.  1.
         23    2    1    0    0    0  0.89204861323E+01  0.24619200821E+02 -0.15740490063E+02  0.94537698134E+02  0.89464703761E+02 0.  0.
         11    1    3    3    0    0 -0.17507504608E+02 -0.27630458172E+02  0.35179681462E+01  0.32898799925E+02  0.51100000000E-03 0. -1.
         22    1    1    0    0    0 -0.89204861323E+01 -0.24619200821E+02  0.15740490063E+02  0.30552301866E+02  0.00000000000E+00 0.  1.
</event>
<event>
 5    1  0.1044283E-009  0.9118800E+02  0.7815553E-02  0.1125453E+00
         25   -1    0    0    0    0  0.00000000000E+00  0.00000000000E+00  0.99999998245E-14  0.12509000000E+03  0.12509000000E+03 0.  0.
        -11    1    3    3    0    0  0.15109617088E+02  0.32803239085E+02  0.78493759255E+01  0.36958973548E+02  0.51100000000E-03 0. -1.
         23    2    1    0    0    0  0.15475224885E+02 -0.25044346467E+02 -0.17476214575E+01  0.95598373121E+02  0.90935652455E+02 0.  0.
         11    1    3    3    0    0  0.36560779675E+00 -0.57847585552E+02 -0.95969973830E+01  0.58639399573E+02  0.51100000000E-03 0.  1.
         22    1    1    0    0    0 -0.15475224885E+02  0.25044346467E+02  0.17476214575E+01  0.29491626879E+02  0.00000000000E+00 0.  1.
</event>
<event>
 5    1  0.1044283E-009  0.9118800E+02  0.7815553E-02  0.1125453E+00
         25   -1    0    0    0    0  0.00000000000E+00  0.00000000000E+00  0.99999998245E-14  0.12509000000E+03  0.12509000000E+03 0.  0.
        -11    1    3    3    0    0 -0.39399071519E+02 -0.24662539566E+01 -0.40992886057E+02  0.56910332565E+02  0.51100000000E-03 0. -1.
         23    2    1    0    0    0 -0.20551786497E+02  0.16829181704E+02 -0.14026909958E+02  0.95050834099E+02  0.90179318998E+02 0.  0.
         11    1    3    3    0    0  0.18847285023E+02  0.19295435660E+02  0.26965976099E+02  0.38140501534E+02  0.51100000000E-03 0.  1.
         22    1    1    0    0    0  0.20551786497E+02 -0.16829181704E+02  0.14026909958E+02  0.30039165901E+02  0.00000000000E+00 0. -1.
</event>
<event>
 5    1  0.1044283E-009  0.9118800E+02  0.7815553E-02  0.1125453E+00
         25   -1    0    0    0    0  0.00000000000E+00  0.00000000000E+00  0.99999998245E-14  0.12509000000E+03  0.12509000000E+03 0.  0.
        -11    1    3    3    0    0 -0.10407329579E+02 -0.46015386272E+01  0.39498461292E+02  0.41104928067E+02  0.51100000000E-03 0.  1.
         23    2    1    0    0    0 -0.12782765009E+02 -0.14928741081E+02 -0.17314237849E+02  0.98897458622E+02  0.95365916858E+02 0.  0.
         11    1    3    3    0    0 -0.23754354302E+01 -0.10327202454E+02 -0.56812699141E+02  0.57792530555E+02  0.51100000000E-03 0. -1.
         22    1    1    0    0    0  0.12782765009E+02  0.14928741081E+02  0.17314237849E+02  0.26192541378E+02  0.00000000000E+00 0. -1.
</event>
<event>
 5    1  0.1044283E-009  0.9118800E+02  0.7815553E-02  0.1125453E+00
         25   -1    0    0    0    0  0.00000000000E+00  0.00000000000E+00  0.99999998245E-14  0.12509000000E+03  0.12509000000E+03 0.  0.
        -11    1    3    3    0    0 -0.27592099657E+02 -0.49775819725E+02  0.21093892280E+02  0.60695209734E+02  0.51100000000E-03 0. -1.
         23    2    1    0    0    0 -0.98120593904E+01 -0.27979980882E+02  0.71308575597E+00  0.95430864292E+02  0.90704936628E+02 0.  0.
         11    1    3    3    0    0  0.17780040267E+02  0.21795838843E+02 -0.20380806524E+02  0.34735654559E+02  0.51100000000E-03 0.  1.
         22    1    1    0    0    0  0.98120593904E+01  0.27979980882E+02 -0.71308575597E+00  0.29659135708E+02  0.00000000000E+00 0. -1.
</event>
<event>
 5    1  0.1044283E-009  0.9118800E+02  0.7815553E-02  0.1125453E+00
         25   -1    0    0    0    0  0.00000000000E+00  0.00000000000E+00  0.99999998245E-14  0.12509000000E+03  0.12509000000E+03 0.  0.
        -11    1    3    3    0    0 -0.16481750992E+02  0.47426696726E+01  0.46641555301E+02  0.49694825813E+02  0.51100000000E-03 0. -1.
         23    2    1    0    0    0  0.55662402633E+01 -0.22941361989E+02  0.15385873349E+02  0.96911742083E+02  0.92724708326E+02 0.  0.
         11    1    3    3    0    0  0.22047991256E+02 -0.27684031661E+02 -0.31255681953E+02  0.47216916270E+02  0.51100000000E-03 0.  1.
         22    1    1    0    0    0 -0.55662402633E+01  0.22941361989E+02 -0.15385873349E+02  0.28178257917E+02  0.00000000000E+00 0.  1.
</event>
<event>
 5    1  0.1044283E-009  0.9118800E+02  0.7815553E-02  0.1125453E+00
         25   -1    0    0    0    0  0.00000000000E+00  0.00000000000E+00  0.99999998245E-14  0.12509000000E+03  0.12509000000E+03 0.  0.
        -11    1    3    3    0    0  0.44446560406E+02  0.70539659211E+01  0.31408876333E+02  0.54879619896E+02  0.51100000000E-03 0.  1.
         23    2    1    0    0    0  0.29556028701E+02 -0.20950014811E+01 -0.47887029269E+01  0.95075344588E+02  0.90213311706E+02 0.  0.
         11    1    3    3    0    0 -0.14890531705E+02 -0.91489674022E+01 -0.36197579260E+02  0.40195724692E+02  0.51100000000E-03 0. -1.
         22    1    1    0    0    0 -0.29556028701E+02  0.20950014811E+01  0.47887029269E+01  0.30014655412E+02  0.00000000000E+00 0. -1.
</event>
<event>
 5    1  0.1044283E-009  0.9118800E+02  0.7815553E-02  0.1125453E+00
         25   -1    0    0    0    0  0.00000000000E+00  0.00000000000E+00  0.99999998245E-14  0.12509000000E+03  0.12509000000E+03 0.  0.
        -11    1    3    3    0    0 -0.74847077165E+01 -0.20675620870E+02  0.33699502543E+02  0.40238770108E+02  0.51100000000E-03 0.  1.
         23    2    1    0    0    0 -0.74089735045E+01 -0.16913160108E+02 -0.22171587284E+02  0.96236453322E+02  0.91809192307E+02 0.  0.
         11    1    3    3    0    0  0.75734211986E-01  0.37624607617E+01 -0.55871089826E+02  0.55997683214E+02  0.51100000000E-03 0. -1.
         22    1    1    0    0    0  0.74089735045E+01  0.16913160108E+02  0.22171587284E+02  0.28853546678E+02  0.00000000000E+00 0. -1.
</event>
<event>
 5    1  0.1044283E-009  0.9118800E+02  0.7815553E-02  0.1125453E+00
         25   -1    0    0    0    0  0.00000000000E+00  0.00000000000E+00  0.99999998245E-14  0.12509000000E+03  0.12509000000E+03 0.  0.
        -11    1    3    3    0    0 -0.32020771163E+02 -0.44950983291E+01  0.34509816048E+01  0.32518378944E+02  0.51100000000E-03 0.  1.
         23    2    1    0    0    0 -0.15623542967E+02  0.36891221374E+01 -0.41247969050E+02  0.80828282142E+02  0.67632178187E+02 0.  0.
         11    1    3    3    0    0  0.16397228196E+02  0.81842204665E+01 -0.44698950654E+02  0.48309903198E+02  0.51100000000E-03 0. -1.
         22    1    1    0    0    0  0.15623542967E+02 -0.36891221374E+01  0.41247969050E+02  0.44261717858E+02  0.00000000000E+00 0. -1.
</event>
<event>
 5    1  0.1044283E-009  0.9118800E+02  0.7815553E-02  0.1125453E+00
         25   -1    0    0    0    0  0.00000000000E+00  0.00000000000E+00  0.99999998245E-14  0.12509000000E+03  0.12509000000E+03 0.  0.
        -11    1    3    3    0    0  0.15099218202E+02  0.18483535341E+02  0.28145169132E+02  0.36902276553E+02  0.51100000000E-03 0. -1.
         23    2    1    0    0    0 -0.26244941851E+02 -0.13199122870E+02  0.86785034024E+00  0.95700087078E+02  0.91075461488E+02 0.  0.
         11    1    3    3    0    0 -0.41344160054E+02 -0.31682658212E+02 -0.27277318792E+02  0.58797810526E+02  0.51100000000E-03 0.  1.
         22    1    1    0    0    0  0.26244941851E+02  0.13199122870E+02 -0.86785034024E+00  0.29389912922E+02  0.00000000000E+00 0.  1.
</event>
<event>
 5    1  0.1044283E-009  0.9118800E+02  0.7815553E-02  0.1125453E+00
         25   -1    0    0    0    0  0.00000000000E+00  0.00000000000E+00  0.99999998245E-14  0.12509000000E+03  0.12509000000E+03 0.  0.
        -11    1    3    3    0    0  0.51035124357E+02 -0.12064107623E+02  0.17611537230E+02  0.55319913726E+02  0.51100000000E-03 0.  1.
         23    2    1    0    0    0  0.18764371680E+02  0.11959148131E+02  0.19369541186E+02  0.95589118754E+02  0.90922921366E+02 0.  0.
         11    1    3    3    0    0 -0.32270752677E+02  0.24023255754E+02  0.17580039561E+01  0.40269205027E+02  0.51100000000E-03 0. -1.
         22    1    1    0    0    0 -0.18764371680E+02 -0.11959148131E+02 -0.19369541186E+02  0.29500881246E+02  0.00000000000E+00 0.  1.
</event>
<event>
 5    1  0.1044283E-009  0.9118800E+02  0.7815553E-02  0.1125453E+00
         25   -1    0    0    0    0  0.00000000000E+00  0.00000000000E+00  0.99999998245E-14  0.12509000000E+03  0.12509000000E+03 0.  0.
        -11    1    3    3    0    0 -0.10608448895E+02  0.31986668080E+02  0.52402644166E+02  0.62303476939E+02  0.51100000000E-03 0. -1.
         23    2    1    0    0    0 -0.15175541699E+01  0.14850032223E+02  0.26640244479E+02  0.94552661321E+02  0.89485622920E+02 0.  0.
         11    1    3    3    0    0  0.90908947250E+01 -0.17136635858E+02 -0.25762399687E+02  0.32249184382E+02  0.51100000000E-03 0.  1.
         22    1    1    0    0    0  0.15175541699E+01 -0.14850032223E+02 -0.26640244479E+02  0.30537338679E+02  0.00000000000E+00 0. -1.
</event>
<event>
 5    1  0.1044283E-009  0.9118800E+02  0.7815553E-02  0.1125453E+00
         25   -1    0    0    0    0  0.00000000000E+00  0.00000000000E+00  0.99999998245E-14  0.12509000000E+03  0.12509000000E+03 0.  0.
        -11    1    3    3    0    0 -0.21231538716E+02  0.24769317690E+02 -0.13251564551E+02  0.35212232226E+02  0.51100000000E-03 0.  1.
         23    2    1    0    0    0  0.84831620438E+01 -0.74899401976E+01  0.27668821610E+02  0.95196406510E+02  0.90381020578E+02 0.  0.
         11    1    3    3    0    0  0.29714700760E+02 -0.32259257887E+02  0.40920386161E+02  0.59984174284E+02  0.51100000000E-03 0. -1.
         22    1    1    0    0    0 -0.84831620438E+01  0.74899401976E+01 -0.27668821610E+02  0.29893593490E+02  0.00000000000E+00 0. -1.
</event>
<event>
 5    1  0.1044283E-009  0.9118800E+02  0.7815553E-02  0.1125453E+00
         25   -1    0    0    0    0  0.00000000000E+00  0.00000000000E+00  0.99999998245E-14  0.12509000000E+03  0.12509000000E+03 0.  0.
        -11    1    3    3    0    0 -0.75871785814E+01  0.49656787608E+02 -0.25456027372E+02  0.56314928431E+02  0.51100000000E-03 0.  1.
         23    2    1    0    0    0 -0.20903943751E+02  0.20062740685E+02 -0.26172290915E+01  0.95998105661E+02  0.91483867289E+02 0.  0.
         11    1    3    3    0    0 -0.13316765169E+02 -0.29594046923E+02  0.22838798281E+02  0.39683177229E+02  0.51100000000E-03 0. -1.
         22    1    1    0    0    0  0.20903943751E+02 -0.20062740685E+02  0.26172290915E+01  0.29091894339E+02  0.00000000000E+00 0.  1.
</event>
<event>
 5    1  0.1044283E-009  0.9118800E+02  0.7815553E-02  0.1125453E+00
         25   -1    0    0    0    0  0.00000000000E+00  0.00000000000E+00  0.99999998245E-14  0.12509000000E+03  0.12509000000E+03 0.  0.
        -11    1    3    3    0    0 -0.23156043371E+02  0.37526403934E+02 -0.17380482281E+02  0.47397410281E+02  0.51100000000E-03 0. -1.
         23    2    1    0    0    0 -0.71943262184E+01 -0.16268181817E+02  0.29091884871E+01  0.10706569843E+03  0.10553761573E+03 0.  0.
         11    1    3    3    0    0  0.15961717152E+02 -0.53794585751E+02  0.20289670768E+02  0.59668288150E+02  0.51100000000E-03 0.  1.
         22    1    1    0    0    0  0.71943262184E+01  0.16268181817E+02 -0.29091884871E+01  0.18024301569E+02  0.00000000000E+00 0.  1.
</event>
<event>
 5    1  0.1044283E-009  0.9118800E+02  0.7815553E-02  0.1125453E+00
         25   -1    0    0    0    0  0.00000000000E+00  0.00000000000E+00  0.99999998245E-14  0.12509000000E+03  0.12509000000E+03 0.  0.
        -11    1    3    3    0    0 -0.45497727132E+01 -0.15337736464E+02 -0.21065093062E+02  0.26451554540E+02  0.51100000000E-03 0.  1.
         23    2    1    0    0    0  0.18524322896E+02 -0.54859291285E+01  0.33449275410E+02  0.86462289964E+02  0.77353911363E+02 0.  0.
         11    1    3    3    0    0  0.23074095609E+02  0.98518073359E+01  0.54514368472E+02  0.60010735424E+02  0.51100000000E-03 0. -1.
         22    1    1    0    0    0 -0.18524322896E+02  0.54859291285E+01 -0.33449275410E+02  0.38627710036E+02  0.00000000000E+00 0. -1.
</event>
<event>
 5    1  0.1044283E-009  0.9118800E+02  0.7815553E-02  0.1125453E+00
         25   -1    0    0    0    0  0.00000000000E+00  0.00000000000E+00  0.99999998245E-14  0.12509000000E+03  0.12509000000E+03 0.  0.
        -11    1    3    3    0    0  0.28088149582E+02  0.40463659389E+02 -0.26957878050E+02  0.56151394170E+02  0.51100000000E-03 0.  1.
         23    2    1    0    0    0  0.27607889805E+02  0.86382753658E+01 -0.29645210862E+01  0.96010733055E+02  0.91501131663E+02 0.  0.
         11    1    3    3    0    0 -0.48025977631E+00 -0.31825384023E+02  0.23993356964E+02  0.39859338885E+02  0.51100000000E-03 0. -1.
         22    1    1    0    0    0 -0.27607889805E+02 -0.86382753658E+01  0.29645210862E+01  0.29079266945E+02  0.00000000000E+00 0.  1.
</event>
<event>
 5    1  0.1044283E-009  0.9118800E+02  0.7815553E-02  0.1125453E+00
         25   -1    0    0    0    0  0.00000000000E+00  0.00000000000E+00  0.99999998245E-14  0.12509000000E+03  0.12509000000E+03 0.  0.
        -11    1    3    3    0    0 -0.32915923231E+02 -0.19811901855E+01  0.24651169414E+02  0.41171146090E+02  0.51100000000E-03 0.  1.
         23    2    1    0    0    0  0.22749564469E+02 -0.70747586224E+01  0.11690437176E+02  0.98552079689E+02  0.94911807466E+02 0.  0.
         11    1    3    3    0    0  0.55665487699E+02 -0.50935684370E+01 -0.12960732237E+02  0.57380933598E+02  0.51100000000E-03 0. -1.
         22    1    1    0    0    0 -0.22749564469E+02  0.70747586224E+01 -0.11690437176E+02  0.26537920311E+02  0.00000000000E+00 0. -1.
</event>
<event>
 5    1  0.1044283E-009  0.9118800E+02  0.7815553E-02  0.1125453E+00
         25   -1    0    0    0    0  0.00000000000E+00  0.00000000000E+00  0.99999998245E-14  0.12509000000E+03  0.12509000000E+03 0.  0.
        -11    1    3    3    0    0 -0.20915830349E+02 -0.37322810811E+02 -0.43285590174E+00  0.42786113758E+02  0.51100000000E-03 0. -1.
         23    2    1    0    0    0  0.56472340370E+01 -0.71730801886E+01  0.30345217998E+02  0.93401254569E+02  0.87861355374E+02 0.  0.
         11    1    3    3    0    0  0.26563064386E+02  0.30149730622E+02  0.30778073899E+02  0.50615140811E+02  0.51100000000E-03 0.  1.
         22    1    1    0    0    0 -0.56472340370E+01  0.71730801886E+01 -0.30345217998E+02  0.31688745431E+02  0.00000000000E+00 0.  1.
</event>
<event>
 5    1  0.1044283E-009  0.9118800E+02  0.7815553E-02  0.1125453E+00
         25   -1    0    0    0    0  0.00000000000E+00  0.00000000000E+00  0.99999998245E-14  0.12509000000E+03  0.12509000000E+03 0.  0.
        -11    1    3    3    0    0  0.22892301035E+02 -0.32259417185E+02 -0.31322115258E+01  0.39680451019E+02  0.51100000000E-03 0.  1.
         23    2    1    0    0    0  0.15878905617E+02  0.22489869252E+02 -0.11015885009E+02  0.95437283681E+02  0.90713789091E+02 0.  0.
         11    1    3    3    0    0 -0.70133954176E+01  0.54749286437E+02 -0.78836734835E+01  0.55756832662E+02  0.51100000000E-03 0. -1.
         22    1    1    0    0    0 -0.15878905617E+02 -0.22489869252E+02  0.11015885009E+02  0.29652716319E+02  0.00000000000E+00 0. -1.
</event>
<event>
 5    1  0.1044283E-009  0.9118800E+02  0.7815553E-02  0.1125453E+00
         25   -1    0    0    0    0  0.00000000000E+00  0.00000000000E+00  0.99999998245E-14  0.12509000000E+03  0.12509000000E+03 0.  0.
        -11    1    3    3    0    0 -0.56558852918E+02  0.19945991119E+02 -0.11789813822E+02  0.61120750285E+02  0.51100000000E-03 0. -1.
         23    2    1    0    0    0 -0.30807830546E+02  0.17858344629E+02 -0.13486886037E+02  0.87011935569E+02  0.78237701529E+02 0.  0.
         11    1    3    3    0    0  0.25751022372E+02 -0.20876464895E+01 -0.16970722146E+01  0.25891185284E+02  0.51100000000E-03 0.  1.
         22    1    1    0    0    0  0.30807830546E+02 -0.17858344629E+02  0.13486886037E+02  0.38078064431E+02  0.00000000000E+00 0. -1.
</event>
<event>
 5    1  0.1044283E-009  0.9118800E+02  0.7815553E-02  0.1125453E+00
         25   -1    0    0    0    0  0.00000000000E+00  0.00000000000E+00  0.99999998245E-14  0.12509000000E+03  0.12509000000E+03 0.  0.
        -11    1    3    3    0    0 -0.38462895037E+02  0.17475562264E+02 -0.38909963081E+02  0.57434961464E+02  0.51100000000E-03 0.  1.
         23    2    1    0    0    0 -0.28788146836E+00  0.13843251139E+01 -0.23363561654E+02  0.10168369220E+03  0.98953110179E+02 0.  0.
         11    1    3    3    0    0  0.38175013569E+02 -0.16091237151E+02  0.15546401428E+02  0.44248730734E+02  0.51100000000E-03 0. -1.
         22    1    1    0    0    0  0.28788146836E+00 -0.13843251139E+01  0.23363561654E+02  0.23406307802E+02  0.00000000000E+00 0.  1.
</event>
<event>
 5    1  0.1044283E-009  0.9118800E+02  0.7815553E-02  0.1125453E+00
         25   -1    0    0    0    0  0.00000000000E+00  0.00000000000E+00  0.99999998245E-14  0.12509000000E+03  0.12509000000E+03 0.  0.
        -11    1    3    3    0    0  0.50033247050E+02  0.33366556940E+01  0.80681659056E+01  0.50789313669E+02  0.51100000000E-03 0. -1.
         23    2    1    0    0    0  0.17140883161E+02 -0.20776358491E+02 -0.11229262633E+02  0.95908442691E+02  0.91361184824E+02 0.  0.
         11    1    3    3    0    0 -0.32892363889E+02 -0.24113014184E+02 -0.19297428539E+02  0.45119129022E+02  0.51100000000E-03 0.  1.
         22    1    1    0    0    0 -0.17140883161E+02  0.20776358491E+02  0.11229262633E+02  0.29181557309E+02  0.00000000000E+00 0.  1.
</event>
<event>
 5    1  0.1044283E-009  0.9118800E+02  0.7815553E-02  0.1125453E+00
         25   -1    0    0    0    0  0.00000000000E+00  0.00000000000E+00  0.99999998245E-14  0.12509000000E+03  0.12509000000E+03 0.  0.
        -11    1    3    3    0    0 -0.34402029164E+02 -0.83400556055E+01 -0.14757741940E+02  0.38351624288E+02  0.51100000000E-03 0. -1.
         23    2    1    0    0    0 -0.35201601109E+01  0.14054498760E+02  0.26714092002E+02  0.94699817801E+02  0.89691093859E+02 0.  0.
         11    1    3    3    0    0  0.30881869053E+02  0.22394554365E+02  0.41471833942E+02  0.56348193513E+02  0.51100000000E-03 0.  1.
         22    1    1    0    0    0  0.35201601109E+01 -0.14054498760E+02 -0.26714092002E+02  0.30390182199E+02  0.00000000000E+00 0.  1.
</event>
<event>
 5    1  0.1044283E-009  0.9118800E+02  0.7815553E-02  0.1125453E+00
         25   -1    0    0    0    0  0.00000000000E+00  0.00000000000E+00  0.99999998245E-14  0.12509000000E+03  0.12509000000E+03 0.  0.
        -11    1    3    3    0    0  0.49981845394E+02  0.20617257430E+02 -0.28832303673E+02  0.61274447433E+02  0.51100000000E-03 0.  1.
         23    2    1    0    0    0  0.17493675814E+02  0.94878537033E+01 -0.20304486668E+02  0.96659026745E+02  0.92383154368E+02 0.  0.
         11    1    3    3    0    0 -0.32488169580E+02 -0.11129403726E+02  0.85278170047E+01  0.35384579312E+02  0.51100000000E-03 0. -1.
         22    1    1    0    0    0 -0.17493675814E+02 -0.94878537033E+01  0.20304486668E+02  0.28430973255E+02  0.00000000000E+00 0.  1.
</event>
<event>
 5    1  0.1044283E-009  0.9118800E+02  0.7815553E-02  0.1125453E+00
         25   -1    0    0    0    0  0.00000000000E+00  0.00000000000E+00  0.99999998245E-14  0.12509000000E+03  0.12509000000E+03 0.  0.
        -11    1    3    3    0    0  0.33499597201E+02 -0.25389568314E+02 -0.11651517075E+02  0.43618929860E+02  0.51100000000E-03 0.  1.
         23    2    1    0    0    0  0.19394006736E+02  0.22987533019E+02 -0.18311310154E+01  0.94958501326E+02  0.90051150808E+02 0.  0.
         11    1    3    3    0    0 -0.14105590465E+02  0.48377101332E+02  0.98203860592E+01  0.51339571466E+02  0.51100000000E-03 0. -1.
         22    1    1    0    0    0 -0.19394006736E+02 -0.22987533019E+02  0.18311310154E+01  0.30131498674E+02  0.00000000000E+00 0.  1.
</event>
<event>
 5    1  0.1044283E-009  0.9118800E+02  0.7815553E-02  0.1125453E+00
         25   -1    0    0    0    0  0.00000000000E+00  0.00000000000E+00  0.99999998245E-14  0.12509000000E+03  0.12509000000E+03 0.  0.
        -11    1    3    3    0    0 -0.27194771013E+02 -0.69299366065E+01  0.55460158779E+02  0.62156325534E+02  0.51100000000E-03 0.  1.
         23    2    1    0    0    0 -0.13918363449E+02 -0.78890203256E+01  0.24851645824E+02  0.95533921388E+02  0.90846950157E+02 0.  0.
         11    1    3    3    0    0  0.13276407564E+02 -0.95908371903E+00 -0.30608512955E+02  0.33377595854E+02  0.51100000000E-03 0. -1.
         22    1    1    0    0    0  0.13918363449E+02  0.78890203256E+01 -0.24851645824E+02  0.29556078612E+02  0.00000000000E+00 0.  1.
</event>
<event>
 5    1  0.1044283E-009  0.9118800E+02  0.7815553E-02  0.1125453E+00
         25   -1    0    0    0    0  0.00000000000E+00  0.00000000000E+00  0.99999998245E-14  0.12509000000E+03  0.12509000000E+03 0.  0.
        -11    1    3    3    0    0  0.88653623334E+01  0.51115745850E+02 -0.32769364523E+02  0.61361595274E+02  0.51100000000E-03 0.  1.
         23    2    1    0    0    0 -0.31778304893E-01  0.19603729396E+02 -0.21509157444E+02  0.95987576217E+02  0.91469468776E+02 0.  0.
         11    1    3    3    0    0 -0.88971406383E+01 -0.31512016454E+02  0.11260207079E+02  0.34625980943E+02  0.51100000000E-03 0. -1.
         22    1    1    0    0    0  0.31778304893E-01 -0.19603729396E+02  0.21509157444E+02  0.29102423783E+02  0.00000000000E+00 0.  1.
</event>
<event>
 5    1  0.1044283E-009  0.9118800E+02  0.7815553E-02  0.1125453E+00
         25   -1    0    0    0    0  0.00000000000E+00  0.00000000000E+00  0.99999998245E-14  0.12509000000E+03  0.12509000000E+03 0.  0.
        -11    1    3    3    0    0  0.36725176255E+01 -0.42059914070E+02 -0.45259943587E+02  0.61894961435E+02  0.51100000000E-03 0.  1.
         23    2    1    0    0    0  0.76734214708E+01 -0.21081741838E+02 -0.19424292904E+02  0.95414683813E+02  0.90682619593E+02 0.  0.
         11    1    3    3    0    0  0.40009038453E+01  0.20978172232E+02  0.25835650684E+02  0.33519722378E+02  0.51100000000E-03 0. -1.
         22    1    1    0    0    0 -0.76734214708E+01  0.21081741838E+02  0.19424292904E+02  0.29675316187E+02  0.00000000000E+00 0.  1.
</event>
<event>
 5    1  0.1044283E-009  0.9118800E+02  0.7815553E-02  0.1125453E+00
         25   -1    0    0    0    0  0.00000000000E+00  0.00000000000E+00  0.99999998245E-14  0.12509000000E+03  0.12509000000E+03 0.  0.
        -11    1    3    3    0    0 -0.24288550421E+02  0.28641640467E+02 -0.93239644780E+01  0.38693844007E+02  0.51100000000E-03 0.  1.
         23    2    1    0    0    0 -0.31365978533E+01  0.10816756432E+01  0.32134796025E+02  0.92784375353E+02  0.86978657875E+02 0.  0.
         11    1    3    3    0    0  0.21151952568E+02 -0.27559964824E+02  0.41458760503E+02  0.54090531345E+02  0.51100000000E-03 0. -1.
         22    1    1    0    0    0  0.31365978533E+01 -0.10816756432E+01 -0.32134796025E+02  0.32305624647E+02  0.00000000000E+00 0.  1.
</event>
<event>
 5    1  0.1044283E-009  0.9118800E+02  0.7815553E-02  0.1125453E+00
         25   -1    0    0    0    0  0.00000000000E+00  0.00000000000E+00  0.99999998245E-14  0.12509000000E+03  0.12509000000E+03 0.  0.
        -11    1    3    3    0    0 -0.15602794404E+02  0.83344693133E+00 -0.54966748586E+02  0.57144424727E+02  0.51100000000E-03 0. -1.
         23    2    1    0    0    0 -0.24120476773E+02 -0.23220880398E+01 -0.18839500414E+02  0.94396087436E+02  0.89266483379E+02 0.  0.
         11    1    3    3    0    0 -0.85176823689E+01 -0.31555349711E+01  0.36127248172E+02  0.37251662710E+02  0.51100000000E-03 0.  1.
         22    1    1    0    0    0  0.24120476773E+02  0.23220880398E+01  0.18839500414E+02  0.30693912564E+02  0.00000000000E+00 0. -1.
</event>
<event>
 5    1  0.1044283E-009  0.9118800E+02  0.7815553E-02  0.1125453E+00
         25   -1    0    0    0    0  0.00000000000E+00  0.00000000000E+00  0.99999998245E-14  0.12509000000E+03  0.12509000000E+03 0.  0.
        -11    1    3    3    0    0  0.33764238455E+02  0.49005001648E+01  0.23494927357E+02  0.41425237622E+02  0.51100000000E-03 0.  1.
         23    2    1    0    0    0  0.78080295075E+01  0.12635149612E+02 -0.24444667715E+02  0.96486606666E+02  0.92149395851E+02 0.  0.
         11    1    3    3    0    0 -0.25956208947E+02  0.77346494468E+01 -0.47939595073E+02  0.55061369044E+02  0.51100000000E-03 0. -1.
         22    1    1    0    0    0 -0.78080295075E+01 -0.12635149612E+02  0.24444667715E+02  0.28603393334E+02  0.00000000000E+00 0. -1.
</event>
<event>
 5    1  0.1044283E-009  0.9118800E+02  0.7815553E-02  0.1125453E+00
         25   -1    0    0    0    0  0.00000000000E+00  0.00000000000E+00  0.99999998245E-14  0.12509000000E+03  0.12509000000E+03 0.  0.
        -11    1    3    3    0    0 -0.38202121504E+02  0.13693123671E+02 -0.16342434612E+02  0.43749044476E+02  0.51100000000E-03 0. -1.
         23    2    1    0    0    0  0.12877454532E+02  0.23959702467E+02 -0.93994996278E+01  0.96310723241E+02  0.91910329345E+02 0.  0.
         11    1    3    3    0    0  0.51079576035E+02  0.10266578796E+02  0.69429349838E+01  0.52561678765E+02  0.51100000000E-03 0.  1.
         22    1    1    0    0    0 -0.12877454532E+02 -0.23959702467E+02  0.93994996278E+01  0.28779276759E+02  0.00000000000E+00 0.  1.
</event>
<event>
 5    1  0.1044283E-009  0.9118800E+02  0.7815553E-02  0.1125453E+00
         25   -1    0    0    0    0  0.00000000000E+00  0.00000000000E+00  0.99999998245E-14  0.12509000000E+03  0.12509000000E+03 0.  0.
        -11    1    3    3    0    0 -0.37691891619E+02  0.46977670668E+02 -0.81195721877E+01  0.60774235396E+02  0.51100000000E-03 0.  1.
         23    2    1    0    0    0 -0.27258097659E+02  0.17873285784E+02 -0.72154517295E+01  0.91705557869E+02  0.85413045653E+02 0.  0.
         11    1    3    3    0    0  0.10433793960E+02 -0.29104384884E+02  0.90412045815E+00  0.30931322473E+02  0.51100000000E-03 0. -1.
         22    1    1    0    0    0  0.27258097659E+02 -0.17873285784E+02  0.72154517295E+01  0.33384442131E+02  0.00000000000E+00 0.  1.
</event>
<event>
 5    1  0.1044283E-009  0.9118800E+02  0.7815553E-02  0.1125453E+00
         25   -1    0    0    0    0  0.00000000000E+00  0.00000000000E+00  0.99999998245E-14  0.12509000000E+03  0.12509000000E+03 0.  0.
        -11    1    3    3    0    0 -0.27724565263E+02  0.46057837650E+01  0.21478946687E+02  0.35372445691E+02  0.51100000000E-03 0.  1.
         23    2    1    0    0    0  0.26451328221E+02 -0.23116095527E+01 -0.78986360381E+01  0.97387928694E+02  0.93364896512E+02 0.  0.
         11    1    3    3    0    0  0.54175893484E+02 -0.69173933177E+01 -0.29377582725E+02  0.62015483003E+02  0.51100000000E-03 0. -1.
         22    1    1    0    0    0 -0.26451328221E+02  0.23116095527E+01  0.78986360381E+01  0.27702071306E+02  0.00000000000E+00 0. -1.
</event>
<event>
 5    1  0.1044283E-009  0.9118800E+02  0.7815553E-02  0.1125453E+00
         25   -1    0    0    0    0  0.00000000000E+00  0.00000000000E+00  0.99999998245E-14  0.12509000000E+03  0.12509000000E+03 0.  0.
        -11    1    3    3    0    0  0.11190181367E+02 -0.50380827934E+02 -0.55640092449E+01  0.51907669775E+02  0.51100000000E-03 0. -1.
         23    2    1    0    0    0 -0.97406631787E+01 -0.16299550206E+02 -0.22765275783E+02  0.95445208931E+02  0.90724716976E+02 0.  0.
         11    1    3    3    0    0 -0.20930844546E+02  0.34081277728E+02 -0.17201266538E+02  0.43537539156E+02  0.51100000000E-03 0.  1.
         22    1    1    0    0    0  0.97406631787E+01  0.16299550206E+02  0.22765275783E+02  0.29644791069E+02  0.00000000000E+00 0. -1.
</event>
<event>
 5    1  0.1044283E-009  0.9118800E+02  0.7815553E-02  0.1125453E+00
         25   -1    0    0    0    0  0.00000000000E+00  0.00000000000E+00  0.99999998245E-14  0.12509000000E+03  0.12509000000E+03 0.  0.
        -11    1    3    3    0    0  0.17586421202E+02 -0.40555777134E+02 -0.30565803769E+02  0.53743107744E+02  0.51100000000E-03 0.  1.
         23    2    1    0    0    0  0.18407412724E+02 -0.20679273344E+02  0.72491509227E+01  0.96471555277E+02  0.92128961783E+02 0.  0.
         11    1    3    3    0    0  0.82099152233E+00  0.19876503790E+02  0.37814954692E+02  0.42728447533E+02  0.51100000000E-03 0. -1.
         22    1    1    0    0    0 -0.18407412724E+02  0.20679273344E+02 -0.72491509227E+01  0.28618444723E+02  0.00000000000E+00 0.  1.
</event>
<event>
 5    1  0.1044283E-009  0.9118800E+02  0.7815553E-02  0.1125453E+00
         25   -1    0    0    0    0  0.00000000000E+00  0.00000000000E+00  0.99999998245E-14  0.12509000000E+03  0.12509000000E+03 0.  0.
        -11    1    3    3    0    0  0.28176265527E+02 -0.52584567430E+01  0.16286593392E+02  0.32966747352E+02  0.51100000000E-03 0.  1.
         23    2    1    0    0    0 -0.30065881372E+02 -0.17339061233E+01 -0.39306689325E+01  0.94718733787E+02  0.89717471648E+02 0.  0.
         11    1    3    3    0    0 -0.58242146899E+02  0.35245506197E+01 -0.20217262325E+02  0.61751986435E+02  0.51100000000E-03 0. -1.
         22    1    1    0    0    0  0.30065881372E+02  0.17339061233E+01  0.39306689325E+01  0.30371266213E+02  0.00000000000E+00 0. -1.
</event>
<event>
 5    1  0.1044283E-009  0.9118800E+02  0.7815553E-02  0.1125453E+00
         25   -1    0    0    0    0  0.00000000000E+00  0.00000000000E+00  0.99999998245E-14  0.12509000000E+03  0.12509000000E+03 0.  0.
        -11    1    3    3    0    0  0.23353698371E+02  0.14378408674E+02 -0.44103197416E+02  0.51934823444E+02  0.51100000000E-03 0. -1.
         23    2    1    0    0    0  0.48904079861E+01 -0.18883128099E+02 -0.20931030864E+02  0.96478871569E+02  0.92138895094E+02 0.  0.
         11    1    3    3    0    0 -0.18463290385E+02 -0.33261536773E+02  0.23172166552E+02  0.44544048124E+02  0.51100000000E-03 0.  1.
         22    1    1    0    0    0 -0.48904079861E+01  0.18883128099E+02  0.20931030864E+02  0.28611128431E+02  0.00000000000E+00 0. -1.
</event>
<event>
 5    1  0.1044283E-009  0.9118800E+02  0.7815553E-02  0.1125453E+00
         25   -1    0    0    0    0  0.00000000000E+00  0.00000000000E+00  0.99999998245E-14  0.12509000000E+03  0.12509000000E+03 0.  0.
        -11    1    3    3    0    0 -0.24150431841E+02 -0.34561370326E+02  0.12240050219E+02  0.43903878036E+02  0.51100000000E-03 0.  1.
         23    2    1    0    0    0 -0.49525595947E+01 -0.53151825829E+01 -0.27382176761E+02  0.96760463883E+02  0.92520401827E+02 0.  0.
         11    1    3    3    0    0  0.19197872247E+02  0.29246187743E+02 -0.39622226980E+02  0.52856585847E+02  0.51100000000E-03 0. -1.
         22    1    1    0    0    0  0.49525595947E+01  0.53151825829E+01  0.27382176761E+02  0.28329536117E+02  0.00000000000E+00 0. -1.
</event>
<event>
 5    1  0.1044283E-009  0.9118800E+02  0.7815553E-02  0.1125453E+00
         25   -1    0    0    0    0  0.00000000000E+00  0.00000000000E+00  0.99999998245E-14  0.12509000000E+03  0.12509000000E+03 0.  0.
        -11    1    3    3    0    0  0.89057084364E+01 -0.27872971905E+02 -0.35997676607E+01  0.29481732192E+02  0.51100000000E-03 0.  1.
         23    2    1    0    0    0 -0.27411641890E+01  0.32475479726E+02  0.67452693424E+01  0.91808332027E+02  0.85563429142E+02 0.  0.
         11    1    3    3    0    0 -0.11646872625E+02  0.60348451631E+02  0.10345037003E+02  0.62326599835E+02  0.51100000000E-03 0. -1.
         22    1    1    0    0    0  0.27411641890E+01 -0.32475479726E+02 -0.67452693424E+01  0.33281667973E+02  0.00000000000E+00 0. -1.
</event>
<event>
 5    1  0.1044283E-009  0.9118800E+02  0.7815553E-02  0.1125453E+00
         25   -1    0    0    0    0  0.00000000000E+00  0.00000000000E+00  0.99999998245E-14  0.12509000000E+03  0.12509000000E+03 0.  0.
        -11    1    3    3    0    0  0.33843095734E+01 -0.13912331278E+01 -0.60024289965E+02  0.60135717065E+02  0.51100000000E-03 0. -1.
         23    2    1    0    0    0 -0.10698836745E+02 -0.48142401865E+00 -0.25820804555E+02  0.97136273510E+02  0.93027118663E+02 0.  0.
         11    1    3    3    0    0 -0.14083146318E+02  0.90980910918E+00  0.34203485410E+02  0.37000556445E+02  0.51100000000E-03 0.  1.
         22    1    1    0    0    0  0.10698836745E+02  0.48142401865E+00  0.25820804555E+02  0.27953726490E+02  0.00000000000E+00 0. -1.
</event>
<event>
 5    1  0.1044283E-009  0.9118800E+02  0.7815553E-02  0.1125453E+00
         25   -1    0    0    0    0  0.00000000000E+00  0.00000000000E+00  0.99999998245E-14  0.12509000000E+03  0.12509000000E+03 0.  0.
        -11    1    3    3    0    0 -0.35180873660E+02 -0.36300251686E+01 -0.80873688235E+00  0.35376899381E+02  0.51100000000E-03 0. -1.
         23    2    1    0    0    0  0.11523859113E+02  0.27988818146E+02  0.10785678532E+02  0.92957397686E+02  0.87227138283E+02 0.  0.
         11    1    3    3    0    0  0.46704732773E+02  0.31618843315E+02  0.11594415414E+02  0.57580498305E+02  0.51100000000E-03 0.  1.
         22    1    1    0    0    0 -0.11523859113E+02 -0.27988818146E+02 -0.10785678532E+02  0.32132602314E+02  0.00000000000E+00 0.  1.
</event>
<event>
 5    1  0.1044283E-009  0.9118800E+02  0.7815553E-02  0.1125453E+00
         25   -1    0    0    0    0  0.00000000000E+00  0.00000000000E+00  0.99999998245E-14  0.12509000000E+03  0.12509000000E+03 0.  0.
        -11    1    3    3    0    0  0.69825788994E+00  0.38003347299E+02 -0.68489769857E+01  0.38621890891E+02  0.51100000000E-03 0. -1.
         23    2    1    0    0    0  0.13616076768E+02 -0.17424847167E+02 -0.17949992358E+02  0.96607986886E+02  0.92314018758E+02 0.  0.
         11    1    3    3    0    0  0.12917818878E+02 -0.55428194465E+02 -0.11101015373E+02  0.57986095996E+02  0.51100000000E-03 0.  1.
         22    1    1    0    0    0 -0.13616076768E+02  0.17424847167E+02  0.17949992358E+02  0.28482013114E+02  0.00000000000E+00 0.  1.
</event>
<event>
 5    1  0.1044283E-009  0.9118800E+02  0.7815553E-02  0.1125453E+00
         25   -1    0    0    0    0  0.00000000000E+00  0.00000000000E+00  0.99999998245E-14  0.12509000000E+03  0.12509000000E+03 0.  0.
        -11    1    3    3    0    0  0.38516825861E+02  0.75915098801E+01 -0.97340018231E+01  0.40446602928E+02  0.51100000000E-03 0.  1.
         23    2    1    0    0    0 -0.68361543788E+01 -0.22729961631E+02  0.11154166633E+02  0.98864066352E+02  0.95322106670E+02 0.  0.
         11    1    3    3    0    0 -0.45352980240E+02 -0.30321471511E+02  0.20888168456E+02  0.58417463424E+02  0.51100000000E-03 0. -1.
         22    1    1    0    0    0  0.68361543788E+01  0.22729961631E+02 -0.11154166633E+02  0.26225933648E+02  0.00000000000E+00 0.  1.
</event>
<event>
 5    1  0.1044283E-009  0.9118800E+02  0.7815553E-02  0.1125453E+00
         25   -1    0    0    0    0  0.00000000000E+00  0.00000000000E+00  0.99999998245E-14  0.12509000000E+03  0.12509000000E+03 0.  0.
        -11    1    3    3    0    0 -0.49457028432E+02 -0.24472950348E+01  0.21087527152E+02  0.53820727568E+02  0.51100000000E-03 0. -1.
         23    2    1    0    0    0 -0.18374586848E+02 -0.22157725745E+02 -0.13151898512E+00  0.96304455898E+02  0.91901799093E+02 0.  0.
         11    1    3    3    0    0  0.31082441584E+02 -0.19710430710E+02 -0.21219046137E+02  0.42483728330E+02  0.51100000000E-03 0.  1.
         22    1    1    0    0    0  0.18374586848E+02  0.22157725745E+02  0.13151898512E+00  0.28785544102E+02  0.00000000000E+00 0.  1.
</event>
<event>
 5    1  0.1044283E-009  0.9118800E+02  0.7815553E-02  0.1125453E+00
         25   -1    0    0    0    0  0.00000000000E+00  0.00000000000E+00  0.99999998245E-14  0.12509000000E+03  0.12509000000E+03 0.  0.
        -11    1    3    3    0    0  0.79748722306E+01 -0.19558902998E+02 -0.21560420590E+02  0.30182793275E+02  0.51100000000E-03 0.  1.
         23    2    1    0    0    0  0.77487574036E+01  0.23667787689E+02  0.22224755256E+02  0.91711156976E+02  0.85421245322E+02 0.  0.
         11    1    3    3    0    0 -0.22611482701E+00  0.43226690687E+02  0.43785175846E+02  0.61528363702E+02  0.51100000000E-03 0. -1.
         22    1    1    0    0    0 -0.77487574036E+01 -0.23667787689E+02 -0.22224755256E+02  0.33378843024E+02  0.00000000000E+00 0. -1.
</event>
<event>
 5    1  0.1044283E-009  0.9118800E+02  0.7815553E-02  0.1125453E+00
         25   -1    0    0    0    0  0.00000000000E+00  0.00000000000E+00  0.99999998245E-14  0.12509000000E+03  0.12509000000E+03 0.  0.
        -11    1    3    3    0    0 -0.20353424808E+02 -0.35557056037E+02  0.43758503055E+02  0.59944747270E+02  0.51100000000E-03 0. -1.
         23    2    1    0    0    0  0.16019048043E+01 -0.22630774655E+02  0.18573146369E+02  0.95769702824E+02  0.91171026935E+02 0.  0.
         11    1    3    3    0    0  0.21955329612E+02  0.12926281382E+02 -0.25185356686E+02  0.35824955554E+02  0.51100000000E-03 0.  1.
         22    1    1    0    0    0 -0.16019048043E+01  0.22630774655E+02 -0.18573146369E+02  0.29320297176E+02  0.00000000000E+00 0. -1.
</event>
<event>
 5    1  0.1044283E-009  0.9118800E+02  0.7815553E-02  0.1125453E+00
         25   -1    0    0    0    0  0.00000000000E+00  0.00000000000E+00  0.99999998245E-14  0.12509000000E+03  0.12509000000E+03 0.  0.
        -11    1    3    3    0    0  0.36644759534E+02  0.62731486273E+01 -0.93924693443E+01  0.38345916023E+02  0.51100000000E-03 0.  1.
         23    2    1    0    0    0 -0.84404149787E+01 -0.27649769345E+02  0.27187314173E+01  0.96053095028E+02  0.91559025847E+02 0.  0.
         11    1    3    3    0    0 -0.45085174512E+02 -0.33922917972E+02  0.12111200762E+02  0.57707179005E+02  0.51100000000E-03 0. -1.
         22    1    1    0    0    0  0.84404149787E+01  0.27649769345E+02 -0.27187314173E+01  0.29036904972E+02  0.00000000000E+00 0. -1.
</event>
<event>
 5    1  0.1044283E-009  0.9118800E+02  0.7815553E-02  0.1125453E+00
         25   -1    0    0    0    0  0.00000000000E+00  0.00000000000E+00  0.99999998245E-14  0.12509000000E+03  0.12509000000E+03 0.  0.
        -11    1    3    3    0    0  0.18668322463E+02  0.17249467459E+02  0.16285511429E+02  0.30187220376E+02  0.51100000000E-03 0. -1.
         23    2    1    0    0    0 -0.36546079274E+02  0.92970048271E+01  0.63772420709E+01  0.86844484897E+02  0.77969514117E+02 0.  0.
         11    1    3    3    0    0 -0.55214401737E+02 -0.79524626320E+01 -0.99082693586E+01  0.56657264522E+02  0.51100000000E-03 0.  1.
         22    1    1    0    0    0  0.36546079274E+02 -0.92970048271E+01 -0.63772420709E+01  0.38245515103E+02  0.00000000000E+00 0.  1.
</event>
<event>
 5    1  0.1044283E-009  0.9118800E+02  0.7815553E-02  0.1125453E+00
         25   -1    0    0    0    0  0.00000000000E+00  0.00000000000E+00  0.99999998245E-14  0.12509000000E+03  0.12509000000E+03 0.  0.
        -11    1    3    3    0    0  0.19179534454E+02  0.22769901179E+02  0.53880564113E+02  0.61558412349E+02  0.51100000000E-03 0.  1.
         23    2    1    0    0    0  0.15339181491E+02  0.14827227244E+02  0.22806408177E+02  0.93860696285E+02  0.88513054950E+02 0.  0.
         11    1    3    3    0    0 -0.38403529630E+01 -0.79426739341E+01 -0.31074155936E+02  0.32302283936E+02  0.51100000000E-03 0. -1.
         22    1    1    0    0    0 -0.15339181491E+02 -0.14827227244E+02 -0.22806408177E+02  0.31229303715E+02  0.00000000000E+00 0.  1.
</event>
<event>
 5    1  0.1044283E-009  0.9118800E+02  0.7815553E-02  0.1125453E+00
         25   -1    0    0    0    0  0.00000000000E+00  0.00000000000E+00  0.99999998245E-14  0.12509000000E+03  0.12509000000E+03 0.  0.
        -11    1    3    3    0    0  0.16582420213E+02 -0.38585276023E+02  0.24402626874E+02  0.48572506467E+02  0.51100000000E-03 0.  1.
         23    2    1    0    0    0  0.25671018908E+02  0.63567157054E+01  0.11840846443E+02  0.96113894484E+02  0.91642053786E+02 0.  0.
         11    1    3    3    0    0  0.90885986958E+01  0.44941991728E+02 -0.12561780431E+02  0.47541388017E+02  0.51100000000E-03 0. -1.
         22    1    1    0    0    0 -0.25671018908E+02 -0.63567157054E+01 -0.11840846443E+02  0.28976105516E+02  0.00000000000E+00 0.  1.
</event>
<event>
 5    1  0.1044283E-009  0.9118800E+02  0.7815553E-02  0.1125453E+00
         25   -1    0    0    0    0  0.00000000000E+00  0.00000000000E+00  0.99999998245E-14  0.12509000000E+03  0.12509000000E+03 0.  0.
        -11    1    3    3    0    0  0.35798314380E+01  0.36831990476E+02  0.85637081421E+01  0.37983520281E+02  0.51100000000E-03 0.  1.
         23    2    1    0    0    0  0.13302123374E+02 -0.19285644411E+02  0.17781230285E+02  0.95678187457E+02  0.91045377906E+02 0.  0.
         11    1    3    3    0    0  0.97222919363E+01 -0.56117634887E+02  0.92175221426E+01  0.57694667176E+02  0.51100000000E-03 0. -1.
         22    1    1    0    0    0 -0.13302123374E+02  0.19285644411E+02 -0.17781230285E+02  0.29411812543E+02  0.00000000000E+00 0. -1.
</event>
<event>
 5    1  0.1044283E-009  0.9118800E+02  0.7815553E-02  0.1125453E+00
         25   -1    0    0    0    0  0.00000000000E+00  0.00000000000E+00  0.99999998245E-14  0.12509000000E+03  0.12509000000E+03 0.  0.
        -11    1    3    3    0    0  0.20247307866E+02  0.39727729717E+01 -0.11783690463E+02  0.23761139747E+02  0.51100000000E-03 0. -1.
         23    2    1    0    0    0 -0.23478664294E+02  0.17044454986E+02  0.28342477987E+02  0.84530695503E+02  0.74164555557E+02 0.  0.
         11    1    3    3    0    0 -0.43725972160E+02  0.13071682015E+02  0.40126168450E+02  0.60769555756E+02  0.51100000000E-03 0.  1.
         22    1    1    0    0    0  0.23478664294E+02 -0.17044454986E+02 -0.28342477987E+02  0.40559304497E+02  0.00000000000E+00 0.  1.
</event>
<event>
 5    1  0.1044283E-009  0.9118800E+02  0.7815553E-02  0.1125453E+00
         25   -1    0    0    0    0  0.00000000000E+00  0.00000000000E+00  0.99999998245E-14  0.12509000000E+03  0.12509000000E+03 0.  0.
        -11    1    3    3    0    0 -0.24083473938E+02  0.97819322286E+01  0.54159414955E+02  0.60074471646E+02  0.51100000000E-03 0. -1.
         23    2    1    0    0    0 -0.79730290961E+00  0.10805813847E+02  0.27754938734E+02  0.95295068737E+02  0.90517469014E+02 0.  0.
         11    1    3    3    0    0  0.23286171028E+02  0.10238816181E+01 -0.26404476221E+02  0.35220597092E+02  0.51100000000E-03 0.  1.
         22    1    1    0    0    0  0.79730290961E+00 -0.10805813847E+02 -0.27754938734E+02  0.29794931263E+02  0.00000000000E+00 0. -1.
</event>
<event>
 5    1  0.1044283E-009  0.9118800E+02  0.7815553E-02  0.1125453E+00
         25   -1    0    0    0    0  0.00000000000E+00  0.00000000000E+00  0.99999998245E-14  0.12509000000E+03  0.12509000000E+03 0.  0.
        -11    1    3    3    0    0 -0.73824984537E+01 -0.22409853587E+02 -0.24190123199E+02  0.33791491264E+02  0.51100000000E-03 0. -1.
         23    2    1    0    0    0 -0.22092974981E+01  0.58855520169E+01  0.29621602777E+02  0.94808651466E+02  0.89842753318E+02 0.  0.
         11    1    3    3    0    0  0.51732009556E+01  0.28295405604E+02  0.53811725975E+02  0.61017160202E+02  0.51100000000E-03 0.  1.
         22    1    1    0    0    0  0.22092974981E+01 -0.58855520169E+01 -0.29621602777E+02  0.30281348534E+02  0.00000000000E+00 0.  1.
</event>
<event>
 5    1  0.1044283E-009  0.9118800E+02  0.7815553E-02  0.1125453E+00
         25   -1    0    0    0    0  0.00000000000E+00  0.00000000000E+00  0.99999998245E-14  0.12509000000E+03  0.12509000000E+03 0.  0.
        -11    1    3    3    0    0 -0.50518678624E+01 -0.18238328959E+02  0.26452910402E+02  0.32525597321E+02  0.51100000000E-03 0. -1.
         23    2    1    0    0    0 -0.14833334038E+02  0.61989126016E+01 -0.27884626322E+02  0.92902942022E+02  0.87149009949E+02 0.  0.
         11    1    3    3    0    0 -0.97814661761E+01  0.24437241560E+02 -0.54337536724E+02  0.60377344701E+02  0.51100000000E-03 0.  1.
         22    1    1    0    0    0  0.14833334038E+02 -0.61989126016E+01  0.27884626322E+02  0.32187057978E+02  0.00000000000E+00 0.  1.
</event>
<event>
 5    1  0.1044283E-009  0.9118800E+02  0.7815553E-02  0.1125453E+00
         25   -1    0    0    0    0  0.00000000000E+00  0.00000000000E+00  0.99999998245E-14  0.12509000000E+03  0.12509000000E+03 0.  0.
        -11    1    3    3    0    0  0.38811503303E+02  0.22722825650E+02 -0.16716048191E+02  0.47980056915E+02  0.51100000000E-03 0.  1.
         23    2    1    0    0    0  0.11207596994E+02 -0.18930826825E+02 -0.15881144136E+02  0.97957046351E+02  0.94124310122E+02 0.  0.
         11    1    3    3    0    0 -0.27603906309E+02 -0.41653652475E+02  0.83490405413E+00  0.49976989436E+02  0.51100000000E-03 0. -1.
         22    1    1    0    0    0 -0.11207596994E+02  0.18930826825E+02  0.15881144136E+02  0.27132953649E+02  0.00000000000E+00 0. -1.
</event>
<event>
 5    1  0.1044283E-009  0.9118800E+02  0.7815553E-02  0.1125453E+00
         25   -1    0    0    0    0  0.00000000000E+00  0.00000000000E+00  0.99999998245E-14  0.12509000000E+03  0.12509000000E+03 0.  0.
        -11    1    3    3    0    0  0.35030291728E+02 -0.44263890973E+02  0.23223893233E+02  0.61039025219E+02  0.51100000000E-03 0.  1.
         23    2    1    0    0    0  0.23885547334E+02 -0.15159389094E+02  0.82071809418E+01  0.95633519081E+02  0.90983985974E+02 0.  0.
         11    1    3    3    0    0 -0.11144744394E+02  0.29104501879E+02 -0.15016712291E+02  0.34594493861E+02  0.51100000000E-03 0. -1.
         22    1    1    0    0    0 -0.23885547334E+02  0.15159389094E+02 -0.82071809418E+01  0.29456480919E+02  0.00000000000E+00 0.  1.
</event>
<event>
 5    1  0.1044283E-009  0.9118800E+02  0.7815553E-02  0.1125453E+00
         25   -1    0    0    0    0  0.00000000000E+00  0.00000000000E+00  0.99999998245E-14  0.12509000000E+03  0.12509000000E+03 0.  0.
        -11    1    3    3    0    0  0.11336343717E+02 -0.30258912305E+02  0.12876740718E+02  0.34783974967E+02  0.51100000000E-03 0.  1.
         23    2    1    0    0    0 -0.20796054312E+02  0.18092538748E+02 -0.78525107794E+01  0.96428566700E+02  0.92070574653E+02 0.  0.
         11    1    3    3    0    0 -0.32132398029E+02  0.48351451052E+02 -0.20729251498E+02  0.61644591733E+02  0.51100000000E-03 0. -1.
         22    1    1    0    0    0  0.20796054312E+02 -0.18092538748E+02  0.78525107794E+01  0.28661433300E+02  0.00000000000E+00 0. -1.
</event>
<event>
 5    1  0.1044283E-009  0.9118800E+02  0.7815553E-02  0.1125453E+00
         25   -1    0    0    0    0  0.00000000000E+00  0.00000000000E+00  0.99999998245E-14  0.12509000000E+03  0.12509000000E+03 0.  0.
        -11    1    3    3    0    0 -0.45390035245E+02 -0.10467966726E+02  0.14777037434E+01  0.46604905702E+02  0.51100000000E-03 0.  1.
         23    2    1    0    0    0 -0.13604248263E+02  0.26391736561E+02  0.25512974896E+01  0.95288851560E+02  0.90508876820E+02 0.  0.
         11    1    3    3    0    0  0.31785786982E+02  0.36859703287E+02  0.10735937462E+01  0.48683945857E+02  0.51100000000E-03 0. -1.
         22    1    1    0    0    0  0.13604248263E+02 -0.26391736561E+02 -0.25512974896E+01  0.29801148440E+02  0.00000000000E+00 0.  1.
</event>
<event>
 5    1  0.1044283E-009  0.9118800E+02  0.7815553E-02  0.1125453E+00
         25   -1    0    0    0    0  0.00000000000E+00  0.00000000000E+00  0.99999998245E-14  0.12509000000E+03  0.12509000000E+03 0.  0.
        -11    1    3    3    0    0 -0.13319888472E+02  0.55486254487E+02 -0.18912040957E+02  0.60114966184E+02  0.51100000000E-03 0.  1.
         23    2    1    0    0    0 -0.49913598823E+00  0.27666489461E+02 -0.20289054773E+02  0.90777764290E+02  0.84043280338E+02 0.  0.
         11    1    3    3    0    0  0.12820752484E+02 -0.27819765026E+02 -0.13770138160E+01  0.30662798105E+02  0.51100000000E-03 0. -1.
         22    1    1    0    0    0  0.49913598823E+00 -0.27666489461E+02  0.20289054773E+02  0.34312235710E+02  0.00000000000E+00 0.  1.
</event>
<event>
 5    1  0.1044283E-009  0.9118800E+02  0.7815553E-02  0.1125453E+00
         25   -1    0    0    0    0  0.00000000000E+00  0.00000000000E+00  0.99999998245E-14  0.12509000000E+03  0.12509000000E+03 0.  0.
        -11    1    3    3    0    0  0.14448934604E+02 -0.27480975424E+02  0.26246583915E+02  0.40655367283E+02  0.51100000000E-03 0.  1.
         23    2    1    0    0    0 -0.23711062721E+02 -0.17111957784E+02 -0.98882008965E+01  0.94222377618E+02  0.89022729302E+02 0.  0.
         11    1    3    3    0    0 -0.38159997325E+02  0.10369017640E+02 -0.36134784811E+02  0.53567010335E+02  0.51100000000E-03 0. -1.
         22    1    1    0    0    0  0.23711062721E+02  0.17111957784E+02  0.98882008965E+01  0.30867622382E+02  0.00000000000E+00 0.  1.
</event>
<event>
 5    1  0.1044283E-009  0.9118800E+02  0.7815553E-02  0.1125453E+00
         25   -1    0    0    0    0  0.00000000000E+00  0.00000000000E+00  0.99999998245E-14  0.12509000000E+03  0.12509000000E+03 0.  0.
        -11    1    3    3    0    0 -0.14253893457E+02 -0.65647502643E+01 -0.56321110962E+02  0.58466545690E+02  0.51100000000E-03 0.  1.
         23    2    1    0    0    0  0.72226071005E+01  0.46484072993E+01 -0.28330366992E+02  0.95486225956E+02  0.90781253073E+02 0.  0.
         11    1    3    3    0    0  0.21476500558E+02  0.11213157564E+02  0.27990743969E+02  0.37019680266E+02  0.51100000000E-03 0. -1.
         22    1    1    0    0    0 -0.72226071005E+01 -0.46484072993E+01  0.28330366992E+02  0.29603774044E+02  0.00000000000E+00 0.  1.
</event>
<event>
 5    1  0.1044283E-009  0.9118800E+02  0.7815553E-02  0.1125453E+00
         25   -1    0    0    0    0  0.00000000000E+00  0.00000000000E+00  0.99999998245E-14  0.12509000000E+03  0.12509000000E+03 0.  0.
        -11    1    3    3    0    0  0.85244058737E+00 -0.46968044528E+02  0.16225267251E+02  0.49698925133E+02  0.51100000000E-03 0. -1.
         23    2    1    0    0    0  0.92646523357E+01 -0.25637672830E+02 -0.19093634954E+02  0.91808008671E+02  0.85562956409E+02 0.  0.
         11    1    3    3    0    0  0.84122117483E+01  0.21330371698E+02 -0.35318902204E+02  0.42109083538E+02  0.51100000000E-03 0.  1.
         22    1    1    0    0    0 -0.92646523357E+01  0.25637672830E+02  0.19093634954E+02  0.33281991329E+02  0.00000000000E+00 0. -1.
</event>
<event>
 5    1  0.1044283E-009  0.9118800E+02  0.7815553E-02  0.1125453E+00
         25   -1    0    0    0    0  0.00000000000E+00  0.00000000000E+00  0.99999998245E-14  0.12509000000E+03  0.12509000000E+03 0.  0.
        -11    1    3    3    0    0 -0.48070788099E+02 -0.22588115871E+02  0.21970973892E+02  0.57478233629E+02  0.51100000000E-03 0. -1.
         23    2    1    0    0    0 -0.32844337556E+02 -0.31582572448E+01 -0.21923644409E+01  0.92021411277E+02  0.85874376698E+02 0.  0.
         11    1    3    3    0    0  0.15226450544E+02  0.19429858626E+02 -0.24163338333E+02  0.34543177648E+02  0.51100000000E-03 0.  1.
         22    1    1    0    0    0  0.32844337556E+02  0.31582572448E+01  0.21923644409E+01  0.33068588723E+02  0.00000000000E+00 0. -1.
</event>
<event>
 5    1  0.1044283E-009  0.9118800E+02  0.7815553E-02  0.1125453E+00
         25   -1    0    0    0    0  0.00000000000E+00  0.00000000000E+00  0.99999998245E-14  0.12509000000E+03  0.12509000000E+03 0.  0.
        -11    1    3    3    0    0 -0.24043248228E+02  0.56831304579E+01  0.49272926294E+02  0.55119842371E+02  0.51100000000E-03 0.  1.
         23    2    1    0    0    0  0.98576103325E+01 -0.17073126060E+01  0.26862601460E+02  0.96424920984E+02  0.92065621335E+02 0.  0.
         11    1    3    3    0    0  0.33900858561E+02 -0.73904430639E+01 -0.22410324834E+02  0.41305078614E+02  0.51100000000E-03 0. -1.
         22    1    1    0    0    0 -0.98576103325E+01  0.17073126060E+01 -0.26862601460E+02  0.28665079016E+02  0.00000000000E+00 0.  1.
</event>
<event>
 5    1  0.1044283E-009  0.9118800E+02  0.7815553E-02  0.1125453E+00
         25   -1    0    0    0    0  0.00000000000E+00  0.00000000000E+00  0.99999998245E-14  0.12509000000E+03  0.12509000000E+03 0.  0.
        -11    1    3    3    0    0  0.23616790560E+02 -0.20191261987E+02  0.26431227747E+02  0.40792764768E+02  0.51100000000E-03 0.  1.
         23    2    1    0    0    0 -0.24746329341E+02  0.40799412048E+01  0.14196520495E+02  0.96270424530E+02  0.91855466408E+02 0.  0.
         11    1    3    3    0    0 -0.48363119901E+02  0.24271203192E+02 -0.12234707252E+02  0.55477659762E+02  0.51100000000E-03 0. -1.
         22    1    1    0    0    0  0.24746329341E+02 -0.40799412048E+01 -0.14196520495E+02  0.28819575470E+02  0.00000000000E+00 0. -1.
</event>
<event>
 5    1  0.1044283E-009  0.9118800E+02  0.7815553E-02  0.1125453E+00
         25   -1    0    0    0    0  0.00000000000E+00  0.00000000000E+00  0.99999998245E-14  0.12509000000E+03  0.12509000000E+03 0.  0.
        -11    1    3    3    0    0 -0.46063530638E+02 -0.12786074275E+02  0.84282624171E+01  0.48542436669E+02  0.51100000000E-03 0.  1.
         23    2    1    0    0    0 -0.12286470189E+02  0.18531331591E+02  0.19047697662E+02  0.95812322727E+02  0.91229484269E+02 0.  0.
         11    1    3    3    0    0  0.33777060449E+02  0.31317405866E+02  0.10619435245E+02  0.47269886058E+02  0.51100000000E-03 0. -1.
         22    1    1    0    0    0  0.12286470189E+02 -0.18531331591E+02 -0.19047697662E+02  0.29277677273E+02  0.00000000000E+00 0.  1.
</event>
<event>
 5    1  0.1044283E-009  0.9118800E+02  0.7815553E-02  0.1125453E+00
         25   -1    0    0    0    0  0.00000000000E+00  0.00000000000E+00  0.99999998245E-14  0.12509000000E+03  0.12509000000E+03 0.  0.
        -11    1    3    3    0    0  0.48647677011E+02 -0.23249600641E+02 -0.40329486910E+01  0.54068522117E+02  0.51100000000E-03 0.  1.
         23    2    1    0    0    0  0.18869188894E+02 -0.12174338672E+02  0.20867700715E+02  0.94435118745E+02  0.89321161588E+02 0.  0.
         11    1    3    3    0    0 -0.29778488116E+02  0.11075261969E+02  0.24900649406E+02  0.40366596627E+02  0.51100000000E-03 0. -1.
         22    1    1    0    0    0 -0.18869188894E+02  0.12174338672E+02 -0.20867700715E+02  0.30654881255E+02  0.00000000000E+00 0.  1.
</event>
<event>
 5    1  0.1044283E-009  0.9118800E+02  0.7815553E-02  0.1125453E+00
         25   -1    0    0    0    0  0.00000000000E+00  0.00000000000E+00  0.99999998245E-14  0.12509000000E+03  0.12509000000E+03 0.  0.
        -11    1    3    3    0    0 -0.40677936300E+02  0.13079083994E+02 -0.39518223423E+02  0.58201777657E+02  0.51100000000E-03 0. -1.
         23    2    1    0    0    0 -0.17678679746E+02 -0.10876473397E+02 -0.15038749608E+02  0.99458039854E+02  0.96098409512E+02 0.  0.
         11    1    3    3    0    0  0.22999256554E+02 -0.23955557392E+02  0.24479473815E+02  0.41256262197E+02  0.51100000000E-03 0.  1.
         22    1    1    0    0    0  0.17678679746E+02  0.10876473397E+02  0.15038749608E+02  0.25631960146E+02  0.00000000000E+00 0. -1.
</event>
<event>
 5    1  0.1044283E-009  0.9118800E+02  0.7815553E-02  0.1125453E+00
         25   -1    0    0    0    0  0.00000000000E+00  0.00000000000E+00  0.99999998245E-14  0.12509000000E+03  0.12509000000E+03 0.  0.
        -11    1    3    3    0    0  0.15579403911E+02  0.39975447090E+02  0.21604348721E+02  0.48036466150E+02  0.51100000000E-03 0. -1.
         23    2    1    0    0    0  0.27453239075E+02  0.59460427770E+01 -0.92867691746E+01  0.95504871268E+02  0.90806941331E+02 0.  0.
         11    1    3    3    0    0  0.11873835164E+02 -0.34029404313E+02 -0.30891117895E+02  0.47468405118E+02  0.51100000000E-03 0.  1.
         22    1    1    0    0    0 -0.27453239075E+02 -0.59460427770E+01  0.92867691746E+01  0.29585128732E+02  0.00000000000E+00 0. -1.
</event>
<event>
 5    1  0.1044283E-009  0.9118800E+02  0.7815553E-02  0.1125453E+00
         25   -1    0    0    0    0  0.00000000000E+00  0.00000000000E+00  0.99999998245E-14  0.12509000000E+03  0.12509000000E+03 0.  0.
        -11    1    3    3    0    0  0.36520981145E+02  0.19977039646E+02 -0.39411516270E+02  0.57324792122E+02  0.51100000000E-03 0.  1.
         23    2    1    0    0    0  0.11143641296E+01  0.12044340865E+02 -0.26711297657E+02  0.95767630096E+02  0.91168183032E+02 0.  0.
         11    1    3    3    0    0 -0.35406617015E+02 -0.79326987813E+01  0.12700218614E+02  0.38442837974E+02  0.51100000000E-03 0. -1.
         22    1    1    0    0    0 -0.11143641296E+01 -0.12044340865E+02  0.26711297657E+02  0.29322369904E+02  0.00000000000E+00 0.  1.
</event>
<event>
 5    1  0.1044283E-009  0.9118800E+02  0.7815553E-02  0.1125453E+00
         25   -1    0    0    0    0  0.00000000000E+00  0.00000000000E+00  0.99999998245E-14  0.12509000000E+03  0.12509000000E+03 0.  0.
        -11    1    3    3    0    0 -0.36054381995E+02 -0.25143505275E+02  0.14215436684E+02  0.46197326318E+02  0.51100000000E-03 0.  1.
         23    2    1    0    0    0  0.29056922733E+01 -0.24325857892E+02 -0.16275984212E+02  0.95677450436E+02  0.91044365285E+02 0.  0.
         11    1    3    3    0    0  0.38960074268E+02  0.81764738226E+00 -0.30491420896E+02  0.49480124118E+02  0.51100000000E-03 0. -1.
         22    1    1    0    0    0 -0.29056922733E+01  0.24325857892E+02  0.16275984212E+02  0.29412549564E+02  0.00000000000E+00 0. -1.
</event>
<event>
 5    1  0.1044283E-009  0.9118800E+02  0.7815553E-02  0.1125453E+00
         25   -1    0    0    0    0  0.00000000000E+00  0.00000000000E+00  0.99999998245E-14  0.12509000000E+03  0.12509000000E+03 0.  0.
        -11    1    3    3    0    0 -0.24924317654E+02  0.34455347464E+02  0.17303947382E+01  0.42560390571E+02  0.51100000000E-03 0.  1.
         23    2    1    0    0    0 -0.18662579111E+02 -0.13217682239E+02  0.20694409931E+02  0.94247536005E+02  0.89058073513E+02 0.  0.
         11    1    3    3    0    0  0.62617385426E+01 -0.47673029703E+02  0.18964015193E+02  0.51687145434E+02  0.51100000000E-03 0. -1.
         22    1    1    0    0    0  0.18662579111E+02  0.13217682239E+02 -0.20694409931E+02  0.30842463995E+02  0.00000000000E+00 0.  1.
</event>
<event>
 5    1  0.1044283E-009  0.9118800E+02  0.7815553E-02  0.1125453E+00
         25   -1    0    0    0    0  0.00000000000E+00  0.00000000000E+00  0.99999998245E-14  0.12509000000E+03  0.12509000000E+03 0.  0.
        -11    1    3    3    0    0 -0.32611316409E+02  0.69591079694E+01 -0.23727451010E+02  0.40925775171E+02  0.51100000000E-03 0.  1.
         23    2    1    0    0    0  0.98327871180E+01  0.26676043940E+02  0.55410282228E+01  0.96124537522E+02  0.91656580219E+02 0.  0.
         11    1    3    3    0    0  0.42444103527E+02  0.19716935970E+02  0.29268479233E+02  0.55198762351E+02  0.51100000000E-03 0. -1.
         22    1    1    0    0    0 -0.98327871180E+01 -0.26676043940E+02 -0.55410282228E+01  0.28965462478E+02  0.00000000000E+00 0. -1.
</event>
<event>
 5    1  0.1044283E-009  0.9118800E+02  0.7815553E-02  0.1125453E+00
         25   -1    0    0    0    0  0.00000000000E+00  0.00000000000E+00  0.99999998245E-14  0.12509000000E+03  0.12509000000E+03 0.  0.
        -11    1    3    3    0    0  0.54347483613E+02  0.16439602666E+02 -0.87637855406E+01  0.57451835899E+02  0.51100000000E-03 0.  1.
         23    2    1    0    0    0  0.29729784062E+02 -0.94751792173E+01 -0.20583280132E+01  0.93818994328E+02  0.88454100532E+02 0.  0.
         11    1    3    3    0    0 -0.24617699551E+02 -0.25914781884E+02  0.67054575274E+01  0.36367158429E+02  0.51100000000E-03 0. -1.
         22    1    1    0    0    0 -0.29729784062E+02  0.94751792173E+01  0.20583280132E+01  0.31271005672E+02  0.00000000000E+00 0.  1.
</event>
<event>
 5    1  0.1044283E-009  0.9118800E+02  0.7815553E-02  0.1125453E+00
         25   -1    0    0    0    0  0.00000000000E+00  0.00000000000E+00  0.99999998245E-14  0.12509000000E+03  0.12509000000E+03 0.  0.
        -11    1    3    3    0    0 -0.38424467805E+02  0.48155087277E+02 -0.47175694756E+01  0.61786791621E+02  0.51100000000E-03 0. -1.
         23    2    1    0    0    0 -0.23419798586E+02  0.20011883822E+02  0.13634662457E+01  0.94254606373E+02  0.89068003921E+02 0.  0.
         11    1    3    3    0    0  0.15004669219E+02 -0.28143203456E+02  0.60810357212E+01  0.32467814753E+02  0.51100000000E-03 0.  1.
         22    1    1    0    0    0  0.23419798586E+02 -0.20011883822E+02 -0.13634662457E+01  0.30835393627E+02  0.00000000000E+00 0. -1.
</event>
<event>
 5    1  0.1044283E-009  0.9118800E+02  0.7815553E-02  0.1125453E+00
         25   -1    0    0    0    0  0.00000000000E+00  0.00000000000E+00  0.99999998245E-14  0.12509000000E+03  0.12509000000E+03 0.  0.
        -11    1    3    3    0    0  0.24287838451E+02 -0.34088253811E+02 -0.40882420660E+02  0.58508806720E+02  0.51100000000E-03 0. -1.
         23    2    1    0    0    0  0.74758315178E+01 -0.30916585832E+01 -0.27827884641E+02  0.96110048771E+02  0.91636804295E+02 0.  0.
         11    1    3    3    0    0 -0.16812006933E+02  0.30996595228E+02  0.13054536019E+02  0.37601242051E+02  0.51100000000E-03 0.  1.
         22    1    1    0    0    0 -0.74758315178E+01  0.30916585832E+01  0.27827884641E+02  0.28979951229E+02  0.00000000000E+00 0. -1.
</event>
<event>
 5    1  0.1044283E-009  0.9118800E+02  0.7815553E-02  0.1125453E+00
         25   -1    0    0    0    0  0.00000000000E+00  0.00000000000E+00  0.99999998245E-14  0.12509000000E+03  0.12509000000E+03 0.  0.
        -11    1    3    3    0    0  0.59180833754E+02  0.26720712745E+01  0.14614038316E+01  0.59259149084E+02  0.51100000000E-03 0.  1.
         23    2    1    0    0    0  0.25413996050E+02  0.97012115875E+01  0.12049009193E+02  0.95338305527E+02  0.90577200093E+02 0.  0.
         11    1    3    3    0    0 -0.33766837704E+02  0.70291403130E+01  0.10587605362E+02  0.36079156443E+02  0.51100000000E-03 0. -1.
         22    1    1    0    0    0 -0.25413996050E+02 -0.97012115875E+01 -0.12049009193E+02  0.29751694473E+02  0.00000000000E+00 0.  1.
</event>
<event>
 5    1  0.1044283E-009  0.9118800E+02  0.7815553E-02  0.1125453E+00
         25   -1    0    0    0    0  0.00000000000E+00  0.00000000000E+00  0.99999998245E-14  0.12509000000E+03  0.12509000000E+03 0.  0.
        -11    1    3    3    0    0 -0.29163834830E+01 -0.52706952344E+02 -0.36113886155E+01  0.52910965272E+02  0.51100000000E-03 0.  1.
         23    2    1    0    0    0 -0.24583110416E+02 -0.15639055459E+02 -0.22262453714E+01  0.95869022230E+02  0.91307195124E+02 0.  0.
         11    1    3    3    0    0 -0.21666726933E+02  0.37067896885E+02  0.13851432441E+01  0.42958056957E+02  0.51100000000E-03 0. -1.
         22    1    1    0    0    0  0.24583110416E+02  0.15639055459E+02  0.22262453714E+01  0.29220977770E+02  0.00000000000E+00 0.  1.
</event>
<event>
 5    1  0.1044283E-009  0.9118800E+02  0.7815553E-02  0.1125453E+00
         25   -1    0    0    0    0  0.00000000000E+00  0.00000000000E+00  0.99999998245E-14  0.12509000000E+03  0.12509000000E+03 0.  0.
        -11    1    3    3    0    0 -0.69467475951E+01  0.57334378509E+02  0.10815728199E+02  0.58757707902E+02  0.51100000000E-03 0. -1.
         23    2    1    0    0    0 -0.15008409464E+02  0.21494527469E+02 -0.43780790600E+01  0.98511161764E+02  0.94857863933E+02 0.  0.
         11    1    3    3    0    0 -0.80616618689E+01 -0.35839851040E+02 -0.15193807259E+02  0.39753453862E+02  0.51100000000E-03 0.  1.
         22    1    1    0    0    0  0.15008409464E+02 -0.21494527469E+02  0.43780790600E+01  0.26578838236E+02  0.00000000000E+00 0. -1.
</event>
<event>
 5    1  0.1044283E-009  0.9118800E+02  0.7815553E-02  0.1125453E+00
         25   -1    0    0    0    0  0.00000000000E+00  0.00000000000E+00  0.99999998245E-14  0.12509000000E+03  0.12509000000E+03 0.  0.
        -11    1    3    3    0    0  0.38244277521E+01  0.31894358730E+02  0.11403564884E+02  0.34086913306E+02  0.51100000000E-03 0. -1.
         23    2    1    0    0    0 -0.39297524489E+01 -0.20314003813E+02 -0.20665622634E+02  0.95846715915E+02  0.91276630567E+02 0.  0.
         11    1    3    3    0    0 -0.77541802010E+01 -0.52208362543E+02 -0.32069187518E+02  0.61759802609E+02  0.51100000000E-03 0.  1.
         22    1    1    0    0    0  0.39297524489E+01  0.20314003813E+02  0.20665622634E+02  0.29243284085E+02  0.00000000000E+00 0.  1.
</event>
<event>
 5    1  0.1044283E-009  0.9118800E+02  0.7815553E-02  0.1125453E+00
         25   -1    0    0    0    0  0.00000000000E+00  0.00000000000E+00  0.99999998245E-14  0.12509000000E+03  0.12509000000E+03 0.  0.
        -11    1    3    3    0    0 -0.22781797931E+02 -0.39290149253E+02  0.16971966847E+01  0.45448945226E+02  0.51100000000E-03 0. -1.
         23    2    1    0    0    0 -0.86649113907E+01 -0.45639171178E+01 -0.29366762186E+02  0.94133308475E+02  0.88897485984E+02 0.  0.
         11    1    3    3    0    0  0.14116886541E+02  0.34726232135E+02 -0.31063958871E+02  0.48684363249E+02  0.51100000000E-03 0.  1.
         22    1    1    0    0    0  0.86649113907E+01  0.45639171178E+01  0.29366762186E+02  0.30956691525E+02  0.00000000000E+00 0. -1.
</event>
<event>
 5    1  0.1044283E-009  0.9118800E+02  0.7815553E-02  0.1125453E+00
         25   -1    0    0    0    0  0.00000000000E+00  0.00000000000E+00  0.99999998245E-14  0.12509000000E+03  0.12509000000E+03 0.  0.
        -11    1    3    3    0    0  0.39838067505E+02 -0.34281483622E+02  0.10281987625E+02  0.53553814166E+02  0.51100000000E-03 0.  1.
         23    2    1    0    0    0 -0.46106639394E+00 -0.24642626494E+02  0.16466339653E+02  0.95448610621E+02  0.90729407059E+02 0.  0.
         11    1    3    3    0    0 -0.40299133899E+02  0.96388571284E+01  0.61843520277E+01  0.41894796455E+02  0.51100000000E-03 0. -1.
         22    1    1    0    0    0  0.46106639394E+00  0.24642626494E+02 -0.16466339653E+02  0.29641389379E+02  0.00000000000E+00 0.  1.
</event>
<event>
 5    1  0.1044283E-009  0.9118800E+02  0.7815553E-02  0.1125453E+00
         25   -1    0    0    0    0  0.00000000000E+00  0.00000000000E+00  0.99999998245E-14  0.12509000000E+03  0.12509000000E+03 0.  0.
        -11    1    3    3    0    0  0.22477358333E+02 -0.17821400034E+02 -0.30564284719E+02  0.41916696404E+02  0.51100000000E-03 0.  1.
         23    2    1    0    0    0 -0.26238117401E+02 -0.57635128838E+01 -0.14208445596E+02  0.94700251535E+02  0.89691698774E+02 0.  0.
         11    1    3    3    0    0 -0.48715475734E+02  0.12057887150E+02  0.16355839123E+02  0.52783555131E+02  0.51100000000E-03 0. -1.
         22    1    1    0    0    0  0.26238117401E+02  0.57635128838E+01  0.14208445596E+02  0.30389748465E+02  0.00000000000E+00 0. -1.
</event>
<event>
 5    1  0.1044283E-009  0.9118800E+02  0.7815553E-02  0.1125453E+00
         25   -1    0    0    0    0  0.00000000000E+00  0.00000000000E+00  0.99999998245E-14  0.12509000000E+03  0.12509000000E+03 0.  0.
        -11    1    3    3    0    0  0.52374166122E+02  0.29078221574E+02 -0.14702555011E+02  0.61682747758E+02  0.51100000000E-03 0. -1.
         23    2    1    0    0    0  0.25621829833E+02  0.13442897268E+02  0.39873656539E+00  0.96153022933E+02  0.91695447964E+02 0.  0.
         11    1    3    3    0    0 -0.26752336289E+02 -0.15635324306E+02  0.15101291576E+02  0.34470275175E+02  0.51100000000E-03 0.  1.
         22    1    1    0    0    0 -0.25621829833E+02 -0.13442897268E+02 -0.39873656539E+00  0.28936977067E+02  0.00000000000E+00 0. -1.
</event>
<event>
 5    1  0.1044283E-009  0.9118800E+02  0.7815553E-02  0.1125453E+00
         25   -1    0    0    0    0  0.00000000000E+00  0.00000000000E+00  0.99999998245E-14  0.12509000000E+03  0.12509000000E+03 0.  0.
        -11    1    3    3    0    0 -0.19207664577E+02 -0.15722693610E+02  0.32927793456E+02  0.41235628466E+02  0.51100000000E-03 0.  1.
         23    2    1    0    0    0 -0.48713379256E+01 -0.11606528766E+02 -0.22865802628E+02  0.98988536957E+02  0.95485308168E+02 0.  0.
         11    1    3    3    0    0  0.14336326652E+02  0.41161648443E+01 -0.55793596084E+02  0.57752908491E+02  0.51100000000E-03 0. -1.
         22    1    1    0    0    0  0.48713379256E+01  0.11606528766E+02  0.22865802628E+02  0.26101463043E+02  0.00000000000E+00 0. -1.
</event>
<event>
 5    1  0.1044283E-009  0.9118800E+02  0.7815553E-02  0.1125453E+00
         25   -1    0    0    0    0  0.00000000000E+00  0.00000000000E+00  0.99999998245E-14  0.12509000000E+03  0.12509000000E+03 0.  0.
        -11    1    3    3    0    0 -0.28931670549E+02  0.11032253309E+02 -0.14097556111E+02  0.34021952654E+02  0.51100000000E-03 0. -1.
         23    2    1    0    0    0  0.27403744651E+02 -0.76347504667E+01  0.46603730672E+01  0.96263385341E+02  0.91845879846E+02 0.  0.
         11    1    3    3    0    0  0.56335415199E+02 -0.18667003776E+02  0.18757929179E+02  0.62241432687E+02  0.51100000000E-03 0.  1.
         22    1    1    0    0    0 -0.27403744651E+02  0.76347504667E+01 -0.46603730672E+01  0.28826614659E+02  0.00000000000E+00 0.  1.
</event>
<event>
 5    1  0.1044283E-009  0.9118800E+02  0.7815553E-02  0.1125453E+00
         25   -1    0    0    0    0  0.00000000000E+00  0.00000000000E+00  0.99999998245E-14  0.12509000000E+03  0.12509000000E+03 0.  0.
        -11    1    3    3    0    0  0.17669482083E+02 -0.24379525176E+01 -0.54142420326E+02  0.57004876008E+02  0.51100000000E-03 0. -1.
         23    2    1    0    0    0  0.19408711111E+02 -0.14283857883E+02 -0.18193645983E+02  0.94895043183E+02  0.89962957952E+02 0.  0.
         11    1    3    3    0    0  0.17392290279E+01 -0.11845905365E+02  0.35948774343E+02  0.37890167175E+02  0.51100000000E-03 0.  1.
         22    1    1    0    0    0 -0.19408711111E+02  0.14283857883E+02  0.18193645983E+02  0.30194956817E+02  0.00000000000E+00 0. -1.
</event>
<event>
 5    1  0.1044283E-009  0.9118800E+02  0.7815553E-02  0.1125453E+00
         25   -1    0    0    0    0  0.00000000000E+00  0.00000000000E+00  0.99999998245E-14  0.12509000000E+03  0.12509000000E+03 0.  0.
        -11    1    3    3    0    0 -0.72921203313E+01  0.96599180865E+01  0.55230620511E+02  0.56541228132E+02  0.51100000000E-03 0. -1.
         23    2    1    0    0    0  0.15234020740E+02 -0.12360020348E+01  0.25042245729E+02  0.95752018473E+02  0.91146760126E+02 0.  0.
         11    1    3    3    0    0  0.22526141072E+02 -0.10895920121E+02 -0.30188374783E+02  0.39210790341E+02  0.51100000000E-03 0.  1.
         22    1    1    0    0    0 -0.15234020740E+02  0.12360020348E+01 -0.25042245729E+02  0.29337981527E+02  0.00000000000E+00 0. -1.
</event>
<event>
 5    1  0.1044283E-009  0.9118800E+02  0.7815553E-02  0.1125453E+00
         25   -1    0    0    0    0  0.00000000000E+00  0.00000000000E+00  0.99999998245E-14  0.12509000000E+03  0.12509000000E+03 0.  0.
        -11    1    3    3    0    0 -0.27492389522E+02 -0.12305800521E+02 -0.53737783556E+02  0.61603681626E+02  0.51100000000E-03 0.  1.
         23    2    1    0    0    0 -0.71428567069E+01 -0.11539006327E+01 -0.27606979867E+02  0.96550602214E+02  0.92236226950E+02 0.  0.
         11    1    3    3    0    0  0.20349532815E+02  0.11151899888E+02  0.26130803689E+02  0.34946920588E+02  0.51100000000E-03 0. -1.
         22    1    1    0    0    0  0.71428567069E+01  0.11539006327E+01  0.27606979867E+02  0.28539397786E+02  0.00000000000E+00 0.  1.
</event>
<event>
 5    1  0.1044283E-009  0.9118800E+02  0.7815553E-02  0.1125453E+00
         25   -1    0    0    0    0  0.00000000000E+00  0.00000000000E+00  0.99999998245E-14  0.12509000000E+03  0.12509000000E+03 0.  0.
        -11    1    3    3    0    0  0.25662485465E+02 -0.27254116940E+02 -0.88009203967E+01  0.38455249973E+02  0.51100000000E-03 0. -1.
         23    2    1    0    0    0 -0.23335286644E+02 -0.14345003094E+01  0.13422005049E+02  0.98131817319E+02  0.94356292620E+02 0.  0.
         11    1    3    3    0    0 -0.48997772109E+02  0.25819616631E+02  0.22222925446E+02  0.59676567346E+02  0.51100000000E-03 0.  1.
         22    1    1    0    0    0  0.23335286644E+02  0.14345003094E+01 -0.13422005049E+02  0.26958182681E+02  0.00000000000E+00 0.  1.
</event>
<event>
 5    1  0.1044283E-009  0.9118800E+02  0.7815553E-02  0.1125453E+00
         25   -1    0    0    0    0  0.00000000000E+00  0.00000000000E+00  0.99999998245E-14  0.12509000000E+03  0.12509000000E+03 0.  0.
        -11    1    3    3    0    0  0.28232355234E+02 -0.30512235298E+02  0.19506192163E+02  0.45918992998E+02  0.51100000000E-03 0. -1.
         23    2    1    0    0    0 -0.19621814916E+02 -0.13988278796E+02 -0.19691845946E+01  0.10091221573E+03  0.97973006645E+02 0.  0.
         11    1    3    3    0    0 -0.47854170150E+02  0.16523956503E+02 -0.21475376757E+02  0.54993222732E+02  0.51100000000E-03 0.  1.
         22    1    1    0    0    0  0.19621814916E+02  0.13988278796E+02  0.19691845946E+01  0.24177784271E+02  0.00000000000E+00 0.  1.
</event>
<event>
 5    1  0.1044283E-009  0.9118800E+02  0.7815553E-02  0.1125453E+00
         25   -1    0    0    0    0  0.00000000000E+00  0.00000000000E+00  0.99999998245E-14  0.12509000000E+03  0.12509000000E+03 0.  0.
        -11    1    3    3    0    0 -0.34581206570E+02 -0.41319010503E+02  0.42294405585E+01  0.54046356441E+02  0.51100000000E-03 0. -1.
         23    2    1    0    0    0  0.54326461128E+01 -0.28221685897E+02  0.11282636269E+00  0.96349959491E+02  0.91963714396E+02 0.  0.
         11    1    3    3    0    0  0.40013852683E+02  0.13097324606E+02 -0.41166141958E+01  0.42303603051E+02  0.51100000000E-03 0.  1.
         22    1    1    0    0    0 -0.54326461128E+01  0.28221685897E+02 -0.11282636269E+00  0.28740040509E+02  0.00000000000E+00 0. -1.
</event>
<event>
 5    1  0.1044283E-009  0.9118800E+02  0.7815553E-02  0.1125453E+00
         25   -1    0    0    0    0  0.00000000000E+00  0.00000000000E+00  0.99999998245E-14  0.12509000000E+03  0.12509000000E+03 0.  0.
        -11    1    3    3    0    0 -0.50147211450E+02 -0.30329920812E+02  0.14686508099E+02  0.60418047247E+02  0.51100000000E-03 0. -1.
         23    2    1    0    0    0 -0.17917526421E+02 -0.23188462720E+02  0.22317092285E+01  0.95700833927E+02  0.91076487262E+02 0.  0.
         11    1    3    3    0    0  0.32229685029E+02  0.71414580922E+01 -0.12454798871E+02  0.35282786680E+02  0.51100000000E-03 0.  1.
         22    1    1    0    0    0  0.17917526421E+02  0.23188462720E+02 -0.22317092285E+01  0.29389166073E+02  0.00000000000E+00 0. -1.
</event>
<event>
 5    1  0.1044283E-009  0.9118800E+02  0.7815553E-02  0.1125453E+00
         25   -1    0    0    0    0  0.00000000000E+00  0.00000000000E+00  0.99999998245E-14  0.12509000000E+03  0.12509000000E+03 0.  0.
        -11    1    3    3    0    0  0.27907692884E+02 -0.13782749660E+02  0.43766559301E+02  0.53705821134E+02  0.51100000000E-03 0.  1.
         23    2    1    0    0    0  0.20835988416E+02 -0.20281217426E+02  0.26914501030E+01  0.95888799731E+02  0.91334286096E+02 0.  0.
         11    1    3    3    0    0 -0.70717044688E+01 -0.64984677655E+01 -0.41075109198E+02  0.42182978597E+02  0.51100000000E-03 0. -1.
         22    1    1    0    0    0 -0.20835988416E+02  0.20281217426E+02 -0.26914501030E+01  0.29201200269E+02  0.00000000000E+00 0.  1.
</event>
<event>
 5    1  0.1044283E-009  0.9118800E+02  0.7815553E-02  0.1125453E+00
         25   -1    0    0    0    0  0.00000000000E+00  0.00000000000E+00  0.99999998245E-14  0.12509000000E+03  0.12509000000E+03 0.  0.
        -11    1    3    3    0    0  0.10813498328E+02 -0.38927483976E+02 -0.20870430461E+02  0.45473680549E+02  0.51100000000E-03 0.  1.
         23    2    1    0    0    0 -0.65007404598E+01 -0.15319566309E+02  0.22072487858E+02  0.97446855124E+02  0.93443812609E+02 0.  0.
         11    1    3    3    0    0 -0.17314238788E+02  0.23607917667E+02  0.42942918318E+02  0.51973174575E+02  0.51100000000E-03 0. -1.
         22    1    1    0    0    0  0.65007404598E+01  0.15319566309E+02 -0.22072487858E+02  0.27643144876E+02  0.00000000000E+00 0. -1.
</event>
<event>
 5    1  0.1044283E-009  0.9118800E+02  0.7815553E-02  0.1125453E+00
         25   -1    0    0    0    0  0.00000000000E+00  0.00000000000E+00  0.99999998245E-14  0.12509000000E+03  0.12509000000E+03 0.  0.
        -11    1    3    3    0    0 -0.14157131011E+02 -0.43939253462E+02 -0.10385227854E+02  0.47317389099E+02  0.51100000000E-03 0.  1.
         23    2    1    0    0    0 -0.14286735616E+02 -0.83292944682E+01  0.23421085760E+02  0.96418843429E+02  0.92057363362E+02 0.  0.
         11    1    3    3    0    0 -0.12960460537E+00  0.35609958994E+02  0.33806313614E+02  0.49101454331E+02  0.51100000000E-03 0. -1.
         22    1    1    0    0    0  0.14286735616E+02  0.83292944682E+01 -0.23421085760E+02  0.28671156571E+02  0.00000000000E+00 0. -1.
</event>
<event>
 5    1  0.1044283E-009  0.9118800E+02  0.7815553E-02  0.1125453E+00
         25   -1    0    0    0    0  0.00000000000E+00  0.00000000000E+00  0.99999998245E-14  0.12509000000E+03  0.12509000000E+03 0.  0.
        -11    1    3    3    0    0  0.11247007116E+02 -0.22232131552E+02  0.56583381355E+02  0.61825899818E+02  0.51100000000E-03 0.  1.
         23    2    1    0    0    0  0.57161531119E+01 -0.16112884576E+02  0.22856750102E+02  0.96546515962E+02  0.92230685043E+02 0.  0.
         11    1    3    3    0    0 -0.55308540040E+01  0.61192469761E+01 -0.33726631252E+02  0.34720616145E+02  0.51100000000E-03 0. -1.
         22    1    1    0    0    0 -0.57161531119E+01  0.16112884576E+02 -0.22856750102E+02  0.28543484038E+02  0.00000000000E+00 0.  1.
</event>
<event>
 5    1  0.1044283E-009  0.9118800E+02  0.7815553E-02  0.1125453E+00
         25   -1    0    0    0    0  0.00000000000E+00  0.00000000000E+00  0.99999998245E-14  0.12509000000E+03  0.12509000000E+03 0.  0.
        -11    1    3    3    0    0 -0.18331635426E+02  0.39562404433E+02 -0.17434098098E+00  0.43603475744E+02  0.51100000000E-03 0.  1.
         23    2    1    0    0    0 -0.20654970613E+02 -0.11690015462E+02 -0.15007294658E+02  0.97009701471E+02  0.92856766119E+02 0.  0.
         11    1    3    3    0    0 -0.23233351872E+01 -0.51252419894E+02 -0.14832953677E+02  0.53406225728E+02  0.51100000000E-03 0. -1.
         22    1    1    0    0    0  0.20654970613E+02  0.11690015462E+02  0.15007294658E+02  0.28080298529E+02  0.00000000000E+00 0. -1.
</event>
<event>
 5    1  0.1044283E-009  0.9118800E+02  0.7815553E-02  0.1125453E+00
         25   -1    0    0    0    0  0.00000000000E+00  0.00000000000E+00  0.99999998245E-14  0.12509000000E+03  0.12509000000E+03 0.  0.
        -11    1    3    3    0    0  0.43744582343E+02  0.17324608753E+02 -0.39945184611E+02  0.61719918394E+02  0.51100000000E-03 0.  1.
         23    2    1    0    0    0  0.12063649345E+02  0.11342649143E+02 -0.17458333215E+02  0.10102798172E+03  0.98120703047E+02 0.  0.
         11    1    3    3    0    0 -0.31680932998E+02 -0.59819596095E+01  0.22486851396E+02  0.39308063325E+02  0.51100000000E-03 0. -1.
         22    1    1    0    0    0 -0.12063649345E+02 -0.11342649143E+02  0.17458333215E+02  0.24062018281E+02  0.00000000000E+00 0.  1.
</event>
<event>
 5    1  0.1044283E-009  0.9118800E+02  0.7815553E-02  0.1125453E+00
         25   -1    0    0    0    0  0.00000000000E+00  0.00000000000E+00  0.99999998245E-14  0.12509000000E+03  0.12509000000E+03 0.  0.
        -11    1    3    3    0    0 -0.42664430363E+02  0.43392670432E+01  0.53349849573E+01  0.43215100618E+02  0.51100000000E-03 0.  1.
         23    2    1    0    0    0 -0.37963245429E+01 -0.27655303360E+02 -0.93420249721E+01  0.95653605612E+02  0.91011597899E+02 0.  0.
         11    1    3    3    0    0  0.38868105820E+02 -0.31994570403E+02 -0.14677009929E+02  0.52438504994E+02  0.51100000000E-03 0. -1.
         22    1    1    0    0    0  0.37963245429E+01  0.27655303360E+02  0.93420249721E+01  0.29436394388E+02  0.00000000000E+00 0. -1.
</event>
<event>
 5    1  0.1044283E-009  0.9118800E+02  0.7815553E-02  0.1125453E+00
         25   -1    0    0    0    0  0.00000000000E+00  0.00000000000E+00  0.99999998245E-14  0.12509000000E+03  0.12509000000E+03 0.  0.
        -11    1    3    3    0    0 -0.23756440280E+02  0.28939665931E+02 -0.26218881092E+02  0.45708888030E+02  0.51100000000E-03 0.  1.
         23    2    1    0    0    0 -0.16827382576E+02 -0.19502375037E+02 -0.12038195866E+02  0.96657244309E+02  0.92380740857E+02 0.  0.
         11    1    3    3    0    0  0.69290577036E+01 -0.48442040968E+02  0.14180685226E+02  0.50948356279E+02  0.51100000000E-03 0. -1.
         22    1    1    0    0    0  0.16827382576E+02  0.19502375037E+02  0.12038195866E+02  0.28432755691E+02  0.00000000000E+00 0.  1.
</event>
<event>
 5    1  0.1044283E-009  0.9118800E+02  0.7815553E-02  0.1125453E+00
         25   -1    0    0    0    0  0.00000000000E+00  0.00000000000E+00  0.99999998245E-14  0.12509000000E+03  0.12509000000E+03 0.  0.
        -11    1    3    3    0    0  0.52577158162E+01  0.28002102091E+02  0.27111358364E+02  0.39329213693E+02  0.51100000000E-03 0.  1.
         23    2    1    0    0    0 -0.18333171260E+02  0.14416579895E+02 -0.20411386224E+02  0.94096974463E+02  0.88846344727E+02 0.  0.
         11    1    3    3    0    0 -0.23590887077E+02 -0.13585522195E+02 -0.47522744588E+02  0.54767760770E+02  0.51100000000E-03 0. -1.
         22    1    1    0    0    0  0.18333171260E+02 -0.14416579895E+02  0.20411386224E+02  0.30993025537E+02  0.00000000000E+00 0. -1.
</event>
<event>
 5    1  0.1044283E-009  0.9118800E+02  0.7815553E-02  0.1125453E+00
         25   -1    0    0    0    0  0.00000000000E+00  0.00000000000E+00  0.99999998245E-14  0.12509000000E+03  0.12509000000E+03 0.  0.
        -11    1    3    3    0    0 -0.33887686961E+02 -0.11679986014E+02  0.19443707968E+02  0.40778121348E+02  0.51100000000E-03 0.  1.
         23    2    1    0    0    0 -0.71309691812E+01 -0.10052448451E+02 -0.27566340601E+02  0.94893881451E+02  0.89961342594E+02 0.  0.
         11    1    3    3    0    0  0.26756717780E+02  0.16275375629E+01 -0.47010048568E+02  0.54115760103E+02  0.51100000000E-03 0. -1.
         22    1    1    0    0    0  0.71309691812E+01  0.10052448451E+02  0.27566340601E+02  0.30196118549E+02  0.00000000000E+00 0.  1.
</event>
<event>
 5    1  0.1044283E-009  0.9118800E+02  0.7815553E-02  0.1125453E+00
         25   -1    0    0    0    0  0.00000000000E+00  0.00000000000E+00  0.99999998245E-14  0.12509000000E+03  0.12509000000E+03 0.  0.
        -11    1    3    3    0    0 -0.92798707407E+01  0.36249807793E+02  0.11787718557E+02  0.39231554583E+02  0.51100000000E-03 0. -1.
         23    2    1    0    0    0  0.17684035603E+02 -0.14234506901E+02  0.17038652265E+02  0.96705814739E+02  0.92446485230E+02 0.  0.
         11    1    3    3    0    0  0.26963906343E+02 -0.50484314694E+02  0.52509337079E+01  0.57474260156E+02  0.51100000000E-03 0.  1.
         22    1    1    0    0    0 -0.17684035603E+02  0.14234506901E+02 -0.17038652265E+02  0.28384185261E+02  0.00000000000E+00 0.  1.
</event>
<event>
 5    1  0.1044283E-009  0.9118800E+02  0.7815553E-02  0.1125453E+00
         25   -1    0    0    0    0  0.00000000000E+00  0.00000000000E+00  0.99999998245E-14  0.12509000000E+03  0.12509000000E+03 0.  0.
        -11    1    3    3    0    0  0.27469154987E+02  0.40054518294E+02  0.50559676067E+01  0.48831155220E+02  0.51100000000E-03 0.  1.
         23    2    1    0    0    0  0.22520319925E+01  0.56633568057E+01 -0.23930626174E+02  0.10039546361E+03  0.97310991086E+02 0.  0.
         11    1    3    3    0    0 -0.25217122994E+02 -0.34391161488E+02 -0.28986593780E+02  0.51564308391E+02  0.51100000000E-03 0. -1.
         22    1    1    0    0    0 -0.22520319925E+01 -0.56633568057E+01  0.23930626174E+02  0.24694536389E+02  0.00000000000E+00 0. -1.
</event>
<event>
 5    1  0.1044283E-009  0.9118800E+02  0.7815553E-02  0.1125453E+00
         25   -1    0    0    0    0  0.00000000000E+00  0.00000000000E+00  0.99999998245E-14  0.12509000000E+03  0.12509000000E+03 0.  0.
        -11    1    3    3    0    0 -0.20356177582E+02  0.23897240329E+02 -0.33162762294E+02  0.45664218643E+02  0.51100000000E-03 0.  1.
         23    2    1    0    0    0 -0.89370290869E+01 -0.21940726597E+02 -0.18196568042E+02  0.95217252202E+02  0.90409867027E+02 0.  0.
         11    1    3    3    0    0  0.11419148495E+02 -0.45837966926E+02  0.14966194251E+02  0.49553033559E+02  0.51100000000E-03 0. -1.
         22    1    1    0    0    0  0.89370290869E+01  0.21940726597E+02  0.18196568042E+02  0.29872747798E+02  0.00000000000E+00 0. -1.
</event>
<event>
 5    1  0.1044283E-009  0.9118800E+02  0.7815553E-02  0.1125453E+00
         25   -1    0    0    0    0  0.00000000000E+00  0.00000000000E+00  0.99999998245E-14  0.12509000000E+03  0.12509000000E+03 0.  0.
        -11    1    3    3    0    0  0.51495143984E+02 -0.80800045296E+01  0.78704760080E+01  0.52716038546E+02  0.51100000000E-03 0.  1.
         23    2    1    0    0    0  0.15976533711E+02 -0.23383313241E+02  0.16460595274E+02  0.92333624066E+02  0.86327967478E+02 0.  0.
         11    1    3    3    0    0 -0.35518610273E+02 -0.15303308711E+02  0.85901192663E+01  0.39617585521E+02  0.51100000000E-03 0. -1.
         22    1    1    0    0    0 -0.15976533711E+02  0.23383313241E+02 -0.16460595274E+02  0.32756375934E+02  0.00000000000E+00 0.  1.
</event>
<event>
 5    1  0.1044283E-009  0.9118800E+02  0.7815553E-02  0.1125453E+00
         25   -1    0    0    0    0  0.00000000000E+00  0.00000000000E+00  0.99999998245E-14  0.12509000000E+03  0.12509000000E+03 0.  0.
        -11    1    3    3    0    0  0.37493268715E+02 -0.16157588448E+02 -0.34678486395E+02  0.53566876727E+02  0.51100000000E-03 0. -1.
         23    2    1    0    0    0  0.26438162810E+02 -0.77381900753E+01  0.62949100929E+01  0.96832577409E+02  0.92617849879E+02 0.  0.
         11    1    3    3    0    0 -0.11055105906E+02  0.84193983727E+01  0.40973396488E+02  0.43265700682E+02  0.51100000000E-03 0.  1.
         22    1    1    0    0    0 -0.26438162810E+02  0.77381900753E+01 -0.62949100929E+01  0.28257422591E+02  0.00000000000E+00 0. -1.
</event>
<event>
 5    1  0.1044283E-009  0.9118800E+02  0.7815553E-02  0.1125453E+00
         25   -1    0    0    0    0  0.00000000000E+00  0.00000000000E+00  0.99999998245E-14  0.12509000000E+03  0.12509000000E+03 0.  0.
        -11    1    3    3    0    0 -0.21975082831E+02 -0.23885051738E+02 -0.13622347514E+02  0.35198981718E+02  0.51100000000E-03 0.  1.
         23    2    1    0    0    0 -0.10089206192E+02  0.29306399645E+02  0.67212327299E+01  0.93375143684E+02  0.87824172907E+02 0.  0.
         11    1    3    3    0    0  0.11885876639E+02  0.53191451383E+02  0.20343580244E+02  0.58176161966E+02  0.51100000000E-03 0. -1.
         22    1    1    0    0    0  0.10089206192E+02 -0.29306399645E+02 -0.67212327299E+01  0.31714856316E+02  0.00000000000E+00 0. -1.
</event>
<event>
 5    1  0.1044283E-009  0.9118800E+02  0.7815553E-02  0.1125453E+00
         25   -1    0    0    0    0  0.00000000000E+00  0.00000000000E+00  0.99999998245E-14  0.12509000000E+03  0.12509000000E+03 0.  0.
        -11    1    3    3    0    0  0.14402408274E+02  0.45355270894E+02 -0.31115857574E+01  0.47688698118E+02  0.51100000000E-03 0.  1.
         23    2    1    0    0    0  0.28005742269E+02 -0.70106898386E+00 -0.79878733779E+01  0.95958930352E+02  0.91430285439E+02 0.  0.
         11    1    3    3    0    0  0.13603333995E+02 -0.46056339878E+02 -0.48762876206E+01  0.48270232234E+02  0.51100000000E-03 0. -1.
         22    1    1    0    0    0 -0.28005742269E+02  0.70106898386E+00  0.79878733779E+01  0.29131069648E+02  0.00000000000E+00 0.  1.
</event>
<event>
 5    1  0.1044283E-009  0.9118800E+02  0.7815553E-02  0.1125453E+00
         25   -1    0    0    0    0  0.00000000000E+00  0.00000000000E+00  0.99999998245E-14  0.12509000000E+03  0.12509000000E+03 0.  0.
        -11    1    3    3    0    0 -0.47872931011E+01  0.14046178677E+02 -0.52176067179E+02  0.54245325118E+02  0.51100000000E-03 0.  1.
         23    2    1    0    0    0  0.19405360195E+02 -0.72100618784E-02 -0.26688494137E+02  0.92092367121E+02  0.85977673302E+02 0.  0.
         11    1    3    3    0    0  0.24192653296E+02 -0.14053388739E+02  0.25487573042E+02  0.37847042003E+02  0.51100000000E-03 0. -1.
         22    1    1    0    0    0 -0.19405360195E+02  0.72100618784E-02  0.26688494137E+02  0.32997632879E+02  0.00000000000E+00 0.  1.
</event>
<event>
 5    1  0.1044283E-009  0.9118800E+02  0.7815553E-02  0.1125453E+00
         25   -1    0    0    0    0  0.00000000000E+00  0.00000000000E+00  0.99999998245E-14  0.12509000000E+03  0.12509000000E+03 0.  0.
        -11    1    3    3    0    0  0.32273503524E+02  0.39047144295E+01  0.33045128960E+01  0.32676377251E+02  0.51100000000E-03 0. -1.
         23    2    1    0    0    0 -0.27823702331E+02  0.98058435856E+01  0.11112679447E+02  0.93565333081E+02  0.88094647569E+02 0.  0.
         11    1    3    3    0    0 -0.60097205856E+02  0.59011291560E+01  0.78081665507E+01  0.60888955830E+02  0.51100000000E-03 0.  1.
         22    1    1    0    0    0  0.27823702331E+02 -0.98058435856E+01 -0.11112679447E+02  0.31524666919E+02  0.00000000000E+00 0.  1.
</event>
<event>
 5    1  0.1044283E-009  0.9118800E+02  0.7815553E-02  0.1125453E+00
         25   -1    0    0    0    0  0.00000000000E+00  0.00000000000E+00  0.99999998245E-14  0.12509000000E+03  0.12509000000E+03 0.  0.
        -11    1    3    3    0    0  0.34077210095E+02  0.23083672963E+02  0.42157800301E+01  0.41374932107E+02  0.51100000000E-03 0. -1.
         23    2    1    0    0    0 -0.13021638881E+02  0.59382555221E+01  0.25515007832E+02  0.95835229749E+02  0.91260888000E+02 0.  0.
         11    1    3    3    0    0 -0.47098848976E+02 -0.17145417440E+02  0.21299227802E+02  0.54460297642E+02  0.51100000000E-03 0.  1.
         22    1    1    0    0    0  0.13021638881E+02 -0.59382555221E+01 -0.25515007832E+02  0.29254770251E+02  0.00000000000E+00 0. -1.
</event>
<event>
 5    1  0.1044283E-009  0.9118800E+02  0.7815553E-02  0.1125453E+00
         25   -1    0    0    0    0  0.00000000000E+00  0.00000000000E+00  0.99999998245E-14  0.12509000000E+03  0.12509000000E+03 0.  0.
        -11    1    3    3    0    0  0.57653347075E+02  0.74983120033E+01  0.77721075824E+01  0.58656105977E+02  0.51100000000E-03 0.  1.
         23    2    1    0    0    0  0.29547216423E+02  0.62160953550E+01 -0.11522839591E+02  0.92771991521E+02  0.86960846009E+02 0.  0.
         11    1    3    3    0    0 -0.28106130652E+02 -0.12822166483E+01 -0.19294947173E+02  0.34115885544E+02  0.51100000000E-03 0. -1.
         22    1    1    0    0    0 -0.29547216423E+02 -0.62160953550E+01  0.11522839591E+02  0.32318008479E+02  0.00000000000E+00 0.  1.
</event>
<event>
 5    1  0.1044283E-009  0.9118800E+02  0.7815553E-02  0.1125453E+00
         25   -1    0    0    0    0  0.00000000000E+00  0.00000000000E+00  0.99999998245E-14  0.12509000000E+03  0.12509000000E+03 0.  0.
        -11    1    3    3    0    0 -0.53779008128E+02 -0.63153962896E+01  0.20644647888E+02  0.57950560241E+02  0.51100000000E-03 0.  1.
         23    2    1    0    0    0 -0.11427847880E+02 -0.93027063398E+01  0.19791254498E+02  0.10041552317E+03  0.97336773553E+02 0.  0.
         11    1    3    3    0    0  0.42351160248E+02 -0.29873100502E+01 -0.85339339000E+00  0.42464962925E+02  0.51100000000E-03 0. -1.
         22    1    1    0    0    0  0.11427847880E+02  0.93027063398E+01 -0.19791254498E+02  0.24674476834E+02  0.00000000000E+00 0.  1.
</event>
<event>
 5    1  0.1044283E-009  0.9118800E+02  0.7815553E-02  0.1125453E+00
         25   -1    0    0    0    0  0.00000000000E+00  0.00000000000E+00  0.99999998245E-14  0.12509000000E+03  0.12509000000E+03 0.  0.
        -11    1    3    3    0    0 -0.50738478294E+02 -0.98415316050E+00 -0.13215181351E+01  0.50765225770E+02  0.51100000000E-03 0. -1.
         23    2    1    0    0    0 -0.13091861291E+02  0.99754325388E+00 -0.26096860168E+02  0.95876338209E+02  0.91317217397E+02 0.  0.
         11    1    3    3    0    0  0.37646617002E+02  0.19816964144E+01 -0.24775342033E+02  0.45111112439E+02  0.51100000000E-03 0.  1.
         22    1    1    0    0    0  0.13091861291E+02 -0.99754325388E+00  0.26096860168E+02  0.29213661791E+02  0.00000000000E+00 0. -1.
</event>
<event>
 5    1  0.1044283E-009  0.9118800E+02  0.7815553E-02  0.1125453E+00
         25   -1    0    0    0    0  0.00000000000E+00  0.00000000000E+00  0.99999998245E-14  0.12509000000E+03  0.12509000000E+03 0.  0.
        -11    1    3    3    0    0 -0.58963246046E+02 -0.49838909420E+01 -0.27107596494E+01  0.59235561712E+02  0.51100000000E-03 0.  1.
         23    2    1    0    0    0 -0.25256378123E+02  0.56083473555E+01  0.10789275280E+02  0.97058827049E+02  0.92922921021E+02 0.  0.
         11    1    3    3    0    0  0.33706867923E+02  0.10592238298E+02  0.13500034929E+02  0.37823265336E+02  0.51100000000E-03 0. -1.
         22    1    1    0    0    0  0.25256378123E+02 -0.56083473555E+01 -0.10789275280E+02  0.28031172951E+02  0.00000000000E+00 0.  1.
</event>
<event>
 5    1  0.1044283E-009  0.9118800E+02  0.7815553E-02  0.1125453E+00
         25   -1    0    0    0    0  0.00000000000E+00  0.00000000000E+00  0.99999998245E-14  0.12509000000E+03  0.12509000000E+03 0.  0.
        -11    1    3    3    0    0  0.61971514154E+01  0.29802930255E+02 -0.48490818122E+02  0.57253635517E+02  0.51100000000E-03 0. -1.
         23    2    1    0    0    0  0.14012920388E+02  0.24230254993E+02 -0.12620950908E+02  0.94385674627E+02  0.89251890614E+02 0.  0.
         11    1    3    3    0    0  0.78157689723E+01 -0.55726752617E+01  0.35869867215E+02  0.37132039110E+02  0.51100000000E-03 0.  1.
         22    1    1    0    0    0 -0.14012920388E+02 -0.24230254993E+02  0.12620950908E+02  0.30704325373E+02  0.00000000000E+00 0. -1.
</event>
<event>
 5    1  0.1044283E-009  0.9118800E+02  0.7815553E-02  0.1125453E+00
         25   -1    0    0    0    0  0.00000000000E+00  0.00000000000E+00  0.99999998245E-14  0.12509000000E+03  0.12509000000E+03 0.  0.
        -11    1    3    3    0    0 -0.51421812063E+02  0.34348851856E+02 -0.33147549268E+01  0.61927651176E+02  0.51100000000E-03 0.  1.
         23    2    1    0    0    0 -0.22150069171E+02  0.11341971473E+02 -0.67184732333E+01  0.99313969201E+02  0.95910691347E+02 0.  0.
         11    1    3    3    0    0  0.29271742892E+02 -0.23006880383E+02 -0.34037183065E+01  0.37386318025E+02  0.51100000000E-03 0. -1.
         22    1    1    0    0    0  0.22150069171E+02 -0.11341971473E+02  0.67184732333E+01  0.25776030799E+02  0.00000000000E+00 0.  1.
</event>
<event>
 5    1  0.1044283E-009  0.9118800E+02  0.7815553E-02  0.1125453E+00
         25   -1    0    0    0    0  0.00000000000E+00  0.00000000000E+00  0.99999998245E-14  0.12509000000E+03  0.12509000000E+03 0.  0.
        -11    1    3    3    0    0 -0.19847531910E+02 -0.40656079974E+02 -0.68222603837E+01  0.45753520070E+02  0.51100000000E-03 0.  1.
         23    2    1    0    0    0  0.22996798252E+02 -0.23254702844E+02 -0.92183175852E+00  0.92371752675E+02  0.86383198507E+02 0.  0.
         11    1    3    3    0    0  0.42844330162E+02  0.17401377130E+02  0.59004286252E+01  0.46618232606E+02  0.51100000000E-03 0. -1.
         22    1    1    0    0    0 -0.22996798252E+02  0.23254702844E+02  0.92183175852E+00  0.32718247325E+02  0.00000000000E+00 0.  1.
</event>
<event>
 5    1  0.1044283E-009  0.9118800E+02  0.7815553E-02  0.1125453E+00
         25   -1    0    0    0    0  0.00000000000E+00  0.00000000000E+00  0.99999998245E-14  0.12509000000E+03  0.12509000000E+03 0.  0.
        -11    1    3    3    0    0  0.47739188040E+02 -0.17634006882E+02  0.10028589484E+02  0.51870616737E+02  0.51100000000E-03 0.  1.
         23    2    1    0    0    0  0.14532886418E+02  0.58302531882E+01  0.25326932128E+02  0.95313329083E+02  0.90542700258E+02 0.  0.
         11    1    3    3    0    0 -0.33206301621E+02  0.23464260070E+02  0.15298342644E+02  0.43442712346E+02  0.51100000000E-03 0. -1.
         22    1    1    0    0    0 -0.14532886418E+02 -0.58302531882E+01 -0.25326932128E+02  0.29776670917E+02  0.00000000000E+00 0. -1.
</event>
<event>
 5    1  0.1044283E-009  0.9118800E+02  0.7815553E-02  0.1125453E+00
         25   -1    0    0    0    0  0.00000000000E+00  0.00000000000E+00  0.99999998245E-14  0.12509000000E+03  0.12509000000E+03 0.  0.
        -11    1    3    3    0    0 -0.12612230863E+02 -0.35891500430E+02 -0.12979730139E+01  0.38065114011E+02  0.51100000000E-03 0. -1.
         23    2    1    0    0    0 -0.72990547332E+01  0.20106046291E+02 -0.18419486507E+02  0.96862233871E+02  0.92657895346E+02 0.  0.
         11    1    3    3    0    0  0.53131761299E+01  0.55997546721E+02 -0.17121513493E+02  0.58797119860E+02  0.51100000000E-03 0.  1.
         22    1    1    0    0    0  0.72990547332E+01 -0.20106046291E+02  0.18419486507E+02  0.28227766129E+02  0.00000000000E+00 0.  1.
</event>
<event>
 5    1  0.1044283E-009  0.9118800E+02  0.7815553E-02  0.1125453E+00
         25   -1    0    0    0    0  0.00000000000E+00  0.00000000000E+00  0.99999998245E-14  0.12509000000E+03  0.12509000000E+03 0.  0.
        -11    1    3    3    0    0 -0.32714404551E+02  0.86796969079E+00 -0.76361724956E+01  0.33605011042E+02  0.51100000000E-03 0.  1.
         23    2    1    0    0    0  0.25198823226E+02  0.11225041100E+02  0.11109095689E+02  0.95351233269E+02  0.90595051958E+02 0.  0.
         11    1    3    3    0    0  0.57913227777E+02  0.10357071410E+02  0.18745268184E+02  0.61746222227E+02  0.51100000000E-03 0. -1.
         22    1    1    0    0    0 -0.25198823226E+02 -0.11225041100E+02 -0.11109095689E+02  0.29738766731E+02  0.00000000000E+00 0. -1.
</event>
<event>
 5    1  0.1044283E-009  0.9118800E+02  0.7815553E-02  0.1125453E+00
         25   -1    0    0    0    0  0.00000000000E+00  0.00000000000E+00  0.99999998245E-14  0.12509000000E+03  0.12509000000E+03 0.  0.
        -11    1    3    3    0    0  0.22690771747E+02  0.81713665631E+01  0.26724931165E+02  0.35998115229E+02  0.51100000000E-03 0.  1.
         23    2    1    0    0    0  0.97441152346E+01  0.19126955548E+02 -0.25994222046E+02  0.91378165431E+02  0.84932216075E+02 0.  0.
         11    1    3    3    0    0 -0.12946656512E+02  0.10955588985E+02 -0.52719153211E+02  0.55380050202E+02  0.51100000000E-03 0. -1.
         22    1    1    0    0    0 -0.97441152346E+01 -0.19126955548E+02  0.25994222046E+02  0.33711834569E+02  0.00000000000E+00 0. -1.
</event>
<event>
 5    1  0.1044283E-009  0.9118800E+02  0.7815553E-02  0.1125453E+00
         25   -1    0    0    0    0  0.00000000000E+00  0.00000000000E+00  0.99999998245E-14  0.12509000000E+03  0.12509000000E+03 0.  0.
        -11    1    3    3    0    0  0.23474078141E+01 -0.50063338695E+02 -0.34945995474E+02  0.61098860911E+02  0.51100000000E-03 0.  1.
         23    2    1    0    0    0 -0.70532915991E+01 -0.21828187671E+02 -0.21103958145E+02  0.93919569320E+02  0.88596217484E+02 0.  0.
         11    1    3    3    0    0 -0.94006994131E+01  0.28235151024E+02  0.13842037329E+02  0.32820708409E+02  0.51100000000E-03 0. -1.
         22    1    1    0    0    0  0.70532915991E+01  0.21828187671E+02  0.21103958145E+02  0.31170430680E+02  0.00000000000E+00 0.  1.
</event>
<event>
 5    1  0.1044283E-009  0.9118800E+02  0.7815553E-02  0.1125453E+00
         25   -1    0    0    0    0  0.00000000000E+00  0.00000000000E+00  0.99999998245E-14  0.12509000000E+03  0.12509000000E+03 0.  0.
        -11    1    3    3    0    0  0.11227263103E+02  0.44779575330E+02 -0.88985589018E+01  0.47015382104E+02  0.51100000000E-03 0.  1.
         23    2    1    0    0    0 -0.24317444702E+02  0.11503573050E+02 -0.11631275550E+02  0.95782033837E+02  0.91187943969E+02 0.  0.
         11    1    3    3    0    0 -0.35544707805E+02 -0.33276002281E+02 -0.27327166481E+01  0.48766651733E+02  0.51100000000E-03 0. -1.
         22    1    1    0    0    0  0.24317444702E+02 -0.11503573050E+02  0.11631275550E+02  0.29307966163E+02  0.00000000000E+00 0. -1.
</event>
<event>
 5    1  0.1044283E-009  0.9118800E+02  0.7815553E-02  0.1125453E+00
         25   -1    0    0    0    0  0.00000000000E+00  0.00000000000E+00  0.99999998245E-14  0.12509000000E+03  0.12509000000E+03 0.  0.
        -11    1    3    3    0    0  0.25594759806E+02  0.19104721320E+01  0.55968083188E+02  0.61572461128E+02  0.51100000000E-03 0.  1.
         23    2    1    0    0    0  0.12979445952E+02  0.84052061392E+01  0.24112484269E+02  0.96445185372E+02  0.92093150540E+02 0.  0.
         11    1    3    3    0    0 -0.12615313854E+02  0.64947340072E+01 -0.31855598919E+02  0.34872724244E+02  0.51100000000E-03 0. -1.
         22    1    1    0    0    0 -0.12979445952E+02 -0.84052061392E+01 -0.24112484269E+02  0.28644814628E+02  0.00000000000E+00 0.  1.
</event>
<event>
 5    1  0.1044283E-009  0.9118800E+02  0.7815553E-02  0.1125453E+00
         25   -1    0    0    0    0  0.00000000000E+00  0.00000000000E+00  0.99999998245E-14  0.12509000000E+03  0.12509000000E+03 0.  0.
        -11    1    3    3    0    0  0.11325460194E+02  0.12704644019E+00 -0.34103231062E+02  0.35934837672E+02  0.51100000000E-03 0. -1.
         23    2    1    0    0    0 -0.26730995396E+02  0.20984491887E+01  0.11970629702E+02  0.95725981554E+02  0.91111019998E+02 0.  0.
         11    1    3    3    0    0 -0.38056455589E+02  0.19714027485E+01  0.46073860764E+02  0.59791143882E+02  0.51100000000E-03 0.  1.
         22    1    1    0    0    0  0.26730995396E+02 -0.20984491887E+01 -0.11970629702E+02  0.29364018446E+02  0.00000000000E+00 0.  1.
</event>
<event>
 5    1  0.1044283E-009  0.9118800E+02  0.7815553E-02  0.1125453E+00
         25   -1    0    0    0    0  0.00000000000E+00  0.00000000000E+00  0.99999998245E-14  0.12509000000E+03  0.12509000000E+03 0.  0.
        -11    1    3    3    0    0  0.33002236390E+02 -0.76596409855E+01  0.31604476210E+02  0.46332069062E+02  0.51100000000E-03 0.  1.
         23    2    1    0    0    0  0.20864980793E+02  0.11935154613E+02 -0.13886977933E+02  0.97329533591E+02  0.93286626125E+02 0.  0.
         11    1    3    3    0    0 -0.12137255597E+02  0.19594795599E+02 -0.45491454143E+02  0.50997464529E+02  0.51100000000E-03 0. -1.
         22    1    1    0    0    0 -0.20864980793E+02 -0.11935154613E+02  0.13886977933E+02  0.27760466409E+02  0.00000000000E+00 0. -1.
</event>
<event>
 5    1  0.1044283E-009  0.9118800E+02  0.7815553E-02  0.1125453E+00
         25   -1    0    0    0    0  0.00000000000E+00  0.00000000000E+00  0.99999998245E-14  0.12509000000E+03  0.12509000000E+03 0.  0.
        -11    1    3    3    0    0  0.26134083450E+02  0.24548679931E+02 -0.69530722039E+00  0.35862396135E+02  0.51100000000E-03 0.  1.
         23    2    1    0    0    0  0.15984438886E+02 -0.14557921506E+02  0.31056931914E+02  0.87248641872E+02  0.78615247399E+02 0.  0.
         11    1    3    3    0    0 -0.10149644565E+02 -0.39106601437E+02  0.31752239134E+02  0.51386245738E+02  0.51100000000E-03 0. -1.
         22    1    1    0    0    0 -0.15984438886E+02  0.14557921506E+02 -0.31056931914E+02  0.37841358128E+02  0.00000000000E+00 0. -1.
</event>
<event>
 5    1  0.1044283E-009  0.9118800E+02  0.7815553E-02  0.1125453E+00
         25   -1    0    0    0    0  0.00000000000E+00  0.00000000000E+00  0.99999998245E-14  0.12509000000E+03  0.12509000000E+03 0.  0.
        -11    1    3    3    0    0  0.15215629309E+02  0.48033630633E+02 -0.16473207192E+01  0.50412882410E+02  0.51100000000E-03 0.  1.
         23    2    1    0    0    0  0.21909290445E+02  0.10568582707E+02 -0.20859744870E+02  0.93045641615E+02  0.87353594770E+02 0.  0.
         11    1    3    3    0    0  0.66936611364E+01 -0.37465047926E+02 -0.19212424151E+02  0.42632759206E+02  0.51100000000E-03 0. -1.
         22    1    1    0    0    0 -0.21909290445E+02 -0.10568582707E+02  0.20859744870E+02  0.32044358385E+02  0.00000000000E+00 0.  1.
</event>
<event>
 5    1  0.1044283E-009  0.9118800E+02  0.7815553E-02  0.1125453E+00
         25   -1    0    0    0    0  0.00000000000E+00  0.00000000000E+00  0.99999998245E-14  0.12509000000E+03  0.12509000000E+03 0.  0.
        -11    1    3    3    0    0 -0.87923221838E+01 -0.31285650889E+02 -0.19147185207E+02  0.37718849168E+02  0.51100000000E-03 0. -1.
         23    2    1    0    0    0 -0.20785116183E+02  0.10249607313E+01  0.24248890693E+02  0.93135652892E+02  0.87482395604E+02 0.  0.
         11    1    3    3    0    0 -0.11992794000E+02  0.32310611620E+02  0.43396075900E+02  0.55416803724E+02  0.51100000000E-03 0.  1.
         22    1    1    0    0    0  0.20785116183E+02 -0.10249607313E+01 -0.24248890693E+02  0.31954347108E+02  0.00000000000E+00 0.  1.
</event>
<event>
 5    1  0.1044283E-009  0.9118800E+02  0.7815553E-02  0.1125453E+00
         25   -1    0    0    0    0  0.00000000000E+00  0.00000000000E+00  0.99999998245E-14  0.12509000000E+03  0.12509000000E+03 0.  0.
        -11    1    3    3    0    0  0.58718509090E+02  0.91275281005E+00  0.42868819215E+01  0.58881862949E+02  0.51100000000E-03 0. -1.
         23    2    1    0    0    0  0.26140433528E+02 -0.14360256349E+02 -0.99661460354E+00  0.95248209368E+02  0.90452688848E+02 0.  0.
         11    1    3    3    0    0 -0.32578075562E+02 -0.15273009159E+02 -0.52834965251E+01  0.36366346419E+02  0.51100000000E-03 0.  1.
         22    1    1    0    0    0 -0.26140433528E+02  0.14360256349E+02  0.99661460354E+00  0.29841790632E+02  0.00000000000E+00 0. -1.
</event>
<event>
 5    1  0.1044283E-009  0.9118800E+02  0.7815553E-02  0.1125453E+00
         25   -1    0    0    0    0  0.00000000000E+00  0.00000000000E+00  0.99999998245E-14  0.12509000000E+03  0.12509000000E+03 0.  0.
        -11    1    3    3    0    0 -0.57359921915E+01 -0.45233002676E+02  0.11846801359E+02  0.47109158772E+02  0.51100000000E-03 0. -1.
         23    2    1    0    0    0  0.14257701856E+02 -0.14835776080E+01  0.24372242456E+02  0.96814758762E+02  0.92593780823E+02 0.  0.
         11    1    3    3    0    0  0.19993694047E+02  0.43749425068E+02  0.12525441097E+02  0.49705599990E+02  0.51100000000E-03 0.  1.
         22    1    1    0    0    0 -0.14257701856E+02  0.14835776080E+01 -0.24372242456E+02  0.28275241238E+02  0.00000000000E+00 0.  1.
</event>
<event>
 5    1  0.1044283E-009  0.9118800E+02  0.7815553E-02  0.1125453E+00
         25   -1    0    0    0    0  0.00000000000E+00  0.00000000000E+00  0.99999998245E-14  0.12509000000E+03  0.12509000000E+03 0.  0.
        -11    1    3    3    0    0  0.29238290785E+02 -0.26933361118E+02  0.43820251076E+02  0.59165006497E+02  0.51100000000E-03 0. -1.
         23    2    1    0    0    0  0.69889380401E+01 -0.24610601427E+02  0.15796601097E+02  0.95022416730E+02  0.90139891931E+02 0.  0.
         11    1    3    3    0    0 -0.22249352745E+02  0.23227596911E+01 -0.28023649979E+02  0.35857410233E+02  0.51100000000E-03 0.  1.
         22    1    1    0    0    0 -0.69889380401E+01  0.24610601427E+02 -0.15796601097E+02  0.30067583270E+02  0.00000000000E+00 0. -1.
</event>
<event>
 5    1  0.1044283E-009  0.9118800E+02  0.7815553E-02  0.1125453E+00
         25   -1    0    0    0    0  0.00000000000E+00  0.00000000000E+00  0.99999998245E-14  0.12509000000E+03  0.12509000000E+03 0.  0.
        -11    1    3    3    0    0  0.15183472822E+01  0.22386736011E+02 -0.23291031896E+02  0.32341049685E+02  0.51100000000E-03 0. -1.
         23    2    1    0    0    0 -0.17780900520E+02 -0.14908564336E+02  0.21299619328E+02  0.93592389021E+02  0.88133057279E+02 0.  0.
         11    1    3    3    0    0 -0.19299247802E+02 -0.37295300346E+02  0.44590651224E+02  0.61251339336E+02  0.51100000000E-03 0.  1.
         22    1    1    0    0    0  0.17780900520E+02  0.14908564336E+02 -0.21299619328E+02  0.31497610979E+02  0.00000000000E+00 0.  1.
</event>
<event>
 5    1  0.1044283E-009  0.9118800E+02  0.7815553E-02  0.1125453E+00
         25   -1    0    0    0    0  0.00000000000E+00  0.00000000000E+00  0.99999998245E-14  0.12509000000E+03  0.12509000000E+03 0.  0.
        -11    1    3    3    0    0 -0.13359435563E+02  0.40305106289E+02 -0.79712270490E+00  0.42468947673E+02  0.51100000000E-03 0.  1.
         23    2    1    0    0    0  0.20484427168E+02  0.53892715842E+01  0.20552988010E+02  0.95575913181E+02  0.90904751579E+02 0.  0.
         11    1    3    3    0    0  0.33843862731E+02 -0.34915834705E+02  0.21350110715E+02  0.53106965508E+02  0.51100000000E-03 0. -1.
         22    1    1    0    0    0 -0.20484427168E+02 -0.53892715842E+01 -0.20552988010E+02  0.29514086819E+02  0.00000000000E+00 0.  1.
</event>
<event>
 5    1  0.1044283E-009  0.9118800E+02  0.7815553E-02  0.1125453E+00
         25   -1    0    0    0    0  0.00000000000E+00  0.00000000000E+00  0.99999998245E-14  0.12509000000E+03  0.12509000000E+03 0.  0.
        -11    1    3    3    0    0  0.18739767540E+02 -0.85208110371E+01  0.24889550887E+02  0.32299734547E+02  0.51100000000E-03 0. -1.
         23    2    1    0    0    0  0.72682164506E+01  0.35864341826E+02  0.29100294577E+02  0.78336335657E+02  0.62854406009E+02 0.  0.
         11    1    3    3    0    0 -0.11471551090E+02  0.44385152863E+02  0.42107436901E+01  0.46036601110E+02  0.51100000000E-03 0.  1.
         22    1    1    0    0    0 -0.72682164506E+01 -0.35864341826E+02 -0.29100294577E+02  0.46753664343E+02  0.00000000000E+00 0.  1.
</event>
<event>
 5    1  0.1044283E-009  0.9118800E+02  0.7815553E-02  0.1125453E+00
         25   -1    0    0    0    0  0.00000000000E+00  0.00000000000E+00  0.99999998245E-14  0.12509000000E+03  0.12509000000E+03 0.  0.
        -11    1    3    3    0    0  0.68422386149E+01 -0.41848927912E+02 -0.27152381606E+02  0.50352763815E+02  0.51100000000E-03 0.  1.
         23    2    1    0    0    0  0.25808166156E+02 -0.13305502688E+02  0.28685475099E+01  0.95912501701E+02  0.91366742175E+02 0.  0.
         11    1    3    3    0    0  0.18965927542E+02  0.28543425224E+02  0.30020929116E+02  0.45559737886E+02  0.51100000000E-03 0. -1.
         22    1    1    0    0    0 -0.25808166156E+02  0.13305502688E+02 -0.28685475099E+01  0.29177498299E+02  0.00000000000E+00 0.  1.
</event>
<event>
 5    1  0.1044283E-009  0.9118800E+02  0.7815553E-02  0.1125453E+00
         25   -1    0    0    0    0  0.00000000000E+00  0.00000000000E+00  0.99999998245E-14  0.12509000000E+03  0.12509000000E+03 0.  0.
        -11    1    3    3    0    0  0.23572062378E+02  0.38327194480E+02  0.18440146483E+02  0.48627718063E+02  0.51100000000E-03 0.  1.
         23    2    1    0    0    0 -0.15175470704E+02  0.24306507921E+02 -0.49515930881E+01  0.96010462306E+02  0.91500761525E+02 0.  0.
         11    1    3    3    0    0 -0.38747533082E+02 -0.14020686559E+02 -0.23391739571E+02  0.47382744242E+02  0.51100000000E-03 0. -1.
         22    1    1    0    0    0  0.15175470704E+02 -0.24306507921E+02  0.49515930881E+01  0.29079537694E+02  0.00000000000E+00 0.  1.
</event>
<event>
 5    1  0.1044283E-009  0.9118800E+02  0.7815553E-02  0.1125453E+00
         25   -1    0    0    0    0  0.00000000000E+00  0.00000000000E+00  0.99999998245E-14  0.12509000000E+03  0.12509000000E+03 0.  0.
        -11    1    3    3    0    0  0.18062953843E+02  0.59047724639E+02  0.12702211396E+01  0.61761780646E+02  0.51100000000E-03 0.  1.
         23    2    1    0    0    0  0.35007861858E+01  0.29183170009E+02 -0.40809257557E+01  0.95415652986E+02  0.90683956487E+02 0.  0.
         11    1    3    3    0    0 -0.14562167657E+02 -0.29864554630E+02 -0.53511468953E+01  0.33653872340E+02  0.51100000000E-03 0. -1.
         22    1    1    0    0    0 -0.35007861858E+01 -0.29183170009E+02  0.40809257557E+01  0.29674347014E+02  0.00000000000E+00 0.  1.
</event>
<event>
 5    1  0.1044283E-009  0.9118800E+02  0.7815553E-02  0.1125453E+00
         25   -1    0    0    0    0  0.00000000000E+00  0.00000000000E+00  0.99999998245E-14  0.12509000000E+03  0.12509000000E+03 0.  0.
        -11    1    3    3    0    0  0.14717129021E+02  0.17245584719E+02 -0.55181920375E+02  0.59657760731E+02  0.51100000000E-03 0. -1.
         23    2    1    0    0    0  0.19706774188E+02  0.74575682986E+01 -0.21928964359E+02  0.94678624633E+02  0.89661531388E+02 0.  0.
         11    1    3    3    0    0  0.49896451677E+01 -0.97880164204E+01  0.33252956017E+02  0.35020863902E+02  0.51100000000E-03 0.  1.
         22    1    1    0    0    0 -0.19706774188E+02 -0.74575682986E+01  0.21928964359E+02  0.30411375367E+02  0.00000000000E+00 0. -1.
</event>
<event>
 5    1  0.1044283E-009  0.9118800E+02  0.7815553E-02  0.1125453E+00
         25   -1    0    0    0    0  0.00000000000E+00  0.00000000000E+00  0.99999998245E-14  0.12509000000E+03  0.12509000000E+03 0.  0.
        -11    1    3    3    0    0  0.15992169911E+02  0.58742793857E+02  0.95491753550E+01  0.61625092931E+02  0.51100000000E-03 0.  1.
         23    2    1    0    0    0  0.93461806988E+01  0.26610724477E+02  0.11805278942E+02  0.94514742654E+02  0.89432601534E+02 0.  0.
         11    1    3    3    0    0 -0.66459892123E+01 -0.32132069379E+02  0.22561035871E+01  0.32889649723E+02  0.51100000000E-03 0. -1.
         22    1    1    0    0    0 -0.93461806988E+01 -0.26610724477E+02 -0.11805278942E+02  0.30575257346E+02  0.00000000000E+00 0.  1.
</event>
<event>
 5    1  0.1044283E-009  0.9118800E+02  0.7815553E-02  0.1125453E+00
         25   -1    0    0    0    0  0.00000000000E+00  0.00000000000E+00  0.99999998245E-14  0.12509000000E+03  0.12509000000E+03 0.  0.
        -11    1    3    3    0    0 -0.32097536326E+02  0.19900873348E+02  0.30623710307E+02  0.48622096124E+02  0.51100000000E-03 0.  1.
         23    2    1    0    0    0 -0.57640190536E+01  0.31120539699E+02 -0.35975880907E+01  0.93236357401E+02  0.87626273426E+02 0.  0.
         11    1    3    3    0    0  0.26333517272E+02  0.11219666351E+02 -0.34221298398E+02  0.44614261277E+02  0.51100000000E-03 0. -1.
         22    1    1    0    0    0  0.57640190536E+01 -0.31120539699E+02  0.35975880907E+01  0.31853642599E+02  0.00000000000E+00 0.  1.
</event>
<event>
 5    1  0.1044283E-009  0.9118800E+02  0.7815553E-02  0.1125453E+00
         25   -1    0    0    0    0  0.00000000000E+00  0.00000000000E+00  0.99999998245E-14  0.12509000000E+03  0.12509000000E+03 0.  0.
        -11    1    3    3    0    0  0.11089874085E+02 -0.11159138740E+02 -0.33829730046E+02  0.37309011242E+02  0.51100000000E-03 0.  1.
         23    2    1    0    0    0 -0.27074135043E+02 -0.19785204776E+02  0.34848882216E+01  0.91376389065E+02  0.84929599765E+02 0.  0.
         11    1    3    3    0    0 -0.38164009128E+02 -0.86260660358E+01  0.37314618267E+02  0.54067377823E+02  0.51100000000E-03 0. -1.
         22    1    1    0    0    0  0.27074135043E+02  0.19785204776E+02 -0.34848882216E+01  0.33713610935E+02  0.00000000000E+00 0. -1.
</event>
<event>
 5    1  0.1044283E-009  0.9118800E+02  0.7815553E-02  0.1125453E+00
         25   -1    0    0    0    0  0.00000000000E+00  0.00000000000E+00  0.99999998245E-14  0.12509000000E+03  0.12509000000E+03 0.  0.
        -11    1    3    3    0    0 -0.70317928317E+01  0.31061135285E+02  0.15580571201E+02  0.35454117319E+02  0.51100000000E-03 0. -1.
         23    2    1    0    0    0 -0.44607288159E+01 -0.16298561865E+02 -0.22969672632E+02  0.96574266076E+02  0.92268314100E+02 0.  0.
         11    1    3    3    0    0  0.25710640158E+01 -0.47359697150E+02 -0.38550243833E+02  0.61120148757E+02  0.51100000000E-03 0.  1.
         22    1    1    0    0    0  0.44607288159E+01  0.16298561865E+02  0.22969672632E+02  0.28515733924E+02  0.00000000000E+00 0.  1.
</event>
<event>
 5    1  0.1044283E-009  0.9118800E+02  0.7815553E-02  0.1125453E+00
         25   -1    0    0    0    0  0.00000000000E+00  0.00000000000E+00  0.99999998245E-14  0.12509000000E+03  0.12509000000E+03 0.  0.
        -11    1    3    3    0    0  0.16658600958E+02 -0.38779056794E+02 -0.41510201991E+02  0.59198151165E+02  0.51100000000E-03 0.  1.
         23    2    1    0    0    0  0.12353102763E+02 -0.26706775826E+02 -0.87270177577E+01  0.94397788254E+02  0.89268866720E+02 0.  0.
         11    1    3    3    0    0 -0.43054981957E+01  0.12072280968E+02  0.32783184234E+02  0.35199637089E+02  0.51100000000E-03 0. -1.
         22    1    1    0    0    0 -0.12353102763E+02  0.26706775826E+02  0.87270177577E+01  0.30692211746E+02  0.00000000000E+00 0.  1.
</event>
<event>
 5    1  0.1044283E-009  0.9118800E+02  0.7815553E-02  0.1125453E+00
         25   -1    0    0    0    0  0.00000000000E+00  0.00000000000E+00  0.99999998245E-14  0.12509000000E+03  0.12509000000E+03 0.  0.
        -11    1    3    3    0    0  0.14028129451E+02  0.37508708452E+02 -0.19503470176E+02  0.44542978962E+02  0.51100000000E-03 0.  1.
         23    2    1    0    0    0  0.84039717403E+01 -0.12631402106E+02 -0.25566795045E+02  0.95360552157E+02  0.90607918190E+02 0.  0.
         11    1    3    3    0    0 -0.56241577106E+01 -0.50140110558E+02 -0.60633248685E+01  0.50817573195E+02  0.51100000000E-03 0. -1.
         22    1    1    0    0    0 -0.84039717403E+01  0.12631402106E+02  0.25566795045E+02  0.29729447843E+02  0.00000000000E+00 0. -1.
</event>
<event>
 5    1  0.1044283E-009  0.9118800E+02  0.7815553E-02  0.1125453E+00
         25   -1    0    0    0    0  0.00000000000E+00  0.00000000000E+00  0.99999998245E-14  0.12509000000E+03  0.12509000000E+03 0.  0.
        -11    1    3    3    0    0  0.24224793592E+01  0.50757433422E+01 -0.14497310602E+02  0.15550035102E+02  0.51100000000E-03 0. -1.
         23    2    1    0    0    0  0.21478853531E+00  0.27039395250E+02  0.41396338077E+02  0.75644759220E+02  0.57247687828E+02 0.  0.
         11    1    3    3    0    0 -0.22076908239E+01  0.21963651908E+02  0.55893648679E+02  0.60094724118E+02  0.51100000000E-03 0.  1.
         22    1    1    0    0    0 -0.21478853531E+00 -0.27039395250E+02 -0.41396338077E+02  0.49445240780E+02  0.00000000000E+00 0.  1.
</event>
<event>
 5    1  0.1044283E-009  0.9118800E+02  0.7815553E-02  0.1125453E+00
         25   -1    0    0    0    0  0.00000000000E+00  0.00000000000E+00  0.99999998245E-14  0.12509000000E+03  0.12509000000E+03 0.  0.
        -11    1    3    3    0    0  0.28242482250E+02  0.40058411542E+02 -0.31105957658E+02  0.58050794491E+02  0.51100000000E-03 0.  1.
         23    2    1    0    0    0  0.26457868932E+02  0.21619647433E+02 -0.42744910610E+01  0.90656015953E+02  0.83861874359E+02 0.  0.
         11    1    3    3    0    0 -0.17846133179E+01 -0.18438764110E+02  0.26831466597E+02  0.32605221462E+02  0.51100000000E-03 0. -1.
         22    1    1    0    0    0 -0.26457868932E+02 -0.21619647433E+02  0.42744910610E+01  0.34433984047E+02  0.00000000000E+00 0.  1.
</event>
<event>
 5    1  0.1044283E-009  0.9118800E+02  0.7815553E-02  0.1125453E+00
         25   -1    0    0    0    0  0.00000000000E+00  0.00000000000E+00  0.99999998245E-14  0.12509000000E+03  0.12509000000E+03 0.  0.
        -11    1    3    3    0    0  0.52280039667E+02 -0.23177527360E+02 -0.33044164004E+01  0.57282802743E+02  0.51100000000E-03 0. -1.
         23    2    1    0    0    0  0.15938969097E+02 -0.23602420339E+02 -0.11221645183E+02  0.94478722628E+02  0.89382205875E+02 0.  0.
         11    1    3    3    0    0 -0.36341070570E+02 -0.42489297838E+00 -0.79172287823E+01  0.37195919885E+02  0.51100000000E-03 0.  1.
         22    1    1    0    0    0 -0.15938969097E+02  0.23602420339E+02  0.11221645183E+02  0.30611277372E+02  0.00000000000E+00 0. -1.
</event>
<event>
 5    1  0.1044283E-009  0.9118800E+02  0.7815553E-02  0.1125453E+00
         25   -1    0    0    0    0  0.00000000000E+00  0.00000000000E+00  0.99999998245E-14  0.12509000000E+03  0.12509000000E+03 0.  0.
        -11    1    3    3    0    0  0.89134414352E+01  0.40767097444E+02  0.45228874575E+02  0.61539067004E+02  0.51100000000E-03 0.  1.
         23    2    1    0    0    0  0.52768884942E+01  0.24857921692E+02  0.15867334239E+02  0.95131126208E+02  0.90290625508E+02 0.  0.
         11    1    3    3    0    0 -0.36365529409E+01 -0.15909175752E+02 -0.29361540335E+02  0.33592059203E+02  0.51100000000E-03 0. -1.
         22    1    1    0    0    0 -0.52768884942E+01 -0.24857921692E+02 -0.15867334239E+02  0.29958873792E+02  0.00000000000E+00 0.  1.
</event>
<event>
 5    1  0.1044283E-009  0.9118800E+02  0.7815553E-02  0.1125453E+00
         25   -1    0    0    0    0  0.00000000000E+00  0.00000000000E+00  0.99999998245E-14  0.12509000000E+03  0.12509000000E+03 0.  0.
        -11    1    3    3    0    0  0.35167365860E+02 -0.34176447586E+01 -0.43549492673E+02  0.56080141134E+02  0.51100000000E-03 0.  1.
         23    2    1    0    0    0  0.22779763310E+02  0.17412942833E+02 -0.18320344537E+02  0.91064080196E+02  0.84468357882E+02 0.  0.
         11    1    3    3    0    0 -0.12387602550E+02  0.20830587592E+02  0.25229148136E+02  0.34983939062E+02  0.51100000000E-03 0. -1.
         22    1    1    0    0    0 -0.22779763310E+02 -0.17412942833E+02  0.18320344537E+02  0.34025919804E+02  0.00000000000E+00 0.  1.
</event>
<event>
 5    1  0.1044283E-009  0.9118800E+02  0.7815553E-02  0.1125453E+00
         25   -1    0    0    0    0  0.00000000000E+00  0.00000000000E+00  0.99999998245E-14  0.12509000000E+03  0.12509000000E+03 0.  0.
        -11    1    3    3    0    0 -0.91654544448E+01  0.29391710848E+02 -0.19695548078E+02  0.36548499779E+02  0.51100000000E-03 0. -1.
         23    2    1    0    0    0  0.14897624796E+02 -0.23561897381E+02 -0.30555240987E+01  0.97046489872E+02  0.92906311606E+02 0.  0.
         11    1    3    3    0    0  0.24063079241E+02 -0.52953608229E+02  0.16640023979E+02  0.60497990093E+02  0.51100000000E-03 0.  1.
         22    1    1    0    0    0 -0.14897624796E+02  0.23561897381E+02  0.30555240987E+01  0.28043510128E+02  0.00000000000E+00 0.  1.
</event>
<event>
 5    1  0.1044283E-009  0.9118800E+02  0.7815553E-02  0.1125453E+00
         25   -1    0    0    0    0  0.00000000000E+00  0.00000000000E+00  0.99999998245E-14  0.12509000000E+03  0.12509000000E+03 0.  0.
        -11    1    3    3    0    0  0.29534602871E+02 -0.75724631374E+01  0.15775022479E+02  0.34329088237E+02  0.51100000000E-03 0.  1.
         23    2    1    0    0    0 -0.12993727625E+02  0.11597836315E+02 -0.23864679256E+02  0.95545631996E+02  0.90863073428E+02 0.  0.
         11    1    3    3    0    0 -0.42528330496E+02  0.19170299452E+02 -0.39639701735E+02  0.61216543759E+02  0.51100000000E-03 0. -1.
         22    1    1    0    0    0  0.12993727625E+02 -0.11597836315E+02  0.23864679256E+02  0.29544368004E+02  0.00000000000E+00 0. -1.
</event>
<event>
 5    1  0.1044283E-009  0.9118800E+02  0.7815553E-02  0.1125453E+00
         25   -1    0    0    0    0  0.00000000000E+00  0.00000000000E+00  0.99999998245E-14  0.12509000000E+03  0.12509000000E+03 0.  0.
        -11    1    3    3    0    0  0.23284460593E+02 -0.23442239344E+02  0.12096594398E+02  0.35185682981E+02  0.51100000000E-03 0.  1.
         23    2    1    0    0    0 -0.30129233785E+02 -0.43540339380E+00  0.98559226866E+01  0.93386695494E+02  0.87840624877E+02 0.  0.
         11    1    3    3    0    0 -0.53413694378E+02  0.23006835950E+02 -0.22406717112E+01  0.58201012513E+02  0.51100000000E-03 0. -1.
         22    1    1    0    0    0  0.30129233785E+02  0.43540339380E+00 -0.98559226866E+01  0.31703304506E+02  0.00000000000E+00 0. -1.
</event>
