<event>
 5    1  0.1282524E-003  0.9118800E+02  0.7818608E-02  0.1130116E+00
         25   -1    0    0    0    0  0.00000000000E+00  0.00000000000E+00  0.99999998245E-14  0.12500000000E+03  0.12500000000E+03 0.  0.
        -11    1    3    3    0    0  0.23171664911E+02 -0.41052159976E+02 -0.22028563469E+02  0.52033292249E+02  0.51100000000E-03 0. -1.
         23    2    1    0    0    0  0.82546443987E+01 -0.24107335305E+02  0.15022311876E+02  0.95420063831E+02  0.90719435391E+02 0.  0.
         11    1    3    3    0    0 -0.14917020513E+02  0.16944824672E+02  0.37050875346E+02  0.43386771582E+02  0.51100000000E-03 0.  1.
         22    1    1    0    0    0 -0.82546443987E+01  0.24107335305E+02 -0.15022311876E+02  0.29579936169E+02  0.00000000000E+00 0. -1.
</event>
<event>
 5    1  0.1282524E-003  0.9118800E+02  0.7818608E-02  0.1130116E+00
         25   -1    0    0    0    0  0.00000000000E+00  0.00000000000E+00  0.99999998245E-14  0.12500000000E+03  0.12500000000E+03 0.  0.
        -11    1    3    3    0    0 -0.32903743662E+02  0.88541169368E+01 -0.21353542589E+02  0.40212255782E+02  0.51100000000E-03 0.  1.
         23    2    1    0    0    0 -0.24274791254E+01  0.19220087062E+02  0.22944050600E+02  0.94971116246E+02  0.90098718423E+02 0.  0.
         11    1    3    3    0    0  0.30476264537E+02  0.10365970125E+02  0.44297593189E+02  0.54758860464E+02  0.51100000000E-03 0. -1.
         22    1    1    0    0    0  0.24274791254E+01 -0.19220087062E+02 -0.22944050600E+02  0.30028883754E+02  0.00000000000E+00 0. -1.
</event>
<event>
 5    1  0.1282524E-003  0.9118800E+02  0.7818608E-02  0.1130116E+00
         25   -1    0    0    0    0  0.00000000000E+00  0.00000000000E+00  0.99999998245E-14  0.12500000000E+03  0.12500000000E+03 0.  0.
        -11    1    3    3    0    0 -0.84186181430E+01 -0.15074840209E+02 -0.87936558657E+01  0.19376592129E+02  0.51100000000E-03 0. -1.
         23    2    1    0    0    0  0.84926097747E+01  0.37045357686E+02 -0.28379743810E+02  0.77566965040E+02  0.61373783164E+02 0.  0.
         11    1    3    3    0    0  0.16911227918E+02  0.52120197895E+02 -0.19586087944E+02  0.58190372911E+02  0.51100000000E-03 0.  1.
         22    1    1    0    0    0 -0.84926097747E+01 -0.37045357686E+02  0.28379743810E+02  0.47433034960E+02  0.00000000000E+00 0.  1.
</event>
<event>
 5    1  0.1282524E-003  0.9118800E+02  0.7818608E-02  0.1130116E+00
         25   -1    0    0    0    0  0.00000000000E+00  0.00000000000E+00  0.99999998245E-14  0.12500000000E+03  0.12500000000E+03 0.  0.
        -11    1    3    3    0    0 -0.16897105482E+02  0.39356922164E+02  0.93293259338E+01  0.43835098021E+02  0.51100000000E-03 0. -1.
         23    2    1    0    0    0  0.25284918543E+02  0.26093525455E+02  0.24755028375E+01  0.88581223377E+02  0.80748410785E+02 0.  0.
         11    1    3    3    0    0  0.42182024025E+02 -0.13263396709E+02 -0.68538230963E+01  0.44746125356E+02  0.51100000000E-03 0.  1.
         22    1    1    0    0    0 -0.25284918543E+02 -0.26093525455E+02 -0.24755028375E+01  0.36418776623E+02  0.00000000000E+00 0.  1.
</event>
<event>
 5    1  0.1282524E-003  0.9118800E+02  0.7818608E-02  0.1130116E+00
         25   -1    0    0    0    0  0.00000000000E+00  0.00000000000E+00  0.99999998245E-14  0.12500000000E+03  0.12500000000E+03 0.  0.
        -11    1    3    3    0    0 -0.12761446042E+02 -0.40951087020E+02  0.21487601523E+02  0.47974608417E+02  0.51100000000E-03 0.  1.
         23    2    1    0    0    0 -0.27878932018E+02  0.22236724539E+01  0.50682842296E+01  0.96576997437E+02  0.92299779844E+02 0.  0.
         11    1    3    3    0    0 -0.15117485976E+02  0.43174759474E+02 -0.16419317294E+02  0.48602389021E+02  0.51100000000E-03 0. -1.
         22    1    1    0    0    0  0.27878932018E+02 -0.22236724539E+01 -0.50682842296E+01  0.28423002563E+02  0.00000000000E+00 0.  1.
</event>
<event>
 5    1  0.1282524E-003  0.9118800E+02  0.7818608E-02  0.1130116E+00
         25   -1    0    0    0    0  0.00000000000E+00  0.00000000000E+00  0.99999998245E-14  0.12500000000E+03  0.12500000000E+03 0.  0.
        -11    1    3    3    0    0 -0.43722732487E+01 -0.37219452904E+02  0.31468957590E+02  0.48935669403E+02  0.51100000000E-03 0. -1.
         23    2    1    0    0    0  0.20784135246E+02 -0.21326107659E+02 -0.36864969488E+01  0.94993777219E+02  0.90130152029E+02 0.  0.
         11    1    3    3    0    0  0.25156408495E+02  0.15893345245E+02 -0.35155454539E+02  0.46058107816E+02  0.51100000000E-03 0.  1.
         22    1    1    0    0    0 -0.20784135246E+02  0.21326107659E+02  0.36864969488E+01  0.30006222781E+02  0.00000000000E+00 0. -1.
</event>
<event>
 5    1  0.1282524E-003  0.9118800E+02  0.7818608E-02  0.1130116E+00
         25   -1    0    0    0    0  0.00000000000E+00  0.00000000000E+00  0.99999998245E-14  0.12500000000E+03  0.12500000000E+03 0.  0.
        -11    1    3    3    0    0  0.59742978686E+02  0.49958128180E+01 -0.12844481446E+02  0.61312008220E+02  0.51100000000E-03 0. -1.
         23    2    1    0    0    0  0.24229017044E+02 -0.15800062827E+01 -0.13059408534E+02  0.97430273160E+02  0.93448211807E+02 0.  0.
         11    1    3    3    0    0 -0.35513961642E+02 -0.65758191007E+01 -0.21492708781E+00  0.36118264940E+02  0.51100000000E-03 0.  1.
         22    1    1    0    0    0 -0.24229017044E+02  0.15800062827E+01  0.13059408534E+02  0.27569726840E+02  0.00000000000E+00 0. -1.
</event>
<event>
 4    1  0.1282524E-003  0.9118800E+02  0.7818608E-02  0.1130116E+00
         25   -1    0    0    0    0  0.00000000000E+00  0.00000000000E+00  0.99999998245E-14  0.12500000000E+03  0.12500000000E+03 0.  0.
        -11    1    1    0    0    0  0.69822472356E+01 -0.54652871290E+01  0.54629881204E+02  0.55344783499E+02  0.51100000000E-03 0.  1.
         11    1    1    0    0    0  0.15032566645E+02 -0.29259744776E+01 -0.76953662158E+01  0.17139371285E+02  0.51100000000E-03 0. -1.
         22    1    1    0    0    0 -0.22014813881E+02  0.83912616066E+01 -0.46934514989E+02  0.52515845216E+02  0.00000000000E+00 0.  1.
</event>
<event>
 5    1  0.1282524E-003  0.9118800E+02  0.7818608E-02  0.1130116E+00
         25   -1    0    0    0    0  0.00000000000E+00  0.00000000000E+00  0.99999998245E-14  0.12500000000E+03  0.12500000000E+03 0.  0.
        -11    1    3    3    0    0 -0.94252239982E+01 -0.59173435542E+02  0.10764699861E+02  0.60878642270E+02  0.51100000000E-03 0.  1.
         23    2    1    0    0    0  0.45045036473E+01 -0.27702613373E+02  0.96785769845E+01  0.95311615180E+02  0.90569883488E+02 0.  0.
         11    1    3    3    0    0  0.13929727645E+02  0.31470822169E+02 -0.10861228767E+01  0.34432972910E+02  0.51100000000E-03 0. -1.
         22    1    1    0    0    0 -0.45045036473E+01  0.27702613373E+02 -0.96785769845E+01  0.29688384820E+02  0.00000000000E+00 0.  1.
</event>
<event>
 5    1  0.1282524E-003  0.9118800E+02  0.7818608E-02  0.1130116E+00
         25   -1    0    0    0    0  0.00000000000E+00  0.00000000000E+00  0.99999998245E-14  0.12500000000E+03  0.12500000000E+03 0.  0.
        -11    1    3    3    0    0  0.46607588021E+01  0.73756038915E+01  0.45401472787E+02  0.46232195891E+02  0.51100000000E-03 0.  1.
         23    2    1    0    0    0  0.15733041347E+02  0.20547069502E+02 -0.42444068597E+01  0.98775476273E+02  0.95230609933E+02 0.  0.
         11    1    3    3    0    0  0.11072282545E+02  0.13171465611E+02 -0.49645879647E+02  0.52543280382E+02  0.51100000000E-03 0. -1.
         22    1    1    0    0    0 -0.15733041347E+02 -0.20547069502E+02  0.42444068597E+01  0.26224523727E+02  0.00000000000E+00 0. -1.
</event>
<event>
 5    1  0.1282524E-003  0.9118800E+02  0.7818608E-02  0.1130116E+00
         25   -1    0    0    0    0  0.00000000000E+00  0.00000000000E+00  0.99999998245E-14  0.12500000000E+03  0.12500000000E+03 0.  0.
        -11    1    3    3    0    0 -0.11329811751E+02  0.18985870067E+02  0.28373609163E+02  0.35970676859E+02  0.51100000000E-03 0.  1.
         23    2    1    0    0    0  0.22195058654E+02 -0.22042192730E+02  0.82207322150E+01  0.92657159569E+02  0.86829084368E+02 0.  0.
         11    1    3    3    0    0  0.33524870405E+02 -0.41028062797E+02 -0.20152876948E+02  0.56686482710E+02  0.51100000000E-03 0. -1.
         22    1    1    0    0    0 -0.22195058654E+02  0.22042192730E+02 -0.82207322150E+01  0.32342840431E+02  0.00000000000E+00 0. -1.
</event>
<event>
 5    1  0.1282524E-003  0.9118800E+02  0.7818608E-02  0.1130116E+00
         25   -1    0    0    0    0  0.00000000000E+00  0.00000000000E+00  0.99999998245E-14  0.12500000000E+03  0.12500000000E+03 0.  0.
        -11    1    3    3    0    0  0.51472726965E+02  0.19924275985E+02 -0.12360777705E+02  0.56561534813E+02  0.51100000000E-03 0.  1.
         23    2    1    0    0    0  0.14863366331E+02  0.19649337210E+02 -0.19148861571E+02  0.93795913554E+02  0.88453255386E+02 0.  0.
         11    1    3    3    0    0 -0.36609360634E+02 -0.27493877440E+00 -0.67880838654E+01  0.37234378740E+02  0.51100000000E-03 0. -1.
         22    1    1    0    0    0 -0.14863366331E+02 -0.19649337210E+02  0.19148861571E+02  0.31204086446E+02  0.00000000000E+00 0.  1.
</event>
<event>
 5    1  0.1282524E-003  0.9118800E+02  0.7818608E-02  0.1130116E+00
         25   -1    0    0    0    0  0.00000000000E+00  0.00000000000E+00  0.99999998245E-14  0.12500000000E+03  0.12500000000E+03 0.  0.
        -11    1    3    3    0    0  0.58743963941E+01 -0.32324768415E+02  0.56193248063E+01  0.33331306570E+02  0.51100000000E-03 0.  1.
         23    2    1    0    0    0  0.45053959558E+01  0.29260569843E+02 -0.15879198490E+01  0.95352048474E+02  0.90625670306E+02 0.  0.
         11    1    3    3    0    0 -0.13690004383E+01  0.61585338258E+02 -0.72072446553E+01  0.62020741904E+02  0.51100000000E-03 0. -1.
         22    1    1    0    0    0 -0.45053959558E+01 -0.29260569843E+02  0.15879198490E+01  0.29647951526E+02  0.00000000000E+00 0. -1.
</event>
<event>
 5    1  0.1282524E-003  0.9118800E+02  0.7818608E-02  0.1130116E+00
         25   -1    0    0    0    0  0.00000000000E+00  0.00000000000E+00  0.99999998245E-14  0.12500000000E+03  0.12500000000E+03 0.  0.
        -11    1    3    3    0    0  0.26009481425E+02 -0.73530206991E-01 -0.31528116296E+02  0.40872003231E+02  0.51100000000E-03 0. -1.
         23    2    1    0    0    0 -0.23830847136E+02  0.13158571990E+01 -0.23740471983E+02  0.91336209879E+02  0.84906139175E+02 0.  0.
         11    1    3    3    0    0 -0.49840328560E+02  0.13893874060E+01  0.77876443133E+01  0.50464206648E+02  0.51100000000E-03 0.  1.
         22    1    1    0    0    0  0.23830847136E+02 -0.13158571990E+01  0.23740471983E+02  0.33663790121E+02  0.00000000000E+00 0.  1.
</event>
<event>
 5    1  0.1282524E-003  0.9118800E+02  0.7818608E-02  0.1130116E+00
         25   -1    0    0    0    0  0.00000000000E+00  0.00000000000E+00  0.99999998245E-14  0.12500000000E+03  0.12500000000E+03 0.  0.
        -11    1    3    3    0    0  0.20961316380E+02  0.49313099418E+02 -0.11773195871E+02  0.54861340668E+02  0.51100000000E-03 0.  1.
         23    2    1    0    0    0  0.39820978939E+01  0.21801376852E+02  0.16148099685E+02  0.97578872020E+02  0.93646772528E+02 0.  0.
         11    1    3    3    0    0 -0.16979218486E+02 -0.27511722567E+02  0.27921295556E+02  0.42717531352E+02  0.51100000000E-03 0. -1.
         22    1    1    0    0    0 -0.39820978939E+01 -0.21801376852E+02 -0.16148099685E+02  0.27421127980E+02  0.00000000000E+00 0.  1.
</event>
<event>
 5    1  0.1282524E-003  0.9118800E+02  0.7818608E-02  0.1130116E+00
         25   -1    0    0    0    0  0.00000000000E+00  0.00000000000E+00  0.99999998245E-14  0.12500000000E+03  0.12500000000E+03 0.  0.
        -11    1    3    3    0    0 -0.32607275277E+00 -0.29637463667E+02 -0.30870915029E+02  0.42796015831E+02  0.51100000000E-03 0.  1.
         23    2    1    0    0    0 -0.22465518638E+02  0.14536863640E+02 -0.10022932868E+02  0.96425901319E+02  0.92094925646E+02 0.  0.
         11    1    3    3    0    0 -0.22139445885E+02  0.44174327306E+02  0.20847982161E+02  0.53629885488E+02  0.51100000000E-03 0. -1.
         22    1    1    0    0    0  0.22465518638E+02 -0.14536863640E+02  0.10022932868E+02  0.28574098681E+02  0.00000000000E+00 0. -1.
</event>
<event>
 5    1  0.1282524E-003  0.9118800E+02  0.7818608E-02  0.1130116E+00
         25   -1    0    0    0    0  0.00000000000E+00  0.00000000000E+00  0.99999998245E-14  0.12500000000E+03  0.12500000000E+03 0.  0.
        -11    1    3    3    0    0 -0.13424581776E+02 -0.35165647343E+02  0.11028425377E+02  0.39223313418E+02  0.51100000000E-03 0. -1.
         23    2    1    0    0    0  0.23609194410E+02 -0.57272006450E+01 -0.18032466917E+02  0.94745004528E+02  0.89784470439E+02 0.  0.
         11    1    3    3    0    0  0.37033776186E+02  0.29438446698E+02 -0.29060892294E+02  0.55521691110E+02  0.51100000000E-03 0.  1.
         22    1    1    0    0    0 -0.23609194410E+02  0.57272006450E+01  0.18032466917E+02  0.30254995472E+02  0.00000000000E+00 0.  1.
</event>
<event>
 5    1  0.1282524E-003  0.9118800E+02  0.7818608E-02  0.1130116E+00
         25   -1    0    0    0    0  0.00000000000E+00  0.00000000000E+00  0.99999998245E-14  0.12500000000E+03  0.12500000000E+03 0.  0.
        -11    1    3    3    0    0  0.10387947999E+02 -0.48975285236E+02 -0.20110048740E+02  0.53952776464E+02  0.51100000000E-03 0. -1.
         23    2    1    0    0    0  0.79907334164E+00 -0.25877492212E+02  0.13464604522E+02  0.95818178667E+02  0.91266339177E+02 0.  0.
         11    1    3    3    0    0 -0.95888746569E+01  0.23097793024E+02  0.33574653261E+02  0.41865402203E+02  0.51100000000E-03 0.  1.
         22    1    1    0    0    0 -0.79907334164E+00  0.25877492212E+02 -0.13464604522E+02  0.29181821333E+02  0.00000000000E+00 0. -1.
</event>
<event>
 5    1  0.1282524E-003  0.9118800E+02  0.7818608E-02  0.1130116E+00
         25   -1    0    0    0    0  0.00000000000E+00  0.00000000000E+00  0.99999998245E-14  0.12500000000E+03  0.12500000000E+03 0.  0.
        -11    1    3    3    0    0  0.61648584942E+02  0.94192012569E+00 -0.31905453524E+01  0.61738276772E+02  0.51100000000E-03 0. -1.
         23    2    1    0    0    0  0.28322705965E+02 -0.59642044418E+01 -0.39950587418E+01  0.95781719726E+02  0.91216390696E+02 0.  0.
         11    1    3    3    0    0 -0.33325878977E+02 -0.69061245675E+01 -0.80451338942E+00  0.34043442954E+02  0.51100000000E-03 0.  1.
         22    1    1    0    0    0 -0.28322705965E+02  0.59642044418E+01  0.39950587418E+01  0.29218280274E+02  0.00000000000E+00 0. -1.
</event>
<event>
 5    1  0.1282524E-003  0.9118800E+02  0.7818608E-02  0.1130116E+00
         25   -1    0    0    0    0  0.00000000000E+00  0.00000000000E+00  0.99999998245E-14  0.12500000000E+03  0.12500000000E+03 0.  0.
        -11    1    3    3    0    0  0.54773434968E+01 -0.86417255298E+01 -0.52342236144E+02  0.53332826634E+02  0.51100000000E-03 0. -1.
         23    2    1    0    0    0  0.15744213465E+02  0.15314787346E+02 -0.17109083729E+02  0.97158597106E+02  0.93084097871E+02 0.  0.
         11    1    3    3    0    0  0.10266869968E+02  0.23956512876E+02  0.35233152415E+02  0.43825770472E+02  0.51100000000E-03 0.  1.
         22    1    1    0    0    0 -0.15744213465E+02 -0.15314787346E+02  0.17109083729E+02  0.27841402894E+02  0.00000000000E+00 0.  1.
</event>
<event>
 5    1  0.1282524E-003  0.9118800E+02  0.7818608E-02  0.1130116E+00
         25   -1    0    0    0    0  0.00000000000E+00  0.00000000000E+00  0.99999998245E-14  0.12500000000E+03  0.12500000000E+03 0.  0.
        -11    1    3    3    0    0  0.37041780759E+02 -0.15566319505E+02 -0.47552751791E+02  0.62254863488E+02  0.51100000000E-03 0.  1.
         23    2    1    0    0    0  0.15450808311E+02 -0.53753371056E+01 -0.25167530509E+02  0.94982899568E+02  0.90115064733E+02 0.  0.
         11    1    3    3    0    0 -0.21590972448E+02  0.10190982400E+02  0.22385221282E+02  0.32728036080E+02  0.51100000000E-03 0. -1.
         22    1    1    0    0    0 -0.15450808311E+02  0.53753371056E+01  0.25167530509E+02  0.30017100432E+02  0.00000000000E+00 0.  1.
</event>
<event>
 5    1  0.1282524E-003  0.9118800E+02  0.7818608E-02  0.1130116E+00
         25   -1    0    0    0    0  0.00000000000E+00  0.00000000000E+00  0.99999998245E-14  0.12500000000E+03  0.12500000000E+03 0.  0.
        -11    1    3    3    0    0  0.37739971829E+01 -0.40413824503E+02  0.27628117757E+02  0.49100235812E+02  0.51100000000E-03 0. -1.
         23    2    1    0    0    0 -0.21252383548E+02 -0.31629477390E+01  0.21863154336E+02  0.94346035128E+02  0.89227287205E+02 0.  0.
         11    1    3    3    0    0 -0.25026380731E+02  0.37250876764E+02 -0.57649634216E+01  0.45245799316E+02  0.51100000000E-03 0.  1.
         22    1    1    0    0    0  0.21252383548E+02  0.31629477390E+01 -0.21863154336E+02  0.30653964872E+02  0.00000000000E+00 0.  1.
</event>
<event>
 5    1  0.1282524E-003  0.9118800E+02  0.7818608E-02  0.1130116E+00
         25   -1    0    0    0    0  0.00000000000E+00  0.00000000000E+00  0.99999998245E-14  0.12500000000E+03  0.12500000000E+03 0.  0.
        -11    1    3    3    0    0  0.12619198143E+02  0.52180072919E+02 -0.81860785703E+01  0.54304843745E+02  0.51100000000E-03 0.  1.
         23    2    1    0    0    0  0.76363741612E+01  0.20960476686E+02  0.18765598288E+02  0.95848611142E+02  0.91308010522E+02 0.  0.
         11    1    3    3    0    0 -0.49828239819E+01 -0.31219596233E+02  0.26951676858E+02  0.41543767397E+02  0.51100000000E-03 0. -1.
         22    1    1    0    0    0 -0.76363741612E+01 -0.20960476686E+02 -0.18765598288E+02  0.29151388858E+02  0.00000000000E+00 0.  1.
</event>
<event>
 5    1  0.1282524E-003  0.9118800E+02  0.7818608E-02  0.1130116E+00
         25   -1    0    0    0    0  0.00000000000E+00  0.00000000000E+00  0.99999998245E-14  0.12500000000E+03  0.12500000000E+03 0.  0.
        -11    1    3    3    0    0  0.41920555784E+02  0.64098141102E+01 -0.15079654300E+02  0.45009051182E+02  0.51100000000E-03 0.  1.
         23    2    1    0    0    0 -0.18890116059E+01  0.29053432203E+02 -0.34115781990E+01  0.95686024606E+02  0.91085158788E+02 0.  0.
         11    1    3    3    0    0 -0.43809567390E+02  0.22643618093E+02  0.11668076101E+02  0.50676973424E+02  0.51100000000E-03 0. -1.
         22    1    1    0    0    0  0.18890116059E+01 -0.29053432203E+02  0.34115781990E+01  0.29313975394E+02  0.00000000000E+00 0. -1.
</event>
<event>
 5    1  0.1282524E-003  0.9118800E+02  0.7818608E-02  0.1130116E+00
         25   -1    0    0    0    0  0.00000000000E+00  0.00000000000E+00  0.99999998245E-14  0.12500000000E+03  0.12500000000E+03 0.  0.
        -11    1    3    3    0    0 -0.32021514720E+02  0.14428329932E+02  0.17184145329E+02  0.39100498214E+02  0.51100000000E-03 0.  1.
         23    2    1    0    0    0 -0.47833220336E+01 -0.12168750158E+01 -0.29346506177E+02  0.95241331023E+02  0.90472828826E+02 0.  0.
         11    1    3    3    0    0  0.27238192687E+02 -0.15645204948E+02 -0.46530651506E+02  0.56140832809E+02  0.51100000000E-03 0. -1.
         22    1    1    0    0    0  0.47833220336E+01  0.12168750158E+01  0.29346506177E+02  0.29758668977E+02  0.00000000000E+00 0. -1.
</event>
<event>
 5    1  0.1282524E-003  0.9118800E+02  0.7818608E-02  0.1130116E+00
         25   -1    0    0    0    0  0.00000000000E+00  0.00000000000E+00  0.99999998245E-14  0.12500000000E+03  0.12500000000E+03 0.  0.
        -11    1    3    3    0    0 -0.22621860928E+02 -0.48021224308E+02  0.30559875175E+01  0.53170721604E+02  0.51100000000E-03 0.  1.
         23    2    1    0    0    0 -0.29425093185E+02 -0.13122890775E+02 -0.10335226162E+02  0.91164171784E+02  0.84652483401E+02 0.  0.
         11    1    3    3    0    0 -0.68032322576E+01  0.34898333533E+02 -0.13391213679E+02  0.37993450180E+02  0.51100000000E-03 0. -1.
         22    1    1    0    0    0  0.29425093185E+02  0.13122890775E+02  0.10335226162E+02  0.33835828216E+02  0.00000000000E+00 0.  1.
</event>
<event>
 5    1  0.1282524E-003  0.9118800E+02  0.7818608E-02  0.1130116E+00
         25   -1    0    0    0    0  0.00000000000E+00  0.00000000000E+00  0.99999998245E-14  0.12500000000E+03  0.12500000000E+03 0.  0.
        -11    1    3    3    0    0  0.12566070402E+02 -0.13893248955E+02 -0.27040553027E+02  0.32895592412E+02  0.51100000000E-03 0.  1.
         23    2    1    0    0    0 -0.11415151087E+02  0.53030806418E+01  0.27086567495E+02  0.95131781484E+02  0.90321345047E+02 0.  0.
         11    1    3    3    0    0 -0.23981221488E+02  0.19196329597E+02  0.54127120522E+02  0.62236189073E+02  0.51100000000E-03 0. -1.
         22    1    1    0    0    0  0.11415151087E+02 -0.53030806418E+01 -0.27086567495E+02  0.29868218516E+02  0.00000000000E+00 0. -1.
</event>
<event>
 5    1  0.1282524E-003  0.9118800E+02  0.7818608E-02  0.1130116E+00
         25   -1    0    0    0    0  0.00000000000E+00  0.00000000000E+00  0.99999998245E-14  0.12500000000E+03  0.12500000000E+03 0.  0.
        -11    1    3    3    0    0  0.25864655364E+02  0.11633598560E+02 -0.33447328463E+02  0.43852534637E+02  0.51100000000E-03 0.  1.
         23    2    1    0    0    0  0.26592732798E+02  0.24562555895E+01  0.15811569611E+02  0.93964337244E+02  0.88690948303E+02 0.  0.
         11    1    3    3    0    0  0.72807743386E+00 -0.91773429702E+01  0.49258898074E+02  0.50111802606E+02  0.51100000000E-03 0. -1.
         22    1    1    0    0    0 -0.26592732798E+02 -0.24562555895E+01 -0.15811569611E+02  0.31035662756E+02  0.00000000000E+00 0. -1.
</event>
<event>
 5    1  0.1282524E-003  0.9118800E+02  0.7818608E-02  0.1130116E+00
         25   -1    0    0    0    0  0.00000000000E+00  0.00000000000E+00  0.99999998245E-14  0.12500000000E+03  0.12500000000E+03 0.  0.
        -11    1    3    3    0    0 -0.22722479956E+01 -0.36658049295E+02 -0.12730567282E+02  0.38872136971E+02  0.51100000000E-03 0.  1.
         23    2    1    0    0    0 -0.79922049871E+01  0.58181212013E+01  0.26339126798E+02  0.96866826071E+02  0.92691458709E+02 0.  0.
         11    1    3    3    0    0 -0.57199569915E+01  0.42476170496E+02  0.39069694080E+02  0.57994689100E+02  0.51100000000E-03 0. -1.
         22    1    1    0    0    0  0.79922049871E+01 -0.58181212013E+01 -0.26339126798E+02  0.28133173929E+02  0.00000000000E+00 0. -1.
</event>
<event>
 5    1  0.1282524E-003  0.9118800E+02  0.7818608E-02  0.1130116E+00
         25   -1    0    0    0    0  0.00000000000E+00  0.00000000000E+00  0.99999998245E-14  0.12500000000E+03  0.12500000000E+03 0.  0.
        -11    1    3    3    0    0  0.69057191877E+01  0.40247366146E+02 -0.24278645298E+02  0.47507810484E+02  0.51100000000E-03 0.  1.
         23    2    1    0    0    0  0.27215149109E+02 -0.11248335179E+01 -0.12210554754E+02  0.95149920622E+02  0.90346445174E+02 0.  0.
         11    1    3    3    0    0  0.20309429921E+02 -0.41372199664E+02  0.12068090544E+02  0.47642110138E+02  0.51100000000E-03 0. -1.
         22    1    1    0    0    0 -0.27215149109E+02  0.11248335179E+01  0.12210554754E+02  0.29850079378E+02  0.00000000000E+00 0.  1.
</event>
<event>
 5    1  0.1282524E-003  0.9118800E+02  0.7818608E-02  0.1130116E+00
         25   -1    0    0    0    0  0.00000000000E+00  0.00000000000E+00  0.99999998245E-14  0.12500000000E+03  0.12500000000E+03 0.  0.
        -11    1    3    3    0    0 -0.25049367056E+02  0.41005106006E+02  0.26559166724E+02  0.54902448450E+02  0.51100000000E-03 0.  1.
         23    2    1    0    0    0 -0.27325580129E+02  0.17021196986E+02 -0.25709530162E+01  0.92704206533E+02  0.86896787244E+02 0.  0.
         11    1    3    3    0    0 -0.22762130735E+01 -0.23983909020E+02 -0.29130119740E+02  0.37801758083E+02  0.51100000000E-03 0. -1.
         22    1    1    0    0    0  0.27325580129E+02 -0.17021196986E+02  0.25709530162E+01  0.32295793467E+02  0.00000000000E+00 0.  1.
</event>
<event>
 5    1  0.1282524E-003  0.9118800E+02  0.7818608E-02  0.1130116E+00
         25   -1    0    0    0    0  0.00000000000E+00  0.00000000000E+00  0.99999998245E-14  0.12500000000E+03  0.12500000000E+03 0.  0.
        -11    1    3    3    0    0  0.37965225759E+02  0.12298144588E+02  0.36140185144E+02  0.53839722415E+02  0.51100000000E-03 0.  1.
         23    2    1    0    0    0  0.38745764173E+01  0.22938365537E+02  0.24041278991E+02  0.91546090640E+02  0.85214568356E+02 0.  0.
         11    1    3    3    0    0 -0.34090649342E+02  0.10640220950E+02 -0.12098906152E+02  0.37706368225E+02  0.51100000000E-03 0. -1.
         22    1    1    0    0    0 -0.38745764173E+01 -0.22938365537E+02 -0.24041278991E+02  0.33453909360E+02  0.00000000000E+00 0.  1.
</event>
<event>
 5    1  0.1282524E-003  0.9118800E+02  0.7818608E-02  0.1130116E+00
         25   -1    0    0    0    0  0.00000000000E+00  0.00000000000E+00  0.99999998245E-14  0.12500000000E+03  0.12500000000E+03 0.  0.
        -11    1    3    3    0    0 -0.18176975408E+02 -0.30572481901E+02 -0.26445538810E+02  0.44322066826E+02  0.51100000000E-03 0.  1.
         23    2    1    0    0    0  0.24354372086E+02 -0.18387563173E+02 -0.31530391989E+01  0.94321349845E+02  0.89192698475E+02 0.  0.
         11    1    3    3    0    0  0.42531347494E+02  0.12184918727E+02  0.23292499611E+02  0.49999283019E+02  0.51100000000E-03 0. -1.
         22    1    1    0    0    0 -0.24354372086E+02  0.18387563173E+02  0.31530391989E+01  0.30678650155E+02  0.00000000000E+00 0. -1.
</event>
<event>
 5    1  0.1282524E-003  0.9118800E+02  0.7818608E-02  0.1130116E+00
         25   -1    0    0    0    0  0.00000000000E+00  0.00000000000E+00  0.99999998245E-14  0.12500000000E+03  0.12500000000E+03 0.  0.
        -11    1    3    3    0    0 -0.18245601498E+02  0.45716279355E+02  0.10107795266E+02  0.50249852711E+02  0.51100000000E-03 0. -1.
         23    2    1    0    0    0  0.13808704768E+02  0.29136629272E+02  0.19209652093E+02  0.87468223780E+02  0.79006682914E+02 0.  0.
         11    1    3    3    0    0  0.32054306266E+02 -0.16579650083E+02  0.91018568266E+01  0.37218371069E+02  0.51100000000E-03 0.  1.
         22    1    1    0    0    0 -0.13808704768E+02 -0.29136629272E+02 -0.19209652093E+02  0.37531776220E+02  0.00000000000E+00 0. -1.
</event>
<event>
 5    1  0.1282524E-003  0.9118800E+02  0.7818608E-02  0.1130116E+00
         25   -1    0    0    0    0  0.00000000000E+00  0.00000000000E+00  0.99999998245E-14  0.12500000000E+03  0.12500000000E+03 0.  0.
        -11    1    3    3    0    0 -0.23812729605E+02 -0.91429505451E+01 -0.87917903970E+01  0.26980274546E+02  0.51100000000E-03 0.  1.
         23    2    1    0    0    0  0.35399837310E+02  0.67173131494E+01  0.40489144099E+00  0.88966200386E+02  0.81342179074E+02 0.  0.
         11    1    3    3    0    0  0.59212566915E+02  0.15860263695E+02  0.91966818380E+01  0.61985925840E+02  0.51100000000E-03 0. -1.
         22    1    1    0    0    0 -0.35399837310E+02 -0.67173131494E+01 -0.40489144099E+00  0.36033799614E+02  0.00000000000E+00 0. -1.
</event>
<event>
 5    1  0.1282524E-003  0.9118800E+02  0.7818608E-02  0.1130116E+00
         25   -1    0    0    0    0  0.00000000000E+00  0.00000000000E+00  0.99999998245E-14  0.12500000000E+03  0.12500000000E+03 0.  0.
        -11    1    3    3    0    0  0.54759502446E+02  0.22767298837E+02  0.17446729919E+02  0.61816999196E+02  0.51100000000E-03 0.  1.
         23    2    1    0    0    0  0.25838817516E+02  0.11536979523E+02  0.15926413484E+01  0.96657754260E+02  0.92409082697E+02 0.  0.
         11    1    3    3    0    0 -0.28920684930E+02 -0.11230319314E+02 -0.15854088571E+02  0.34840755064E+02  0.51100000000E-03 0. -1.
         22    1    1    0    0    0 -0.25838817516E+02 -0.11536979523E+02 -0.15926413484E+01  0.28342245740E+02  0.00000000000E+00 0.  1.
</event>
<event>
 5    1  0.1282524E-003  0.9118800E+02  0.7818608E-02  0.1130116E+00
         25   -1    0    0    0    0  0.00000000000E+00  0.00000000000E+00  0.99999998245E-14  0.12500000000E+03  0.12500000000E+03 0.  0.
        -11    1    3    3    0    0  0.55157365713E+00 -0.24803871719E+02  0.39573983421E+02  0.46707991285E+02  0.51100000000E-03 0. -1.
         23    2    1    0    0    0 -0.22970948776E+02  0.10314712616E+02  0.12678933796E+02  0.96807569345E+02  0.92611512980E+02 0.  0.
         11    1    3    3    0    0 -0.23522522433E+02  0.35118584335E+02 -0.26895049625E+02  0.50099578061E+02  0.51100000000E-03 0.  1.
         22    1    1    0    0    0  0.22970948776E+02 -0.10314712616E+02 -0.12678933796E+02  0.28192430655E+02  0.00000000000E+00 0. -1.
</event>
<event>
 5    1  0.1282524E-003  0.9118800E+02  0.7818608E-02  0.1130116E+00
         25   -1    0    0    0    0  0.00000000000E+00  0.00000000000E+00  0.99999998245E-14  0.12500000000E+03  0.12500000000E+03 0.  0.
        -11    1    3    3    0    0 -0.22297633989E+02 -0.21823034377E+02 -0.26127418143E+02  0.40694855817E+02  0.51100000000E-03 0.  1.
         23    2    1    0    0    0 -0.15376180626E+02  0.23696157612E+02  0.50559420990E+01  0.96303356176E+02  0.91928445239E+02 0.  0.
         11    1    3    3    0    0  0.69214533630E+01  0.45519191989E+02  0.31183360242E+02  0.55608500359E+02  0.51100000000E-03 0. -1.
         22    1    1    0    0    0  0.15376180626E+02 -0.23696157612E+02 -0.50559420990E+01  0.28696643824E+02  0.00000000000E+00 0. -1.
</event>
<event>
 5    1  0.1282524E-003  0.9118800E+02  0.7818608E-02  0.1130116E+00
         25   -1    0    0    0    0  0.00000000000E+00  0.00000000000E+00  0.99999998245E-14  0.12500000000E+03  0.12500000000E+03 0.  0.
        -11    1    3    3    0    0 -0.21203851387E+02  0.11388762309E+02 -0.31290834008E+02  0.39476873150E+02  0.51100000000E-03 0. -1.
         23    2    1    0    0    0  0.22614856491E+02  0.19105462966E+02  0.24169544257E+01  0.95296597536E+02  0.90549154518E+02 0.  0.
         11    1    3    3    0    0  0.43818707878E+02  0.77167006566E+01  0.33707788434E+02  0.55819724385E+02  0.51100000000E-03 0.  1.
         22    1    1    0    0    0 -0.22614856491E+02 -0.19105462966E+02 -0.24169544257E+01  0.29703402464E+02  0.00000000000E+00 0. -1.
</event>
<event>
 5    1  0.1282524E-003  0.9118800E+02  0.7818608E-02  0.1130116E+00
         25   -1    0    0    0    0  0.00000000000E+00  0.00000000000E+00  0.99999998245E-14  0.12500000000E+03  0.12500000000E+03 0.  0.
        -11    1    3    3    0    0 -0.38210291228E+02  0.18607314523E+01  0.13680524249E+02  0.40628135833E+02  0.51100000000E-03 0.  1.
         23    2    1    0    0    0 -0.20299248414E+01 -0.53879349866E+01 -0.28068785973E+02  0.96346777069E+02  0.91987467991E+02 0.  0.
         11    1    3    3    0    0  0.36180366386E+02 -0.72486664389E+01 -0.41749310222E+02  0.55718641237E+02  0.51100000000E-03 0. -1.
         22    1    1    0    0    0  0.20299248414E+01  0.53879349866E+01  0.28068785973E+02  0.28653222931E+02  0.00000000000E+00 0. -1.
</event>
<event>
 5    1  0.1282524E-003  0.9118800E+02  0.7818608E-02  0.1130116E+00
         25   -1    0    0    0    0  0.00000000000E+00  0.00000000000E+00  0.99999998245E-14  0.12500000000E+03  0.12500000000E+03 0.  0.
        -11    1    3    3    0    0 -0.25308152040E+02  0.14373181638E+02  0.11516201178E+02  0.31300380188E+02  0.51100000000E-03 0. -1.
         23    2    1    0    0    0  0.21656793644E+02 -0.13598413099E+02 -0.18288227771E+02  0.93561284619E+02  0.88121059656E+02 0.  0.
         11    1    3    3    0    0  0.46964945685E+02 -0.27971594738E+02 -0.29804428949E+02  0.62260904431E+02  0.51100000000E-03 0.  1.
         22    1    1    0    0    0 -0.21656793644E+02  0.13598413099E+02  0.18288227771E+02  0.31438715381E+02  0.00000000000E+00 0.  1.
</event>
<event>
 5    1  0.1282524E-003  0.9118800E+02  0.7818608E-02  0.1130116E+00
         25   -1    0    0    0    0  0.00000000000E+00  0.00000000000E+00  0.99999998245E-14  0.12500000000E+03  0.12500000000E+03 0.  0.
        -11    1    3    3    0    0 -0.15243750019E+02  0.51787988087E+02 -0.24441674138E+02  0.59260130440E+02  0.51100000000E-03 0.  1.
         23    2    1    0    0    0  0.35387585663E+01  0.20503883680E+02 -0.20208985910E+02  0.95994221788E+02  0.91507133312E+02 0.  0.
         11    1    3    3    0    0  0.18782508586E+02 -0.31284104407E+02  0.42326882287E+01  0.36734091349E+02  0.51100000000E-03 0. -1.
         22    1    1    0    0    0 -0.35387585663E+01 -0.20503883680E+02  0.20208985910E+02  0.29005778212E+02  0.00000000000E+00 0.  1.
</event>
<event>
 5    1  0.1282524E-003  0.9118800E+02  0.7818608E-02  0.1130116E+00
         25   -1    0    0    0    0  0.00000000000E+00  0.00000000000E+00  0.99999998245E-14  0.12500000000E+03  0.12500000000E+03 0.  0.
        -11    1    3    3    0    0 -0.37959123411E+02  0.40233551872E+02  0.19477984219E+02  0.58643206051E+02  0.51100000000E-03 0.  1.
         23    2    1    0    0    0 -0.24727443301E+02  0.61346257492E+01  0.14850001455E+02  0.95510974440E+02  0.90844612443E+02 0.  0.
         11    1    3    3    0    0  0.13231680110E+02 -0.34098926123E+02 -0.46279827641E+01  0.36867768389E+02  0.51100000000E-03 0. -1.
         22    1    1    0    0    0  0.24727443301E+02 -0.61346257492E+01 -0.14850001455E+02  0.29489025560E+02  0.00000000000E+00 0.  1.
</event>
<event>
 5    1  0.1282524E-003  0.9118800E+02  0.7818608E-02  0.1130116E+00
         25   -1    0    0    0    0  0.00000000000E+00  0.00000000000E+00  0.99999998245E-14  0.12500000000E+03  0.12500000000E+03 0.  0.
        -11    1    3    3    0    0  0.33866355060E+02  0.59526466743E+01  0.31850455564E+00  0.34386995403E+02  0.51100000000E-03 0.  1.
         23    2    1    0    0    0 -0.24684443590E+02 -0.12017645956E+02  0.86903873840E+01  0.96202979276E+02  0.91791855951E+02 0.  0.
         11    1    3    3    0    0 -0.58550798650E+02 -0.17970292631E+02  0.83718828284E+01  0.61815983873E+02  0.51100000000E-03 0. -1.
         22    1    1    0    0    0  0.24684443590E+02  0.12017645956E+02 -0.86903873840E+01  0.28797020724E+02  0.00000000000E+00 0. -1.
</event>
<event>
 5    1  0.1282524E-003  0.9118800E+02  0.7818608E-02  0.1130116E+00
         25   -1    0    0    0    0  0.00000000000E+00  0.00000000000E+00  0.99999998245E-14  0.12500000000E+03  0.12500000000E+03 0.  0.
        -11    1    3    3    0    0 -0.17468015605E+01 -0.33915892768E+02  0.25243781456E+01  0.34054538365E+02  0.51100000000E-03 0.  1.
         23    2    1    0    0    0 -0.10331778594E+01  0.22673015344E+02  0.21492444408E+02  0.93742069040E+02  0.88377130865E+02 0.  0.
         11    1    3    3    0    0  0.71362370106E+00  0.56588908112E+02  0.18968066263E+02  0.59687530675E+02  0.51100000000E-03 0. -1.
         22    1    1    0    0    0  0.10331778594E+01 -0.22673015344E+02 -0.21492444408E+02  0.31257930960E+02  0.00000000000E+00 0. -1.
</event>
<event>
 5    1  0.1282524E-003  0.9118800E+02  0.7818608E-02  0.1130116E+00
         25   -1    0    0    0    0  0.00000000000E+00  0.00000000000E+00  0.99999998245E-14  0.12500000000E+03  0.12500000000E+03 0.  0.
        -11    1    3    3    0    0 -0.31437831410E+02  0.15781555825E+02  0.14082961467E+02  0.37890956071E+02  0.51100000000E-03 0.  1.
         23    2    1    0    0    0  0.26464697990E+02  0.71834494353E+01  0.48532319607E+01  0.97151552181E+02  0.93074636960E+02 0.  0.
         11    1    3    3    0    0  0.57902529399E+02 -0.85981063900E+01 -0.92297295059E+01  0.59260596110E+02  0.51100000000E-03 0. -1.
         22    1    1    0    0    0 -0.26464697990E+02 -0.71834494353E+01 -0.48532319607E+01  0.27848447819E+02  0.00000000000E+00 0. -1.
</event>
<event>
 5    1  0.1282524E-003  0.9118800E+02  0.7818608E-02  0.1130116E+00
         25   -1    0    0    0    0  0.00000000000E+00  0.00000000000E+00  0.99999998245E-14  0.12500000000E+03  0.12500000000E+03 0.  0.
        -11    1    3    3    0    0  0.14563524625E+02  0.26536113190E+02  0.23646095922E+02  0.38410928202E+02  0.51100000000E-03 0.  1.
         23    2    1    0    0    0 -0.21063888880E+00 -0.27112136427E+02  0.12421296860E+02  0.95177174411E+02  0.90384144643E+02 0.  0.
         11    1    3    3    0    0 -0.14774163513E+02 -0.53648249617E+02 -0.11224799062E+02  0.56766246210E+02  0.51100000000E-03 0. -1.
         22    1    1    0    0    0  0.21063888880E+00  0.27112136427E+02 -0.12421296860E+02  0.29822825589E+02  0.00000000000E+00 0. -1.
</event>
<event>
 5    1  0.1282524E-003  0.9118800E+02  0.7818608E-02  0.1130116E+00
         25   -1    0    0    0    0  0.00000000000E+00  0.00000000000E+00  0.99999998245E-14  0.12500000000E+03  0.12500000000E+03 0.  0.
        -11    1    3    3    0    0  0.39858629574E+01  0.20727120805E+02  0.30941796539E+02  0.37455245476E+02  0.51100000000E-03 0. -1.
         23    2    1    0    0    0  0.19413979070E+01 -0.26222640764E+02 -0.69270576959E+01  0.97808456410E+02  0.93952722699E+02 0.  0.
         11    1    3    3    0    0 -0.20444650504E+01 -0.46949761569E+02 -0.37868854234E+02  0.60353210934E+02  0.51100000000E-03 0.  1.
         22    1    1    0    0    0 -0.19413979070E+01  0.26222640764E+02  0.69270576959E+01  0.27191543590E+02  0.00000000000E+00 0.  1.
</event>
<event>
 5    1  0.1282524E-003  0.9118800E+02  0.7818608E-02  0.1130116E+00
         25   -1    0    0    0    0  0.00000000000E+00  0.00000000000E+00  0.99999998245E-14  0.12500000000E+03  0.12500000000E+03 0.  0.
        -11    1    3    3    0    0 -0.93261023748E+01  0.28262841686E+02 -0.24850117189E+02  0.38772319124E+02  0.51100000000E-03 0. -1.
         23    2    1    0    0    0 -0.49969301486E+01  0.80633464683E+01  0.27957560384E+02  0.95476923436E+02  0.90797746993E+02 0.  0.
         11    1    3    3    0    0  0.43291722262E+01 -0.20199495218E+02  0.52807677573E+02  0.56704604312E+02  0.51100000000E-03 0.  1.
         22    1    1    0    0    0  0.49969301486E+01 -0.80633464683E+01 -0.27957560384E+02  0.29523076564E+02  0.00000000000E+00 0.  1.
</event>
<event>
 5    1  0.1282524E-003  0.9118800E+02  0.7818608E-02  0.1130116E+00
         25   -1    0    0    0    0  0.00000000000E+00  0.00000000000E+00  0.99999998245E-14  0.12500000000E+03  0.12500000000E+03 0.  0.
        -11    1    3    3    0    0  0.26440529817E+02 -0.28665366186E+02 -0.12571243418E+02  0.40973662234E+02  0.51100000000E-03 0.  1.
         23    2    1    0    0    0  0.17559392197E+02  0.23813789831E+02 -0.12727294316E+01  0.95384992307E+02  0.90671098354E+02 0.  0.
         11    1    3    3    0    0 -0.88811376195E+01  0.52479156017E+02  0.11298513986E+02  0.54411330072E+02  0.51100000000E-03 0. -1.
         22    1    1    0    0    0 -0.17559392197E+02 -0.23813789831E+02  0.12727294316E+01  0.29615007693E+02  0.00000000000E+00 0. -1.
</event>
<event>
 5    1  0.1282524E-003  0.9118800E+02  0.7818608E-02  0.1130116E+00
         25   -1    0    0    0    0  0.00000000000E+00  0.00000000000E+00  0.99999998245E-14  0.12500000000E+03  0.12500000000E+03 0.  0.
        -11    1    3    3    0    0  0.24845516592E+02  0.11800521779E+02 -0.30462853328E+02  0.41043116866E+02  0.51100000000E-03 0.  1.
         23    2    1    0    0    0 -0.82694367731E+01 -0.26307126341E+02 -0.81089978461E+01  0.96256229772E+02  0.91864342609E+02 0.  0.
         11    1    3    3    0    0 -0.33114953365E+02 -0.38107648120E+02  0.22353855482E+02  0.55213112906E+02  0.51100000000E-03 0. -1.
         22    1    1    0    0    0  0.82694367731E+01  0.26307126341E+02  0.81089978461E+01  0.28743770228E+02  0.00000000000E+00 0. -1.
</event>
<event>
 5    1  0.1282524E-003  0.9118800E+02  0.7818608E-02  0.1130116E+00
         25   -1    0    0    0    0  0.00000000000E+00  0.00000000000E+00  0.99999998245E-14  0.12500000000E+03  0.12500000000E+03 0.  0.
        -11    1    3    3    0    0 -0.13309556133E+02 -0.16654005912E+02 -0.20274208925E+02  0.29420124833E+02  0.51100000000E-03 0. -1.
         23    2    1    0    0    0  0.41940865374E+01  0.31532286054E+02  0.13105469644E+02  0.90596093823E+02  0.83809447293E+02 0.  0.
         11    1    3    3    0    0  0.17503642671E+02  0.48186291966E+02  0.33379678569E+02  0.61175968990E+02  0.51100000000E-03 0.  1.
         22    1    1    0    0    0 -0.41940865374E+01 -0.31532286054E+02 -0.13105469644E+02  0.34403906177E+02  0.00000000000E+00 0.  1.
</event>
<event>
 5    1  0.1282524E-003  0.9118800E+02  0.7818608E-02  0.1130116E+00
         25   -1    0    0    0    0  0.00000000000E+00  0.00000000000E+00  0.99999998245E-14  0.12500000000E+03  0.12500000000E+03 0.  0.
        -11    1    3    3    0    0 -0.82067389275E+01 -0.22149082457E+02 -0.14001534072E+02  0.27458612021E+02  0.51100000000E-03 0. -1.
         23    2    1    0    0    0 -0.37211177076E+02 -0.22765864317E+02  0.23955111273E+02  0.75232504246E+02  0.56419199405E+02 0.  0.
         11    1    3    3    0    0 -0.29004438149E+02 -0.61678186059E+00  0.37956645345E+02  0.47773892225E+02  0.51100000000E-03 0.  1.
         22    1    1    0    0    0  0.37211177076E+02  0.22765864317E+02 -0.23955111273E+02  0.49767495754E+02  0.00000000000E+00 0.  1.
</event>
<event>
 5    1  0.1282524E-003  0.9118800E+02  0.7818608E-02  0.1130116E+00
         25   -1    0    0    0    0  0.00000000000E+00  0.00000000000E+00  0.99999998245E-14  0.12500000000E+03  0.12500000000E+03 0.  0.
        -11    1    3    3    0    0  0.95413849009E+01  0.47006175683E+02  0.33731119900E+02  0.58637931650E+02  0.51100000000E-03 0.  1.
         23    2    1    0    0    0  0.58408390154E+01  0.11484122220E+02  0.27142358979E+02  0.94954898661E+02  0.90076215868E+02 0.  0.
         11    1    3    3    0    0 -0.37005458855E+01 -0.35522053464E+02 -0.65887609214E+01  0.36316967011E+02  0.51100000000E-03 0. -1.
         22    1    1    0    0    0 -0.58408390154E+01 -0.11484122220E+02 -0.27142358979E+02  0.30045101339E+02  0.00000000000E+00 0.  1.
</event>
<event>
 5    1  0.1282524E-003  0.9118800E+02  0.7818608E-02  0.1130116E+00
         25   -1    0    0    0    0  0.00000000000E+00  0.00000000000E+00  0.99999998245E-14  0.12500000000E+03  0.12500000000E+03 0.  0.
        -11    1    3    3    0    0 -0.26471288158E+02 -0.19128855581E+01 -0.30060098974E+02  0.40099847612E+02  0.51100000000E-03 0. -1.
         23    2    1    0    0    0 -0.17400457814E+02  0.26733941906E+02  0.11244509827E+02  0.91178134539E+02  0.84673098649E+02 0.  0.
         11    1    3    3    0    0  0.90708303440E+01  0.28646827464E+02  0.41304608802E+02  0.51078286927E+02  0.51100000000E-03 0.  1.
         22    1    1    0    0    0  0.17400457814E+02 -0.26733941906E+02 -0.11244509827E+02  0.33821865461E+02  0.00000000000E+00 0.  1.
</event>
<event>
 5    1  0.1282524E-003  0.9118800E+02  0.7818608E-02  0.1130116E+00
         25   -1    0    0    0    0  0.00000000000E+00  0.00000000000E+00  0.99999998245E-14  0.12500000000E+03  0.12500000000E+03 0.  0.
        -11    1    3    3    0    0 -0.13344926086E+02 -0.55463640383E+02 -0.94204139212E+01  0.57819085564E+02  0.51100000000E-03 0.  1.
         23    2    1    0    0    0  0.83098653472E+01 -0.28310545910E+02  0.43422894374E+01  0.95177251144E+02  0.90384250763E+02 0.  0.
         11    1    3    3    0    0  0.21654791434E+02  0.27153094473E+02  0.13762703359E+02  0.37358165580E+02  0.51100000000E-03 0. -1.
         22    1    1    0    0    0 -0.83098653472E+01  0.28310545910E+02 -0.43422894374E+01  0.29822748856E+02  0.00000000000E+00 0.  1.
</event>
<event>
 5    1  0.1282524E-003  0.9118800E+02  0.7818608E-02  0.1130116E+00
         25   -1    0    0    0    0  0.00000000000E+00  0.00000000000E+00  0.99999998245E-14  0.12500000000E+03  0.12500000000E+03 0.  0.
        -11    1    3    3    0    0  0.41953889289E+02  0.20039298313E+02 -0.26432884361E+02  0.53482704487E+02  0.51100000000E-03 0.  1.
         23    2    1    0    0    0  0.11880519669E+02 -0.10537622261E+02 -0.23718308026E+02  0.96456237702E+02  0.92136091872E+02 0.  0.
         11    1    3    3    0    0 -0.30073369619E+02 -0.30576920574E+02  0.27145763353E+01  0.42973533215E+02  0.51100000000E-03 0. -1.
         22    1    1    0    0    0 -0.11880519669E+02  0.10537622261E+02  0.23718308026E+02  0.28543762298E+02  0.00000000000E+00 0.  1.
</event>
<event>
 5    1  0.1282524E-003  0.9118800E+02  0.7818608E-02  0.1130116E+00
         25   -1    0    0    0    0  0.00000000000E+00  0.00000000000E+00  0.99999998245E-14  0.12500000000E+03  0.12500000000E+03 0.  0.
        -11    1    3    3    0    0  0.32514234469E+02 -0.83313171441E+01  0.10890285053E+02  0.35287173268E+02  0.51100000000E-03 0.  1.
         23    2    1    0    0    0 -0.18302548755E+02 -0.38852678785E+01 -0.22105286792E+02  0.96039297288E+02  0.91568686361E+02 0.  0.
         11    1    3    3    0    0 -0.50816783224E+02  0.44460492656E+01 -0.32995571845E+02  0.60752124020E+02  0.51100000000E-03 0. -1.
         22    1    1    0    0    0  0.18302548755E+02  0.38852678785E+01  0.22105286792E+02  0.28960702712E+02  0.00000000000E+00 0. -1.
</event>
<event>
 5    1  0.1282524E-003  0.9118800E+02  0.7818608E-02  0.1130116E+00
         25   -1    0    0    0    0  0.00000000000E+00  0.00000000000E+00  0.99999998245E-14  0.12500000000E+03  0.12500000000E+03 0.  0.
        -11    1    3    3    0    0  0.24010136110E+02  0.29655846212E+02 -0.25317218792E+02  0.45792110873E+02  0.51100000000E-03 0. -1.
         23    2    1    0    0    0 -0.10525358896E+02 -0.65239287332E+01 -0.26420944391E+02  0.95821049907E+02  0.91270271594E+02 0.  0.
         11    1    3    3    0    0 -0.34535495006E+02 -0.36179774945E+02 -0.11037255988E+01  0.50028939034E+02  0.51100000000E-03 0.  1.
         22    1    1    0    0    0  0.10525358896E+02  0.65239287332E+01  0.26420944391E+02  0.29178950093E+02  0.00000000000E+00 0. -1.
</event>
<event>
 5    1  0.1282524E-003  0.9118800E+02  0.7818608E-02  0.1130116E+00
         25   -1    0    0    0    0  0.00000000000E+00  0.00000000000E+00  0.99999998245E-14  0.12500000000E+03  0.12500000000E+03 0.  0.
        -11    1    3    3    0    0 -0.30712976936E+01  0.54072446703E+02 -0.84441379545E+00  0.54166183149E+02  0.51100000000E-03 0. -1.
         23    2    1    0    0    0  0.12235430280E+01  0.19003568366E+02  0.21740410392E+02  0.96098821613E+02  0.91649906727E+02 0.  0.
         11    1    3    3    0    0  0.42948407216E+01 -0.35068878338E+02  0.22584824187E+02  0.41932638463E+02  0.51100000000E-03 0.  1.
         22    1    1    0    0    0 -0.12235430280E+01 -0.19003568366E+02 -0.21740410392E+02  0.28901178387E+02  0.00000000000E+00 0. -1.
</event>
<event>
 5    1  0.1282524E-003  0.9118800E+02  0.7818608E-02  0.1130116E+00
         25   -1    0    0    0    0  0.00000000000E+00  0.00000000000E+00  0.99999998245E-14  0.12500000000E+03  0.12500000000E+03 0.  0.
        -11    1    3    3    0    0  0.32347818492E+02  0.24330793616E+02  0.37078770617E+02  0.54892659891E+02  0.51100000000E-03 0. -1.
         23    2    1    0    0    0  0.22929548208E+02  0.16510520686E+02 -0.27983178862E+01  0.96606478603E+02  0.92339697047E+02 0.  0.
         11    1    3    3    0    0 -0.94182702841E+01 -0.78202729297E+01 -0.39877088503E+02  0.41713818712E+02  0.51100000000E-03 0.  1.
         22    1    1    0    0    0 -0.22929548208E+02 -0.16510520686E+02  0.27983178862E+01  0.28393521397E+02  0.00000000000E+00 0. -1.
</event>
<event>
 5    1  0.1282524E-003  0.9118800E+02  0.7818608E-02  0.1130116E+00
         25   -1    0    0    0    0  0.00000000000E+00  0.00000000000E+00  0.99999998245E-14  0.12500000000E+03  0.12500000000E+03 0.  0.
        -11    1    3    3    0    0  0.35806670456E+02  0.74989732852E+01  0.29573111495E+01  0.36702832847E+02  0.51100000000E-03 0.  1.
         23    2    1    0    0    0 -0.12390504816E+02 -0.13551158808E+02  0.25211303857E+02  0.93810765370E+02  0.88474241124E+02 0.  0.
         11    1    3    3    0    0 -0.48197175272E+02 -0.21050132093E+02  0.22253992708E+02  0.57107932523E+02  0.51100000000E-03 0. -1.
         22    1    1    0    0    0  0.12390504816E+02  0.13551158808E+02 -0.25211303857E+02  0.31189234630E+02  0.00000000000E+00 0. -1.
</event>
<event>
 5    1  0.1282524E-003  0.9118800E+02  0.7818608E-02  0.1130116E+00
         25   -1    0    0    0    0  0.00000000000E+00  0.00000000000E+00  0.99999998245E-14  0.12500000000E+03  0.12500000000E+03 0.  0.
        -11    1    3    3    0    0  0.17331224111E+02 -0.16149345361E+02 -0.54088479974E+02  0.59048593133E+02  0.51100000000E-03 0.  1.
         23    2    1    0    0    0 -0.94579894525E+00 -0.19100767579E+02 -0.25102392255E+02  0.93442687779E+02  0.87952668775E+02 0.  0.
         11    1    3    3    0    0 -0.18277023057E+02 -0.29514222176E+01  0.28986087720E+02  0.34394094646E+02  0.51100000000E-03 0. -1.
         22    1    1    0    0    0  0.94579894525E+00  0.19100767579E+02  0.25102392255E+02  0.31557312221E+02  0.00000000000E+00 0.  1.
</event>
<event>
 5    1  0.1282524E-003  0.9118800E+02  0.7818608E-02  0.1130116E+00
         25   -1    0    0    0    0  0.00000000000E+00  0.00000000000E+00  0.99999998245E-14  0.12500000000E+03  0.12500000000E+03 0.  0.
        -11    1    3    3    0    0  0.37449596583E+02 -0.29625258797E+02 -0.18656443844E+02  0.51265886711E+02  0.51100000000E-03 0.  1.
         23    2    1    0    0    0 -0.57622551580E+01 -0.27180059634E+02 -0.10435667727E+02  0.95320674079E+02  0.90582385262E+02 0.  0.
         11    1    3    3    0    0 -0.43211851741E+02  0.24451991633E+01  0.82207761167E+01  0.44054787368E+02  0.51100000000E-03 0. -1.
         22    1    1    0    0    0  0.57622551580E+01  0.27180059634E+02  0.10435667727E+02  0.29679325921E+02  0.00000000000E+00 0.  1.
</event>
<event>
 5    1  0.1282524E-003  0.9118800E+02  0.7818608E-02  0.1130116E+00
         25   -1    0    0    0    0  0.00000000000E+00  0.00000000000E+00  0.99999998245E-14  0.12500000000E+03  0.12500000000E+03 0.  0.
        -11    1    3    3    0    0 -0.35618816858E+02 -0.20233718041E+02  0.64677121128E+01  0.41472096165E+02  0.51100000000E-03 0.  1.
         23    2    1    0    0    0  0.11114614045E+02 -0.14055028245E+02 -0.22065687995E+02  0.96575133227E+02  0.92297255143E+02 0.  0.
         11    1    3    3    0    0  0.46733430902E+02  0.61786897959E+01 -0.28533400108E+02  0.55103037062E+02  0.51100000000E-03 0. -1.
         22    1    1    0    0    0 -0.11114614045E+02  0.14055028245E+02  0.22065687995E+02  0.28424866773E+02  0.00000000000E+00 0. -1.
</event>
<event>
 5    1  0.1282524E-003  0.9118800E+02  0.7818608E-02  0.1130116E+00
         25   -1    0    0    0    0  0.00000000000E+00  0.00000000000E+00  0.99999998245E-14  0.12500000000E+03  0.12500000000E+03 0.  0.
        -11    1    3    3    0    0 -0.60416619526E+01  0.30987467999E+02 -0.12193370340E+02  0.33843804938E+02  0.51100000000E-03 0. -1.
         23    2    1    0    0    0  0.11387234966E+02 -0.26704611056E+02  0.24536197961E+01  0.95865387905E+02  0.91330974900E+02 0.  0.
         11    1    3    3    0    0  0.17428896918E+02 -0.57692079055E+02  0.14646990136E+02  0.62021582968E+02  0.51100000000E-03 0.  1.
         22    1    1    0    0    0 -0.11387234966E+02  0.26704611056E+02 -0.24536197961E+01  0.29134612095E+02  0.00000000000E+00 0.  1.
</event>
<event>
 5    1  0.1282524E-003  0.9118800E+02  0.7818608E-02  0.1130116E+00
         25   -1    0    0    0    0  0.00000000000E+00  0.00000000000E+00  0.99999998245E-14  0.12500000000E+03  0.12500000000E+03 0.  0.
        -11    1    3    3    0    0  0.18764678948E+02  0.18829284272E+02  0.42634868248E+02  0.50243279282E+02  0.51100000000E-03 0.  1.
         23    2    1    0    0    0 -0.17397290412E+02  0.76770535166E+01  0.18277455538E+01  0.10589650508E+03  0.10415913916E+03 0.  0.
         11    1    3    3    0    0 -0.36161969361E+02 -0.11152230755E+02 -0.40807122694E+02  0.55653225797E+02  0.51100000000E-03 0. -1.
         22    1    1    0    0    0  0.17397290412E+02 -0.76770535166E+01 -0.18277455538E+01  0.19103494921E+02  0.00000000000E+00 0.  1.
</event>
<event>
 5    1  0.1282524E-003  0.9118800E+02  0.7818608E-02  0.1130116E+00
         25   -1    0    0    0    0  0.00000000000E+00  0.00000000000E+00  0.99999998245E-14  0.12500000000E+03  0.12500000000E+03 0.  0.
        -11    1    3    3    0    0 -0.25450599905E+02 -0.21193171314E+02 -0.45518890950E+02  0.56292565934E+02  0.51100000000E-03 0.  1.
         23    2    1    0    0    0 -0.25876849655E+02  0.29362414571E+01 -0.15945136722E+02  0.94463460461E+02  0.89391638956E+02 0.  0.
         11    1    3    3    0    0 -0.42624974994E+00  0.24129412771E+02  0.29573754228E+02  0.38170894526E+02  0.51100000000E-03 0. -1.
         22    1    1    0    0    0  0.25876849655E+02 -0.29362414571E+01  0.15945136722E+02  0.30536539539E+02  0.00000000000E+00 0. -1.
</event>
<event>
 5    1  0.1282524E-003  0.9118800E+02  0.7818608E-02  0.1130116E+00
         25   -1    0    0    0    0  0.00000000000E+00  0.00000000000E+00  0.99999998245E-14  0.12500000000E+03  0.12500000000E+03 0.  0.
        -11    1    3    3    0    0  0.60435132430E+02  0.11018911396E+02 -0.53193993877E+01  0.61661314050E+02  0.51100000000E-03 0. -1.
         23    2    1    0    0    0  0.27658523454E+02  0.31173187661E+01  0.45617047530E+01  0.96795022670E+02  0.92594576880E+02 0.  0.
         11    1    3    3    0    0 -0.32776608977E+02 -0.79015926301E+01  0.98811041407E+01  0.35133708620E+02  0.51100000000E-03 0.  1.
         22    1    1    0    0    0 -0.27658523454E+02 -0.31173187661E+01 -0.45617047530E+01  0.28204977330E+02  0.00000000000E+00 0. -1.
</event>
<event>
 5    1  0.1282524E-003  0.9118800E+02  0.7818608E-02  0.1130116E+00
         25   -1    0    0    0    0  0.00000000000E+00  0.00000000000E+00  0.99999998245E-14  0.12500000000E+03  0.12500000000E+03 0.  0.
        -11    1    3    3    0    0  0.41957034471E+02  0.12869653940E+02  0.42741554121E+02  0.61260600578E+02  0.51100000000E-03 0. -1.
         23    2    1    0    0    0  0.23603604150E+02 -0.11875928062E+01  0.16828490749E+02  0.95987268201E+02  0.91497634124E+02 0.  0.
         11    1    3    3    0    0 -0.18353430321E+02 -0.14057246747E+02 -0.25913063372E+02  0.34726667624E+02  0.51100000000E-03 0.  1.
         22    1    1    0    0    0 -0.23603604150E+02  0.11875928062E+01 -0.16828490749E+02  0.29012731799E+02  0.00000000000E+00 0. -1.
</event>
<event>
 5    1  0.1282524E-003  0.9118800E+02  0.7818608E-02  0.1130116E+00
         25   -1    0    0    0    0  0.00000000000E+00  0.00000000000E+00  0.99999998245E-14  0.12500000000E+03  0.12500000000E+03 0.  0.
        -11    1    3    3    0    0  0.25026384424E+02 -0.33839127277E+02  0.46832779188E+00  0.42090685233E+02  0.51100000000E-03 0. -1.
         23    2    1    0    0    0  0.10708968784E+02  0.13123529077E+02  0.23265293536E+02  0.96221832735E+02  0.91817526560E+02 0.  0.
         11    1    3    3    0    0 -0.14317415640E+02  0.46962656354E+02  0.22796965744E+02  0.54131147501E+02  0.51100000000E-03 0.  1.
         22    1    1    0    0    0 -0.10708968784E+02 -0.13123529077E+02 -0.23265293536E+02  0.28778167265E+02  0.00000000000E+00 0.  1.
</event>
<event>
 5    1  0.1282524E-003  0.9118800E+02  0.7818608E-02  0.1130116E+00
         25   -1    0    0    0    0  0.00000000000E+00  0.00000000000E+00  0.99999998245E-14  0.12500000000E+03  0.12500000000E+03 0.  0.
        -11    1    3    3    0    0 -0.39074589543E+02  0.39642969236E+02  0.16235433508E+02  0.57982565132E+02  0.51100000000E-03 0. -1.
         23    2    1    0    0    0 -0.63681675712E+01  0.29804473061E+02  0.40037559160E+01  0.94260933097E+02  0.89107986590E+02 0.  0.
         11    1    3    3    0    0  0.32706421972E+02 -0.98384961750E+01 -0.12231677592E+02  0.36278367965E+02  0.51100000000E-03 0.  1.
         22    1    1    0    0    0  0.63681675712E+01 -0.29804473061E+02 -0.40037559160E+01  0.30739066903E+02  0.00000000000E+00 0. -1.
</event>
<event>
 5    1  0.1282524E-003  0.9118800E+02  0.7818608E-02  0.1130116E+00
         25   -1    0    0    0    0  0.00000000000E+00  0.00000000000E+00  0.99999998245E-14  0.12500000000E+03  0.12500000000E+03 0.  0.
        -11    1    3    3    0    0  0.19894310425E+02 -0.41652155148E+02  0.54194733228E+01  0.46476405919E+02  0.51100000000E-03 0. -1.
         23    2    1    0    0    0  0.26099279457E+02  0.65303719966E+01  0.12075002903E+02  0.95510614763E+02  0.90844117535E+02 0.  0.
         11    1    3    3    0    0  0.62049690318E+01  0.48182527144E+02  0.66555295800E+01  0.49034208844E+02  0.51100000000E-03 0.  1.
         22    1    1    0    0    0 -0.26099279457E+02 -0.65303719966E+01 -0.12075002903E+02  0.29489385237E+02  0.00000000000E+00 0.  1.
</event>
<event>
 5    1  0.1282524E-003  0.9118800E+02  0.7818608E-02  0.1130116E+00
         25   -1    0    0    0    0  0.00000000000E+00  0.00000000000E+00  0.99999998245E-14  0.12500000000E+03  0.12500000000E+03 0.  0.
        -11    1    3    3    0    0 -0.32967726577E+02 -0.14513727210E+02 -0.12722776668E+02  0.38201941307E+02  0.51100000000E-03 0.  1.
         23    2    1    0    0    0 -0.41185475133E+01  0.22701259397E+02  0.19111456821E+02  0.95040737765E+02  0.90195257311E+02 0.  0.
         11    1    3    3    0    0  0.28849179064E+02  0.37214986607E+02  0.31834233488E+02  0.56838796459E+02  0.51100000000E-03 0. -1.
         22    1    1    0    0    0  0.41185475133E+01 -0.22701259397E+02 -0.19111456821E+02  0.29959262235E+02  0.00000000000E+00 0. -1.
</event>
<event>
 5    1  0.1282524E-003  0.9118800E+02  0.7818608E-02  0.1130116E+00
         25   -1    0    0    0    0  0.00000000000E+00  0.00000000000E+00  0.99999998245E-14  0.12500000000E+03  0.12500000000E+03 0.  0.
        -11    1    3    3    0    0 -0.35094522428E+01 -0.54256971160E+02 -0.22792103794E+02  0.58954348187E+02  0.51100000000E-03 0.  1.
         23    2    1    0    0    0  0.64034451523E+00 -0.17199750338E+02 -0.23036192810E+02  0.96243998331E+02  0.91847697755E+02 0.  0.
         11    1    3    3    0    0  0.41497967580E+01  0.37057220822E+02 -0.24408901590E+00  0.37289650144E+02  0.51100000000E-03 0. -1.
         22    1    1    0    0    0 -0.64034451523E+00  0.17199750338E+02  0.23036192810E+02  0.28756001669E+02  0.00000000000E+00 0.  1.
</event>
<event>
 5    1  0.1282524E-003  0.9118800E+02  0.7818608E-02  0.1130116E+00
         25   -1    0    0    0    0  0.00000000000E+00  0.00000000000E+00  0.99999998245E-14  0.12500000000E+03  0.12500000000E+03 0.  0.
        -11    1    3    3    0    0  0.90388935291E+00 -0.29348165345E+02  0.18873747188E+02  0.34904872987E+02  0.51100000000E-03 0. -1.
         23    2    1    0    0    0 -0.14842201670E+02  0.19986067297E+02 -0.14189313775E+02  0.96345672895E+02  0.91985967538E+02 0.  0.
         11    1    3    3    0    0 -0.15746091023E+02  0.49334232642E+02 -0.33063060963E+02  0.61440799908E+02  0.51100000000E-03 0.  1.
         22    1    1    0    0    0  0.14842201670E+02 -0.19986067297E+02  0.14189313775E+02  0.28654327105E+02  0.00000000000E+00 0.  1.
</event>
<event>
 5    1  0.1282524E-003  0.9118800E+02  0.7818608E-02  0.1130116E+00
         25   -1    0    0    0    0  0.00000000000E+00  0.00000000000E+00  0.99999998245E-14  0.12500000000E+03  0.12500000000E+03 0.  0.
        -11    1    3    3    0    0  0.23805304950E+01  0.87490728660E+01  0.41502691147E+02  0.42481602773E+02  0.51100000000E-03 0. -1.
         23    2    1    0    0    0  0.72164547747E+01  0.25781810194E+02 -0.95948620087E+01  0.96559881622E+02  0.92276597280E+02 0.  0.
         11    1    3    3    0    0  0.48359242797E+01  0.17032737328E+02 -0.51097553156E+02  0.54078278849E+02  0.51100000000E-03 0.  1.
         22    1    1    0    0    0 -0.72164547747E+01 -0.25781810194E+02  0.95948620087E+01  0.28440118378E+02  0.00000000000E+00 0.  1.
</event>
<event>
 5    1  0.1282524E-003  0.9118800E+02  0.7818608E-02  0.1130116E+00
         25   -1    0    0    0    0  0.00000000000E+00  0.00000000000E+00  0.99999998245E-14  0.12500000000E+03  0.12500000000E+03 0.  0.
        -11    1    3    3    0    0  0.14175596193E+00 -0.24879346794E+02  0.53677550746E+02  0.59163176436E+02  0.51100000000E-03 0. -1.
         23    2    1    0    0    0 -0.12009845248E+02 -0.33586497977E+01  0.25295691900E+02  0.96797359342E+02  0.92597731266E+02 0.  0.
         11    1    3    3    0    0 -0.12151601210E+02  0.21520696996E+02 -0.28381858846E+02  0.37634182906E+02  0.51100000000E-03 0.  1.
         22    1    1    0    0    0  0.12009845248E+02  0.33586497977E+01 -0.25295691900E+02  0.28202640658E+02  0.00000000000E+00 0. -1.
</event>
<event>
 5    1  0.1282524E-003  0.9118800E+02  0.7818608E-02  0.1130116E+00
         25   -1    0    0    0    0  0.00000000000E+00  0.00000000000E+00  0.99999998245E-14  0.12500000000E+03  0.12500000000E+03 0.  0.
        -11    1    3    3    0    0 -0.15631770995E+01  0.19154319583E+02 -0.32053976239E+02  0.37373638762E+02  0.51100000000E-03 0. -1.
         23    2    1    0    0    0 -0.24419691808E+02 -0.18120469995E+02  0.43666607124E+01  0.94279640194E+02  0.89134224899E+02 0.  0.
         11    1    3    3    0    0 -0.22856514709E+02 -0.37274789578E+02  0.36420636952E+02  0.56906001431E+02  0.51100000000E-03 0.  1.
         22    1    1    0    0    0  0.24419691808E+02  0.18120469995E+02 -0.43666607124E+01  0.30720359806E+02  0.00000000000E+00 0.  1.
</event>
<event>
 5    1  0.1282524E-003  0.9118800E+02  0.7818608E-02  0.1130116E+00
         25   -1    0    0    0    0  0.00000000000E+00  0.00000000000E+00  0.99999998245E-14  0.12500000000E+03  0.12500000000E+03 0.  0.
        -11    1    3    3    0    0  0.28577189450E+02  0.15940460548E+02  0.11842017811E+02  0.34799244610E+02  0.51100000000E-03 0.  1.
         23    2    1    0    0    0 -0.12884714173E+02 -0.24321984485E+02 -0.86972295654E+01  0.96134508653E+02  0.91698566854E+02 0.  0.
         11    1    3    3    0    0 -0.41461903623E+02 -0.40262445034E+02 -0.20539247376E+02  0.61335264042E+02  0.51100000000E-03 0. -1.
         22    1    1    0    0    0  0.12884714173E+02  0.24321984485E+02  0.86972295654E+01  0.28865491347E+02  0.00000000000E+00 0. -1.
</event>
<event>
 5    1  0.1282524E-003  0.9118800E+02  0.7818608E-02  0.1130116E+00
         25   -1    0    0    0    0  0.00000000000E+00  0.00000000000E+00  0.99999998245E-14  0.12500000000E+03  0.12500000000E+03 0.  0.
        -11    1    3    3    0    0 -0.12276162508E+01  0.78711703678E+00 -0.34090042719E+02  0.34121219318E+02  0.51100000000E-03 0. -1.
         23    2    1    0    0    0  0.17523749492E+01 -0.16785050691E+02  0.24437011384E+02  0.95301914708E+02  0.90556494394E+02 0.  0.
         11    1    3    3    0    0  0.29799912000E+01 -0.17572167727E+02  0.58527054103E+02  0.61180695390E+02  0.51100000000E-03 0.  1.
         22    1    1    0    0    0 -0.17523749492E+01  0.16785050691E+02 -0.24437011384E+02  0.29698085292E+02  0.00000000000E+00 0.  1.
</event>
<event>
 5    1  0.1282524E-003  0.9118800E+02  0.7818608E-02  0.1130116E+00
         25   -1    0    0    0    0  0.00000000000E+00  0.00000000000E+00  0.99999998245E-14  0.12500000000E+03  0.12500000000E+03 0.  0.
        -11    1    3    3    0    0 -0.16362123148E+02  0.19995133927E+02 -0.23415423524E+02  0.34868417138E+02  0.51100000000E-03 0.  1.
         23    2    1    0    0    0  0.28371591017E+02 -0.74537466853E+01  0.60362202374E+01  0.95051018862E+02  0.90209504574E+02 0.  0.
         11    1    3    3    0    0  0.44733714164E+02 -0.27448880612E+02  0.29451643761E+02  0.60182601724E+02  0.51100000000E-03 0. -1.
         22    1    1    0    0    0 -0.28371591017E+02  0.74537466853E+01 -0.60362202374E+01  0.29948981138E+02  0.00000000000E+00 0. -1.
</event>
<event>
 5    1  0.1282524E-003  0.9118800E+02  0.7818608E-02  0.1130116E+00
         25   -1    0    0    0    0  0.00000000000E+00  0.00000000000E+00  0.99999998245E-14  0.12500000000E+03  0.12500000000E+03 0.  0.
        -11    1    3    3    0    0 -0.17235060998E+02  0.55731800051E+02  0.18054177802E+02  0.61065818596E+02  0.51100000000E-03 0.  1.
         23    2    1    0    0    0 -0.12319167715E+02  0.24854980600E+02 -0.17771186840E+00  0.97258991811E+02  0.93218817589E+02 0.  0.
         11    1    3    3    0    0  0.49158932832E+01 -0.30876819450E+02 -0.18231889670E+02  0.36193173215E+02  0.51100000000E-03 0. -1.
         22    1    1    0    0    0  0.12319167715E+02 -0.24854980600E+02  0.17771186840E+00  0.27741008189E+02  0.00000000000E+00 0.  1.
</event>
<event>
 5    1  0.1282524E-003  0.9118800E+02  0.7818608E-02  0.1130116E+00
         25   -1    0    0    0    0  0.00000000000E+00  0.00000000000E+00  0.99999998245E-14  0.12500000000E+03  0.12500000000E+03 0.  0.
        -11    1    3    3    0    0  0.14082850317E+02 -0.45470857562E+02 -0.28204683225E+02  0.55330188113E+02  0.51100000000E-03 0.  1.
         23    2    1    0    0    0  0.19450483301E+02 -0.76428004638E+01 -0.23055595218E+02  0.93882574489E+02  0.88575637859E+02 0.  0.
         11    1    3    3    0    0  0.53676329847E+01  0.37828057099E+02  0.51490880069E+01  0.38552386376E+02  0.51100000000E-03 0. -1.
         22    1    1    0    0    0 -0.19450483301E+02  0.76428004638E+01  0.23055595218E+02  0.31117425511E+02  0.00000000000E+00 0. -1.
</event>
<event>
 5    1  0.1282524E-003  0.9118800E+02  0.7818608E-02  0.1130116E+00
         25   -1    0    0    0    0  0.00000000000E+00  0.00000000000E+00  0.99999998245E-14  0.12500000000E+03  0.12500000000E+03 0.  0.
        -11    1    3    3    0    0 -0.86001767645E+01 -0.56700061970E+02  0.13560796501E+02  0.58930087984E+02  0.51100000000E-03 0.  1.
         23    2    1    0    0    0  0.80248826720E+01 -0.21522405319E+02 -0.41137195815E+01  0.10166471853E+03  0.98950389751E+02 0.  0.
         11    1    3    3    0    0  0.16625059436E+02  0.35177656651E+02 -0.17674516083E+02  0.42734630544E+02  0.51100000000E-03 0. -1.
         22    1    1    0    0    0 -0.80248826720E+01  0.21522405319E+02  0.41137195815E+01  0.23335281473E+02  0.00000000000E+00 0.  1.
</event>
<event>
 5    1  0.1282524E-003  0.9118800E+02  0.7818608E-02  0.1130116E+00
         25   -1    0    0    0    0  0.00000000000E+00  0.00000000000E+00  0.99999998245E-14  0.12500000000E+03  0.12500000000E+03 0.  0.
        -11    1    3    3    0    0  0.24936355524E+02  0.21538287115E+02 -0.10288099079E+02  0.34519047228E+02  0.51100000000E-03 0. -1.
         23    2    1    0    0    0 -0.26085752207E+02 -0.37771733485E+01  0.12453148834E+02  0.95848423326E+02  0.91307753403E+02 0.  0.
         11    1    3    3    0    0 -0.51022107730E+02 -0.25315460463E+02  0.22741247912E+02  0.61329376098E+02  0.51100000000E-03 0.  1.
         22    1    1    0    0    0  0.26085752207E+02  0.37771733485E+01 -0.12453148834E+02  0.29151576674E+02  0.00000000000E+00 0.  1.
</event>
<event>
 5    1  0.1282524E-003  0.9118800E+02  0.7818608E-02  0.1130116E+00
         25   -1    0    0    0    0  0.00000000000E+00  0.00000000000E+00  0.99999998245E-14  0.12500000000E+03  0.12500000000E+03 0.  0.
        -11    1    3    3    0    0 -0.28712347754E+02 -0.18917062787E+02 -0.96230091515E+00  0.34397386548E+02  0.51100000000E-03 0. -1.
         23    2    1    0    0    0  0.15366094163E+02  0.23719005221E+02 -0.65914119165E+01  0.95980097010E+02  0.91487836638E+02 0.  0.
         11    1    3    3    0    0  0.44078441917E+02  0.42636068007E+02 -0.56291110013E+01  0.61582710462E+02  0.51100000000E-03 0.  1.
         22    1    1    0    0    0 -0.15366094163E+02 -0.23719005221E+02  0.65914119165E+01  0.29019902990E+02  0.00000000000E+00 0.  1.
</event>
<event>
 5    1  0.1282524E-003  0.9118800E+02  0.7818608E-02  0.1130116E+00
         25   -1    0    0    0    0  0.00000000000E+00  0.00000000000E+00  0.99999998245E-14  0.12500000000E+03  0.12500000000E+03 0.  0.
        -11    1    3    3    0    0  0.22901022873E+02  0.17611206307E+02 -0.21514955010E+02  0.36020892903E+02  0.51100000000E-03 0.  1.
         23    2    1    0    0    0 -0.27866949109E+02 -0.79093007214E+01 -0.25649210625E+01  0.95919031814E+02  0.91404365069E+02 0.  0.
         11    1    3    3    0    0 -0.50767971982E+02 -0.25520507029E+02  0.18950033947E+02  0.59898138911E+02  0.51100000000E-03 0. -1.
         22    1    1    0    0    0  0.27866949109E+02  0.79093007214E+01  0.25649210625E+01  0.29080968186E+02  0.00000000000E+00 0. -1.
</event>
<event>
 5    1  0.1282524E-003  0.9118800E+02  0.7818608E-02  0.1130116E+00
         25   -1    0    0    0    0  0.00000000000E+00  0.00000000000E+00  0.99999998245E-14  0.12500000000E+03  0.12500000000E+03 0.  0.
        -11    1    3    3    0    0 -0.71730608540E+01  0.33371598374E+02  0.20316103280E+01  0.34194207416E+02  0.51100000000E-03 0.  1.
         23    2    1    0    0    0 -0.72279288231E+01 -0.27035699116E+02  0.10330563597E+02  0.95168933543E+02  0.90372746919E+02 0.  0.
         11    1    3    3    0    0 -0.54867969161E-01 -0.60407297490E+02  0.82989532688E+01  0.60974726126E+02  0.51100000000E-03 0. -1.
         22    1    1    0    0    0  0.72279288231E+01  0.27035699116E+02 -0.10330563597E+02  0.29831066457E+02  0.00000000000E+00 0. -1.
</event>
<event>
 5    1  0.1282524E-003  0.9118800E+02  0.7818608E-02  0.1130116E+00
         25   -1    0    0    0    0  0.00000000000E+00  0.00000000000E+00  0.99999998245E-14  0.12500000000E+03  0.12500000000E+03 0.  0.
        -11    1    3    3    0    0  0.97652053376E+01 -0.42934471626E+01  0.26884360074E+02  0.28923377062E+02  0.51100000000E-03 0. -1.
         23    2    1    0    0    0 -0.18547728671E+01  0.15643010928E+02 -0.30444191544E+02  0.90721832428E+02  0.83996774385E+02 0.  0.
         11    1    3    3    0    0 -0.11619978205E+02  0.19936458091E+02 -0.57328551619E+02  0.61798455366E+02  0.51100000000E-03 0.  1.
         22    1    1    0    0    0  0.18547728671E+01 -0.15643010928E+02  0.30444191544E+02  0.34278167572E+02  0.00000000000E+00 0.  1.
</event>
<event>
 5    1  0.1282524E-003  0.9118800E+02  0.7818608E-02  0.1130116E+00
         25   -1    0    0    0    0  0.00000000000E+00  0.00000000000E+00  0.99999998245E-14  0.12500000000E+03  0.12500000000E+03 0.  0.
        -11    1    3    3    0    0 -0.10480024786E+02 -0.40868138059E+02  0.45807744589E+02  0.62276681772E+02  0.51100000000E-03 0.  1.
         23    2    1    0    0    0 -0.74655647362E+01 -0.18949400407E+02  0.25996922250E+02  0.91974942860E+02  0.85841340361E+02 0.  0.
         11    1    3    3    0    0  0.30144600495E+01  0.21918737652E+02 -0.19810822339E+02  0.29698261088E+02  0.51100000000E-03 0. -1.
         22    1    1    0    0    0  0.74655647362E+01  0.18949400407E+02 -0.25996922250E+02  0.33025057140E+02  0.00000000000E+00 0.  1.
</event>
<event>
 5    1  0.1282524E-003  0.9118800E+02  0.7818608E-02  0.1130116E+00
         25   -1    0    0    0    0  0.00000000000E+00  0.00000000000E+00  0.99999998245E-14  0.12500000000E+03  0.12500000000E+03 0.  0.
        -11    1    3    3    0    0 -0.17890582910E+02  0.31599929420E+02 -0.23687506942E+02  0.43355812546E+02  0.51100000000E-03 0. -1.
         23    2    1    0    0    0  0.98418608096E+01 -0.12975979881E+02 -0.24168167726E+02  0.95856585490E+02  0.91318926694E+02 0.  0.
         11    1    3    3    0    0  0.27732443719E+02 -0.44575909301E+02 -0.48066078384E+00  0.52500772944E+02  0.51100000000E-03 0.  1.
         22    1    1    0    0    0 -0.98418608096E+01  0.12975979881E+02  0.24168167726E+02  0.29143414510E+02  0.00000000000E+00 0. -1.
</event>
<event>
 5    1  0.1282524E-003  0.9118800E+02  0.7818608E-02  0.1130116E+00
         25   -1    0    0    0    0  0.00000000000E+00  0.00000000000E+00  0.99999998245E-14  0.12500000000E+03  0.12500000000E+03 0.  0.
        -11    1    3    3    0    0  0.10148432853E+01  0.48769093595E+02  0.83594892571E+01  0.49490761339E+02  0.51100000000E-03 0.  1.
         23    2    1    0    0    0  0.14792593309E+02  0.19463991591E+01 -0.15212083251E+02  0.10369233088E+03  0.10147946945E+03 0.  0.
         11    1    3    3    0    0  0.13777750023E+02 -0.46822694436E+02 -0.23571572508E+02  0.54201569541E+02  0.51100000000E-03 0. -1.
         22    1    1    0    0    0 -0.14792593309E+02 -0.19463991591E+01  0.15212083251E+02  0.21307669120E+02  0.00000000000E+00 0. -1.
</event>
<event>
 5    1  0.1282524E-003  0.9118800E+02  0.7818608E-02  0.1130116E+00
         25   -1    0    0    0    0  0.00000000000E+00  0.00000000000E+00  0.99999998245E-14  0.12500000000E+03  0.12500000000E+03 0.  0.
        -11    1    3    3    0    0  0.31515222727E+02 -0.33382103506E+02 -0.17508897857E+02  0.49133853935E+02  0.51100000000E-03 0.  1.
         23    2    1    0    0    0 -0.10456261684E+02 -0.26401901880E+02  0.31439766143E+01  0.96429413373E+02  0.92099692416E+02 0.  0.
         11    1    3    3    0    0 -0.41971484411E+02  0.69802016261E+01  0.20652874471E+02  0.47295559438E+02  0.51100000000E-03 0. -1.
         22    1    1    0    0    0  0.10456261684E+02  0.26401901880E+02 -0.31439766143E+01  0.28570586627E+02  0.00000000000E+00 0.  1.
</event>
<event>
 5    1  0.1282524E-003  0.9118800E+02  0.7818608E-02  0.1130116E+00
         25   -1    0    0    0    0  0.00000000000E+00  0.00000000000E+00  0.99999998245E-14  0.12500000000E+03  0.12500000000E+03 0.  0.
        -11    1    3    3    0    0  0.20454128990E+02 -0.49188689672E+01  0.26468383935E+02  0.33810383214E+02  0.51100000000E-03 0.  1.
         23    2    1    0    0    0 -0.20040728788E+02 -0.10077466025E+02 -0.19492180954E+02  0.95282475705E+02  0.90529657717E+02 0.  0.
         11    1    3    3    0    0 -0.40494857778E+02 -0.51585970575E+01 -0.45960564890E+02  0.61472092492E+02  0.51100000000E-03 0. -1.
         22    1    1    0    0    0  0.20040728788E+02  0.10077466025E+02  0.19492180954E+02  0.29717524295E+02  0.00000000000E+00 0. -1.
</event>
<event>
 5    1  0.1282524E-003  0.9118800E+02  0.7818608E-02  0.1130116E+00
         25   -1    0    0    0    0  0.00000000000E+00  0.00000000000E+00  0.99999998245E-14  0.12500000000E+03  0.12500000000E+03 0.  0.
        -11    1    3    3    0    0  0.91638929228E+01  0.33258325336E+02  0.25770222290E+02  0.43060393575E+02  0.51100000000E-03 0. -1.
         23    2    1    0    0    0  0.98002524879E+01 -0.19513404249E+02  0.18590420765E+02  0.96322105404E+02  0.91953936028E+02 0.  0.
         11    1    3    3    0    0  0.63635956511E+00 -0.52771729585E+02 -0.71798015252E+01  0.53261711830E+02  0.51100000000E-03 0.  1.
         22    1    1    0    0    0 -0.98002524879E+01  0.19513404249E+02 -0.18590420765E+02  0.28677894596E+02  0.00000000000E+00 0.  1.
</event>
<event>
 5    1  0.1282524E-003  0.9118800E+02  0.7818608E-02  0.1130116E+00
         25   -1    0    0    0    0  0.00000000000E+00  0.00000000000E+00  0.99999998245E-14  0.12500000000E+03  0.12500000000E+03 0.  0.
        -11    1    3    3    0    0 -0.16078526038E+02  0.51049162496E+02  0.31708372795E+02  0.62208977621E+02  0.51100000000E-03 0. -1.
         23    2    1    0    0    0 -0.38251026743E+01  0.23276446913E+02  0.16886662259E+02  0.95989937028E+02  0.91501280084E+02 0.  0.
         11    1    3    3    0    0  0.12253423364E+02 -0.27772715583E+02 -0.14821710536E+02  0.33780959407E+02  0.51100000000E-03 0.  1.
         22    1    1    0    0    0  0.38251026743E+01 -0.23276446913E+02 -0.16886662259E+02  0.29010062972E+02  0.00000000000E+00 0. -1.
</event>
<event>
 5    1  0.1282524E-003  0.9118800E+02  0.7818608E-02  0.1130116E+00
         25   -1    0    0    0    0  0.00000000000E+00  0.00000000000E+00  0.99999998245E-14  0.12500000000E+03  0.12500000000E+03 0.  0.
        -11    1    3    3    0    0  0.26649604567E+02 -0.82432774990E+01  0.21939776204E+02  0.35489531240E+02  0.51100000000E-03 0.  1.
         23    2    1    0    0    0 -0.12620050571E+02  0.27555845744E+02 -0.36576678542E+01  0.94471835214E+02  0.89403348951E+02 0.  0.
         11    1    3    3    0    0 -0.39269655138E+02  0.35799123243E+02 -0.25597444058E+02  0.58982303974E+02  0.51100000000E-03 0. -1.
         22    1    1    0    0    0  0.12620050571E+02 -0.27555845744E+02  0.36576678542E+01  0.30528164786E+02  0.00000000000E+00 0. -1.
</event>
<event>
 5    1  0.1282524E-003  0.9118800E+02  0.7818608E-02  0.1130116E+00
         25   -1    0    0    0    0  0.00000000000E+00  0.00000000000E+00  0.99999998245E-14  0.12500000000E+03  0.12500000000E+03 0.  0.
        -11    1    3    3    0    0  0.71702820134E+01  0.25433411068E+02 -0.29334394720E+02  0.39481363408E+02  0.51100000000E-03 0. -1.
         23    2    1    0    0    0  0.25861194500E+02 -0.10068080529E+02  0.98394956660E+01  0.95555419829E+02  0.90905747658E+02 0.  0.
         11    1    3    3    0    0  0.18690912486E+02 -0.35501491597E+02  0.39173890386E+02  0.56074056421E+02  0.51100000000E-03 0.  1.
         22    1    1    0    0    0 -0.25861194500E+02  0.10068080529E+02 -0.98394956660E+01  0.29444580171E+02  0.00000000000E+00 0.  1.
</event>
<event>
 5    1  0.1282524E-003  0.9118800E+02  0.7818608E-02  0.1130116E+00
         25   -1    0    0    0    0  0.00000000000E+00  0.00000000000E+00  0.99999998245E-14  0.12500000000E+03  0.12500000000E+03 0.  0.
        -11    1    3    3    0    0  0.19427183012E+02  0.33473909688E+02 -0.19015241960E+02  0.43121891154E+02  0.51100000000E-03 0. -1.
         23    2    1    0    0    0  0.18074235307E+02 -0.12694278767E+02  0.13047066605E+02  0.99347541203E+02  0.95978566882E+02 0.  0.
         11    1    3    3    0    0 -0.13529477057E+01 -0.46168188455E+02  0.32062308565E+02  0.56225650049E+02  0.51100000000E-03 0.  1.
         22    1    1    0    0    0 -0.18074235307E+02  0.12694278767E+02 -0.13047066605E+02  0.25652458797E+02  0.00000000000E+00 0.  1.
</event>
<event>
 5    1  0.1282524E-003  0.9118800E+02  0.7818608E-02  0.1130116E+00
         25   -1    0    0    0    0  0.00000000000E+00  0.00000000000E+00  0.99999998245E-14  0.12500000000E+03  0.12500000000E+03 0.  0.
        -11    1    3    3    0    0 -0.35084042349E+02  0.15740528094E+01  0.22274129452E+02  0.41587311922E+02  0.51100000000E-03 0. -1.
         23    2    1    0    0    0  0.14340879681E+02 -0.20365498495E+02  0.14388127463E+02  0.96234872313E+02  0.91835276872E+02 0.  0.
         11    1    3    3    0    0  0.49424922030E+02 -0.21939551304E+02 -0.78860019888E+01  0.54647560391E+02  0.51100000000E-03 0.  1.
         22    1    1    0    0    0 -0.14340879681E+02  0.20365498495E+02 -0.14388127463E+02  0.28765127687E+02  0.00000000000E+00 0.  1.
</event>
<event>
 5    1  0.1282524E-003  0.9118800E+02  0.7818608E-02  0.1130116E+00
         25   -1    0    0    0    0  0.00000000000E+00  0.00000000000E+00  0.99999998245E-14  0.12500000000E+03  0.12500000000E+03 0.  0.
        -11    1    3    3    0    0  0.27848453846E+02  0.13457919331E+02  0.17528364803E+02  0.35551308658E+02  0.51100000000E-03 0.  1.
         23    2    1    0    0    0 -0.21860365915E+02 -0.18267975022E+02  0.89267653384E+01  0.95145659465E+02  0.90340549402E+02 0.  0.
         11    1    3    3    0    0 -0.49708819762E+02 -0.31725894353E+02 -0.86015994644E+01  0.59594350808E+02  0.51100000000E-03 0. -1.
         22    1    1    0    0    0  0.21860365915E+02  0.18267975022E+02 -0.89267653384E+01  0.29854340535E+02  0.00000000000E+00 0. -1.
</event>
<event>
 5    1  0.1282524E-003  0.9118800E+02  0.7818608E-02  0.1130116E+00
         25   -1    0    0    0    0  0.00000000000E+00  0.00000000000E+00  0.99999998245E-14  0.12500000000E+03  0.12500000000E+03 0.  0.
        -11    1    3    3    0    0 -0.86993210325E+00  0.40043487047E+02 -0.55243696147E+01  0.40432119616E+02  0.51100000000E-03 0.  1.
         23    2    1    0    0    0  0.26180571740E+02 -0.72054395620E+01 -0.12099806328E+02  0.95272134131E+02  0.90515377328E+02 0.  0.
         11    1    3    3    0    0  0.27050503843E+02 -0.47248926609E+02 -0.65754367137E+01  0.54840014516E+02  0.51100000000E-03 0. -1.
         22    1    1    0    0    0 -0.26180571740E+02  0.72054395620E+01  0.12099806328E+02  0.29727865869E+02  0.00000000000E+00 0.  1.
</event>
<event>
 5    1  0.1282524E-003  0.9118800E+02  0.7818608E-02  0.1130116E+00
         25   -1    0    0    0    0  0.00000000000E+00  0.00000000000E+00  0.99999998245E-14  0.12500000000E+03  0.12500000000E+03 0.  0.
        -11    1    3    3    0    0 -0.94302373824E+01 -0.45795508105E+01 -0.37796731166E+02  0.39223647839E+02  0.51100000000E-03 0.  1.
         23    2    1    0    0    0  0.27020214776E+02 -0.54723482225E+01  0.65786498431E+01  0.96657148426E+02  0.92408263194E+02 0.  0.
         11    1    3    3    0    0  0.36450452158E+02 -0.89279741195E+00  0.44375381009E+02  0.57433500587E+02  0.51100000000E-03 0. -1.
         22    1    1    0    0    0 -0.27020214776E+02  0.54723482225E+01 -0.65786498431E+01  0.28342851574E+02  0.00000000000E+00 0. -1.
</event>
<event>
 5    1  0.1282524E-003  0.9118800E+02  0.7818608E-02  0.1130116E+00
         25   -1    0    0    0    0  0.00000000000E+00  0.00000000000E+00  0.99999998245E-14  0.12500000000E+03  0.12500000000E+03 0.  0.
        -11    1    3    3    0    0  0.65957321872E+00  0.31277198151E+02  0.44435347053E+02  0.54343336564E+02  0.51100000000E-03 0. -1.
         23    2    1    0    0    0 -0.16528518088E+02  0.21254975594E+02  0.63143800159E+01  0.97344308133E+02  0.93333150773E+02 0.  0.
         11    1    3    3    0    0 -0.17188091306E+02 -0.10022222557E+02 -0.38120967037E+02  0.43000971568E+02  0.51100000000E-03 0.  1.
         22    1    1    0    0    0  0.16528518088E+02 -0.21254975594E+02 -0.63143800159E+01  0.27655691867E+02  0.00000000000E+00 0.  1.
</event>
<event>
 5    1  0.1282524E-003  0.9118800E+02  0.7818608E-02  0.1130116E+00
         25   -1    0    0    0    0  0.00000000000E+00  0.00000000000E+00  0.99999998245E-14  0.12500000000E+03  0.12500000000E+03 0.  0.
        -11    1    3    3    0    0 -0.20984721737E+02  0.26528113530E+02  0.37918822105E+02  0.50812758476E+02  0.51100000000E-03 0.  1.
         23    2    1    0    0    0  0.14785377161E+02  0.18753507749E+01  0.24575568274E+02  0.96258342527E+02  0.91867217394E+02 0.  0.
         11    1    3    3    0    0  0.35770098898E+02 -0.24652762755E+02 -0.13343253831E+02  0.45445584051E+02  0.51100000000E-03 0. -1.
         22    1    1    0    0    0 -0.14785377161E+02 -0.18753507749E+01 -0.24575568274E+02  0.28741657473E+02  0.00000000000E+00 0.  1.
</event>
<event>
 5    1  0.1282524E-003  0.9118800E+02  0.7818608E-02  0.1130116E+00
         25   -1    0    0    0    0  0.00000000000E+00  0.00000000000E+00  0.99999998245E-14  0.12500000000E+03  0.12500000000E+03 0.  0.
        -11    1    3    3    0    0 -0.44818163429E+02 -0.33078165538E+02 -0.92789522128E+01  0.56470627435E+02  0.51100000000E-03 0.  1.
         23    2    1    0    0    0 -0.27481903784E+02  0.12495897197E+01 -0.11920181096E+02  0.95018218408E+02  0.90164042733E+02 0.  0.
         11    1    3    3    0    0  0.17336259645E+02  0.34327755258E+02 -0.26412288833E+01  0.38547590973E+02  0.51100000000E-03 0. -1.
         22    1    1    0    0    0  0.27481903784E+02 -0.12495897197E+01  0.11920181096E+02  0.29981781592E+02  0.00000000000E+00 0.  1.
</event>
<event>
 5    1  0.1282524E-003  0.9118800E+02  0.7818608E-02  0.1130116E+00
         25   -1    0    0    0    0  0.00000000000E+00  0.00000000000E+00  0.99999998245E-14  0.12500000000E+03  0.12500000000E+03 0.  0.
        -11    1    3    3    0    0  0.13117569802E+02  0.26929994163E+02 -0.34346734134E+02  0.45574042711E+02  0.51100000000E-03 0.  1.
         23    2    1    0    0    0 -0.13511177455E+02  0.25509107063E+02  0.74817694283E+01  0.95179816682E+02  0.90387798792E+02 0.  0.
         11    1    3    3    0    0 -0.26628747258E+02 -0.14208870998E+01  0.41828503562E+02  0.49605773970E+02  0.51100000000E-03 0. -1.
         22    1    1    0    0    0  0.13511177455E+02 -0.25509107063E+02 -0.74817694283E+01  0.29820183318E+02  0.00000000000E+00 0.  1.
</event>
<event>
 5    1  0.1282524E-003  0.9118800E+02  0.7818608E-02  0.1130116E+00
         25   -1    0    0    0    0  0.00000000000E+00  0.00000000000E+00  0.99999998245E-14  0.12500000000E+03  0.12500000000E+03 0.  0.
        -11    1    3    3    0    0 -0.43090202452E+02  0.57283223455E+01  0.31259253399E+02  0.53541760781E+02  0.51100000000E-03 0.  1.
         23    2    1    0    0    0 -0.23972386207E+02  0.13568174053E+02 -0.66016799813E+01  0.96674166805E+02  0.92431280968E+02 0.  0.
         11    1    3    3    0    0  0.19117816245E+02  0.78398517071E+01 -0.37860933380E+02  0.43132406024E+02  0.51100000000E-03 0. -1.
         22    1    1    0    0    0  0.23972386207E+02 -0.13568174053E+02  0.66016799813E+01  0.28325833195E+02  0.00000000000E+00 0.  1.
</event>
<event>
 5    1  0.1282524E-003  0.9118800E+02  0.7818608E-02  0.1130116E+00
         25   -1    0    0    0    0  0.00000000000E+00  0.00000000000E+00  0.99999998245E-14  0.12500000000E+03  0.12500000000E+03 0.  0.
        -11    1    3    3    0    0 -0.17918757555E+02 -0.26570623561E+02  0.10475269161E+02  0.33716630510E+02  0.51100000000E-03 0.  1.
         23    2    1    0    0    0  0.26899241989E+02  0.10803270311E+02 -0.80018324097E+01  0.94928265915E+02  0.90039249656E+02 0.  0.
         11    1    3    3    0    0  0.44817999543E+02  0.37373893872E+02 -0.18477101571E+02  0.61211635405E+02  0.51100000000E-03 0. -1.
         22    1    1    0    0    0 -0.26899241989E+02 -0.10803270311E+02  0.80018324097E+01  0.30071734085E+02  0.00000000000E+00 0. -1.
</event>
<event>
 5    1  0.1282524E-003  0.9118800E+02  0.7818608E-02  0.1130116E+00
         25   -1    0    0    0    0  0.00000000000E+00  0.00000000000E+00  0.99999998245E-14  0.12500000000E+03  0.12500000000E+03 0.  0.
        -11    1    3    3    0    0  0.36930186818E+02 -0.18467553304E+02  0.32700123101E+02  0.52670554151E+02  0.51100000000E-03 0.  1.
         23    2    1    0    0    0  0.10953473000E+02  0.13995517739E+02  0.23980112923E+02  0.95152070367E+02  0.90349419433E+02 0.  0.
         11    1    3    3    0    0 -0.25976713818E+02  0.32463071043E+02 -0.87200101775E+01  0.42481516217E+02  0.51100000000E-03 0. -1.
         22    1    1    0    0    0 -0.10953473000E+02 -0.13995517739E+02 -0.23980112923E+02  0.29847929633E+02  0.00000000000E+00 0.  1.
</event>
<event>
 5    1  0.1282524E-003  0.9118800E+02  0.7818608E-02  0.1130116E+00
         25   -1    0    0    0    0  0.00000000000E+00  0.00000000000E+00  0.99999998245E-14  0.12500000000E+03  0.12500000000E+03 0.  0.
        -11    1    3    3    0    0  0.10786795162E+02  0.36686798358E+02 -0.99609513774E+01  0.39515777561E+02  0.51100000000E-03 0. -1.
         23    2    1    0    0    0 -0.27889709053E+02 -0.35204311348E+01  0.28110368963E+01  0.96748783480E+02  0.92532134256E+02 0.  0.
         11    1    3    3    0    0 -0.38676504215E+02 -0.40207229493E+02  0.12771988274E+02  0.57233005919E+02  0.51100000000E-03 0.  1.
         22    1    1    0    0    0  0.27889709053E+02  0.35204311348E+01 -0.28110368963E+01  0.28251216520E+02  0.00000000000E+00 0.  1.
</event>
<event>
 5    1  0.1282524E-003  0.9118800E+02  0.7818608E-02  0.1130116E+00
         25   -1    0    0    0    0  0.00000000000E+00  0.00000000000E+00  0.99999998245E-14  0.12500000000E+03  0.12500000000E+03 0.  0.
        -11    1    3    3    0    0 -0.41744588668E+02 -0.27030652006E+02  0.14894619561E+02  0.51914511681E+02  0.51100000000E-03 0. -1.
         23    2    1    0    0    0 -0.14429280631E+01 -0.13787266962E+02  0.25796422488E+02  0.95714744583E+02  0.91124563898E+02 0.  0.
         11    1    3    3    0    0  0.40301660605E+02  0.13243385044E+02  0.10901802927E+02  0.43800232902E+02  0.51100000000E-03 0.  1.
         22    1    1    0    0    0  0.14429280631E+01  0.13787266962E+02 -0.25796422488E+02  0.29285255417E+02  0.00000000000E+00 0.  1.
</event>
<event>
 5    1  0.1282524E-003  0.9118800E+02  0.7818608E-02  0.1130116E+00
         25   -1    0    0    0    0  0.00000000000E+00  0.00000000000E+00  0.99999998245E-14  0.12500000000E+03  0.12500000000E+03 0.  0.
        -11    1    3    3    0    0 -0.22108785475E+02  0.41718917400E+02 -0.35676512576E+02  0.59178374547E+02  0.51100000000E-03 0.  1.
         23    2    1    0    0    0 -0.19294327349E+02  0.22203711854E+02 -0.57323560258E+01  0.95031086213E+02  0.90181880405E+02 0.  0.
         11    1    3    3    0    0  0.28144581252E+01 -0.19515205546E+02  0.29944156551E+02  0.35852711666E+02  0.51100000000E-03 0. -1.
         22    1    1    0    0    0  0.19294327349E+02 -0.22203711854E+02  0.57323560258E+01  0.29968913787E+02  0.00000000000E+00 0.  1.
</event>
<event>
 5    1  0.1282524E-003  0.9118800E+02  0.7818608E-02  0.1130116E+00
         25   -1    0    0    0    0  0.00000000000E+00  0.00000000000E+00  0.99999998245E-14  0.12500000000E+03  0.12500000000E+03 0.  0.
        -11    1    3    3    0    0  0.16174212394E+02 -0.72177038250E+01 -0.35429467579E+02  0.39609942795E+02  0.51100000000E-03 0.  1.
         23    2    1    0    0    0 -0.20302849262E+01 -0.17300714837E+02  0.19798888232E+02  0.98628940750E+02  0.95038072305E+02 0.  0.
         11    1    3    3    0    0 -0.18204497320E+02 -0.10083011012E+02  0.55228355811E+02  0.59018997955E+02  0.51100000000E-03 0. -1.
         22    1    1    0    0    0  0.20302849262E+01  0.17300714837E+02 -0.19798888232E+02  0.26371059250E+02  0.00000000000E+00 0. -1.
</event>
<event>
 5    1  0.1282524E-003  0.9118800E+02  0.7818608E-02  0.1130116E+00
         25   -1    0    0    0    0  0.00000000000E+00  0.00000000000E+00  0.99999998245E-14  0.12500000000E+03  0.12500000000E+03 0.  0.
        -11    1    3    3    0    0 -0.45343854309E+01 -0.32860219873E+02 -0.13480235735E+01  0.33198973917E+02  0.51100000000E-03 0.  1.
         23    2    1    0    0    0 -0.21575668347E+02  0.23288018899E+02  0.70663425625E+01  0.92476554825E+02  0.86568693569E+02 0.  0.
         11    1    3    3    0    0 -0.17041282916E+02  0.56148238772E+02  0.84143661360E+01  0.59277580908E+02  0.51100000000E-03 0. -1.
         22    1    1    0    0    0  0.21575668347E+02 -0.23288018899E+02 -0.70663425625E+01  0.32523445175E+02  0.00000000000E+00 0. -1.
</event>
<event>
 5    1  0.1282524E-003  0.9118800E+02  0.7818608E-02  0.1130116E+00
         25   -1    0    0    0    0  0.00000000000E+00  0.00000000000E+00  0.99999998245E-14  0.12500000000E+03  0.12500000000E+03 0.  0.
        -11    1    3    3    0    0  0.15381447405E+02 -0.55532564799E+02 -0.22690458970E+02  0.61929892668E+02  0.51100000000E-03 0. -1.
         23    2    1    0    0    0  0.12729230856E+02 -0.25758675482E+02 -0.83799387422E+01  0.95070648953E+02  0.90236701171E+02 0.  0.
         11    1    3    3    0    0 -0.26522165492E+01  0.29773889317E+02  0.14310520228E+02  0.33140756285E+02  0.51100000000E-03 0.  1.
         22    1    1    0    0    0 -0.12729230856E+02  0.25758675482E+02  0.83799387422E+01  0.29929351047E+02  0.00000000000E+00 0. -1.
</event>
<event>
 5    1  0.1282524E-003  0.9118800E+02  0.7818608E-02  0.1130116E+00
         25   -1    0    0    0    0  0.00000000000E+00  0.00000000000E+00  0.99999998245E-14  0.12500000000E+03  0.12500000000E+03 0.  0.
        -11    1    3    3    0    0  0.48505053124E+02  0.11202040498E+02 -0.27276911599E+02  0.56764916951E+02  0.51100000000E-03 0.  1.
         23    2    1    0    0    0  0.28889879616E+02  0.30036752336E+01  0.51121847037E+01  0.95507939347E+02  0.90840436132E+02 0.  0.
         11    1    3    3    0    0 -0.19615173508E+02 -0.81983652646E+01  0.32389096303E+02  0.38743022395E+02  0.51100000000E-03 0. -1.
         22    1    1    0    0    0 -0.28889879616E+02 -0.30036752336E+01 -0.51121847037E+01  0.29492060653E+02  0.00000000000E+00 0.  1.
</event>
<event>
 5    1  0.1282524E-003  0.9118800E+02  0.7818608E-02  0.1130116E+00
         25   -1    0    0    0    0  0.00000000000E+00  0.00000000000E+00  0.99999998245E-14  0.12500000000E+03  0.12500000000E+03 0.  0.
        -11    1    3    3    0    0 -0.21109097749E+02 -0.45239598420E+02 -0.70786396636E+01  0.50421447944E+02  0.51100000000E-03 0. -1.
         23    2    1    0    0    0 -0.25035352593E+02 -0.39330638669E+00 -0.14528815103E+02  0.96051596975E+02  0.91585475070E+02 0.  0.
         11    1    3    3    0    0 -0.39262548444E+01  0.44846292034E+02 -0.74501754396E+01  0.45630149031E+02  0.51100000000E-03 0.  1.
         22    1    1    0    0    0  0.25035352593E+02  0.39330638669E+00  0.14528815103E+02  0.28948403025E+02  0.00000000000E+00 0.  1.
</event>
<event>
 5    1  0.1282524E-003  0.9118800E+02  0.7818608E-02  0.1130116E+00
         25   -1    0    0    0    0  0.00000000000E+00  0.00000000000E+00  0.99999998245E-14  0.12500000000E+03  0.12500000000E+03 0.  0.
        -11    1    3    3    0    0 -0.42000987718E+02  0.20545740196E+02  0.20772425251E+02  0.51163503208E+02  0.51100000000E-03 0.  1.
         23    2    1    0    0    0 -0.24118171483E+02 -0.15601462776E+02  0.56905110000E+00  0.96269952043E+02  0.91883012635E+02 0.  0.
         11    1    3    3    0    0  0.17882816235E+02 -0.36147202971E+02 -0.20203374151E+02  0.45106448835E+02  0.51100000000E-03 0. -1.
         22    1    1    0    0    0  0.24118171483E+02  0.15601462776E+02 -0.56905110000E+00  0.28730047957E+02  0.00000000000E+00 0.  1.
</event>
<event>
 5    1  0.1282524E-003  0.9118800E+02  0.7818608E-02  0.1130116E+00
         25   -1    0    0    0    0  0.00000000000E+00  0.00000000000E+00  0.99999998245E-14  0.12500000000E+03  0.12500000000E+03 0.  0.
        -11    1    3    3    0    0  0.13425044862E+02  0.39195305444E+02 -0.20057460899E+02  0.46030484859E+02  0.51100000000E-03 0. -1.
         23    2    1    0    0    0  0.27253822865E+02 -0.35649226308E+01  0.43507721369E+01  0.97171799334E+02  0.93101825082E+02 0.  0.
         11    1    3    3    0    0  0.13828778003E+02 -0.42760228074E+02  0.24408233036E+02  0.51141314475E+02  0.51100000000E-03 0.  1.
         22    1    1    0    0    0 -0.27253822865E+02  0.35649226308E+01 -0.43507721369E+01  0.27828200666E+02  0.00000000000E+00 0. -1.
</event>
<event>
 5    1  0.1282524E-003  0.9118800E+02  0.7818608E-02  0.1130116E+00
         25   -1    0    0    0    0  0.00000000000E+00  0.00000000000E+00  0.99999998245E-14  0.12500000000E+03  0.12500000000E+03 0.  0.
        -11    1    3    3    0    0  0.33333439190E+02  0.28669886824E+01  0.23961776418E+02  0.41152211626E+02  0.51100000000E-03 0.  1.
         23    2    1    0    0    0  0.82350827461E+01 -0.21275878018E+02 -0.18184805249E+02  0.95825238386E+02  0.91276007782E+02 0.  0.
         11    1    3    3    0    0 -0.25098356444E+02 -0.24142866700E+02 -0.42146581667E+02  0.54673026761E+02  0.51100000000E-03 0. -1.
         22    1    1    0    0    0 -0.82350827461E+01  0.21275878018E+02  0.18184805249E+02  0.29174761614E+02  0.00000000000E+00 0. -1.
</event>
<event>
 5    1  0.1282524E-003  0.9118800E+02  0.7818608E-02  0.1130116E+00
         25   -1    0    0    0    0  0.00000000000E+00  0.00000000000E+00  0.99999998245E-14  0.12500000000E+03  0.12500000000E+03 0.  0.
        -11    1    3    3    0    0  0.29624426544E+02 -0.24407159328E+02 -0.17983199109E+01  0.38425903103E+02  0.51100000000E-03 0. -1.
         23    2    1    0    0    0 -0.11931555764E+02  0.14997780125E+02 -0.18788760741E+02  0.98161353204E+02  0.94421069158E+02 0.  0.
         11    1    3    3    0    0 -0.41555982308E+02  0.39404939453E+02 -0.16990440831E+02  0.59735450101E+02  0.51100000000E-03 0.  1.
         22    1    1    0    0    0  0.11931555764E+02 -0.14997780125E+02  0.18788760741E+02  0.26838646796E+02  0.00000000000E+00 0.  1.
</event>
<event>
 4    1  0.1282524E-003  0.9118800E+02  0.7818608E-02  0.1130116E+00
         25   -1    0    0    0    0  0.00000000000E+00  0.00000000000E+00  0.99999998245E-14  0.12500000000E+03  0.12500000000E+03 0.  0.
        -11    1    1    0    0    0  0.16963049364E+02 -0.20396810139E+02 -0.29585049248E+01  0.26693213729E+02  0.51100000000E-03 0. -1.
         11    1    1    0    0    0  0.38522331764E+02  0.17600113437E+02 -0.28492090011E+01  0.42448227639E+02  0.51100000000E-03 0.  1.
         22    1    1    0    0    0 -0.55485381128E+02  0.27966967017E+01  0.58077139259E+01  0.55858558631E+02  0.00000000000E+00 0.  1.
</event>
<event>
 5    1  0.1282524E-003  0.9118800E+02  0.7818608E-02  0.1130116E+00
         25   -1    0    0    0    0  0.00000000000E+00  0.00000000000E+00  0.99999998245E-14  0.12500000000E+03  0.12500000000E+03 0.  0.
        -11    1    3    3    0    0  0.31221701464E+02 -0.23514659388E+02  0.29491061027E+01  0.39197335056E+02  0.51100000000E-03 0. -1.
         23    2    1    0    0    0 -0.16648202369E+01  0.18043559899E+02  0.22876665964E+02  0.95816382577E+02  0.91263879187E+02 0.  0.
         11    1    3    3    0    0 -0.32886521701E+02  0.41558219287E+02  0.19927559861E+02  0.56619047521E+02  0.51100000000E-03 0.  1.
         22    1    1    0    0    0  0.16648202369E+01 -0.18043559899E+02 -0.22876665964E+02  0.29183617423E+02  0.00000000000E+00 0.  1.
</event>
<event>
 5    1  0.1282524E-003  0.9118800E+02  0.7818608E-02  0.1130116E+00
         25   -1    0    0    0    0  0.00000000000E+00  0.00000000000E+00  0.99999998245E-14  0.12500000000E+03  0.12500000000E+03 0.  0.
        -11    1    3    3    0    0  0.30064713761E+02 -0.52073725197E+01  0.26126777121E+02  0.40169792445E+02  0.51100000000E-03 0.  1.
         23    2    1    0    0    0 -0.30037263964E+01  0.26722986856E+02 -0.74510641036E+01  0.97095542381E+02  0.92999384918E+02 0.  0.
         11    1    3    3    0    0 -0.33068440157E+02  0.31930359375E+02 -0.33577841224E+02  0.56925749936E+02  0.51100000000E-03 0. -1.
         22    1    1    0    0    0  0.30037263964E+01 -0.26722986856E+02  0.74510641036E+01  0.27904457619E+02  0.00000000000E+00 0. -1.
</event>
<event>
 5    1  0.1282524E-003  0.9118800E+02  0.7818608E-02  0.1130116E+00
         25   -1    0    0    0    0  0.00000000000E+00  0.00000000000E+00  0.99999998245E-14  0.12500000000E+03  0.12500000000E+03 0.  0.
        -11    1    3    3    0    0  0.39449878315E+02 -0.34758007865E+02 -0.17783040041E+02  0.55503590183E+02  0.51100000000E-03 0. -1.
         23    2    1    0    0    0  0.25876523172E+02 -0.95131801851E+01  0.10241024076E+02  0.95589566089E+02  0.90952688372E+02 0.  0.
         11    1    3    3    0    0 -0.13573355143E+02  0.25244827680E+02  0.28024064117E+02  0.40085975906E+02  0.51100000000E-03 0.  1.
         22    1    1    0    0    0 -0.25876523172E+02  0.95131801851E+01 -0.10241024076E+02  0.29410433911E+02  0.00000000000E+00 0. -1.
</event>
<event>
 5    1  0.1282524E-003  0.9118800E+02  0.7818608E-02  0.1130116E+00
         25   -1    0    0    0    0  0.00000000000E+00  0.00000000000E+00  0.99999998245E-14  0.12500000000E+03  0.12500000000E+03 0.  0.
        -11    1    3    3    0    0  0.26772695720E+02 -0.19343165628E+02  0.24267049210E+02  0.40985667864E+02  0.51100000000E-03 0.  1.
         23    2    1    0    0    0 -0.25473658105E+02 -0.28921203228E+01  0.68478208747E+01  0.98463906317E+02  0.94820760276E+02 0.  0.
         11    1    3    3    0    0 -0.52246353825E+02  0.16451045305E+02 -0.17419228335E+02  0.57478238453E+02  0.51100000000E-03 0. -1.
         22    1    1    0    0    0  0.25473658105E+02  0.28921203228E+01 -0.68478208747E+01  0.26536093683E+02  0.00000000000E+00 0. -1.
</event>
<event>
 5    1  0.1282524E-003  0.9118800E+02  0.7818608E-02  0.1130116E+00
         25   -1    0    0    0    0  0.00000000000E+00  0.00000000000E+00  0.99999998245E-14  0.12500000000E+03  0.12500000000E+03 0.  0.
        -11    1    3    3    0    0 -0.19730011637E+02  0.16850528924E+02 -0.43831413336E+02  0.50935316623E+02  0.51100000000E-03 0.  1.
         23    2    1    0    0    0 -0.29151695315E+02  0.38404618408E+01 -0.22513164842E+01  0.95510359229E+02  0.90843765923E+02 0.  0.
         11    1    3    3    0    0 -0.94216836789E+01 -0.13010067083E+02  0.41580096852E+02  0.44575042606E+02  0.51100000000E-03 0. -1.
         22    1    1    0    0    0  0.29151695315E+02 -0.38404618408E+01  0.22513164842E+01  0.29489640771E+02  0.00000000000E+00 0. -1.
</event>
<event>
 5    1  0.1282524E-003  0.9118800E+02  0.7818608E-02  0.1130116E+00
         25   -1    0    0    0    0  0.00000000000E+00  0.00000000000E+00  0.99999998245E-14  0.12500000000E+03  0.12500000000E+03 0.  0.
        -11    1    3    3    0    0  0.42955279201E+01 -0.11831450627E+02  0.35119052658E+02  0.37306603221E+02  0.51100000000E-03 0.  1.
         23    2    1    0    0    0  0.78065680818E+01 -0.15389902229E+02 -0.23336851155E+02  0.95975868357E+02  0.91482058838E+02 0.  0.
         11    1    3    3    0    0  0.35110401618E+01 -0.35584516013E+01 -0.58455903812E+02  0.58669265136E+02  0.51100000000E-03 0. -1.
         22    1    1    0    0    0 -0.78065680818E+01  0.15389902229E+02  0.23336851155E+02  0.29024131643E+02  0.00000000000E+00 0. -1.
</event>
<event>
 5    1  0.1282524E-003  0.9118800E+02  0.7818608E-02  0.1130116E+00
         25   -1    0    0    0    0  0.00000000000E+00  0.00000000000E+00  0.99999998245E-14  0.12500000000E+03  0.12500000000E+03 0.  0.
        -11    1    3    3    0    0 -0.10683319930E+02 -0.12478318702E+02  0.59170129496E+02  0.61408028687E+02  0.51100000000E-03 0.  1.
         23    2    1    0    0    0 -0.11253792126E+02 -0.46652926904E+00  0.27685930095E+02  0.95110600341E+02  0.90292026698E+02 0.  0.
         11    1    3    3    0    0 -0.57047219550E+00  0.12011789433E+02 -0.31484199401E+02  0.33702571654E+02  0.51100000000E-03 0. -1.
         22    1    1    0    0    0  0.11253792126E+02  0.46652926904E+00 -0.27685930095E+02  0.29889399659E+02  0.00000000000E+00 0.  1.
</event>
<event>
 5    1  0.1282524E-003  0.9118800E+02  0.7818608E-02  0.1130116E+00
         25   -1    0    0    0    0  0.00000000000E+00  0.00000000000E+00  0.99999998245E-14  0.12500000000E+03  0.12500000000E+03 0.  0.
        -11    1    3    3    0    0 -0.40552562664E+02  0.93220249847E+01  0.27774258292E+02  0.50028191176E+02  0.51100000000E-03 0. -1.
         23    2    1    0    0    0 -0.10972864222E+00 -0.12215519824E+02  0.26447442740E+02  0.95867574896E+02  0.91333968073E+02 0.  0.
         11    1    3    3    0    0  0.40442834021E+02 -0.21537544809E+02 -0.13268155514E+01  0.45839383720E+02  0.51100000000E-03 0.  1.
         22    1    1    0    0    0  0.10972864222E+00  0.12215519824E+02 -0.26447442740E+02  0.29132425104E+02  0.00000000000E+00 0.  1.
</event>
<event>
 5    1  0.1282524E-003  0.9118800E+02  0.7818608E-02  0.1130116E+00
         25   -1    0    0    0    0  0.00000000000E+00  0.00000000000E+00  0.99999998245E-14  0.12500000000E+03  0.12500000000E+03 0.  0.
        -11    1    3    3    0    0 -0.26392269740E+01  0.14122233159E+02  0.27822610523E+02  0.31312946923E+02  0.51100000000E-03 0.  1.
         23    2    1    0    0    0 -0.68280414371E+01 -0.19482308990E+02 -0.24077353343E+02  0.93284050425E+02  0.87726920647E+02 0.  0.
         11    1    3    3    0    0 -0.41888144631E+01 -0.33604542149E+02 -0.51899963866E+02  0.61971103502E+02  0.51100000000E-03 0. -1.
         22    1    1    0    0    0  0.68280414371E+01  0.19482308990E+02  0.24077353343E+02  0.31715949575E+02  0.00000000000E+00 0. -1.
</event>
<event>
 5    1  0.1282524E-003  0.9118800E+02  0.7818608E-02  0.1130116E+00
         25   -1    0    0    0    0  0.00000000000E+00  0.00000000000E+00  0.99999998245E-14  0.12500000000E+03  0.12500000000E+03 0.  0.
        -11    1    3    3    0    0  0.34946067697E+01 -0.13714176489E+02  0.38179034853E+02  0.40717681857E+02  0.51100000000E-03 0.  1.
         23    2    1    0    0    0 -0.30258863876E+02  0.69277360052E+01  0.27333878913E+01  0.93838103739E+02  0.88512857454E+02 0.  0.
         11    1    3    3    0    0 -0.33753470646E+02  0.20641912494E+02 -0.35445646962E+02  0.53120421882E+02  0.51100000000E-03 0. -1.
         22    1    1    0    0    0  0.30258863876E+02 -0.69277360052E+01 -0.27333878913E+01  0.31161896261E+02  0.00000000000E+00 0. -1.
</event>
<event>
 5    1  0.1282524E-003  0.9118800E+02  0.7818608E-02  0.1130116E+00
         25   -1    0    0    0    0  0.00000000000E+00  0.00000000000E+00  0.99999998245E-14  0.12500000000E+03  0.12500000000E+03 0.  0.
        -11    1    3    3    0    0  0.26809942479E+02  0.49155955613E+02  0.22800897571E+02  0.60456281049E+02  0.51100000000E-03 0.  1.
         23    2    1    0    0    0  0.21522655657E+01  0.27399277270E+02  0.96748621709E+01  0.95863157343E+02  0.91327921994E+02 0.  0.
         11    1    3    3    0    0 -0.24657676914E+02 -0.21756678343E+02 -0.13126035400E+02  0.35406876294E+02  0.51100000000E-03 0. -1.
         22    1    1    0    0    0 -0.21522655657E+01 -0.27399277270E+02 -0.96748621709E+01  0.29136842657E+02  0.00000000000E+00 0.  1.
</event>
<event>
 5    1  0.1282524E-003  0.9118800E+02  0.7818608E-02  0.1130116E+00
         25   -1    0    0    0    0  0.00000000000E+00  0.00000000000E+00  0.99999998245E-14  0.12500000000E+03  0.12500000000E+03 0.  0.
        -11    1    3    3    0    0 -0.25418905752E+02  0.37612346663E+02 -0.11820616964E+02  0.46909875046E+02  0.51100000000E-03 0. -1.
         23    2    1    0    0    0 -0.23957174789E+01 -0.68053147602E+01 -0.25273432659E+02  0.98716960420E+02  0.95153770839E+02 0.  0.
         11    1    3    3    0    0  0.23023188273E+02 -0.44417661423E+02 -0.13452815695E+02  0.51807085374E+02  0.51100000000E-03 0.  1.
         22    1    1    0    0    0  0.23957174789E+01  0.68053147602E+01  0.25273432659E+02  0.26283039580E+02  0.00000000000E+00 0.  1.
</event>
<event>
 5    1  0.1282524E-003  0.9118800E+02  0.7818608E-02  0.1130116E+00
         25   -1    0    0    0    0  0.00000000000E+00  0.00000000000E+00  0.99999998245E-14  0.12500000000E+03  0.12500000000E+03 0.  0.
        -11    1    3    3    0    0 -0.32246721129E+02  0.45513861193E+02 -0.22702470370E+02  0.60222626523E+02  0.51100000000E-03 0.  1.
         23    2    1    0    0    0 -0.76843531273E+01  0.16855852495E+02 -0.19502413768E+02  0.98101799519E+02  0.94342195649E+02 0.  0.
         11    1    3    3    0    0  0.24562368001E+02 -0.28658008697E+02  0.32000566025E+01  0.37879172996E+02  0.51100000000E-03 0. -1.
         22    1    1    0    0    0  0.76843531273E+01 -0.16855852495E+02  0.19502413768E+02  0.26898200481E+02  0.00000000000E+00 0.  1.
</event>
<event>
 5    1  0.1282524E-003  0.9118800E+02  0.7818608E-02  0.1130116E+00
         25   -1    0    0    0    0  0.00000000000E+00  0.00000000000E+00  0.99999998245E-14  0.12500000000E+03  0.12500000000E+03 0.  0.
        -11    1    3    3    0    0 -0.24111718375E+02 -0.17399830542E+02  0.25483352051E+02  0.39160315345E+02  0.51100000000E-03 0. -1.
         23    2    1    0    0    0 -0.10739839997E+02 -0.54600039604E+01 -0.27436850730E+02  0.95034409994E+02  0.90186487339E+02 0.  0.
         11    1    3    3    0    0  0.13371878378E+02  0.11939826582E+02 -0.52920202781E+02  0.55874094649E+02  0.51100000000E-03 0.  1.
         22    1    1    0    0    0  0.10739839997E+02  0.54600039604E+01  0.27436850730E+02  0.29965590006E+02  0.00000000000E+00 0.  1.
</event>
<event>
 5    1  0.1282524E-003  0.9118800E+02  0.7818608E-02  0.1130116E+00
         25   -1    0    0    0    0  0.00000000000E+00  0.00000000000E+00  0.99999998245E-14  0.12500000000E+03  0.12500000000E+03 0.  0.
        -11    1    3    3    0    0 -0.21237929922E+02  0.56628937543E+02  0.76018636394E+01  0.60956333270E+02  0.51100000000E-03 0. -1.
         23    2    1    0    0    0 -0.59757923484E+01  0.25672329825E+02  0.12519374848E+02  0.95819298168E+02  0.91267872453E+02 0.  0.
         11    1    3    3    0    0  0.15262137573E+02 -0.30956607719E+02  0.49175112083E+01  0.34862964898E+02  0.51100000000E-03 0.  1.
         22    1    1    0    0    0  0.59757923484E+01 -0.25672329825E+02 -0.12519374848E+02  0.29180701832E+02  0.00000000000E+00 0. -1.
</event>
<event>
 5    1  0.1282524E-003  0.9118800E+02  0.7818608E-02  0.1130116E+00
         25   -1    0    0    0    0  0.00000000000E+00  0.00000000000E+00  0.99999998245E-14  0.12500000000E+03  0.12500000000E+03 0.  0.
        -11    1    3    3    0    0 -0.33881891797E+02 -0.10908209318E+02  0.27462506247E+02  0.44957322784E+02  0.51100000000E-03 0.  1.
         23    2    1    0    0    0 -0.76771383301E+01  0.27129933234E+02  0.48329864623E+01  0.96393541143E+02  0.92050992855E+02 0.  0.
         11    1    3    3    0    0  0.26204753467E+02  0.38038142552E+02 -0.22629519785E+02  0.51436218359E+02  0.51100000000E-03 0. -1.
         22    1    1    0    0    0  0.76771383301E+01 -0.27129933234E+02 -0.48329864623E+01  0.28606458857E+02  0.00000000000E+00 0. -1.
</event>
<event>
 5    1  0.1282524E-003  0.9118800E+02  0.7818608E-02  0.1130116E+00
         25   -1    0    0    0    0  0.00000000000E+00  0.00000000000E+00  0.99999998245E-14  0.12500000000E+03  0.12500000000E+03 0.  0.
        -11    1    3    3    0    0  0.14779813011E+01 -0.11019046286E+02 -0.31173717465E+02  0.33096895181E+02  0.51100000000E-03 0.  1.
         23    2    1    0    0    0 -0.65429873018E+01  0.87414458422E+01  0.27438684491E+02  0.95468576654E+02  0.90786255367E+02 0.  0.
         11    1    3    3    0    0 -0.80209686029E+01  0.19760492128E+02  0.58612401956E+02  0.62371681473E+02  0.51100000000E-03 0. -1.
         22    1    1    0    0    0  0.65429873018E+01 -0.87414458422E+01 -0.27438684491E+02  0.29531423346E+02  0.00000000000E+00 0. -1.
</event>
<event>
 5    1  0.1282524E-003  0.9118800E+02  0.7818608E-02  0.1130116E+00
         25   -1    0    0    0    0  0.00000000000E+00  0.00000000000E+00  0.99999998245E-14  0.12500000000E+03  0.12500000000E+03 0.  0.
        -11    1    3    3    0    0  0.91749290601E+01  0.30662983210E+02  0.22070221303E+02  0.38877918298E+02  0.51100000000E-03 0.  1.
         23    2    1    0    0    0  0.41004791003E+01 -0.22593690166E+02  0.23158741804E+02  0.92386872488E+02  0.86439100655E+02 0.  0.
         11    1    3    3    0    0 -0.50744499597E+01 -0.53256673375E+02  0.10885205016E+01  0.53508954190E+02  0.51100000000E-03 0. -1.
         22    1    1    0    0    0 -0.41004791003E+01  0.22593690166E+02 -0.23158741804E+02  0.32613127512E+02  0.00000000000E+00 0. -1.
</event>
<event>
 5    1  0.1282524E-003  0.9118800E+02  0.7818608E-02  0.1130116E+00
         25   -1    0    0    0    0  0.00000000000E+00  0.00000000000E+00  0.99999998245E-14  0.12500000000E+03  0.12500000000E+03 0.  0.
        -11    1    3    3    0    0 -0.18263823610E+02  0.49114460557E+02 -0.14363958498E+02  0.54333422427E+02  0.51100000000E-03 0.  1.
         23    2    1    0    0    0 -0.42931713441E+01  0.34217420718E+02 -0.29390814096E+02  0.79689039361E+02  0.65553488392E+02 0.  0.
         11    1    3    3    0    0  0.13970652266E+02 -0.14897039839E+02 -0.15026855598E+02  0.25355616935E+02  0.51100000000E-03 0. -1.
         22    1    1    0    0    0  0.42931713441E+01 -0.34217420718E+02  0.29390814096E+02  0.45310960639E+02  0.00000000000E+00 0.  1.
</event>
<event>
 5    1  0.1282524E-003  0.9118800E+02  0.7818608E-02  0.1130116E+00
         25   -1    0    0    0    0  0.00000000000E+00  0.00000000000E+00  0.99999998245E-14  0.12500000000E+03  0.12500000000E+03 0.  0.
        -11    1    3    3    0    0 -0.66929484267E+01 -0.20121114659E+02 -0.27433539099E+02  0.34673532867E+02  0.51100000000E-03 0. -1.
         23    2    1    0    0    0  0.16820090928E+02  0.20164835507E+02  0.12351118004E+02  0.95981279046E+02  0.91489451640E+02 0.  0.
         11    1    3    3    0    0  0.23513039355E+02  0.40285950166E+02  0.39784657103E+02  0.61307746179E+02  0.51100000000E-03 0.  1.
         22    1    1    0    0    0 -0.16820090928E+02 -0.20164835507E+02 -0.12351118004E+02  0.29018720954E+02  0.00000000000E+00 0.  1.
</event>
<event>
 5    1  0.1282524E-003  0.9118800E+02  0.7818608E-02  0.1130116E+00
         25   -1    0    0    0    0  0.00000000000E+00  0.00000000000E+00  0.99999998245E-14  0.12500000000E+03  0.12500000000E+03 0.  0.
        -11    1    3    3    0    0  0.34774291590E+02 -0.16964341234E+02 -0.92128299797E+01  0.39773313485E+02  0.51100000000E-03 0.  1.
         23    2    1    0    0    0  0.93452721771E+01 -0.99994177001E+01 -0.41409162806E+02  0.81387602328E+02  0.68716086777E+02 0.  0.
         11    1    3    3    0    0 -0.25429019413E+02  0.69649235344E+01 -0.32196332826E+02  0.41614288843E+02  0.51100000000E-03 0. -1.
         22    1    1    0    0    0 -0.93452721771E+01  0.99994177001E+01  0.41409162806E+02  0.43612397672E+02  0.00000000000E+00 0. -1.
</event>
<event>
 5    1  0.1282524E-003  0.9118800E+02  0.7818608E-02  0.1130116E+00
         25   -1    0    0    0    0  0.00000000000E+00  0.00000000000E+00  0.99999998245E-14  0.12500000000E+03  0.12500000000E+03 0.  0.
        -11    1    3    3    0    0 -0.25311141567E+02  0.83953326301E+01 -0.19596861751E+02  0.33093390400E+02  0.51100000000E-03 0. -1.
         23    2    1    0    0    0  0.19642928052E+02 -0.25257327435E+02  0.12139807270E+01  0.92980459703E+02  0.87293269648E+02 0.  0.
         11    1    3    3    0    0  0.44954069619E+02 -0.33652660065E+02  0.20810842478E+02  0.59887069303E+02  0.51100000000E-03 0.  1.
         22    1    1    0    0    0 -0.19642928052E+02  0.25257327435E+02 -0.12139807270E+01  0.32019540297E+02  0.00000000000E+00 0.  1.
</event>
<event>
 5    1  0.1282524E-003  0.9118800E+02  0.7818608E-02  0.1130116E+00
         25   -1    0    0    0    0  0.00000000000E+00  0.00000000000E+00  0.99999998245E-14  0.12500000000E+03  0.12500000000E+03 0.  0.
        -11    1    3    3    0    0  0.30790817935E+02 -0.42353960864E+01 -0.24524645557E+02  0.39591303200E+02  0.51100000000E-03 0. -1.
         23    2    1    0    0    0 -0.18396847320E+02 -0.22738880516E+02 -0.81273834026E+01  0.94642874981E+02  0.89642170575E+02 0.  0.
         11    1    3    3    0    0 -0.49187665255E+02 -0.18503484430E+02  0.16397262154E+02  0.55051571782E+02  0.51100000000E-03 0.  1.
         22    1    1    0    0    0  0.18396847320E+02  0.22738880516E+02  0.81273834026E+01  0.30357125019E+02  0.00000000000E+00 0.  1.
</event>
<event>
 5    1  0.1282524E-003  0.9118800E+02  0.7818608E-02  0.1130116E+00
         25   -1    0    0    0    0  0.00000000000E+00  0.00000000000E+00  0.99999998245E-14  0.12500000000E+03  0.12500000000E+03 0.  0.
        -11    1    3    3    0    0  0.41392018381E+01 -0.49070858220E+02  0.35209808087E+02  0.60537696554E+02  0.51100000000E-03 0.  1.
         23    2    1    0    0    0 -0.29981200804E+01 -0.27533964867E+02  0.75891306398E+01  0.96282359965E+02  0.91899891138E+02 0.  0.
         11    1    3    3    0    0 -0.71373219184E+01  0.21536893353E+02 -0.27620677447E+02  0.35744663411E+02  0.51100000000E-03 0. -1.
         22    1    1    0    0    0  0.29981200804E+01  0.27533964867E+02 -0.75891306398E+01  0.28717640035E+02  0.00000000000E+00 0.  1.
</event>
<event>
 5    1  0.1282524E-003  0.9118800E+02  0.7818608E-02  0.1130116E+00
         25   -1    0    0    0    0  0.00000000000E+00  0.00000000000E+00  0.99999998245E-14  0.12500000000E+03  0.12500000000E+03 0.  0.
        -11    1    3    3    0    0  0.56667258378E+02  0.82165777455E+01 -0.14964146230E+02  0.59182902891E+02  0.51100000000E-03 0.  1.
         23    2    1    0    0    0  0.27025302882E+02  0.12113866484E+02  0.47651609209E+01  0.95003008223E+02  0.90142953445E+02 0.  0.
         11    1    3    3    0    0 -0.29641955496E+02  0.38972887388E+01  0.19729307151E+02  0.35820105332E+02  0.51100000000E-03 0. -1.
         22    1    1    0    0    0 -0.27025302882E+02 -0.12113866484E+02 -0.47651609209E+01  0.29996991777E+02  0.00000000000E+00 0.  1.
</event>
<event>
 5    1  0.1282524E-003  0.9118800E+02  0.7818608E-02  0.1130116E+00
         25   -1    0    0    0    0  0.00000000000E+00  0.00000000000E+00  0.99999998245E-14  0.12500000000E+03  0.12500000000E+03 0.  0.
        -11    1    3    3    0    0  0.27136429718E+02 -0.30568311696E+01 -0.37494835622E+02  0.46385264182E+02  0.51100000000E-03 0.  1.
         23    2    1    0    0    0  0.14545820682E+02  0.24857839325E+02  0.17288979600E+01  0.96147233003E+02  0.91715910565E+02 0.  0.
         11    1    3    3    0    0 -0.12590609036E+02  0.27914670494E+02  0.39223733581E+02  0.49761968822E+02  0.51100000000E-03 0. -1.
         22    1    1    0    0    0 -0.14545820682E+02 -0.24857839325E+02 -0.17288979600E+01  0.28852766997E+02  0.00000000000E+00 0. -1.
</event>
<event>
 5    1  0.1282524E-003  0.9118800E+02  0.7818608E-02  0.1130116E+00
         25   -1    0    0    0    0  0.00000000000E+00  0.00000000000E+00  0.99999998245E-14  0.12500000000E+03  0.12500000000E+03 0.  0.
        -11    1    3    3    0    0 -0.10428516517E+02  0.49702741396E+02 -0.55959579060E+01  0.51092379120E+02  0.51100000000E-03 0.  1.
         23    2    1    0    0    0  0.70370014290E+01  0.20585242839E+02  0.21410189238E+02  0.94476765979E+02  0.89410242673E+02 0.  0.
         11    1    3    3    0    0  0.17465517946E+02 -0.29117498556E+02  0.27006147144E+02  0.43384386859E+02  0.51100000000E-03 0. -1.
         22    1    1    0    0    0 -0.70370014290E+01 -0.20585242839E+02 -0.21410189238E+02  0.30523234021E+02  0.00000000000E+00 0. -1.
</event>
<event>
 5    1  0.1282524E-003  0.9118800E+02  0.7818608E-02  0.1130116E+00
         25   -1    0    0    0    0  0.00000000000E+00  0.00000000000E+00  0.99999998245E-14  0.12500000000E+03  0.12500000000E+03 0.  0.
        -11    1    3    3    0    0 -0.31773951464E+02 -0.28864184977E+01  0.16569082377E+02  0.35950659166E+02  0.51100000000E-03 0. -1.
         23    2    1    0    0    0  0.52466752090E+01 -0.56482453744E+01 -0.29152381103E+02  0.94845537635E+02  0.89924326012E+02 0.  0.
         11    1    3    3    0    0  0.37020626673E+02 -0.27618268767E+01 -0.45721463480E+02  0.58894878469E+02  0.51100000000E-03 0.  1.
         22    1    1    0    0    0 -0.52466752090E+01  0.56482453744E+01  0.29152381103E+02  0.30154462365E+02  0.00000000000E+00 0.  1.
</event>
<event>
 5    1  0.1282524E-003  0.9118800E+02  0.7818608E-02  0.1130116E+00
         25   -1    0    0    0    0  0.00000000000E+00  0.00000000000E+00  0.99999998245E-14  0.12500000000E+03  0.12500000000E+03 0.  0.
        -11    1    3    3    0    0 -0.29922636542E+02  0.56528417741E+00 -0.27897366313E+02  0.40913894599E+02  0.51100000000E-03 0. -1.
         23    2    1    0    0    0  0.20916415411E+02 -0.11612575361E+02 -0.20067341288E+02  0.93774264997E+02  0.88422656877E+02 0.  0.
         11    1    3    3    0    0  0.50839051953E+02 -0.12177859538E+02  0.78300250251E+01  0.52860370397E+02  0.51100000000E-03 0.  1.
         22    1    1    0    0    0 -0.20916415411E+02  0.11612575361E+02  0.20067341288E+02  0.31225735003E+02  0.00000000000E+00 0. -1.
</event>
<event>
 5    1  0.1282524E-003  0.9118800E+02  0.7818608E-02  0.1130116E+00
         25   -1    0    0    0    0  0.00000000000E+00  0.00000000000E+00  0.99999998245E-14  0.12500000000E+03  0.12500000000E+03 0.  0.
        -11    1    3    3    0    0 -0.51250438727E+02 -0.23240033216E+02  0.21221572938E+02  0.60142013367E+02  0.51100000000E-03 0.  1.
         23    2    1    0    0    0 -0.28638942455E+02 -0.24302629891E+00  0.63124432363E+01  0.95672623262E+02  0.91066765702E+02 0.  0.
         11    1    3    3    0    0  0.22611496272E+02  0.22997006917E+02 -0.14909129702E+02  0.35530609895E+02  0.51100000000E-03 0. -1.
         22    1    1    0    0    0  0.28638942455E+02  0.24302629891E+00 -0.63124432363E+01  0.29327376738E+02  0.00000000000E+00 0.  1.
</event>
<event>
 5    1  0.1282524E-003  0.9118800E+02  0.7818608E-02  0.1130116E+00
         25   -1    0    0    0    0  0.00000000000E+00  0.00000000000E+00  0.99999998245E-14  0.12500000000E+03  0.12500000000E+03 0.  0.
        -11    1    3    3    0    0 -0.13209200760E+02 -0.38928922725E+02  0.14384094844E+02  0.43552797775E+02  0.51100000000E-03 0.  1.
         23    2    1    0    0    0 -0.23989208654E+02  0.87482977055E+00 -0.17177156883E+02  0.95482171869E+02  0.90804972151E+02 0.  0.
         11    1    3    3    0    0 -0.10780007894E+02  0.39803752496E+02 -0.31561251728E+02  0.51929374094E+02  0.51100000000E-03 0. -1.
         22    1    1    0    0    0  0.23989208654E+02 -0.87482977055E+00  0.17177156883E+02  0.29517828131E+02  0.00000000000E+00 0.  1.
</event>
<event>
 5    1  0.1282524E-003  0.9118800E+02  0.7818608E-02  0.1130116E+00
         25   -1    0    0    0    0  0.00000000000E+00  0.00000000000E+00  0.99999998245E-14  0.12500000000E+03  0.12500000000E+03 0.  0.
        -11    1    3    3    0    0 -0.51135695857E+01  0.39004367484E+02 -0.34783340355E+02  0.52510665995E+02  0.51100000000E-03 0. -1.
         23    2    1    0    0    0 -0.12026721450E+02 -0.32505902952E+01 -0.25928979059E+02  0.96233347064E+02  0.91833200783E+02 0.  0.
         11    1    3    3    0    0 -0.69131518644E+01 -0.42254957780E+02  0.88543612961E+01  0.43722681069E+02  0.51100000000E-03 0.  1.
         22    1    1    0    0    0  0.12026721450E+02  0.32505902952E+01  0.25928979059E+02  0.28766652936E+02  0.00000000000E+00 0. -1.
</event>
<event>
 5    1  0.1282524E-003  0.9118800E+02  0.7818608E-02  0.1130116E+00
         25   -1    0    0    0    0  0.00000000000E+00  0.00000000000E+00  0.99999998245E-14  0.12500000000E+03  0.12500000000E+03 0.  0.
        -11    1    3    3    0    0  0.22281546958E+02  0.32859661740E+02  0.68906249768E+01  0.40295228220E+02  0.51100000000E-03 0.  1.
         23    2    1    0    0    0 -0.17087464829E+02  0.47902364325E+01 -0.22088736253E+02  0.96665567085E+02  0.92419650352E+02 0.  0.
         11    1    3    3    0    0 -0.39369011787E+02 -0.28069425307E+02 -0.28979361230E+02  0.56370338865E+02  0.51100000000E-03 0. -1.
         22    1    1    0    0    0  0.17087464829E+02 -0.47902364325E+01  0.22088736253E+02  0.28334432915E+02  0.00000000000E+00 0. -1.
</event>
<event>
 5    1  0.1282524E-003  0.9118800E+02  0.7818608E-02  0.1130116E+00
         25   -1    0    0    0    0  0.00000000000E+00  0.00000000000E+00  0.99999998245E-14  0.12500000000E+03  0.12500000000E+03 0.  0.
        -11    1    3    3    0    0 -0.27842218273E+02  0.18403664727E+02 -0.50751563097E+02  0.60742120072E+02  0.51100000000E-03 0.  1.
         23    2    1    0    0    0 -0.21168334391E+02  0.67445967399E+01 -0.17136973449E+02  0.96941777942E+02  0.92792480759E+02 0.  0.
         11    1    3    3    0    0  0.66738838816E+01 -0.11659067987E+02  0.33614589648E+02  0.36199657870E+02  0.51100000000E-03 0. -1.
         22    1    1    0    0    0  0.21168334391E+02 -0.67445967399E+01  0.17136973449E+02  0.28058222058E+02  0.00000000000E+00 0.  1.
</event>
<event>
 5    1  0.1282524E-003  0.9118800E+02  0.7818608E-02  0.1130116E+00
         25   -1    0    0    0    0  0.00000000000E+00  0.00000000000E+00  0.99999998245E-14  0.12500000000E+03  0.12500000000E+03 0.  0.
        -11    1    3    3    0    0 -0.29760822231E+02  0.23075425922E+02  0.46984600205E+02  0.60214072093E+02  0.51100000000E-03 0. -1.
         23    2    1    0    0    0 -0.17929287490E+02  0.18566183936E+02  0.13799903878E+02  0.95732272331E+02  0.91148604393E+02 0.  0.
         11    1    3    3    0    0  0.11831534741E+02 -0.45092419863E+01 -0.33184696327E+02  0.35518200239E+02  0.51100000000E-03 0.  1.
         22    1    1    0    0    0  0.17929287490E+02 -0.18566183936E+02 -0.13799903878E+02  0.29267727669E+02  0.00000000000E+00 0. -1.
</event>
<event>
 5    1  0.1282524E-003  0.9118800E+02  0.7818608E-02  0.1130116E+00
         25   -1    0    0    0    0  0.00000000000E+00  0.00000000000E+00  0.99999998245E-14  0.12500000000E+03  0.12500000000E+03 0.  0.
        -11    1    3    3    0    0  0.30388092901E+02 -0.40313213384E+02 -0.12330337358E+02  0.51967572419E+02  0.51100000000E-03 0.  1.
         23    2    1    0    0    0 -0.85617957729E+01 -0.29112257905E+02  0.10184572204E+01  0.94637767501E+02  0.89635048253E+02 0.  0.
         11    1    3    3    0    0 -0.38949888674E+02  0.11200955479E+02  0.13348794578E+02  0.42670195082E+02  0.51100000000E-03 0. -1.
         22    1    1    0    0    0  0.85617957729E+01  0.29112257905E+02 -0.10184572204E+01  0.30362232499E+02  0.00000000000E+00 0.  1.
</event>
<event>
 5    1  0.1282524E-003  0.9118800E+02  0.7818608E-02  0.1130116E+00
         25   -1    0    0    0    0  0.00000000000E+00  0.00000000000E+00  0.99999998245E-14  0.12500000000E+03  0.12500000000E+03 0.  0.
        -11    1    3    3    0    0  0.25775276463E+02  0.11792902533E+02  0.72449097397E+01  0.29256215481E+02  0.51100000000E-03 0.  1.
         23    2    1    0    0    0 -0.28704362918E+02  0.43239670822E+01 -0.19121487276E+02  0.90239844397E+02  0.83276413824E+02 0.  0.
         11    1    3    3    0    0 -0.54479639381E+02 -0.74689354506E+01 -0.26366397016E+02  0.60983628916E+02  0.51100000000E-03 0. -1.
         22    1    1    0    0    0  0.28704362918E+02 -0.43239670822E+01  0.19121487276E+02  0.34760155603E+02  0.00000000000E+00 0. -1.
</event>
<event>
 5    1  0.1282524E-003  0.9118800E+02  0.7818608E-02  0.1130116E+00
         25   -1    0    0    0    0  0.00000000000E+00  0.00000000000E+00  0.99999998245E-14  0.12500000000E+03  0.12500000000E+03 0.  0.
        -11    1    3    3    0    0  0.21661210914E+02 -0.53609436718E+02  0.51909293702E+01  0.58052782117E+02  0.51100000000E-03 0.  1.
         23    2    1    0    0    0 -0.59889912659E+01 -0.29200925262E+02  0.36659562603E+01  0.94966663724E+02  0.90092540929E+02 0.  0.
         11    1    3    3    0    0 -0.27650202179E+02  0.24408511456E+02 -0.15249731098E+01  0.36913881607E+02  0.51100000000E-03 0. -1.
         22    1    1    0    0    0  0.59889912659E+01  0.29200925262E+02 -0.36659562603E+01  0.30033336276E+02  0.00000000000E+00 0.  1.
</event>
<event>
 5    1  0.1282524E-003  0.9118800E+02  0.7818608E-02  0.1130116E+00
         25   -1    0    0    0    0  0.00000000000E+00  0.00000000000E+00  0.99999998245E-14  0.12500000000E+03  0.12500000000E+03 0.  0.
        -11    1    3    3    0    0  0.23119188737E+02  0.30484100846E+01 -0.50844447390E+02  0.55936996010E+02  0.51100000000E-03 0. -1.
         23    2    1    0    0    0 -0.51929821417E+01 -0.10049484529E+02 -0.28581031923E+02  0.94261838237E+02  0.89109256305E+02 0.  0.
         11    1    3    3    0    0 -0.28312170879E+02 -0.13097894613E+02  0.22263415468E+02  0.38324842227E+02  0.51100000000E-03 0.  1.
         22    1    1    0    0    0  0.51929821417E+01  0.10049484529E+02  0.28581031923E+02  0.30738161763E+02  0.00000000000E+00 0. -1.
</event>
<event>
 5    1  0.1282524E-003  0.9118800E+02  0.7818608E-02  0.1130116E+00
         25   -1    0    0    0    0  0.00000000000E+00  0.00000000000E+00  0.99999998245E-14  0.12500000000E+03  0.12500000000E+03 0.  0.
        -11    1    3    3    0    0  0.19372286156E+02  0.22765063501E+02  0.14384047056E+02  0.33172796040E+02  0.51100000000E-03 0.  1.
         23    2    1    0    0    0 -0.16852940312E+02 -0.15688583401E+02 -0.18554374666E+02  0.95429439208E+02  0.90732352565E+02 0.  0.
         11    1    3    3    0    0 -0.36225226468E+02 -0.38453646903E+02 -0.32938421722E+02  0.62256643168E+02  0.51100000000E-03 0. -1.
         22    1    1    0    0    0  0.16852940312E+02  0.15688583401E+02  0.18554374666E+02  0.29570560792E+02  0.00000000000E+00 0. -1.
</event>
<event>
 5    1  0.1282524E-003  0.9118800E+02  0.7818608E-02  0.1130116E+00
         25   -1    0    0    0    0  0.00000000000E+00  0.00000000000E+00  0.99999998245E-14  0.12500000000E+03  0.12500000000E+03 0.  0.
        -11    1    3    3    0    0 -0.19054207384E+02  0.73660000120E+01 -0.39448719370E+02  0.44424342825E+02  0.51100000000E-03 0. -1.
         23    2    1    0    0    0 -0.27355266386E+02 -0.15679265687E+02  0.28895322681E+01  0.93337729578E+02  0.87803373481E+02 0.  0.
         11    1    3    3    0    0 -0.83010590011E+01 -0.23045265699E+02  0.42338251638E+02  0.48913386754E+02  0.51100000000E-03 0.  1.
         22    1    1    0    0    0  0.27355266386E+02  0.15679265687E+02 -0.28895322681E+01  0.31662270422E+02  0.00000000000E+00 0. -1.
</event>
<event>
 5    1  0.1282524E-003  0.9118800E+02  0.7818608E-02  0.1130116E+00
         25   -1    0    0    0    0  0.00000000000E+00  0.00000000000E+00  0.99999998245E-14  0.12500000000E+03  0.12500000000E+03 0.  0.
        -11    1    3    3    0    0  0.36318043734E+02  0.38923921723E+02  0.19803912693E+01  0.53272825462E+02  0.51100000000E-03 0.  1.
         23    2    1    0    0    0  0.28870459969E+02 -0.24053819996E+01 -0.42224295767E+01  0.95723418353E+02  0.91136461355E+02 0.  0.
         11    1    3    3    0    0 -0.74475837646E+01 -0.41329303722E+02 -0.62028208460E+01  0.42450592891E+02  0.51100000000E-03 0. -1.
         22    1    1    0    0    0 -0.28870459969E+02  0.24053819996E+01  0.42224295767E+01  0.29276581647E+02  0.00000000000E+00 0.  1.
</event>
<event>
 5    1  0.1282524E-003  0.9118800E+02  0.7818608E-02  0.1130116E+00
         25   -1    0    0    0    0  0.00000000000E+00  0.00000000000E+00  0.99999998245E-14  0.12500000000E+03  0.12500000000E+03 0.  0.
        -11    1    3    3    0    0  0.36591630427E+02 -0.23528105224E+02 -0.30637379509E+02  0.53208722745E+02  0.51100000000E-03 0.  1.
         23    2    1    0    0    0  0.20871689225E+01 -0.92730619331E+00 -0.30457905231E+02  0.94456585620E+02  0.89382025067E+02 0.  0.
         11    1    3    3    0    0 -0.34504461504E+02  0.22600799031E+02  0.17947427751E+00  0.41247862876E+02  0.51100000000E-03 0. -1.
         22    1    1    0    0    0 -0.20871689225E+01  0.92730619331E+00  0.30457905231E+02  0.30543414380E+02  0.00000000000E+00 0.  1.
</event>
<event>
 5    1  0.1282524E-003  0.9118800E+02  0.7818608E-02  0.1130116E+00
         25   -1    0    0    0    0  0.00000000000E+00  0.00000000000E+00  0.99999998245E-14  0.12500000000E+03  0.12500000000E+03 0.  0.
        -11    1    3    3    0    0  0.45143814006E+02  0.78449691821E+01 -0.87570532499E+01  0.46649688813E+02  0.51100000000E-03 0.  1.
         23    2    1    0    0    0  0.15349588513E+02 -0.19423305648E+01  0.26796261646E+02  0.94057761010E+02  0.88822521088E+02 0.  0.
         11    1    3    3    0    0 -0.29794225493E+02 -0.97872997470E+01  0.35553314896E+02  0.47408072197E+02  0.51100000000E-03 0. -1.
         22    1    1    0    0    0 -0.15349588513E+02  0.19423305648E+01 -0.26796261646E+02  0.30942238990E+02  0.00000000000E+00 0.  1.
</event>
<event>
 5    1  0.1282524E-003  0.9118800E+02  0.7818608E-02  0.1130116E+00
         25   -1    0    0    0    0  0.00000000000E+00  0.00000000000E+00  0.99999998245E-14  0.12500000000E+03  0.12500000000E+03 0.  0.
        -11    1    3    3    0    0 -0.54136066424E+02 -0.22159146816E+02 -0.47419887611E+01  0.58687544958E+02  0.51100000000E-03 0.  1.
         23    2    1    0    0    0 -0.11029947041E+02 -0.20099553735E+02 -0.29893575245E+00  0.10207095391E+03  0.99462246492E+02 0.  0.
         11    1    3    3    0    0  0.43106119383E+02  0.20595930815E+01  0.44430530087E+01  0.43383408951E+02  0.51100000000E-03 0. -1.
         22    1    1    0    0    0  0.11029947041E+02  0.20099553735E+02  0.29893575245E+00  0.22929046091E+02  0.00000000000E+00 0.  1.
</event>
<event>
 5    1  0.1282524E-003  0.9118800E+02  0.7818608E-02  0.1130116E+00
         25   -1    0    0    0    0  0.00000000000E+00  0.00000000000E+00  0.99999998245E-14  0.12500000000E+03  0.12500000000E+03 0.  0.
        -11    1    3    3    0    0 -0.32746150542E+02 -0.55853822760E+01 -0.14020899358E+02  0.36056795331E+02  0.51100000000E-03 0. -1.
         23    2    1    0    0    0  0.17464265669E+02 -0.19948894298E+02  0.13671740959E+02  0.95169219589E+02  0.90373142566E+02 0.  0.
         11    1    3    3    0    0  0.50210416211E+02 -0.14363512022E+02  0.27692640316E+02  0.59112424258E+02  0.51100000000E-03 0.  1.
         22    1    1    0    0    0 -0.17464265669E+02  0.19948894298E+02 -0.13671740959E+02  0.29830780411E+02  0.00000000000E+00 0.  1.
</event>
<event>
 5    1  0.1282524E-003  0.9118800E+02  0.7818608E-02  0.1130116E+00
         25   -1    0    0    0    0  0.00000000000E+00  0.00000000000E+00  0.99999998245E-14  0.12500000000E+03  0.12500000000E+03 0.  0.
        -11    1    3    3    0    0  0.14305571693E+02  0.56613501019E+02  0.21284867523E+02  0.62151294957E+02  0.51100000000E-03 0. -1.
         23    2    1    0    0    0  0.53097184231E+01  0.27172332994E+02  0.54029882219E+01  0.96791471648E+02  0.92589782979E+02 0.  0.
         11    1    3    3    0    0 -0.89958532702E+01 -0.29441168026E+02 -0.15881879301E+02  0.34640176691E+02  0.51100000000E-03 0.  1.
         22    1    1    0    0    0 -0.53097184231E+01 -0.27172332994E+02 -0.54029882219E+01  0.28208528352E+02  0.00000000000E+00 0. -1.
</event>
<event>
 5    1  0.1282524E-003  0.9118800E+02  0.7818608E-02  0.1130116E+00
         25   -1    0    0    0    0  0.00000000000E+00  0.00000000000E+00  0.99999998245E-14  0.12500000000E+03  0.12500000000E+03 0.  0.
        -11    1    3    3    0    0 -0.82442107115E+01 -0.32759271420E+02 -0.21368594583E+02  0.39971911500E+02  0.51100000000E-03 0.  1.
         23    2    1    0    0    0  0.35422555115E+01 -0.50226330809E+01  0.27190881940E+02  0.97123155167E+02  0.93036491721E+02 0.  0.
         11    1    3    3    0    0  0.11786466223E+02  0.27736638339E+02  0.48559476522E+02  0.57151243668E+02  0.51100000000E-03 0. -1.
         22    1    1    0    0    0 -0.35422555115E+01  0.50226330809E+01 -0.27190881940E+02  0.27876844833E+02  0.00000000000E+00 0. -1.
</event>
<event>
 5    1  0.1282524E-003  0.9118800E+02  0.7818608E-02  0.1130116E+00
         25   -1    0    0    0    0  0.00000000000E+00  0.00000000000E+00  0.99999998245E-14  0.12500000000E+03  0.12500000000E+03 0.  0.
        -11    1    3    3    0    0 -0.78889698666E+01  0.58170698504E+02  0.12894059215E+00  0.58703344333E+02  0.51100000000E-03 0. -1.
         23    2    1    0    0    0 -0.71719693425E+01  0.21813440889E+02  0.14542565288E+02  0.97820052376E+02  0.93968149360E+02 0.  0.
         11    1    3    3    0    0  0.71700052412E+00 -0.36357257614E+02  0.14413624696E+02  0.39116708043E+02  0.51100000000E-03 0.  1.
         22    1    1    0    0    0  0.71719693425E+01 -0.21813440889E+02 -0.14542565288E+02  0.27179947624E+02  0.00000000000E+00 0. -1.
</event>
<event>
 5    1  0.1282524E-003  0.9118800E+02  0.7818608E-02  0.1130116E+00
         25   -1    0    0    0    0  0.00000000000E+00  0.00000000000E+00  0.99999998245E-14  0.12500000000E+03  0.12500000000E+03 0.  0.
        -11    1    3    3    0    0 -0.12996646436E+02  0.31377263920E+02 -0.12065925451E+01  0.33983839917E+02  0.51100000000E-03 0.  1.
         23    2    1    0    0    0 -0.13301121905E+02 -0.22124716096E+02 -0.21698685875E+02  0.91276775436E+02  0.84818593828E+02 0.  0.
         11    1    3    3    0    0 -0.30447546949E+00 -0.53501980017E+02 -0.20492093330E+02  0.57292935519E+02  0.51100000000E-03 0. -1.
         22    1    1    0    0    0  0.13301121905E+02  0.22124716096E+02  0.21698685875E+02  0.33723224564E+02  0.00000000000E+00 0. -1.
</event>
<event>
 5    1  0.1282524E-003  0.9118800E+02  0.7818608E-02  0.1130116E+00
         25   -1    0    0    0    0  0.00000000000E+00  0.00000000000E+00  0.99999998245E-14  0.12500000000E+03  0.12500000000E+03 0.  0.
        -11    1    3    3    0    0 -0.19539408549E+02  0.61896403073E+01  0.28122657564E+02  0.34799195426E+02  0.51100000000E-03 0.  1.
         23    2    1    0    0    0  0.24755688581E+02  0.11372747628E+02 -0.12409807141E+02  0.95063620476E+02  0.90226964479E+02 0.  0.
         11    1    3    3    0    0  0.44295097130E+02  0.51831073209E+01 -0.40532464705E+02  0.60264425050E+02  0.51100000000E-03 0. -1.
         22    1    1    0    0    0 -0.24755688581E+02 -0.11372747628E+02  0.12409807141E+02  0.29936379524E+02  0.00000000000E+00 0. -1.
</event>
<event>
 5    1  0.1282524E-003  0.9118800E+02  0.7818608E-02  0.1130116E+00
         25   -1    0    0    0    0  0.00000000000E+00  0.00000000000E+00  0.99999998245E-14  0.12500000000E+03  0.12500000000E+03 0.  0.
        -11    1    3    3    0    0  0.37955095532E+02  0.30135236358E+02 -0.41509372924E+01  0.48641052907E+02  0.51100000000E-03 0. -1.
         23    2    1    0    0    0  0.16054744097E+02  0.20950162454E+01  0.25390994732E+02  0.94886107615E+02  0.89980702952E+02 0.  0.
         11    1    3    3    0    0 -0.21900351435E+02 -0.28040220113E+02  0.29541932024E+02  0.46245054708E+02  0.51100000000E-03 0.  1.
         22    1    1    0    0    0 -0.16054744097E+02 -0.20950162454E+01 -0.25390994732E+02  0.30113892385E+02  0.00000000000E+00 0.  1.
</event>
<event>
 5    1  0.1282524E-003  0.9118800E+02  0.7818608E-02  0.1130116E+00
         25   -1    0    0    0    0  0.00000000000E+00  0.00000000000E+00  0.99999998245E-14  0.12500000000E+03  0.12500000000E+03 0.  0.
        -11    1    3    3    0    0 -0.53319355240E+01  0.14656626840E+02  0.35791079983E+02  0.39041614380E+02  0.51100000000E-03 0. -1.
         23    2    1    0    0    0  0.31655885596E+01  0.25834049581E+02 -0.17161520127E+02  0.93824098381E+02  0.88493076539E+02 0.  0.
         11    1    3    3    0    0  0.84975240836E+01  0.11177422740E+02 -0.52952600110E+02  0.54782484001E+02  0.51100000000E-03 0.  1.
         22    1    1    0    0    0 -0.31655885596E+01 -0.25834049581E+02  0.17161520127E+02  0.31175901619E+02  0.00000000000E+00 0.  1.
</event>
<event>
 5    1  0.1282524E-003  0.9118800E+02  0.7818608E-02  0.1130116E+00
         25   -1    0    0    0    0  0.00000000000E+00  0.00000000000E+00  0.99999998245E-14  0.12500000000E+03  0.12500000000E+03 0.  0.
        -11    1    3    3    0    0  0.70116165692E+01 -0.24539938075E+02  0.44222429091E+02  0.51058736399E+02  0.51100000000E-03 0.  1.
         23    2    1    0    0    0 -0.63606451619E+01 -0.29513434264E+02  0.30237236935E+01  0.94657892065E+02  0.89663108446E+02 0.  0.
         11    1    3    3    0    0 -0.13372261731E+02 -0.49734961891E+01 -0.41198705397E+02  0.43599155667E+02  0.51100000000E-03 0. -1.
         22    1    1    0    0    0  0.63606451619E+01  0.29513434264E+02 -0.30237236935E+01  0.30342107935E+02  0.00000000000E+00 0. -1.
</event>
<event>
 5    1  0.1282524E-003  0.9118800E+02  0.7818608E-02  0.1130116E+00
         25   -1    0    0    0    0  0.00000000000E+00  0.00000000000E+00  0.99999998245E-14  0.12500000000E+03  0.12500000000E+03 0.  0.
        -11    1    3    3    0    0  0.19653396594E+02 -0.17315405915E+02  0.11202598588E+02  0.28488199225E+02  0.51100000000E-03 0.  1.
         23    2    1    0    0    0  0.77930558858E+01  0.36338762718E+02 -0.85218626806E+01  0.86870489913E+02  0.78055252727E+02 0.  0.
         11    1    3    3    0    0 -0.11860340708E+02  0.53654168633E+02 -0.19724461269E+02  0.58382290688E+02  0.51100000000E-03 0. -1.
         22    1    1    0    0    0 -0.77930558858E+01 -0.36338762718E+02  0.85218626806E+01  0.38129510087E+02  0.00000000000E+00 0. -1.
</event>
<event>
 5    1  0.1282524E-003  0.9118800E+02  0.7818608E-02  0.1130116E+00
         25   -1    0    0    0    0  0.00000000000E+00  0.00000000000E+00  0.99999998245E-14  0.12500000000E+03  0.12500000000E+03 0.  0.
        -11    1    3    3    0    0  0.21909360522E+02 -0.54942077211E+02 -0.17498735267E+02  0.61683528295E+02  0.51100000000E-03 0.  1.
         23    2    1    0    0    0  0.47390901494E+01 -0.25846172892E+02 -0.12726232430E+02  0.95803414233E+02  0.91246115305E+02 0.  0.
         11    1    3    3    0    0 -0.17170270373E+02  0.29095904319E+02  0.47725028376E+01  0.34119885938E+02  0.51100000000E-03 0. -1.
         22    1    1    0    0    0 -0.47390901494E+01  0.25846172892E+02  0.12726232430E+02  0.29196585767E+02  0.00000000000E+00 0.  1.
</event>
<event>
 5    1  0.1282524E-003  0.9118800E+02  0.7818608E-02  0.1130116E+00
         25   -1    0    0    0    0  0.00000000000E+00  0.00000000000E+00  0.99999998245E-14  0.12500000000E+03  0.12500000000E+03 0.  0.
        -11    1    3    3    0    0 -0.16909618440E+01  0.29305965048E+02  0.44372310693E+02  0.53203391770E+02  0.51100000000E-03 0.  1.
         23    2    1    0    0    0 -0.13319529224E+02 -0.67198340209E+01  0.25388478398E+02  0.95552744383E+02  0.90902068710E+02 0.  0.
         11    1    3    3    0    0 -0.11628567380E+02 -0.36025799068E+02 -0.18983832295E+02  0.42349352613E+02  0.51100000000E-03 0. -1.
         22    1    1    0    0    0  0.13319529224E+02  0.67198340209E+01 -0.25388478398E+02  0.29447255617E+02  0.00000000000E+00 0.  1.
</event>
<event>
 5    1  0.1282524E-003  0.9118800E+02  0.7818608E-02  0.1130116E+00
         25   -1    0    0    0    0  0.00000000000E+00  0.00000000000E+00  0.99999998245E-14  0.12500000000E+03  0.12500000000E+03 0.  0.
        -11    1    3    3    0    0  0.22535363540E+02  0.20949501776E+02 -0.31196577299E+02  0.43817241698E+02  0.51100000000E-03 0. -1.
         23    2    1    0    0    0 -0.17345072870E+02  0.25337227905E+02 -0.57450200324E+00  0.94289143233E+02  0.89147550770E+02 0.  0.
         11    1    3    3    0    0 -0.39880436411E+02  0.43877261290E+01  0.30622075296E+02  0.50471901535E+02  0.51100000000E-03 0.  1.
         22    1    1    0    0    0  0.17345072870E+02 -0.25337227905E+02  0.57450200324E+00  0.30710856767E+02  0.00000000000E+00 0.  1.
</event>
<event>
 5    1  0.1282524E-003  0.9118800E+02  0.7818608E-02  0.1130116E+00
         25   -1    0    0    0    0  0.00000000000E+00  0.00000000000E+00  0.99999998245E-14  0.12500000000E+03  0.12500000000E+03 0.  0.
        -11    1    3    3    0    0 -0.27650670423E+02  0.43290421918E+02  0.23694522481E+02  0.56568989743E+02  0.51100000000E-03 0. -1.
         23    2    1    0    0    0 -0.19838445251E+02  0.46667842415E+01  0.20483002425E+02  0.96105430034E+02  0.91658919416E+02 0.  0.
         11    1    3    3    0    0  0.78122251716E+01 -0.38623637677E+02 -0.32115200561E+01  0.39536440291E+02  0.51100000000E-03 0.  1.
         22    1    1    0    0    0  0.19838445251E+02 -0.46667842415E+01 -0.20483002425E+02  0.28894569966E+02  0.00000000000E+00 0. -1.
</event>
<event>
 5    1  0.1282524E-003  0.9118800E+02  0.7818608E-02  0.1130116E+00
         25   -1    0    0    0    0  0.00000000000E+00  0.00000000000E+00  0.99999998245E-14  0.12500000000E+03  0.12500000000E+03 0.  0.
        -11    1    3    3    0    0  0.50660654974E+02  0.15792480248E+02 -0.23988438516E+01  0.53119288840E+02  0.51100000000E-03 0. -1.
         23    2    1    0    0    0  0.75336239856E+01  0.20397552778E+02 -0.15349599791E+02  0.98383729348E+02  0.94715005870E+02 0.  0.
         11    1    3    3    0    0 -0.43127030988E+02  0.46050725302E+01 -0.12950755939E+02  0.45264440508E+02  0.51100000000E-03 0.  1.
         22    1    1    0    0    0 -0.75336239856E+01 -0.20397552778E+02  0.15349599791E+02  0.26616270652E+02  0.00000000000E+00 0. -1.
</event>
<event>
 5    1  0.1282524E-003  0.9118800E+02  0.7818608E-02  0.1130116E+00
         25   -1    0    0    0    0  0.00000000000E+00  0.00000000000E+00  0.99999998245E-14  0.12500000000E+03  0.12500000000E+03 0.  0.
        -11    1    3    3    0    0  0.11811024121E+02 -0.38592074898E+01 -0.55933201160E+02  0.57296743062E+02  0.51100000000E-03 0.  1.
         23    2    1    0    0    0  0.47179804945E+01  0.16177376617E+02 -0.23185875884E+02  0.96337276915E+02  0.91974557508E+02 0.  0.
         11    1    3    3    0    0 -0.70930436266E+01  0.20036584107E+02  0.32747325276E+02  0.39040533853E+02  0.51100000000E-03 0. -1.
         22    1    1    0    0    0 -0.47179804945E+01 -0.16177376617E+02  0.23185875884E+02  0.28662723085E+02  0.00000000000E+00 0.  1.
</event>
<event>
 5    1  0.1282524E-003  0.9118800E+02  0.7818608E-02  0.1130116E+00
         25   -1    0    0    0    0  0.00000000000E+00  0.00000000000E+00  0.99999998245E-14  0.12500000000E+03  0.12500000000E+03 0.  0.
        -11    1    3    3    0    0 -0.46414601724E+01  0.50851538593E+02  0.12379364372E+02  0.52542085915E+02  0.51100000000E-03 0. -1.
         23    2    1    0    0    0 -0.67855122922E+01  0.20244596133E+02  0.30192898744E+02  0.88020303081E+02  0.79875376496E+02 0.  0.
         11    1    3    3    0    0 -0.21440521198E+01 -0.30606942460E+02  0.17813534372E+02  0.35478217166E+02  0.51100000000E-03 0.  1.
         22    1    1    0    0    0  0.67855122922E+01 -0.20244596133E+02 -0.30192898744E+02  0.36979696919E+02  0.00000000000E+00 0.  1.
</event>
<event>
 5    1  0.1282524E-003  0.9118800E+02  0.7818608E-02  0.1130116E+00
         25   -1    0    0    0    0  0.00000000000E+00  0.00000000000E+00  0.99999998245E-14  0.12500000000E+03  0.12500000000E+03 0.  0.
        -11    1    3    3    0    0  0.19396880127E+02  0.41383903195E+02  0.19383748093E+02  0.49644698536E+02  0.51100000000E-03 0. -1.
         23    2    1    0    0    0 -0.18110691873E+02  0.27286610145E+02  0.86025139671E+01  0.91139115489E+02  0.84615476552E+02 0.  0.
         11    1    3    3    0    0 -0.37507572000E+02 -0.14097293050E+02 -0.10781234126E+02  0.41494416953E+02  0.51100000000E-03 0.  1.
         22    1    1    0    0    0  0.18110691873E+02 -0.27286610145E+02 -0.86025139671E+01  0.33860884511E+02  0.00000000000E+00 0. -1.
</event>
<event>
 5    1  0.1282524E-003  0.9118800E+02  0.7818608E-02  0.1130116E+00
         25   -1    0    0    0    0  0.00000000000E+00  0.00000000000E+00  0.99999998245E-14  0.12500000000E+03  0.12500000000E+03 0.  0.
        -11    1    3    3    0    0 -0.27558988547E+01  0.40333076260E+02  0.35341162140E+02  0.53696831943E+02  0.51100000000E-03 0.  1.
         23    2    1    0    0    0 -0.21537820253E+02  0.64628478062E+01  0.18293827586E+02  0.96011895013E+02  0.91531271996E+02 0.  0.
         11    1    3    3    0    0 -0.18781921398E+02 -0.33870228453E+02 -0.17047334555E+02  0.42315063070E+02  0.51100000000E-03 0. -1.
         22    1    1    0    0    0  0.21537820253E+02 -0.64628478062E+01 -0.18293827586E+02  0.28988104987E+02  0.00000000000E+00 0.  1.
</event>
<event>
 5    1  0.1282524E-003  0.9118800E+02  0.7818608E-02  0.1130116E+00
         25   -1    0    0    0    0  0.00000000000E+00  0.00000000000E+00  0.99999998245E-14  0.12500000000E+03  0.12500000000E+03 0.  0.
        -11    1    3    3    0    0  0.36230600239E+02 -0.21436607908E+02 -0.39077328339E+02  0.57438855687E+02  0.51100000000E-03 0.  1.
         23    2    1    0    0    0  0.32753646828E+01 -0.21262940178E+02 -0.20565828878E+02  0.95237709157E+02  0.90467824607E+02 0.  0.
         11    1    3    3    0    0 -0.32955235556E+02  0.17366773004E+00  0.18511499461E+02  0.37798853469E+02  0.51100000000E-03 0. -1.
         22    1    1    0    0    0 -0.32753646828E+01  0.21262940178E+02  0.20565828878E+02  0.29762290843E+02  0.00000000000E+00 0.  1.
</event>
<event>
 5    1  0.1282524E-003  0.9118800E+02  0.7818608E-02  0.1130116E+00
         25   -1    0    0    0    0  0.00000000000E+00  0.00000000000E+00  0.99999998245E-14  0.12500000000E+03  0.12500000000E+03 0.  0.
        -11    1    3    3    0    0  0.26479649859E+02  0.46074719065E+02  0.40519444277E+01  0.53296058461E+02  0.51100000000E-03 0. -1.
         23    2    1    0    0    0  0.27124942415E+02  0.43639049779E+01  0.10657420071E+02  0.95531597087E+02  0.90872984279E+02 0.  0.
         11    1    3    3    0    0  0.64529255545E+00 -0.41710814087E+02  0.66054756437E+01  0.42235538626E+02  0.51100000000E-03 0.  1.
         22    1    1    0    0    0 -0.27124942415E+02 -0.43639049779E+01 -0.10657420071E+02  0.29468402913E+02  0.00000000000E+00 0. -1.
</event>
<event>
 5    1  0.1282524E-003  0.9118800E+02  0.7818608E-02  0.1130116E+00
         25   -1    0    0    0    0  0.00000000000E+00  0.00000000000E+00  0.99999998245E-14  0.12500000000E+03  0.12500000000E+03 0.  0.
        -11    1    3    3    0    0 -0.22098616906E+02  0.27151107117E+02  0.30568552592E+01  0.35140800378E+02  0.51100000000E-03 0. -1.
         23    2    1    0    0    0  0.19061961853E+02 -0.11237877564E+02 -0.19236775105E+02  0.95679328141E+02  0.91075968484E+02 0.  0.
         11    1    3    3    0    0  0.41160578760E+02 -0.38388984681E+02 -0.22293630364E+02  0.60538527763E+02  0.51100000000E-03 0.  1.
         22    1    1    0    0    0 -0.19061961853E+02  0.11237877564E+02  0.19236775105E+02  0.29320671859E+02  0.00000000000E+00 0.  1.
</event>
<event>
 5    1  0.1282524E-003  0.9118800E+02  0.7818608E-02  0.1130116E+00
         25   -1    0    0    0    0  0.00000000000E+00  0.00000000000E+00  0.99999998245E-14  0.12500000000E+03  0.12500000000E+03 0.  0.
        -11    1    3    3    0    0  0.21274446264E+02 -0.35320662312E+02  0.12123127611E+01  0.41250708509E+02  0.51100000000E-03 0.  1.
         23    2    1    0    0    0 -0.84528478303E+01  0.11630829813E+01  0.28224930057E+02  0.95513561164E+02  0.90848171644E+02 0.  0.
         11    1    3    3    0    0 -0.29727294094E+02  0.36483745294E+02  0.27012617296E+02  0.54262852655E+02  0.51100000000E-03 0. -1.
         22    1    1    0    0    0  0.84528478303E+01 -0.11630829813E+01 -0.28224930057E+02  0.29486438836E+02  0.00000000000E+00 0. -1.
</event>
<event>
 5    1  0.1282524E-003  0.9118800E+02  0.7818608E-02  0.1130116E+00
         25   -1    0    0    0    0  0.00000000000E+00  0.00000000000E+00  0.99999998245E-14  0.12500000000E+03  0.12500000000E+03 0.  0.
        -11    1    3    3    0    0  0.63063382147E+01  0.92447583588E+01  0.55254021987E+02  0.56375902696E+02  0.51100000000E-03 0.  1.
         23    2    1    0    0    0  0.18953910931E+02  0.11830530671E+02  0.16496197556E+02  0.97227050403E+02  0.93175976521E+02 0.  0.
         11    1    3    3    0    0  0.12647572716E+02  0.25857723119E+01 -0.38757824431E+02  0.40851147707E+02  0.51100000000E-03 0. -1.
         22    1    1    0    0    0 -0.18953910931E+02 -0.11830530671E+02 -0.16496197556E+02  0.27772949597E+02  0.00000000000E+00 0.  1.
</event>
<event>
 5    1  0.1282524E-003  0.9118800E+02  0.7818608E-02  0.1130116E+00
         25   -1    0    0    0    0  0.00000000000E+00  0.00000000000E+00  0.99999998245E-14  0.12500000000E+03  0.12500000000E+03 0.  0.
        -11    1    3    3    0    0  0.15732871738E+02 -0.31713274407E+02 -0.51052593421E+02  0.62125858722E+02  0.51100000000E-03 0.  1.
         23    2    1    0    0    0  0.43300415342E+01 -0.18564395883E+02 -0.23151019667E+02  0.95010739159E+02  0.90153673191E+02 0.  0.
         11    1    3    3    0    0 -0.11402830204E+02  0.13148878524E+02  0.27901573755E+02  0.32884880437E+02  0.51100000000E-03 0. -1.
         22    1    1    0    0    0 -0.43300415342E+01  0.18564395883E+02  0.23151019667E+02  0.29989260841E+02  0.00000000000E+00 0.  1.
</event>
<event>
 5    1  0.1282524E-003  0.9118800E+02  0.7818608E-02  0.1130116E+00
         25   -1    0    0    0    0  0.00000000000E+00  0.00000000000E+00  0.99999998245E-14  0.12500000000E+03  0.12500000000E+03 0.  0.
        -11    1    3    3    0    0 -0.25032976337E+02 -0.15779993062E+02  0.18186685509E+02  0.34733465353E+02  0.51100000000E-03 0.  1.
         23    2    1    0    0    0  0.20310198854E+02  0.16990693644E+02 -0.91277679315E+01  0.96991001528E+02  0.92858765779E+02 0.  0.
         11    1    3    3    0    0  0.45343175191E+02  0.32770686707E+02 -0.27314453441E+02  0.62257536175E+02  0.51100000000E-03 0. -1.
         22    1    1    0    0    0 -0.20310198854E+02 -0.16990693644E+02  0.91277679315E+01  0.28008998472E+02  0.00000000000E+00 0. -1.
</event>
<event>
 5    1  0.1282524E-003  0.9118800E+02  0.7818608E-02  0.1130116E+00
         25   -1    0    0    0    0  0.00000000000E+00  0.00000000000E+00  0.99999998245E-14  0.12500000000E+03  0.12500000000E+03 0.  0.
        -11    1    3    3    0    0  0.91369761474E+01 -0.37136009417E+02  0.13707995054E+02  0.40626058844E+02  0.51100000000E-03 0.  1.
         23    2    1    0    0    0 -0.30920626535E+02 -0.50993616881E+01  0.22710812356E+00  0.93660883658E+02  0.88262228131E+02 0.  0.
         11    1    3    3    0    0 -0.40057602683E+02  0.32036647729E+02 -0.13480886931E+02  0.53034824814E+02  0.51100000000E-03 0. -1.
         22    1    1    0    0    0  0.30920626535E+02  0.50993616881E+01 -0.22710812356E+00  0.31339116342E+02  0.00000000000E+00 0. -1.
</event>
<event>
 5    1  0.1282524E-003  0.9118800E+02  0.7818608E-02  0.1130116E+00
         25   -1    0    0    0    0  0.00000000000E+00  0.00000000000E+00  0.99999998245E-14  0.12500000000E+03  0.12500000000E+03 0.  0.
        -11    1    3    3    0    0 -0.47811796508E+02  0.10762924093E+02 -0.35092824764E+02  0.60276983754E+02  0.51100000000E-03 0. -1.
         23    2    1    0    0    0 -0.15560357999E+02  0.14079676902E+02 -0.19893162949E+02  0.96084606611E+02  0.91630517039E+02 0.  0.
         11    1    3    3    0    0  0.32251438509E+02  0.33167528089E+01  0.15199661815E+02  0.35807622857E+02  0.51100000000E-03 0.  1.
         22    1    1    0    0    0  0.15560357999E+02 -0.14079676902E+02  0.19893162949E+02  0.28915393389E+02  0.00000000000E+00 0. -1.
</event>
<event>
 5    1  0.1282524E-003  0.9118800E+02  0.7818608E-02  0.1130116E+00
         25   -1    0    0    0    0  0.00000000000E+00  0.00000000000E+00  0.99999998245E-14  0.12500000000E+03  0.12500000000E+03 0.  0.
        -11    1    3    3    0    0  0.45239781087E+02 -0.60511012848E+01  0.60057313893E+01  0.46036099198E+02  0.51100000000E-03 0. -1.
         23    2    1    0    0    0  0.33662050537E+00  0.22311600366E-02  0.28414162551E+02  0.96583843472E+02  0.92309050846E+02 0.  0.
         11    1    3    3    0    0 -0.44903160582E+02  0.60533324448E+01  0.22408431161E+02  0.50547744275E+02  0.51100000000E-03 0.  1.
         22    1    1    0    0    0 -0.33662050537E+00 -0.22311600366E-02 -0.28414162551E+02  0.28416156528E+02  0.00000000000E+00 0.  1.
</event>
<event>
 5    1  0.1282524E-003  0.9118800E+02  0.7818608E-02  0.1130116E+00
         25   -1    0    0    0    0  0.00000000000E+00  0.00000000000E+00  0.99999998245E-14  0.12500000000E+03  0.12500000000E+03 0.  0.
        -11    1    3    3    0    0  0.22833532359E+02  0.47162022721E+02 -0.19163660698E+02  0.55793122146E+02  0.51100000000E-03 0.  1.
         23    2    1    0    0    0  0.27113709364E+02  0.10295312016E+02 -0.47349217373E+01  0.95613503631E+02  0.90985580769E+02 0.  0.
         11    1    3    3    0    0  0.42801770044E+01 -0.36866710705E+02  0.14428738961E+02  0.39820381486E+02  0.51100000000E-03 0. -1.
         22    1    1    0    0    0 -0.27113709364E+02 -0.10295312016E+02  0.47349217373E+01  0.29386496369E+02  0.00000000000E+00 0.  1.
</event>
<event>
 5    1  0.1282524E-003  0.9118800E+02  0.7818608E-02  0.1130116E+00
         25   -1    0    0    0    0  0.00000000000E+00  0.00000000000E+00  0.99999998245E-14  0.12500000000E+03  0.12500000000E+03 0.  0.
        -11    1    3    3    0    0 -0.46356745534E+01  0.29411694899E+02  0.45523641736E+02  0.54396132515E+02  0.51100000000E-03 0.  1.
         23    2    1    0    0    0  0.18907405109E+01 -0.75190708909E+01  0.28285474169E+02  0.95671185232E+02  0.91064791813E+02 0.  0.
         11    1    3    3    0    0  0.65264150644E+01 -0.36930765790E+02 -0.17238167567E+02  0.41275052717E+02  0.51100000000E-03 0. -1.
         22    1    1    0    0    0 -0.18907405109E+01  0.75190708909E+01 -0.28285474169E+02  0.29328814768E+02  0.00000000000E+00 0.  1.
</event>
<event>
 5    1  0.1282524E-003  0.9118800E+02  0.7818608E-02  0.1130116E+00
         25   -1    0    0    0    0  0.00000000000E+00  0.00000000000E+00  0.99999998245E-14  0.12500000000E+03  0.12500000000E+03 0.  0.
        -11    1    3    3    0    0 -0.10982585041E+02  0.15691383133E+02 -0.27309178872E+02  0.33356077853E+02  0.51100000000E-03 0. -1.
         23    2    1    0    0    0  0.29477180469E+01 -0.19690578291E+02  0.21806717016E+02  0.95471355904E+02  0.90790081926E+02 0.  0.
         11    1    3    3    0    0  0.13930303088E+02 -0.35381961424E+02  0.49115895888E+02  0.62115278052E+02  0.51100000000E-03 0.  1.
         22    1    1    0    0    0 -0.29477180469E+01  0.19690578291E+02 -0.21806717016E+02  0.29528644096E+02  0.00000000000E+00 0.  1.
</event>
<event>
 5    1  0.1282524E-003  0.9118800E+02  0.7818608E-02  0.1130116E+00
         25   -1    0    0    0    0  0.00000000000E+00  0.00000000000E+00  0.99999998245E-14  0.12500000000E+03  0.12500000000E+03 0.  0.
        -11    1    3    3    0    0 -0.31559378243E+02  0.61396371302E+01  0.11106170996E+02  0.34015239726E+02  0.51100000000E-03 0.  1.
         23    2    1    0    0    0  0.29123730751E+02 -0.13224583761E+01  0.29393862205E+01  0.95698454301E+02  0.91102214985E+02 0.  0.
         11    1    3    3    0    0  0.60683108994E+02 -0.74620955063E+01 -0.81667847750E+01  0.61683214575E+02  0.51100000000E-03 0. -1.
         22    1    1    0    0    0 -0.29123730751E+02  0.13224583761E+01 -0.29393862205E+01  0.29301545699E+02  0.00000000000E+00 0. -1.
</event>
<event>
 5    1  0.1282524E-003  0.9118800E+02  0.7818608E-02  0.1130116E+00
         25   -1    0    0    0    0  0.00000000000E+00  0.00000000000E+00  0.99999998245E-14  0.12500000000E+03  0.12500000000E+03 0.  0.
        -11    1    3    3    0    0 -0.26482445659E+02 -0.67153972239E+01 -0.32647313448E+02  0.42570689019E+02  0.51100000000E-03 0.  1.
         23    2    1    0    0    0  0.22106284838E+02 -0.13563022374E+02 -0.16644238159E+02  0.94183217735E+02  0.88998901307E+02 0.  0.
         11    1    3    3    0    0  0.48588730497E+02 -0.68476251496E+01  0.16003075288E+02  0.51612528716E+02  0.51100000000E-03 0. -1.
         22    1    1    0    0    0 -0.22106284838E+02  0.13563022374E+02  0.16644238159E+02  0.30816782265E+02  0.00000000000E+00 0. -1.
</event>
<event>
 5    1  0.1282524E-003  0.9118800E+02  0.7818608E-02  0.1130116E+00
         25   -1    0    0    0    0  0.00000000000E+00  0.00000000000E+00  0.99999998245E-14  0.12500000000E+03  0.12500000000E+03 0.  0.
        -11    1    3    3    0    0 -0.36912890868E+02 -0.28714078582E+02 -0.40630896550E+02  0.61951025623E+02  0.51100000000E-03 0.  1.
         23    2    1    0    0    0 -0.12827164782E+02 -0.13099338444E+02 -0.22801062734E+02  0.95742226916E+02  0.91162254958E+02 0.  0.
         11    1    3    3    0    0  0.24085726086E+02  0.15614740138E+02  0.17829833816E+02  0.33791201293E+02  0.51100000000E-03 0. -1.
         22    1    1    0    0    0  0.12827164782E+02  0.13099338444E+02  0.22801062734E+02  0.29257773084E+02  0.00000000000E+00 0.  1.
</event>
<event>
 5    1  0.1282524E-003  0.9118800E+02  0.7818608E-02  0.1130116E+00
         25   -1    0    0    0    0  0.00000000000E+00  0.00000000000E+00  0.99999998245E-14  0.12500000000E+03  0.12500000000E+03 0.  0.
        -11    1    3    3    0    0  0.43184798216E+02  0.41319676375E+01 -0.42376320105E+02  0.60644475919E+02  0.51100000000E-03 0. -1.
         23    2    1    0    0    0  0.26681997031E+02  0.33982636358E+01 -0.11326769893E+02  0.95814851765E+02  0.91261782479E+02 0.  0.
         11    1    3    3    0    0 -0.16502801185E+02 -0.73370400171E+00  0.31049550212E+02  0.35170375846E+02  0.51100000000E-03 0.  1.
         22    1    1    0    0    0 -0.26681997031E+02 -0.33982636358E+01  0.11326769893E+02  0.29185148235E+02  0.00000000000E+00 0. -1.
</event>
<event>
 5    1  0.1282524E-003  0.9118800E+02  0.7818608E-02  0.1130116E+00
         25   -1    0    0    0    0  0.00000000000E+00  0.00000000000E+00  0.99999998245E-14  0.12500000000E+03  0.12500000000E+03 0.  0.
        -11    1    3    3    0    0  0.21225047831E+02  0.47611813426E+02  0.29283959373E+02  0.59790782818E+02  0.51100000000E-03 0.  1.
         23    2    1    0    0    0 -0.25305509902E+01  0.23842987789E+02  0.17157304801E+02  0.95516701964E+02  0.90852493037E+02 0.  0.
         11    1    3    3    0    0 -0.23755598821E+02 -0.23768825636E+02 -0.12126654572E+02  0.35725919147E+02  0.51100000000E-03 0. -1.
         22    1    1    0    0    0  0.25305509902E+01 -0.23842987789E+02 -0.17157304801E+02  0.29483298036E+02  0.00000000000E+00 0.  1.
</event>
<event>
 5    1  0.1282524E-003  0.9118800E+02  0.7818608E-02  0.1130116E+00
         25   -1    0    0    0    0  0.00000000000E+00  0.00000000000E+00  0.99999998245E-14  0.12500000000E+03  0.12500000000E+03 0.  0.
        -11    1    3    3    0    0 -0.42744240990E+02  0.29658362353E+02 -0.29792416149E+02  0.59952286492E+02  0.51100000000E-03 0.  1.
         23    2    1    0    0    0 -0.16931838482E+02  0.73569448401E+01 -0.24267117056E+02  0.94508939638E+02  0.89455211752E+02 0.  0.
         11    1    3    3    0    0  0.25812402508E+02 -0.22301417513E+02  0.55252990930E+01  0.34556653147E+02  0.51100000000E-03 0. -1.
         22    1    1    0    0    0  0.16931838482E+02 -0.73569448401E+01  0.24267117056E+02  0.30491060362E+02  0.00000000000E+00 0.  1.
</event>
<event>
 5    1  0.1282524E-003  0.9118800E+02  0.7818608E-02  0.1130116E+00
         25   -1    0    0    0    0  0.00000000000E+00  0.00000000000E+00  0.99999998245E-14  0.12500000000E+03  0.12500000000E+03 0.  0.
        -11    1    3    3    0    0  0.17735827781E+02 -0.49907976275E+02 -0.18556416430E+02  0.56122244021E+02  0.51100000000E-03 0.  1.
         23    2    1    0    0    0 -0.52788810890E+01 -0.36139804523E+02 -0.46273710658E+00  0.88473760361E+02  0.80581884380E+02 0.  0.
         11    1    3    3    0    0 -0.23014708870E+02  0.13768171752E+02  0.18093679324E+02  0.32351516340E+02  0.51100000000E-03 0. -1.
         22    1    1    0    0    0  0.52788810890E+01  0.36139804523E+02  0.46273710658E+00  0.36526239639E+02  0.00000000000E+00 0.  1.
</event>
<event>
 5    1  0.1282524E-003  0.9118800E+02  0.7818608E-02  0.1130116E+00
         25   -1    0    0    0    0  0.00000000000E+00  0.00000000000E+00  0.99999998245E-14  0.12500000000E+03  0.12500000000E+03 0.  0.
        -11    1    3    3    0    0 -0.10803269137E+02  0.34170282659E+02  0.23737854926E+02  0.42986097727E+02  0.51100000000E-03 0.  1.
         23    2    1    0    0    0 -0.26449214440E+02 -0.14259764588E+01 -0.12112704144E+02  0.95874204645E+02  0.91343041122E+02 0.  0.
         11    1    3    3    0    0 -0.15645945303E+02 -0.35596259118E+02 -0.35850559070E+02  0.52888106919E+02  0.51100000000E-03 0. -1.
         22    1    1    0    0    0  0.26449214440E+02  0.14259764588E+01  0.12112704144E+02  0.29125795355E+02  0.00000000000E+00 0. -1.
</event>
<event>
 5    1  0.1282524E-003  0.9118800E+02  0.7818608E-02  0.1130116E+00
         25   -1    0    0    0    0  0.00000000000E+00  0.00000000000E+00  0.99999998245E-14  0.12500000000E+03  0.12500000000E+03 0.  0.
        -11    1    3    3    0    0  0.44836359056E+02  0.11043072990E+02  0.93696938882E+01  0.47117297442E+02  0.51100000000E-03 0.  1.
         23    2    1    0    0    0 -0.20777975317E+01  0.19805301446E+02  0.20812174501E+02  0.96195246652E+02  0.91781325241E+02 0.  0.
         11    1    3    3    0    0 -0.46914156587E+02  0.87622284567E+01  0.11442480613E+02  0.49077949210E+02  0.51100000000E-03 0. -1.
         22    1    1    0    0    0  0.20777975317E+01 -0.19805301446E+02 -0.20812174501E+02  0.28804753348E+02  0.00000000000E+00 0.  1.
</event>
<event>
 5    1  0.1282524E-003  0.9118800E+02  0.7818608E-02  0.1130116E+00
         25   -1    0    0    0    0  0.00000000000E+00  0.00000000000E+00  0.99999998245E-14  0.12500000000E+03  0.12500000000E+03 0.  0.
        -11    1    3    3    0    0  0.25149260189E+01 -0.18167937498E+02  0.40501334496E+02  0.44460734385E+02  0.51100000000E-03 0.  1.
         23    2    1    0    0    0 -0.24789276568E+02 -0.14305761610E+02 -0.32683773150E+01  0.96192963737E+02  0.91778216011E+02 0.  0.
         11    1    3    3    0    0 -0.27304202587E+02  0.38621758882E+01 -0.43769711811E+02  0.51732229352E+02  0.51100000000E-03 0. -1.
         22    1    1    0    0    0  0.24789276568E+02  0.14305761610E+02  0.32683773150E+01  0.28807036263E+02  0.00000000000E+00 0. -1.
</event>
<event>
 5    1  0.1282524E-003  0.9118800E+02  0.7818608E-02  0.1130116E+00
         25   -1    0    0    0    0  0.00000000000E+00  0.00000000000E+00  0.99999998245E-14  0.12500000000E+03  0.12500000000E+03 0.  0.
        -11    1    3    3    0    0  0.24964068518E+01 -0.46264754480E+01 -0.34926253847E+02  0.35319676248E+02  0.51100000000E-03 0.  1.
         23    2    1    0    0    0  0.14936726945E+02 -0.77373094737E+01  0.24037130698E+02  0.95661366393E+02  0.91051312996E+02 0.  0.
         11    1    3    3    0    0  0.12440320093E+02 -0.31108340257E+01  0.58963384545E+02  0.60341690145E+02  0.51100000000E-03 0. -1.
         22    1    1    0    0    0 -0.14936726945E+02  0.77373094737E+01 -0.24037130698E+02  0.29338633607E+02  0.00000000000E+00 0. -1.
</event>
<event>
 5    1  0.1282524E-003  0.9118800E+02  0.7818608E-02  0.1130116E+00
         25   -1    0    0    0    0  0.00000000000E+00  0.00000000000E+00  0.99999998245E-14  0.12500000000E+03  0.12500000000E+03 0.  0.
        -11    1    3    3    0    0  0.18883210609E+02  0.20751986549E+02  0.42129483583E+02  0.50617328810E+02  0.51100000000E-03 0. -1.
         23    2    1    0    0    0 -0.13464370761E+02  0.37601319285E+00  0.32170655128E+02  0.90123335634E+02  0.83101347212E+02 0.  0.
         11    1    3    3    0    0 -0.32347581370E+02 -0.20375973356E+02 -0.99588284547E+01  0.39506006824E+02  0.51100000000E-03 0.  1.
         22    1    1    0    0    0  0.13464370761E+02 -0.37601319285E+00 -0.32170655128E+02  0.34876664366E+02  0.00000000000E+00 0. -1.
</event>
<event>
 5    1  0.1282524E-003  0.9118800E+02  0.7818608E-02  0.1130116E+00
         25   -1    0    0    0    0  0.00000000000E+00  0.00000000000E+00  0.99999998245E-14  0.12500000000E+03  0.12500000000E+03 0.  0.
        -11    1    3    3    0    0 -0.30820184080E+02 -0.37486101923E+00  0.19931286549E+02  0.36705319114E+02  0.51100000000E-03 0.  1.
         23    2    1    0    0    0  0.25217060595E+02 -0.11982157020E+02  0.71652316578E+00  0.97071777047E+02  0.92967436566E+02 0.  0.
         11    1    3    3    0    0  0.56037244674E+02 -0.11607296001E+02 -0.19214763384E+02  0.60366457932E+02  0.51100000000E-03 0. -1.
         22    1    1    0    0    0 -0.25217060595E+02  0.11982157020E+02 -0.71652316578E+00  0.27928222953E+02  0.00000000000E+00 0. -1.
</event>
<event>
 5    1  0.1282524E-003  0.9118800E+02  0.7818608E-02  0.1130116E+00
         25   -1    0    0    0    0  0.00000000000E+00  0.00000000000E+00  0.99999998245E-14  0.12500000000E+03  0.12500000000E+03 0.  0.
        -11    1    3    3    0    0 -0.36680233753E+01 -0.38576382180E+02 -0.13669263061E+02  0.41090636530E+02  0.51100000000E-03 0. -1.
         23    2    1    0    0    0  0.18416293242E+02  0.10508901852E+02 -0.20694005205E+02  0.95371656707E+02  0.90652711910E+02 0.  0.
         11    1    3    3    0    0  0.22084316617E+02  0.49085284032E+02 -0.70247421437E+01  0.54281020176E+02  0.51100000000E-03 0.  1.
         22    1    1    0    0    0 -0.18416293242E+02 -0.10508901852E+02  0.20694005205E+02  0.29628343293E+02  0.00000000000E+00 0.  1.
</event>
<event>
 5    1  0.1282524E-003  0.9118800E+02  0.7818608E-02  0.1130116E+00
         25   -1    0    0    0    0  0.00000000000E+00  0.00000000000E+00  0.99999998245E-14  0.12500000000E+03  0.12500000000E+03 0.  0.
        -11    1    3    3    0    0 -0.37640555143E+02 -0.73262732409E+01  0.28695000002E+02  0.47894558109E+02  0.51100000000E-03 0. -1.
         23    2    1    0    0    0 -0.13995340270E+02  0.25811033751E+02  0.43742499541E+01  0.95314766715E+02  0.90574232973E+02 0.  0.
         11    1    3    3    0    0  0.23645214873E+02  0.33137306991E+02 -0.24320750048E+02  0.47420208606E+02  0.51100000000E-03 0.  1.
         22    1    1    0    0    0  0.13995340270E+02 -0.25811033751E+02 -0.43742499541E+01  0.29685233285E+02  0.00000000000E+00 0.  1.
</event>
<event>
 5    1  0.1282524E-003  0.9118800E+02  0.7818608E-02  0.1130116E+00
         25   -1    0    0    0    0  0.00000000000E+00  0.00000000000E+00  0.99999998245E-14  0.12500000000E+03  0.12500000000E+03 0.  0.
        -11    1    3    3    0    0  0.42202200324E+02 -0.15864398374E+02  0.37782965305E+02  0.58823951886E+02  0.51100000000E-03 0. -1.
         23    2    1    0    0    0  0.90052403185E+01 -0.11709537892E+02  0.27430318886E+02  0.93845064195E+02  0.88522686633E+02 0.  0.
         11    1    3    3    0    0 -0.33196960005E+02  0.41548604820E+01 -0.10352646419E+02  0.35021112309E+02  0.51100000000E-03 0.  1.
         22    1    1    0    0    0 -0.90052403185E+01  0.11709537892E+02 -0.27430318886E+02  0.31154935805E+02  0.00000000000E+00 0. -1.
</event>
<event>
 5    1  0.1282524E-003  0.9118800E+02  0.7818608E-02  0.1130116E+00
         25   -1    0    0    0    0  0.00000000000E+00  0.00000000000E+00  0.99999998245E-14  0.12500000000E+03  0.12500000000E+03 0.  0.
        -11    1    3    3    0    0  0.97219104535E+01 -0.51760798587E+02  0.15549671618E+02  0.54913460107E+02  0.51100000000E-03 0.  1.
         23    2    1    0    0    0  0.73513533696E+01 -0.22963006068E+02 -0.14712057095E+02  0.96754882404E+02  0.92540372816E+02 0.  0.
         11    1    3    3    0    0 -0.23705570839E+01  0.28797792519E+02 -0.30261728713E+02  0.41841422297E+02  0.51100000000E-03 0. -1.
         22    1    1    0    0    0 -0.73513533696E+01  0.22963006068E+02  0.14712057095E+02  0.28245117596E+02  0.00000000000E+00 0.  1.
</event>
<event>
 5    1  0.1282524E-003  0.9118800E+02  0.7818608E-02  0.1130116E+00
         25   -1    0    0    0    0  0.00000000000E+00  0.00000000000E+00  0.99999998245E-14  0.12500000000E+03  0.12500000000E+03 0.  0.
        -11    1    3    3    0    0 -0.37328462988E+02 -0.39081360089E+02  0.14286996282E+02  0.55900671896E+02  0.51100000000E-03 0.  1.
         23    2    1    0    0    0 -0.30232657976E+02 -0.25446448129E+01  0.77021021549E+01  0.93698063908E+02  0.88314868380E+02 0.  0.
         11    1    3    3    0    0  0.70958050122E+01  0.36536715276E+02 -0.65848941268E+01  0.37797392012E+02  0.51100000000E-03 0. -1.
         22    1    1    0    0    0  0.30232657976E+02  0.25446448129E+01 -0.77021021549E+01  0.31301936092E+02  0.00000000000E+00 0.  1.
</event>
<event>
 5    1  0.1282524E-003  0.9118800E+02  0.7818608E-02  0.1130116E+00
         25   -1    0    0    0    0  0.00000000000E+00  0.00000000000E+00  0.99999998245E-14  0.12500000000E+03  0.12500000000E+03 0.  0.
        -11    1    3    3    0    0  0.21736577982E+02  0.21445295466E+02 -0.51431414934E+02  0.59812790960E+02  0.51100000000E-03 0.  1.
         23    2    1    0    0    0  0.21471764919E+02  0.59388434659E+01 -0.19164803733E+02  0.95612991772E+02  0.90984877552E+02 0.  0.
         11    1    3    3    0    0 -0.26481306335E+00 -0.15506452000E+02  0.32266611201E+02  0.35800200813E+02  0.51100000000E-03 0. -1.
         22    1    1    0    0    0 -0.21471764919E+02 -0.59388434659E+01  0.19164803733E+02  0.29387008228E+02  0.00000000000E+00 0.  1.
</event>
<event>
 5    1  0.1282524E-003  0.9118800E+02  0.7818608E-02  0.1130116E+00
         25   -1    0    0    0    0  0.00000000000E+00  0.00000000000E+00  0.99999998245E-14  0.12500000000E+03  0.12500000000E+03 0.  0.
        -11    1    3    3    0    0  0.29866424607E+02  0.18516832796E+02  0.67440765379E+01  0.35782104245E+02  0.51100000000E-03 0. -1.
         23    2    1    0    0    0 -0.20062204748E+02  0.85064479245E+01 -0.21814734724E+02  0.94166019286E+02  0.88974742604E+02 0.  0.
         11    1    3    3    0    0 -0.49928629355E+02 -0.10010384871E+02 -0.28558811262E+02  0.58383915040E+02  0.51100000000E-03 0.  1.
         22    1    1    0    0    0  0.20062204748E+02 -0.85064479245E+01  0.21814734724E+02  0.30833980714E+02  0.00000000000E+00 0.  1.
</event>
<event>
 5    1  0.1282524E-003  0.9118800E+02  0.7818608E-02  0.1130116E+00
         25   -1    0    0    0    0  0.00000000000E+00  0.00000000000E+00  0.99999998245E-14  0.12500000000E+03  0.12500000000E+03 0.  0.
        -11    1    3    3    0    0  0.43566368394E+01 -0.92169152853E+01 -0.32828145523E+02  0.34374684736E+02  0.51100000000E-03 0.  1.
         23    2    1    0    0    0 -0.13225030684E+02  0.22117757737E+02  0.15751044830E+02  0.94797482602E+02  0.89857501916E+02 0.  0.
         11    1    3    3    0    0 -0.17581667524E+02  0.31334673022E+02  0.48579190354E+02  0.60422797866E+02  0.51100000000E-03 0. -1.
         22    1    1    0    0    0  0.13225030684E+02 -0.22117757737E+02 -0.15751044830E+02  0.30202517398E+02  0.00000000000E+00 0. -1.
</event>
<event>
 5    1  0.1282524E-003  0.9118800E+02  0.7818608E-02  0.1130116E+00
         25   -1    0    0    0    0  0.00000000000E+00  0.00000000000E+00  0.99999998245E-14  0.12500000000E+03  0.12500000000E+03 0.  0.
        -11    1    3    3    0    0  0.11521417203E+02  0.41538256177E+02 -0.29384254105E+02  0.52168996254E+02  0.51100000000E-03 0.  1.
         23    2    1    0    0    0  0.14456730759E+02  0.23052220965E+02  0.10188174836E+02  0.95944865133E+02  0.91439686588E+02 0.  0.
         11    1    3    3    0    0  0.29353135560E+01 -0.18486035213E+02  0.39572428941E+02  0.43775868879E+02  0.51100000000E-03 0. -1.
         22    1    1    0    0    0 -0.14456730759E+02 -0.23052220965E+02 -0.10188174836E+02  0.29055134867E+02  0.00000000000E+00 0.  1.
</event>
<event>
 5    1  0.1282524E-003  0.9118800E+02  0.7818608E-02  0.1130116E+00
         25   -1    0    0    0    0  0.00000000000E+00  0.00000000000E+00  0.99999998245E-14  0.12500000000E+03  0.12500000000E+03 0.  0.
        -11    1    3    3    0    0 -0.67997659841E+01 -0.17048371696E+02 -0.29543000872E+02  0.34780349275E+02  0.51100000000E-03 0.  1.
         23    2    1    0    0    0  0.16306060693E+02  0.22233604958E+02  0.10548826029E+02  0.95478845968E+02  0.90800393678E+02 0.  0.
         11    1    3    3    0    0  0.23105826677E+02  0.39281976654E+02  0.40091826901E+02  0.60698496693E+02  0.51100000000E-03 0. -1.
         22    1    1    0    0    0 -0.16306060693E+02 -0.22233604958E+02 -0.10548826029E+02  0.29521154032E+02  0.00000000000E+00 0. -1.
</event>
<event>
 5    1  0.1282524E-003  0.9118800E+02  0.7818608E-02  0.1130116E+00
         25   -1    0    0    0    0  0.00000000000E+00  0.00000000000E+00  0.99999998245E-14  0.12500000000E+03  0.12500000000E+03 0.  0.
        -11    1    3    3    0    0  0.27250889682E+02 -0.34250310427E+01 -0.21417287808E+02  0.34828753113E+02  0.51100000000E-03 0.  1.
         23    2    1    0    0    0 -0.24281646116E+02  0.16440026987E+02 -0.18896719750E+02  0.90115062810E+02  0.83088902403E+02 0.  0.
         11    1    3    3    0    0 -0.51532535798E+02  0.19865058030E+02  0.25205680587E+01  0.55286309697E+02  0.51100000000E-03 0. -1.
         22    1    1    0    0    0  0.24281646116E+02 -0.16440026987E+02  0.18896719750E+02  0.34884937190E+02  0.00000000000E+00 0. -1.
</event>
<event>
 5    1  0.1282524E-003  0.9118800E+02  0.7818608E-02  0.1130116E+00
         25   -1    0    0    0    0  0.00000000000E+00  0.00000000000E+00  0.99999998245E-14  0.12500000000E+03  0.12500000000E+03 0.  0.
        -11    1    3    3    0    0 -0.25193692981E+02 -0.23847477498E+01 -0.55701765658E+02  0.61180845740E+02  0.51100000000E-03 0.  1.
         23    2    1    0    0    0 -0.32154602580E+01  0.48109941873E+00 -0.28709328058E+02  0.96107160769E+02  0.91661279678E+02 0.  0.
         11    1    3    3    0    0  0.21978232723E+02  0.28658471686E+01  0.26992437600E+02  0.34926315029E+02  0.51100000000E-03 0. -1.
         22    1    1    0    0    0  0.32154602580E+01 -0.48109941873E+00  0.28709328058E+02  0.28892839231E+02  0.00000000000E+00 0.  1.
</event>
<event>
 5    1  0.1282524E-003  0.9118800E+02  0.7818608E-02  0.1130116E+00
         25   -1    0    0    0    0  0.00000000000E+00  0.00000000000E+00  0.99999998245E-14  0.12500000000E+03  0.12500000000E+03 0.  0.
        -11    1    3    3    0    0  0.66665730620E-01  0.46193855892E+02  0.19098148355E+02  0.49986158458E+02  0.51100000000E-03 0.  1.
         23    2    1    0    0    0  0.22750912228E+02  0.76936818128E+01  0.18513491348E+02  0.94675981320E+02  0.89688323264E+02 0.  0.
         11    1    3    3    0    0  0.22684246498E+02 -0.38500174080E+02 -0.58465700732E+00  0.44689822862E+02  0.51100000000E-03 0. -1.
         22    1    1    0    0    0 -0.22750912228E+02 -0.76936818128E+01 -0.18513491348E+02  0.30324018680E+02  0.00000000000E+00 0.  1.
</event>
<event>
 5    1  0.1282524E-003  0.9118800E+02  0.7818608E-02  0.1130116E+00
         25   -1    0    0    0    0  0.00000000000E+00  0.00000000000E+00  0.99999998245E-14  0.12500000000E+03  0.12500000000E+03 0.  0.
        -11    1    3    3    0    0  0.68103229310E+01 -0.46544058554E+02  0.24630636404E+02  0.53098005001E+02  0.51100000000E-03 0.  1.
         23    2    1    0    0    0 -0.16837595689E+02 -0.11240146200E+02  0.21134401818E+02  0.95733834290E+02  0.91150746417E+02 0.  0.
         11    1    3    3    0    0 -0.23647918620E+02  0.35303912354E+02 -0.34962345863E+01  0.42635829289E+02  0.51100000000E-03 0. -1.
         22    1    1    0    0    0  0.16837595689E+02  0.11240146200E+02 -0.21134401818E+02  0.29266165710E+02  0.00000000000E+00 0.  1.
</event>
<event>
 5    1  0.1282524E-003  0.9118800E+02  0.7818608E-02  0.1130116E+00
         25   -1    0    0    0    0  0.00000000000E+00  0.00000000000E+00  0.99999998245E-14  0.12500000000E+03  0.12500000000E+03 0.  0.
        -11    1    3    3    0    0 -0.18627173050E+02 -0.30914084159E+02  0.59377199170E+00  0.36097156961E+02  0.51100000000E-03 0.  1.
         23    2    1    0    0    0  0.12038581315E+02  0.18025492626E+02  0.18436268310E+02  0.96544037291E+02  0.92255131689E+02 0.  0.
         11    1    3    3    0    0  0.30665754365E+02  0.48939576785E+02  0.17842496318E+02  0.60446880331E+02  0.51100000000E-03 0. -1.
         22    1    1    0    0    0 -0.12038581315E+02 -0.18025492626E+02 -0.18436268310E+02  0.28455962709E+02  0.00000000000E+00 0. -1.
</event>
<event>
 5    1  0.1282524E-003  0.9118800E+02  0.7818608E-02  0.1130116E+00
         25   -1    0    0    0    0  0.00000000000E+00  0.00000000000E+00  0.99999998245E-14  0.12500000000E+03  0.12500000000E+03 0.  0.
        -11    1    3    3    0    0  0.37951211461E+02  0.29137529191E+02 -0.31440175043E+02  0.57251852945E+02  0.51100000000E-03 0.  1.
         23    2    1    0    0    0  0.16730775145E+02  0.24677248914E+02 -0.31692173640E+00  0.95184133581E+02  0.90393768564E+02 0.  0.
         11    1    3    3    0    0 -0.21220436315E+02 -0.44602802770E+01  0.31123253307E+02  0.37932280636E+02  0.51100000000E-03 0. -1.
         22    1    1    0    0    0 -0.16730775145E+02 -0.24677248914E+02  0.31692173640E+00  0.29815866419E+02  0.00000000000E+00 0.  1.
</event>
<event>
 5    1  0.1282524E-003  0.9118800E+02  0.7818608E-02  0.1130116E+00
         25   -1    0    0    0    0  0.00000000000E+00  0.00000000000E+00  0.99999998245E-14  0.12500000000E+03  0.12500000000E+03 0.  0.
        -11    1    3    3    0    0 -0.19017961510E+02 -0.14045019142E+02 -0.31035210273E+02  0.39014480641E+02  0.51100000000E-03 0.  1.
         23    2    1    0    0    0  0.79070051778E+01  0.28306075707E+02 -0.63947057847E+01  0.94922651133E+02  0.90031454410E+02 0.  0.
         11    1    3    3    0    0  0.26924966688E+02  0.42351094849E+02  0.24640504488E+02  0.55908170492E+02  0.51100000000E-03 0. -1.
         22    1    1    0    0    0 -0.79070051778E+01 -0.28306075707E+02  0.63947057847E+01  0.30077348867E+02  0.00000000000E+00 0. -1.
</event>
<event>
 5    1  0.1282524E-003  0.9118800E+02  0.7818608E-02  0.1130116E+00
         25   -1    0    0    0    0  0.00000000000E+00  0.00000000000E+00  0.99999998245E-14  0.12500000000E+03  0.12500000000E+03 0.  0.
        -11    1    3    3    0    0 -0.67720382807E+01  0.25923572414E+02 -0.32727436085E+02  0.42296302228E+02  0.51100000000E-03 0. -1.
         23    2    1    0    0    0 -0.25411672090E+01 -0.24700776531E+02 -0.14359743540E+02  0.96315716384E+02  0.91945250536E+02 0.  0.
         11    1    3    3    0    0  0.42308710716E+01 -0.50624348945E+02  0.18367692545E+02  0.54019414157E+02  0.51100000000E-03 0.  1.
         22    1    1    0    0    0  0.25411672090E+01  0.24700776531E+02  0.14359743540E+02  0.28684283616E+02  0.00000000000E+00 0.  1.
</event>
<event>
 5    1  0.1282524E-003  0.9118800E+02  0.7818608E-02  0.1130116E+00
         25   -1    0    0    0    0  0.00000000000E+00  0.00000000000E+00  0.99999998245E-14  0.12500000000E+03  0.12500000000E+03 0.  0.
        -11    1    3    3    0    0 -0.35293247799E+02  0.12556951222E+01 -0.34529947449E+02  0.49391369504E+02  0.51100000000E-03 0.  1.
         23    2    1    0    0    0 -0.13678841398E+02  0.25128388577E+02 -0.30115266218E+00  0.96388161412E+02  0.92043687198E+02 0.  0.
         11    1    3    3    0    0  0.21614406401E+02  0.23872693455E+02  0.34228794786E+02  0.46996791908E+02  0.51100000000E-03 0. -1.
         22    1    1    0    0    0  0.13678841398E+02 -0.25128388577E+02  0.30115266218E+00  0.28611838588E+02  0.00000000000E+00 0. -1.
</event>
<event>
 5    1  0.1282524E-003  0.9118800E+02  0.7818608E-02  0.1130116E+00
         25   -1    0    0    0    0  0.00000000000E+00  0.00000000000E+00  0.99999998245E-14  0.12500000000E+03  0.12500000000E+03 0.  0.
        -11    1    3    3    0    0 -0.22757187630E+02  0.44987666521E+01 -0.30441984762E+02  0.38273266476E+02  0.51100000000E-03 0.  1.
         23    2    1    0    0    0  0.69389589611E+01  0.23862490748E+02  0.15049583467E+02  0.95947330954E+02  0.91443057356E+02 0.  0.
         11    1    3    3    0    0  0.29696146591E+02  0.19363724096E+02  0.45491568230E+02  0.57674064478E+02  0.51100000000E-03 0. -1.
         22    1    1    0    0    0 -0.69389589611E+01 -0.23862490748E+02 -0.15049583467E+02  0.29052669046E+02  0.00000000000E+00 0. -1.
</event>
<event>
 5    1  0.1282524E-003  0.9118800E+02  0.7818608E-02  0.1130116E+00
         25   -1    0    0    0    0  0.00000000000E+00  0.00000000000E+00  0.99999998245E-14  0.12500000000E+03  0.12500000000E+03 0.  0.
        -11    1    3    3    0    0  0.42370120802E+02 -0.85325858718E+01  0.36538229193E+02  0.56595709654E+02  0.51100000000E-03 0.  1.
         23    2    1    0    0    0  0.23548627258E+02  0.10333875023E+02  0.34933193523E+01  0.99047541565E+02  0.95587056610E+02 0.  0.
         11    1    3    3    0    0 -0.18821493544E+02  0.18866460895E+02 -0.33044909841E+02  0.42451831911E+02  0.51100000000E-03 0. -1.
         22    1    1    0    0    0 -0.23548627258E+02 -0.10333875023E+02 -0.34933193523E+01  0.25952458435E+02  0.00000000000E+00 0.  1.
</event>
<event>
 5    1  0.1282524E-003  0.9118800E+02  0.7818608E-02  0.1130116E+00
         25   -1    0    0    0    0  0.00000000000E+00  0.00000000000E+00  0.99999998245E-14  0.12500000000E+03  0.12500000000E+03 0.  0.
        -11    1    3    3    0    0 -0.49624456832E+01 -0.21342981628E+02  0.40253370887E+02  0.45831022244E+02  0.51100000000E-03 0.  1.
         23    2    1    0    0    0 -0.19872291666E+02 -0.20944970817E+02 -0.69233804535E+01  0.95309378998E+02  0.90566797170E+02 0.  0.
         11    1    3    3    0    0 -0.14909845982E+02  0.39801081088E+00 -0.47176751340E+02  0.49478356754E+02  0.51100000000E-03 0. -1.
         22    1    1    0    0    0  0.19872291666E+02  0.20944970817E+02  0.69233804535E+01  0.29690621002E+02  0.00000000000E+00 0. -1.
</event>
<event>
 5    1  0.1282524E-003  0.9118800E+02  0.7818608E-02  0.1130116E+00
         25   -1    0    0    0    0  0.00000000000E+00  0.00000000000E+00  0.99999998245E-14  0.12500000000E+03  0.12500000000E+03 0.  0.
        -11    1    3    3    0    0  0.23984055985E+02 -0.44277770892E+02  0.36372995074E+02  0.62118843417E+02  0.51100000000E-03 0. -1.
         23    2    1    0    0    0  0.71507691000E+01 -0.20161861288E+02  0.19659870836E+02  0.95945832130E+02  0.91441008484E+02 0.  0.
         11    1    3    3    0    0 -0.16833286885E+02  0.24115909604E+02 -0.16713124238E+02  0.33826988713E+02  0.51100000000E-03 0.  1.
         22    1    1    0    0    0 -0.71507691000E+01  0.20161861288E+02 -0.19659870836E+02  0.29054167870E+02  0.00000000000E+00 0. -1.
</event>
<event>
 5    1  0.1282524E-003  0.9118800E+02  0.7818608E-02  0.1130116E+00
         25   -1    0    0    0    0  0.00000000000E+00  0.00000000000E+00  0.99999998245E-14  0.12500000000E+03  0.12500000000E+03 0.  0.
        -11    1    3    3    0    0 -0.41190992588E+02  0.15010274550E+02 -0.35601645664E+02  0.56475511390E+02  0.51100000000E-03 0.  1.
         23    2    1    0    0    0 -0.58644085651E+01 -0.12110089069E+01 -0.28356957828E+02  0.96017679740E+02  0.91539171588E+02 0.  0.
         11    1    3    3    0    0  0.35326584023E+02 -0.16221283457E+02  0.72446878365E+01  0.39542168350E+02  0.51100000000E-03 0. -1.
         22    1    1    0    0    0  0.58644085651E+01  0.12110089069E+01  0.28356957828E+02  0.28982320260E+02  0.00000000000E+00 0. -1.
</event>
<event>
 4    1  0.1282524E-003  0.9118800E+02  0.7818608E-02  0.1130116E+00
         25   -1    0    0    0    0  0.00000000000E+00  0.00000000000E+00  0.99999998245E-14  0.12500000000E+03  0.12500000000E+03 0.  0.
        -11    1    1    0    0    0 -0.14317571380E+02  0.44534244546E+01 -0.13283435411E+01  0.15052917870E+02  0.51100000000E-03 0.  1.
         11    1    1    0    0    0 -0.38520341011E+02  0.12766176326E+02 -0.25818812586E+02  0.48097848322E+02  0.51100000000E-03 0. -1.
         22    1    1    0    0    0  0.52837912390E+02 -0.17219600781E+02  0.27147156127E+02  0.61849233808E+02  0.00000000000E+00 0. -1.
</event>
<event>
 5    1  0.1282524E-003  0.9118800E+02  0.7818608E-02  0.1130116E+00
         25   -1    0    0    0    0  0.00000000000E+00  0.00000000000E+00  0.99999998245E-14  0.12500000000E+03  0.12500000000E+03 0.  0.
        -11    1    3    3    0    0 -0.21409071849E+02  0.43405809448E+02  0.64197046890E+01  0.48822384823E+02  0.51100000000E-03 0.  1.
         23    2    1    0    0    0 -0.21141695137E+02  0.29770387201E+01 -0.18866449076E+02  0.96508300620E+02  0.92206697994E+02 0.  0.
         11    1    3    3    0    0  0.26737671226E+00 -0.40428770728E+02 -0.25286153765E+02  0.47685915797E+02  0.51100000000E-03 0. -1.
         22    1    1    0    0    0  0.21141695137E+02 -0.29770387201E+01  0.18866449076E+02  0.28491699380E+02  0.00000000000E+00 0.  1.
</event>
<event>
 5    1  0.1282524E-003  0.9118800E+02  0.7818608E-02  0.1130116E+00
         25   -1    0    0    0    0  0.00000000000E+00  0.00000000000E+00  0.99999998245E-14  0.12500000000E+03  0.12500000000E+03 0.  0.
        -11    1    3    3    0    0 -0.28347479754E+02 -0.43590379536E+02 -0.58613342599E+01  0.52326437258E+02  0.51100000000E-03 0.  1.
         23    2    1    0    0    0 -0.11360740678E+01 -0.19925212572E+02  0.20032818901E+02  0.96722471935E+02  0.92496583633E+02 0.  0.
         11    1    3    3    0    0  0.27211405687E+02  0.23665166964E+02  0.25894153161E+02  0.44396034677E+02  0.51100000000E-03 0. -1.
         22    1    1    0    0    0  0.11360740678E+01  0.19925212572E+02 -0.20032818901E+02  0.28277528065E+02  0.00000000000E+00 0.  1.
</event>
<event>
 5    1  0.1282524E-003  0.9118800E+02  0.7818608E-02  0.1130116E+00
         25   -1    0    0    0    0  0.00000000000E+00  0.00000000000E+00  0.99999998245E-14  0.12500000000E+03  0.12500000000E+03 0.  0.
        -11    1    3    3    0    0  0.34253317382E+02  0.13516470908E+02 -0.83314821575E+01  0.37754447853E+02  0.51100000000E-03 0.  1.
         23    2    1    0    0    0 -0.22198234217E+02  0.14568575991E+02  0.92390424361E+01  0.96886570577E+02  0.92718081539E+02 0.  0.
         11    1    3    3    0    0 -0.56451551600E+02  0.10521050830E+01  0.17570524594E+02  0.59132122724E+02  0.51100000000E-03 0. -1.
         22    1    1    0    0    0  0.22198234217E+02 -0.14568575991E+02 -0.92390424361E+01  0.28113429423E+02  0.00000000000E+00 0. -1.
</event>
<event>
 5    1  0.1282524E-003  0.9118800E+02  0.7818608E-02  0.1130116E+00
         25   -1    0    0    0    0  0.00000000000E+00  0.00000000000E+00  0.99999998245E-14  0.12500000000E+03  0.12500000000E+03 0.  0.
        -11    1    3    3    0    0 -0.23689244176E+02 -0.44088155847E+02  0.37292736605E+02  0.62415494706E+02  0.51100000000E-03 0. -1.
         23    2    1    0    0    0 -0.11312464484E+02 -0.21450828768E+02  0.15223365613E+02  0.96366789071E+02  0.92014657896E+02 0.  0.
         11    1    3    3    0    0  0.12376779692E+02  0.22637327079E+02 -0.22069370992E+02  0.33951294365E+02  0.51100000000E-03 0.  1.
         22    1    1    0    0    0  0.11312464484E+02  0.21450828768E+02 -0.15223365613E+02  0.28633210929E+02  0.00000000000E+00 0. -1.
</event>
<event>
 5    1  0.1282524E-003  0.9118800E+02  0.7818608E-02  0.1130116E+00
         25   -1    0    0    0    0  0.00000000000E+00  0.00000000000E+00  0.99999998245E-14  0.12500000000E+03  0.12500000000E+03 0.  0.
        -11    1    3    3    0    0  0.24985518317E+02 -0.18445025504E+02  0.19682180030E+02  0.36767965709E+02  0.51100000000E-03 0.  1.
         23    2    1    0    0    0 -0.24653256834E+02  0.11340135268E+02  0.12574154617E+02  0.95091955852E+02  0.90266211636E+02 0.  0.
         11    1    3    3    0    0 -0.49638775151E+02  0.29785160772E+02 -0.71080254125E+01  0.58323990143E+02  0.51100000000E-03 0. -1.
         22    1    1    0    0    0  0.24653256834E+02 -0.11340135268E+02 -0.12574154617E+02  0.29908044148E+02  0.00000000000E+00 0. -1.
</event>
<event>
 5    1  0.1282524E-003  0.9118800E+02  0.7818608E-02  0.1130116E+00
         25   -1    0    0    0    0  0.00000000000E+00  0.00000000000E+00  0.99999998245E-14  0.12500000000E+03  0.12500000000E+03 0.  0.
        -11    1    3    3    0    0 -0.90188463246E+01 -0.25879097252E+02 -0.43550274732E+02  0.51455744996E+02  0.51100000000E-03 0.  1.
         23    2    1    0    0    0 -0.42773633673E+01  0.15556197424E+02 -0.19833130733E+02  0.99433533870E+02  0.96090496239E+02 0.  0.
         11    1    3    3    0    0  0.47414829573E+01  0.41435294677E+02  0.23717143998E+02  0.47977788874E+02  0.51100000000E-03 0. -1.
         22    1    1    0    0    0  0.42773633673E+01 -0.15556197424E+02  0.19833130733E+02  0.25566466130E+02  0.00000000000E+00 0.  1.
</event>
<event>
 5    1  0.1282524E-003  0.9118800E+02  0.7818608E-02  0.1130116E+00
         25   -1    0    0    0    0  0.00000000000E+00  0.00000000000E+00  0.99999998245E-14  0.12500000000E+03  0.12500000000E+03 0.  0.
        -11    1    3    3    0    0  0.37748158263E+02 -0.30616745275E+02  0.37731883606E+02  0.61530509377E+02  0.51100000000E-03 0.  1.
         23    2    1    0    0    0  0.22887413265E+02 -0.15340511762E+02  0.11986018253E+02  0.94952876666E+02  0.90073409875E+02 0.  0.
         11    1    3    3    0    0 -0.14860744998E+02  0.15276233512E+02 -0.25745865353E+02  0.33422367289E+02  0.51100000000E-03 0. -1.
         22    1    1    0    0    0 -0.22887413265E+02  0.15340511762E+02 -0.11986018253E+02  0.30047123334E+02  0.00000000000E+00 0.  1.
</event>
<event>
 5    1  0.1282524E-003  0.9118800E+02  0.7818608E-02  0.1130116E+00
         25   -1    0    0    0    0  0.00000000000E+00  0.00000000000E+00  0.99999998245E-14  0.12500000000E+03  0.12500000000E+03 0.  0.
        -11    1    3    3    0    0 -0.14450401023E+01  0.83966149348E+01 -0.52272583342E+02  0.52962385263E+02  0.51100000000E-03 0. -1.
         23    2    1    0    0    0 -0.17177998220E+02  0.18692738454E+02 -0.13058295146E+02  0.96451424451E+02  0.92129561558E+02 0.  0.
         11    1    3    3    0    0 -0.15732958117E+02  0.10296123519E+02  0.39214288195E+02  0.43489039189E+02  0.51100000000E-03 0.  1.
         22    1    1    0    0    0  0.17177998220E+02 -0.18692738454E+02  0.13058295146E+02  0.28548575549E+02  0.00000000000E+00 0. -1.
</event>
<event>
 5    1  0.1282524E-003  0.9118800E+02  0.7818608E-02  0.1130116E+00
         25   -1    0    0    0    0  0.00000000000E+00  0.00000000000E+00  0.99999998245E-14  0.12500000000E+03  0.12500000000E+03 0.  0.
        -11    1    3    3    0    0 -0.28903069367E+01 -0.31591621070E+02 -0.44264371981E+02  0.54458415541E+02  0.51100000000E-03 0. -1.
         23    2    1    0    0    0 -0.78254638881E+01  0.59606698561E+01 -0.27342273426E+02  0.95941999616E+02  0.91435769281E+02 0.  0.
         11    1    3    3    0    0 -0.49351569514E+01  0.37552290926E+02  0.16922098555E+02  0.41483584075E+02  0.51100000000E-03 0.  1.
         22    1    1    0    0    0  0.78254638881E+01 -0.59606698561E+01  0.27342273426E+02  0.29058000384E+02  0.00000000000E+00 0. -1.
</event>
<event>
 5    1  0.1282524E-003  0.9118800E+02  0.7818608E-02  0.1130116E+00
         25   -1    0    0    0    0  0.00000000000E+00  0.00000000000E+00  0.99999998245E-14  0.12500000000E+03  0.12500000000E+03 0.  0.
        -11    1    3    3    0    0  0.41216449474E+02 -0.30131138581E+02 -0.31426165401E+02  0.59952356847E+02  0.51100000000E-03 0. -1.
         23    2    1    0    0    0  0.27583409324E+02 -0.69564028967E+01 -0.84363619047E+01  0.95328326414E+02  0.90592944557E+02 0.  0.
         11    1    3    3    0    0 -0.13633040150E+02  0.23174735684E+02  0.22989803496E+02  0.35375969567E+02  0.51100000000E-03 0.  1.
         22    1    1    0    0    0 -0.27583409324E+02  0.69564028967E+01  0.84363619047E+01  0.29671673586E+02  0.00000000000E+00 0. -1.
</event>
<event>
 5    1  0.1282524E-003  0.9118800E+02  0.7818608E-02  0.1130116E+00
         25   -1    0    0    0    0  0.00000000000E+00  0.00000000000E+00  0.99999998245E-14  0.12500000000E+03  0.12500000000E+03 0.  0.
        -11    1    3    3    0    0 -0.21967728186E+02  0.19139423510E+02  0.35202761855E+02  0.45696094543E+02  0.51100000000E-03 0.  1.
         23    2    1    0    0    0 -0.15885786469E+02 -0.22897597430E+02  0.19527046323E+02  0.90971134049E+02  0.84366957467E+02 0.  0.
         11    1    3    3    0    0  0.60819417169E+01 -0.42037020940E+02 -0.15675715533E+02  0.45275039506E+02  0.51100000000E-03 0. -1.
         22    1    1    0    0    0  0.15885786469E+02  0.22897597430E+02 -0.19527046323E+02  0.34028865951E+02  0.00000000000E+00 0.  1.
</event>
<event>
 5    1  0.1282524E-003  0.9118800E+02  0.7818608E-02  0.1130116E+00
         25   -1    0    0    0    0  0.00000000000E+00  0.00000000000E+00  0.99999998245E-14  0.12500000000E+03  0.12500000000E+03 0.  0.
        -11    1    3    3    0    0  0.18414452115E+02  0.42029943168E+02 -0.31875730077E+02  0.55871910095E+02  0.51100000000E-03 0.  1.
         23    2    1    0    0    0  0.22395626715E+01  0.27899680253E+02  0.30205934728E+01  0.96848058964E+02  0.92666146682E+02 0.  0.
         11    1    3    3    0    0 -0.16174889444E+02 -0.14130262915E+02  0.34896323550E+02  0.40976148869E+02  0.51100000000E-03 0. -1.
         22    1    1    0    0    0 -0.22395626715E+01 -0.27899680253E+02 -0.30205934728E+01  0.28151941036E+02  0.00000000000E+00 0.  1.
</event>
<event>
 5    1  0.1282524E-003  0.9118800E+02  0.7818608E-02  0.1130116E+00
         25   -1    0    0    0    0  0.00000000000E+00  0.00000000000E+00  0.99999998245E-14  0.12500000000E+03  0.12500000000E+03 0.  0.
        -11    1    3    3    0    0 -0.32885227995E+02  0.11685850443E+02 -0.34851999202E+02  0.49321994784E+02  0.51100000000E-03 0. -1.
         23    2    1    0    0    0  0.19519030093E+01 -0.16622109160E+02 -0.24401000316E+02  0.95410926768E+02  0.90706844792E+02 0.  0.
         11    1    3    3    0    0  0.34837131004E+02 -0.28307959603E+02  0.10450998886E+02  0.46088931984E+02  0.51100000000E-03 0.  1.
         22    1    1    0    0    0 -0.19519030093E+01  0.16622109160E+02  0.24401000316E+02  0.29589073232E+02  0.00000000000E+00 0. -1.
</event>
<event>
 5    1  0.1282524E-003  0.9118800E+02  0.7818608E-02  0.1130116E+00
         25   -1    0    0    0    0  0.00000000000E+00  0.00000000000E+00  0.99999998245E-14  0.12500000000E+03  0.12500000000E+03 0.  0.
        -11    1    3    3    0    0 -0.32451965220E+02 -0.48757109635E+01 -0.54569445109E+01  0.33266813007E+02  0.51100000000E-03 0.  1.
         23    2    1    0    0    0  0.29478785744E+02 -0.24002235702E+01 -0.10079654009E+01  0.95406489286E+02  0.90700729444E+02 0.  0.
         11    1    3    3    0    0  0.61930750963E+02  0.24754873934E+01  0.44489791099E+01  0.62139676279E+02  0.51100000000E-03 0. -1.
         22    1    1    0    0    0 -0.29478785744E+02  0.24002235702E+01  0.10079654009E+01  0.29593510714E+02  0.00000000000E+00 0. -1.
</event>
<event>
 5    1  0.1282524E-003  0.9118800E+02  0.7818608E-02  0.1130116E+00
         25   -1    0    0    0    0  0.00000000000E+00  0.00000000000E+00  0.99999998245E-14  0.12500000000E+03  0.12500000000E+03 0.  0.
        -11    1    3    3    0    0  0.35333336431E+02  0.51229108957E+01  0.25789220000E+02  0.44042851269E+02  0.51100000000E-03 0.  1.
         23    2    1    0    0    0  0.11652732572E+02  0.18751337589E+02 -0.18576750316E+02  0.96147019390E+02  0.91715619430E+02 0.  0.
         11    1    3    3    0    0 -0.23680603859E+02  0.13628426694E+02 -0.44365970316E+02  0.52104168121E+02  0.51100000000E-03 0. -1.
         22    1    1    0    0    0 -0.11652732572E+02 -0.18751337589E+02  0.18576750316E+02  0.28852980610E+02  0.00000000000E+00 0.  1.
</event>
<event>
 5    1  0.1282524E-003  0.9118800E+02  0.7818608E-02  0.1130116E+00
         25   -1    0    0    0    0  0.00000000000E+00  0.00000000000E+00  0.99999998245E-14  0.12500000000E+03  0.12500000000E+03 0.  0.
        -11    1    3    3    0    0 -0.35512091623E+02  0.36991258780E+02 -0.11336154500E+02  0.52516381032E+02  0.51100000000E-03 0. -1.
         23    2    1    0    0    0 -0.22282359224E+02 -0.21689032823E+01 -0.20263164029E+02  0.94803915974E+02  0.89866450879E+02 0.  0.
         11    1    3    3    0    0  0.13229732399E+02 -0.39160162062E+02 -0.89270095291E+01  0.42287534942E+02  0.51100000000E-03 0.  1.
         22    1    1    0    0    0  0.22282359224E+02  0.21689032823E+01  0.20263164029E+02  0.30196084026E+02  0.00000000000E+00 0. -1.
</event>
<event>
 5    1  0.1282524E-003  0.9118800E+02  0.7818608E-02  0.1130116E+00
         25   -1    0    0    0    0  0.00000000000E+00  0.00000000000E+00  0.99999998245E-14  0.12500000000E+03  0.12500000000E+03 0.  0.
        -11    1    3    3    0    0 -0.24978884721E+02  0.44252853711E+02  0.24799917823E+02  0.56544634297E+02  0.51100000000E-03 0. -1.
         23    2    1    0    0    0  0.32357752353E+01  0.16290881899E+02  0.23415472995E+02  0.96292031594E+02  0.91913045312E+02 0.  0.
         11    1    3    3    0    0  0.28214659957E+02 -0.27961971813E+02 -0.13844448274E+01  0.39747397297E+02  0.51100000000E-03 0.  1.
         22    1    1    0    0    0 -0.32357752353E+01 -0.16290881899E+02 -0.23415472995E+02  0.28707968406E+02  0.00000000000E+00 0.  1.
</event>
<event>
 5    1  0.1282524E-003  0.9118800E+02  0.7818608E-02  0.1130116E+00
         25   -1    0    0    0    0  0.00000000000E+00  0.00000000000E+00  0.99999998245E-14  0.12500000000E+03  0.12500000000E+03 0.  0.
        -11    1    3    3    0    0  0.54960055961E+02 -0.27791554087E+02 -0.77853812471E+01  0.62077293685E+02  0.51100000000E-03 0.  1.
         23    2    1    0    0    0  0.18774016261E+02 -0.14979747049E+02 -0.19835399498E+01  0.10090039546E+03  0.97980094229E+02 0.  0.
         11    1    3    3    0    0 -0.36186039701E+02  0.12811807037E+02  0.58018412973E+01  0.38823101776E+02  0.51100000000E-03 0. -1.
         22    1    1    0    0    0 -0.18774016261E+02  0.14979747049E+02  0.19835399498E+01  0.24099604539E+02  0.00000000000E+00 0.  1.
</event>
<event>
 5    1  0.1282524E-003  0.9118800E+02  0.7818608E-02  0.1130116E+00
         25   -1    0    0    0    0  0.00000000000E+00  0.00000000000E+00  0.99999998245E-14  0.12500000000E+03  0.12500000000E+03 0.  0.
        -11    1    3    3    0    0 -0.25810881864E+02  0.10777449171E+02 -0.22575569790E+02  0.35944559879E+02  0.51100000000E-03 0.  1.
         23    2    1    0    0    0  0.15593508620E+02 -0.25164797174E+02  0.40107997399E+00  0.95392815179E+02  0.90681882396E+02 0.  0.
         11    1    3    3    0    0  0.41404390484E+02 -0.35942246345E+02  0.22976649764E+02  0.59448255301E+02  0.51100000000E-03 0. -1.
         22    1    1    0    0    0 -0.15593508620E+02  0.25164797174E+02 -0.40107997399E+00  0.29607184821E+02  0.00000000000E+00 0. -1.
</event>
<event>
 5    1  0.1282524E-003  0.9118800E+02  0.7818608E-02  0.1130116E+00
         25   -1    0    0    0    0  0.00000000000E+00  0.00000000000E+00  0.99999998245E-14  0.12500000000E+03  0.12500000000E+03 0.  0.
        -11    1    3    3    0    0  0.50245128317E+02  0.17974306664E+02  0.84076252705E+01  0.54021632542E+02  0.51100000000E-03 0. -1.
         23    2    1    0    0    0  0.26335389796E+02 -0.66450440875E+01 -0.13431013275E+02  0.94699810492E+02  0.89721528202E+02 0.  0.
         11    1    3    3    0    0 -0.23909738520E+02 -0.24619350751E+02 -0.21838638545E+02  0.40678177949E+02  0.51100000000E-03 0.  1.
         22    1    1    0    0    0 -0.26335389796E+02  0.66450440875E+01  0.13431013275E+02  0.30300189508E+02  0.00000000000E+00 0. -1.
</event>
<event>
 5    1  0.1282524E-003  0.9118800E+02  0.7818608E-02  0.1130116E+00
         25   -1    0    0    0    0  0.00000000000E+00  0.00000000000E+00  0.99999998245E-14  0.12500000000E+03  0.12500000000E+03 0.  0.
        -11    1    3    3    0    0 -0.11799308078E+02  0.43785608596E+02  0.29482859453E+02  0.54089205883E+02  0.51100000000E-03 0.  1.
         23    2    1    0    0    0  0.93120041794E+01  0.83713193140E+01  0.26815808472E+02  0.95404730227E+02  0.90698305149E+02 0.  0.
         11    1    3    3    0    0  0.21111312258E+02 -0.35414289282E+02 -0.26670509813E+01  0.41315524344E+02  0.51100000000E-03 0. -1.
         22    1    1    0    0    0 -0.93120041794E+01 -0.83713193140E+01 -0.26815808472E+02  0.29595269773E+02  0.00000000000E+00 0.  1.
</event>
<event>
 5    1  0.1282524E-003  0.9118800E+02  0.7818608E-02  0.1130116E+00
         25   -1    0    0    0    0  0.00000000000E+00  0.00000000000E+00  0.99999998245E-14  0.12500000000E+03  0.12500000000E+03 0.  0.
        -11    1    3    3    0    0  0.89020269234E+01 -0.27273225664E+02 -0.17236204053E+02  0.33468816111E+02  0.51100000000E-03 0.  1.
         23    2    1    0    0    0  0.89214343874E+01  0.30354293188E+02 -0.97452694095E+00  0.93346804123E+02  0.87816291374E+02 0.  0.
         11    1    3    3    0    0  0.19407463999E-01  0.57627518852E+02  0.16261677112E+02  0.59877988012E+02  0.51100000000E-03 0. -1.
         22    1    1    0    0    0 -0.89214343874E+01 -0.30354293188E+02  0.97452694095E+00  0.31653195877E+02  0.00000000000E+00 0. -1.
</event>
<event>
 5    1  0.1282524E-003  0.9118800E+02  0.7818608E-02  0.1130116E+00
         25   -1    0    0    0    0  0.00000000000E+00  0.00000000000E+00  0.99999998245E-14  0.12500000000E+03  0.12500000000E+03 0.  0.
        -11    1    3    3    0    0  0.21798356665E+01 -0.17732385275E+02  0.56590098866E+02  0.59343310162E+02  0.51100000000E-03 0. -1.
         23    2    1    0    0    0 -0.84021601406E+01 -0.17586751717E+02  0.21565856932E+02  0.95931523669E+02  0.91421446703E+02 0.  0.
         11    1    3    3    0    0 -0.10581995807E+02  0.14563355766E+00 -0.35024241933E+02  0.36588213507E+02  0.51100000000E-03 0.  1.
         22    1    1    0    0    0  0.84021601406E+01  0.17586751717E+02 -0.21565856932E+02  0.29068476331E+02  0.00000000000E+00 0. -1.
</event>
<event>
 5    1  0.1282524E-003  0.9118800E+02  0.7818608E-02  0.1130116E+00
         25   -1    0    0    0    0  0.00000000000E+00  0.00000000000E+00  0.99999998245E-14  0.12500000000E+03  0.12500000000E+03 0.  0.
        -11    1    3    3    0    0  0.41090797313E+02 -0.37521723309E+02  0.13304885249E+02  0.57213226754E+02  0.51100000000E-03 0. -1.
         23    2    1    0    0    0  0.15662038796E+02 -0.21554891920E+02 -0.11325172954E+02  0.96048793335E+02  0.91581648455E+02 0.  0.
         11    1    3    3    0    0 -0.25428758517E+02  0.15966831389E+02 -0.24630058203E+02  0.38835566581E+02  0.51100000000E-03 0.  1.
         22    1    1    0    0    0 -0.15662038796E+02  0.21554891920E+02  0.11325172954E+02  0.28951206665E+02  0.00000000000E+00 0. -1.
</event>
<event>
 5    1  0.1282524E-003  0.9118800E+02  0.7818608E-02  0.1130116E+00
         25   -1    0    0    0    0  0.00000000000E+00  0.00000000000E+00  0.99999998245E-14  0.12500000000E+03  0.12500000000E+03 0.  0.
        -11    1    3    3    0    0 -0.41124066997E+02 -0.89885934943E+01 -0.35923793236E+02  0.55339882726E+02  0.51100000000E-03 0.  1.
         23    2    1    0    0    0 -0.19252348228E+01 -0.11828678187E+02 -0.26735653253E+02  0.95701206311E+02  0.91105990899E+02 0.  0.
         11    1    3    3    0    0  0.39198832174E+02 -0.28400846928E+01  0.91881399827E+01  0.40361323585E+02  0.51100000000E-03 0. -1.
         22    1    1    0    0    0  0.19252348228E+01  0.11828678187E+02  0.26735653253E+02  0.29298793689E+02  0.00000000000E+00 0.  1.
</event>
<event>
 5    1  0.1282524E-003  0.9118800E+02  0.7818608E-02  0.1130116E+00
         25   -1    0    0    0    0  0.00000000000E+00  0.00000000000E+00  0.99999998245E-14  0.12500000000E+03  0.12500000000E+03 0.  0.
        -11    1    3    3    0    0 -0.15560901535E+01 -0.61195297157E+01  0.61765238056E+02  0.62087154009E+02  0.51100000000E-03 0. -1.
         23    2    1    0    0    0 -0.51676746897E+01 -0.53651594556E+01  0.29036099331E+02  0.95023594912E+02  0.90171496205E+02 0.  0.
         11    1    3    3    0    0 -0.36115845361E+01  0.75437026012E+00 -0.32729138726E+02  0.32936440903E+02  0.51100000000E-03 0.  1.
         22    1    1    0    0    0  0.51676746897E+01  0.53651594556E+01 -0.29036099331E+02  0.29976405088E+02  0.00000000000E+00 0. -1.
</event>
<event>
 5    1  0.1282524E-003  0.9118800E+02  0.7818608E-02  0.1130116E+00
         25   -1    0    0    0    0  0.00000000000E+00  0.00000000000E+00  0.99999998245E-14  0.12500000000E+03  0.12500000000E+03 0.  0.
        -11    1    3    3    0    0  0.22221328075E+02  0.23352202167E+02  0.46938484635E+02  0.56941497237E+02  0.51100000000E-03 0. -1.
         23    2    1    0    0    0  0.21071795561E+02  0.16863718349E+02  0.74144445574E+01  0.97011081607E+02  0.92885792250E+02 0.  0.
         11    1    3    3    0    0 -0.11495325147E+01 -0.64884838182E+01 -0.39524040078E+02  0.40069584370E+02  0.51100000000E-03 0.  1.
         22    1    1    0    0    0 -0.21071795561E+02 -0.16863718349E+02 -0.74144445574E+01  0.27988918393E+02  0.00000000000E+00 0. -1.
</event>
<event>
 5    1  0.1282524E-003  0.9118800E+02  0.7818608E-02  0.1130116E+00
         25   -1    0    0    0    0  0.00000000000E+00  0.00000000000E+00  0.99999998245E-14  0.12500000000E+03  0.12500000000E+03 0.  0.
        -11    1    3    3    0    0  0.43405835935E+02 -0.19183748889E+02 -0.32463913574E+01  0.47567025046E+02  0.51100000000E-03 0. -1.
         23    2    1    0    0    0  0.21912864942E+01 -0.95734516198E+01 -0.27119939815E+02  0.96156563173E+02  0.91728625811E+02 0.  0.
         11    1    3    3    0    0 -0.41214549440E+02  0.96102972691E+01 -0.23873548458E+02  0.48589538127E+02  0.51100000000E-03 0.  1.
         22    1    1    0    0    0 -0.21912864942E+01  0.95734516198E+01  0.27119939815E+02  0.28843436827E+02  0.00000000000E+00 0.  1.
</event>
<event>
 5    1  0.1282524E-003  0.9118800E+02  0.7818608E-02  0.1130116E+00
         25   -1    0    0    0    0  0.00000000000E+00  0.00000000000E+00  0.99999998245E-14  0.12500000000E+03  0.12500000000E+03 0.  0.
        -11    1    3    3    0    0  0.44733796921E+02  0.28220056704E+01 -0.16153131008E+02  0.47644516417E+02  0.51100000000E-03 0. -1.
         23    2    1    0    0    0  0.89490752466E+01  0.25347076379E+02  0.87676412910E+01  0.96725775651E+02  0.92501048171E+02 0.  0.
         11    1    3    3    0    0 -0.35784721674E+02  0.22525070709E+02  0.24920772299E+02  0.49081259234E+02  0.51100000000E-03 0.  1.
         22    1    1    0    0    0 -0.89490752466E+01 -0.25347076379E+02 -0.87676412910E+01  0.28274224349E+02  0.00000000000E+00 0.  1.
</event>
<event>
 5    1  0.1282524E-003  0.9118800E+02  0.7818608E-02  0.1130116E+00
         25   -1    0    0    0    0  0.00000000000E+00  0.00000000000E+00  0.99999998245E-14  0.12500000000E+03  0.12500000000E+03 0.  0.
        -11    1    3    3    0    0  0.19702543247E+02 -0.29966212104E+02  0.14996744058E+02  0.38872437676E+02  0.51100000000E-03 0.  1.
         23    2    1    0    0    0 -0.29744438540E+02 -0.91437876443E+01  0.68030331507E+01  0.93146872421E+02  0.87531240738E+02 0.  0.
         11    1    3    3    0    0 -0.49446981787E+02  0.20822424459E+02 -0.81937109071E+01  0.54274434745E+02  0.51100000000E-03 0. -1.
         22    1    1    0    0    0  0.29744438540E+02  0.91437876443E+01 -0.68030331507E+01  0.31853127579E+02  0.00000000000E+00 0. -1.
</event>
<event>
 5    1  0.1282524E-003  0.9118800E+02  0.7818608E-02  0.1130116E+00
         25   -1    0    0    0    0  0.00000000000E+00  0.00000000000E+00  0.99999998245E-14  0.12500000000E+03  0.12500000000E+03 0.  0.
        -11    1    3    3    0    0 -0.13004313212E+02 -0.42970503019E+02  0.29345074592E+02  0.53634967092E+02  0.51100000000E-03 0. -1.
         23    2    1    0    0    0 -0.27285166832E+02 -0.99421241305E+01  0.12049464541E+02  0.93559329572E+02  0.88118286371E+02 0.  0.
         11    1    3    3    0    0 -0.14280853620E+02  0.33028378889E+02 -0.17295610051E+02  0.39924362480E+02  0.51100000000E-03 0.  1.
         22    1    1    0    0    0  0.27285166832E+02  0.99421241305E+01 -0.12049464541E+02  0.31440670428E+02  0.00000000000E+00 0. -1.
</event>
<event>
 5    1  0.1282524E-003  0.9118800E+02  0.7818608E-02  0.1130116E+00
         25   -1    0    0    0    0  0.00000000000E+00  0.00000000000E+00  0.99999998245E-14  0.12500000000E+03  0.12500000000E+03 0.  0.
        -11    1    3    3    0    0  0.32828504382E+02  0.30400511319E+02  0.61376314202E+01  0.45161624286E+02  0.51100000000E-03 0.  1.
         23    2    1    0    0    0 -0.38653489423E+01  0.13349881581E+02 -0.25120445545E+02  0.96291167821E+02  0.91911870590E+02 0.  0.
         11    1    3    3    0    0 -0.36693853324E+02 -0.17050629738E+02 -0.31258076965E+02  0.51129543535E+02  0.51100000000E-03 0. -1.
         22    1    1    0    0    0  0.38653489423E+01 -0.13349881581E+02  0.25120445545E+02  0.28708832179E+02  0.00000000000E+00 0.  1.
</event>
<event>
 5    1  0.1282524E-003  0.9118800E+02  0.7818608E-02  0.1130116E+00
         25   -1    0    0    0    0  0.00000000000E+00  0.00000000000E+00  0.99999998245E-14  0.12500000000E+03  0.12500000000E+03 0.  0.
        -11    1    3    3    0    0  0.35232071736E+02 -0.22171018834E+02  0.32902081096E+02  0.53060342023E+02  0.51100000000E-03 0. -1.
         23    2    1    0    0    0  0.45956224393E+01 -0.28029668596E+02  0.27163426645E+01  0.96466500658E+02  0.92150014458E+02 0.  0.
         11    1    3    3    0    0 -0.30636449297E+02 -0.58586497620E+01 -0.30185738431E+02  0.43406158635E+02  0.51100000000E-03 0.  1.
         22    1    1    0    0    0 -0.45956224393E+01  0.28029668596E+02 -0.27163426645E+01  0.28533499342E+02  0.00000000000E+00 0. -1.
</event>
<event>
 5    1  0.1282524E-003  0.9118800E+02  0.7818608E-02  0.1130116E+00
         25   -1    0    0    0    0  0.00000000000E+00  0.00000000000E+00  0.99999998245E-14  0.12500000000E+03  0.12500000000E+03 0.  0.
        -11    1    3    3    0    0 -0.49589029417E+02 -0.13142508097E+02  0.24807261985E+02  0.56984187325E+02  0.51100000000E-03 0. -1.
         23    2    1    0    0    0 -0.14289204541E+02 -0.22622637713E+02  0.95945985773E+01  0.96574282324E+02  0.92296102741E+02 0.  0.
         11    1    3    3    0    0  0.35299824876E+02 -0.94801296161E+01 -0.15212663408E+02  0.39590094999E+02  0.51100000000E-03 0.  1.
         22    1    1    0    0    0  0.14289204541E+02  0.22622637713E+02 -0.95945985773E+01  0.28425717676E+02  0.00000000000E+00 0. -1.
</event>
<event>
 5    1  0.1282524E-003  0.9118800E+02  0.7818608E-02  0.1130116E+00
         25   -1    0    0    0    0  0.00000000000E+00  0.00000000000E+00  0.99999998245E-14  0.12500000000E+03  0.12500000000E+03 0.  0.
        -11    1    3    3    0    0  0.27117279231E+02 -0.95668553210E+01 -0.21435720419E+02  0.35865884399E+02  0.51100000000E-03 0. -1.
         23    2    1    0    0    0 -0.10933917955E+02  0.19075018595E+01  0.25393519492E+02  0.97286827007E+02  0.93256135196E+02 0.  0.
         11    1    3    3    0    0 -0.38051197186E+02  0.11474357181E+02  0.46829239910E+02  0.61420942607E+02  0.51100000000E-03 0.  1.
         22    1    1    0    0    0  0.10933917955E+02 -0.19075018595E+01 -0.25393519492E+02  0.27713172993E+02  0.00000000000E+00 0.  1.
</event>
<event>
 5    1  0.1282524E-003  0.9118800E+02  0.7818608E-02  0.1130116E+00
         25   -1    0    0    0    0  0.00000000000E+00  0.00000000000E+00  0.99999998245E-14  0.12500000000E+03  0.12500000000E+03 0.  0.
        -11    1    3    3    0    0 -0.46444162728E+01  0.30346507570E+02 -0.22913154865E+02  0.38307881569E+02  0.51100000000E-03 0.  1.
         23    2    1    0    0    0 -0.32900660579E+01 -0.24983136375E+02 -0.18322211568E+02  0.93844180727E+02  0.88521439108E+02 0.  0.
         11    1    3    3    0    0  0.13543502149E+01 -0.55329643945E+02  0.45909432966E+01  0.55536299158E+02  0.51100000000E-03 0. -1.
         22    1    1    0    0    0  0.32900660579E+01  0.24983136375E+02  0.18322211568E+02  0.31155819273E+02  0.00000000000E+00 0. -1.
</event>
<event>
 5    1  0.1282524E-003  0.9118800E+02  0.7818608E-02  0.1130116E+00
         25   -1    0    0    0    0  0.00000000000E+00  0.00000000000E+00  0.99999998245E-14  0.12500000000E+03  0.12500000000E+03 0.  0.
        -11    1    3    3    0    0  0.55811925370E+02 -0.24141931472E+02  0.92542343843E+01  0.61509712429E+02  0.51100000000E-03 0. -1.
         23    2    1    0    0    0  0.25757716286E+02 -0.13485611509E+02 -0.32147285615E+01  0.95748399262E+02  0.91170717972E+02 0.  0.
         11    1    3    3    0    0 -0.30054209085E+02  0.10656319964E+02 -0.12468962946E+02  0.34238686833E+02  0.51100000000E-03 0.  1.
         22    1    1    0    0    0 -0.25757716286E+02  0.13485611509E+02  0.32147285615E+01  0.29251600738E+02  0.00000000000E+00 0. -1.
</event>
<event>
 5    1  0.1282524E-003  0.9118800E+02  0.7818608E-02  0.1130116E+00
         25   -1    0    0    0    0  0.00000000000E+00  0.00000000000E+00  0.99999998245E-14  0.12500000000E+03  0.12500000000E+03 0.  0.
        -11    1    3    3    0    0  0.11847819381E+02  0.27544116797E+02 -0.45500764371E+02  0.54491914563E+02  0.51100000000E-03 0.  1.
         23    2    1    0    0    0  0.15453947135E+02 -0.77581347303E+01 -0.21842617315E+02  0.97141194073E+02  0.93060724896E+02 0.  0.
         11    1    3    3    0    0  0.36061277541E+01 -0.35302251527E+02  0.23658147056E+02  0.42649279509E+02  0.51100000000E-03 0. -1.
         22    1    1    0    0    0 -0.15453947135E+02  0.77581347303E+01  0.21842617315E+02  0.27858805927E+02  0.00000000000E+00 0. -1.
</event>
<event>
 5    1  0.1282524E-003  0.9118800E+02  0.7818608E-02  0.1130116E+00
         25   -1    0    0    0    0  0.00000000000E+00  0.00000000000E+00  0.99999998245E-14  0.12500000000E+03  0.12500000000E+03 0.  0.
        -11    1    3    3    0    0  0.34032995869E+02 -0.18824903779E+02 -0.46704729859E+02  0.60777903892E+02  0.51100000000E-03 0. -1.
         23    2    1    0    0    0  0.16168282524E+02 -0.20713302379E+01 -0.31296213983E+02  0.89713220912E+02  0.82482150967E+02 0.  0.
         11    1    3    3    0    0 -0.17864713345E+02  0.16753573541E+02  0.15408515876E+02  0.28935317020E+02  0.51100000000E-03 0.  1.
         22    1    1    0    0    0 -0.16168282524E+02  0.20713302379E+01  0.31296213983E+02  0.35286779088E+02  0.00000000000E+00 0. -1.
</event>
<event>
 5    1  0.1282524E-003  0.9118800E+02  0.7818608E-02  0.1130116E+00
         25   -1    0    0    0    0  0.00000000000E+00  0.00000000000E+00  0.99999998245E-14  0.12500000000E+03  0.12500000000E+03 0.  0.
        -11    1    3    3    0    0  0.17191667853E+02  0.13057618122E+02 -0.39887019708E+02  0.45354483527E+02  0.51100000000E-03 0.  1.
         23    2    1    0    0    0 -0.24252460091E+02 -0.31115485446E+01 -0.14101710729E+02  0.96773739173E+02  0.92565840315E+02 0.  0.
         11    1    3    3    0    0 -0.41444127944E+02 -0.16169166667E+02  0.25785308979E+02  0.51419255645E+02  0.51100000000E-03 0. -1.
         22    1    1    0    0    0  0.24252460091E+02  0.31115485446E+01  0.14101710729E+02  0.28226260827E+02  0.00000000000E+00 0.  1.
</event>
<event>
 5    1  0.1282524E-003  0.9118800E+02  0.7818608E-02  0.1130116E+00
         25   -1    0    0    0    0  0.00000000000E+00  0.00000000000E+00  0.99999998245E-14  0.12500000000E+03  0.12500000000E+03 0.  0.
        -11    1    3    3    0    0  0.94803653046E+01  0.40423471073E+02 -0.44189853057E+02  0.60635612089E+02  0.51100000000E-03 0. -1.
         23    2    1    0    0    0 -0.64262715807E+01  0.16294727208E+02 -0.20741678938E+02  0.97851660339E+02  0.94010186069E+02 0.  0.
         11    1    3    3    0    0 -0.15906636885E+02 -0.24128743866E+02  0.23448174119E+02  0.37216048250E+02  0.51100000000E-03 0.  1.
         22    1    1    0    0    0  0.64262715807E+01 -0.16294727208E+02  0.20741678938E+02  0.27148339661E+02  0.00000000000E+00 0. -1.
</event>
<event>
 5    1  0.1282524E-003  0.9118800E+02  0.7818608E-02  0.1130116E+00
         25   -1    0    0    0    0  0.00000000000E+00  0.00000000000E+00  0.99999998245E-14  0.12500000000E+03  0.12500000000E+03 0.  0.
        -11    1    3    3    0    0 -0.38826525463E+02  0.71873860473E+00 -0.84618139051E+01  0.39744407902E+02  0.51100000000E-03 0.  1.
         23    2    1    0    0    0  0.25783828059E+01  0.26958172940E+02  0.14948800436E+02  0.94066882138E+02  0.88835356331E+02 0.  0.
         11    1    3    3    0    0  0.41404908269E+02  0.26239434336E+02  0.23410614341E+02  0.54322474236E+02  0.51100000000E-03 0. -1.
         22    1    1    0    0    0 -0.25783828059E+01 -0.26958172940E+02 -0.14948800436E+02  0.30933117862E+02  0.00000000000E+00 0. -1.
</event>
<event>
 5    1  0.1282524E-003  0.9118800E+02  0.7818608E-02  0.1130116E+00
         25   -1    0    0    0    0  0.00000000000E+00  0.00000000000E+00  0.99999998245E-14  0.12500000000E+03  0.12500000000E+03 0.  0.
        -11    1    3    3    0    0  0.32928433233E+02  0.24619371440E+02  0.18633056447E+02  0.45139627359E+02  0.51100000000E-03 0.  1.
         23    2    1    0    0    0  0.18054218955E+02 -0.19492548902E+02 -0.59337428739E+01  0.97776414834E+02  0.93910083104E+02 0.  0.
         11    1    3    3    0    0 -0.14874214277E+02 -0.44111920342E+02 -0.24566799321E+02  0.52636787476E+02  0.51100000000E-03 0. -1.
         22    1    1    0    0    0 -0.18054218955E+02  0.19492548902E+02  0.59337428739E+01  0.27223585166E+02  0.00000000000E+00 0. -1.
</event>
<event>
 5    1  0.1282524E-003  0.9118800E+02  0.7818608E-02  0.1130116E+00
         25   -1    0    0    0    0  0.00000000000E+00  0.00000000000E+00  0.99999998245E-14  0.12500000000E+03  0.12500000000E+03 0.  0.
        -11    1    3    3    0    0 -0.35981245108E+02  0.58170779228E+01  0.30981548841E+02  0.47836646663E+02  0.51100000000E-03 0. -1.
         23    2    1    0    0    0 -0.19041788031E+02 -0.21657558833E+02 -0.45113678243E+01  0.95811098245E+02  0.91256641190E+02 0.  0.
         11    1    3    3    0    0  0.16939457077E+02 -0.27474636756E+02 -0.35492916665E+02  0.47974451582E+02  0.51100000000E-03 0.  1.
         22    1    1    0    0    0  0.19041788031E+02  0.21657558833E+02  0.45113678243E+01  0.29188901755E+02  0.00000000000E+00 0. -1.
</event>
<event>
 5    1  0.1282524E-003  0.9118800E+02  0.7818608E-02  0.1130116E+00
         25   -1    0    0    0    0  0.00000000000E+00  0.00000000000E+00  0.99999998245E-14  0.12500000000E+03  0.12500000000E+03 0.  0.
        -11    1    3    3    0    0 -0.17016715645E+02  0.25827312299E+02  0.23256789757E+02  0.38697505630E+02  0.51100000000E-03 0.  1.
         23    2    1    0    0    0  0.22770793988E+02 -0.13451654928E+02  0.12962605086E+02  0.95546898129E+02  0.90894029135E+02 0.  0.
         11    1    3    3    0    0  0.39787509634E+02 -0.39278967227E+02 -0.10294184670E+02  0.56849392499E+02  0.51100000000E-03 0. -1.
         22    1    1    0    0    0 -0.22770793988E+02  0.13451654928E+02 -0.12962605086E+02  0.29453101871E+02  0.00000000000E+00 0. -1.
</event>
<event>
 5    1  0.1282524E-003  0.9118800E+02  0.7818608E-02  0.1130116E+00
         25   -1    0    0    0    0  0.00000000000E+00  0.00000000000E+00  0.99999998245E-14  0.12500000000E+03  0.12500000000E+03 0.  0.
        -11    1    3    3    0    0 -0.34023533549E+02  0.28310776968E+01  0.39488868282E+02  0.52201403760E+02  0.51100000000E-03 0. -1.
         23    2    1    0    0    0 -0.98062063049E+01 -0.22157951246E+02  0.25827397283E+02  0.89585441751E+02  0.82288276430E+02 0.  0.
         11    1    3    3    0    0  0.24217327244E+02 -0.24989028943E+02 -0.13661470998E+02  0.37384037991E+02  0.51100000000E-03 0.  1.
         22    1    1    0    0    0  0.98062063049E+01  0.22157951246E+02 -0.25827397283E+02  0.35414558249E+02  0.00000000000E+00 0. -1.
</event>
<event>
 5    1  0.1282524E-003  0.9118800E+02  0.7818608E-02  0.1130116E+00
         25   -1    0    0    0    0  0.00000000000E+00  0.00000000000E+00  0.99999998245E-14  0.12500000000E+03  0.12500000000E+03 0.  0.
        -11    1    3    3    0    0 -0.55595175224E+02  0.19460056965E+02 -0.71159788078E+01  0.59330889761E+02  0.51100000000E-03 0. -1.
         23    2    1    0    0    0 -0.21975302146E+02  0.18986545250E+02 -0.12500502391E+02  0.93382514885E+02  0.87867108302E+02 0.  0.
         11    1    3    3    0    0  0.33619873078E+02 -0.47351171424E+00 -0.53845235828E+01  0.34051625124E+02  0.51100000000E-03 0.  1.
         22    1    1    0    0    0  0.21975302146E+02 -0.18986545250E+02  0.12500502391E+02  0.31617485115E+02  0.00000000000E+00 0. -1.
</event>
<event>
 5    1  0.1282524E-003  0.9118800E+02  0.7818608E-02  0.1130116E+00
         25   -1    0    0    0    0  0.00000000000E+00  0.00000000000E+00  0.99999998245E-14  0.12500000000E+03  0.12500000000E+03 0.  0.
        -11    1    3    3    0    0  0.12020038497E+02 -0.99311967725E+01 -0.24704286614E+02  0.29213212288E+02  0.51100000000E-03 0.  1.
         23    2    1    0    0    0 -0.74335126734E+01 -0.10090363052E+02  0.32782996960E+02  0.89903028238E+02  0.82769300223E+02 0.  0.
         11    1    3    3    0    0 -0.19453551171E+02 -0.15916627973E+00  0.57487283574E+02  0.60689815950E+02  0.51100000000E-03 0. -1.
         22    1    1    0    0    0  0.74335126734E+01  0.10090363052E+02 -0.32782996960E+02  0.35096971762E+02  0.00000000000E+00 0. -1.
</event>
<event>
 5    1  0.1282524E-003  0.9118800E+02  0.7818608E-02  0.1130116E+00
         25   -1    0    0    0    0  0.00000000000E+00  0.00000000000E+00  0.99999998245E-14  0.12500000000E+03  0.12500000000E+03 0.  0.
        -11    1    3    3    0    0 -0.27568682622E+02  0.37819727004E+02 -0.28186405496E+01  0.46886125314E+02  0.51100000000E-03 0. -1.
         23    2    1    0    0    0  0.16495882119E+02  0.17477264585E+02 -0.14667384800E+02  0.96845052280E+02  0.92662090793E+02 0.  0.
         11    1    3    3    0    0  0.44064564740E+02 -0.20342462420E+02 -0.11848744250E+02  0.49958926966E+02  0.51100000000E-03 0.  1.
         22    1    1    0    0    0 -0.16495882119E+02 -0.17477264585E+02  0.14667384800E+02  0.28154947720E+02  0.00000000000E+00 0.  1.
</event>
<event>
 5    1  0.1282524E-003  0.9118800E+02  0.7818608E-02  0.1130116E+00
         25   -1    0    0    0    0  0.00000000000E+00  0.00000000000E+00  0.99999998245E-14  0.12500000000E+03  0.12500000000E+03 0.  0.
        -11    1    3    3    0    0  0.21546525727E+02  0.47979100510E+02  0.46563268224E+01  0.52800835565E+02  0.51100000000E-03 0.  1.
         23    2    1    0    0    0  0.18422536381E+02  0.10284662026E+02  0.22093386528E+02  0.94450338005E+02  0.89373287404E+02 0.  0.
         11    1    3    3    0    0 -0.31239893464E+01 -0.37694438484E+02  0.17437059706E+02  0.41649502440E+02  0.51100000000E-03 0. -1.
         22    1    1    0    0    0 -0.18422536381E+02 -0.10284662026E+02 -0.22093386528E+02  0.30549661995E+02  0.00000000000E+00 0.  1.
</event>
<event>
 5    1  0.1282524E-003  0.9118800E+02  0.7818608E-02  0.1130116E+00
         25   -1    0    0    0    0  0.00000000000E+00  0.00000000000E+00  0.99999998245E-14  0.12500000000E+03  0.12500000000E+03 0.  0.
        -11    1    3    3    0    0 -0.15325753068E+02  0.10790932073E+02 -0.34815947269E+02  0.39540777769E+02  0.51100000000E-03 0.  1.
         23    2    1    0    0    0  0.24158628050E+02  0.11928746360E+01  0.89012805347E+01  0.99226078019E+02  0.95820245797E+02 0.  0.
         11    1    3    3    0    0  0.39484381118E+02 -0.95980574371E+01  0.43717227803E+02  0.59685300250E+02  0.51100000000E-03 0. -1.
         22    1    1    0    0    0 -0.24158628050E+02 -0.11928746360E+01 -0.89012805347E+01  0.25773921981E+02  0.00000000000E+00 0. -1.
</event>
<event>
 5    1  0.1282524E-003  0.9118800E+02  0.7818608E-02  0.1130116E+00
         25   -1    0    0    0    0  0.00000000000E+00  0.00000000000E+00  0.99999998245E-14  0.12500000000E+03  0.12500000000E+03 0.  0.
        -11    1    3    3    0    0 -0.29791284196E+02 -0.49136853617E+02 -0.49279664243E+01  0.57673528163E+02  0.51100000000E-03 0.  1.
         23    2    1    0    0    0 -0.12828490475E+02 -0.17846266457E+02  0.14929004637E+02  0.98430570691E+02  0.94776804508E+02 0.  0.
         11    1    3    3    0    0  0.16962793721E+02  0.31290587160E+02  0.19856971062E+02  0.40757042528E+02  0.51100000000E-03 0. -1.
         22    1    1    0    0    0  0.12828490475E+02  0.17846266457E+02 -0.14929004637E+02  0.26569429309E+02  0.00000000000E+00 0.  1.
</event>
<event>
 5    1  0.1282524E-003  0.9118800E+02  0.7818608E-02  0.1130116E+00
         25   -1    0    0    0    0  0.00000000000E+00  0.00000000000E+00  0.99999998245E-14  0.12500000000E+03  0.12500000000E+03 0.  0.
        -11    1    3    3    0    0  0.40370106533E+02  0.16071229207E+02  0.34421859925E+02  0.55433693280E+02  0.51100000000E-03 0. -1.
         23    2    1    0    0    0  0.16327332308E+02  0.24257556597E+02  0.33454012236E+01  0.95568680938E+02  0.90923980525E+02 0.  0.
         11    1    3    3    0    0 -0.24042774225E+02  0.81863273904E+01 -0.31076458702E+02  0.40134987658E+02  0.51100000000E-03 0.  1.
         22    1    1    0    0    0 -0.16327332308E+02 -0.24257556597E+02 -0.33454012236E+01  0.29431319062E+02  0.00000000000E+00 0. -1.
</event>
<event>
 5    1  0.1282524E-003  0.9118800E+02  0.7818608E-02  0.1130116E+00
         25   -1    0    0    0    0  0.00000000000E+00  0.00000000000E+00  0.99999998245E-14  0.12500000000E+03  0.12500000000E+03 0.  0.
        -11    1    3    3    0    0  0.10366229872E+02 -0.15443411134E+02 -0.29795312233E+02  0.35124326336E+02  0.51100000000E-03 0. -1.
         23    2    1    0    0    0 -0.90555245681E+00  0.32543999720E+02 -0.55333931443E+00  0.92438702000E+02  0.86514019096E+02 0.  0.
         11    1    3    3    0    0 -0.11271782329E+02  0.47987410854E+02  0.29241972919E+02  0.57314375664E+02  0.51100000000E-03 0.  1.
         22    1    1    0    0    0  0.90555245681E+00 -0.32543999720E+02  0.55333931443E+00  0.32561298000E+02  0.00000000000E+00 0.  1.
</event>
<event>
 5    1  0.1282524E-003  0.9118800E+02  0.7818608E-02  0.1130116E+00
         25   -1    0    0    0    0  0.00000000000E+00  0.00000000000E+00  0.99999998245E-14  0.12500000000E+03  0.12500000000E+03 0.  0.
        -11    1    3    3    0    0 -0.50580125458E+02  0.30179689113E+02 -0.19391220629E+02  0.62009532848E+02  0.51100000000E-03 0.  1.
         23    2    1    0    0    0 -0.24629342885E+02  0.12917633011E+02 -0.14745305786E+02  0.93521534087E+02  0.88064655348E+02 0.  0.
         11    1    3    3    0    0  0.25950782573E+02 -0.17262056102E+02  0.46459148431E+01  0.31512001238E+02  0.51100000000E-03 0. -1.
         22    1    1    0    0    0  0.24629342885E+02 -0.12917633011E+02  0.14745305786E+02  0.31478465913E+02  0.00000000000E+00 0.  1.
</event>
<event>
 5    1  0.1282524E-003  0.9118800E+02  0.7818608E-02  0.1130116E+00
         25   -1    0    0    0    0  0.00000000000E+00  0.00000000000E+00  0.99999998245E-14  0.12500000000E+03  0.12500000000E+03 0.  0.
        -11    1    3    3    0    0  0.24076688887E+02  0.44215011798E+00  0.37219346514E+02  0.44330150007E+02  0.51100000000E-03 0. -1.
         23    2    1    0    0    0  0.10690990977E+02 -0.28226929302E+02 -0.20342802221E+01  0.94747807981E+02  0.89788373386E+02 0.  0.
         11    1    3    3    0    0 -0.13385697910E+02 -0.28669079420E+02 -0.39253626736E+02  0.50417657974E+02  0.51100000000E-03 0.  1.
         22    1    1    0    0    0 -0.10690990977E+02  0.28226929302E+02  0.20342802221E+01  0.30252192019E+02  0.00000000000E+00 0. -1.
</event>
<event>
 5    1  0.1282524E-003  0.9118800E+02  0.7818608E-02  0.1130116E+00
         25   -1    0    0    0    0  0.00000000000E+00  0.00000000000E+00  0.99999998245E-14  0.12500000000E+03  0.12500000000E+03 0.  0.
        -11    1    3    3    0    0  0.56856948639E+01 -0.29390499322E+02  0.43286972919E+02  0.52629750154E+02  0.51100000000E-03 0. -1.
         23    2    1    0    0    0 -0.10293334877E+02  0.66682410275E+01  0.27083243242E+02  0.95269203748E+02  0.90511330434E+02 0.  0.
         11    1    3    3    0    0 -0.15979029741E+02  0.36058740350E+02 -0.16203729678E+02  0.42639453594E+02  0.51100000000E-03 0.  1.
         22    1    1    0    0    0  0.10293334877E+02 -0.66682410275E+01 -0.27083243242E+02  0.29730796252E+02  0.00000000000E+00 0. -1.
</event>
<event>
 5    1  0.1282524E-003  0.9118800E+02  0.7818608E-02  0.1130116E+00
         25   -1    0    0    0    0  0.00000000000E+00  0.00000000000E+00  0.99999998245E-14  0.12500000000E+03  0.12500000000E+03 0.  0.
        -11    1    3    3    0    0  0.39511123730E+02 -0.15577360902E+02  0.40287790681E+02  0.58539637421E+02  0.51100000000E-03 0.  1.
         23    2    1    0    0    0  0.65936716446E+01 -0.63178118647E+01  0.29072764768E+02  0.94526783830E+02  0.89480142811E+02 0.  0.
         11    1    3    3    0    0 -0.32917452085E+02  0.92595490370E+01 -0.11215025913E+02  0.35987146409E+02  0.51100000000E-03 0. -1.
         22    1    1    0    0    0 -0.65936716446E+01  0.63178118647E+01 -0.29072764768E+02  0.30473216170E+02  0.00000000000E+00 0.  1.
</event>
<event>
 5    1  0.1282524E-003  0.9118800E+02  0.7818608E-02  0.1130116E+00
         25   -1    0    0    0    0  0.00000000000E+00  0.00000000000E+00  0.99999998245E-14  0.12500000000E+03  0.12500000000E+03 0.  0.
        -11    1    3    3    0    0  0.20594651423E+02 -0.21647433180E+02 -0.21808530733E+02  0.36991391478E+02  0.51100000000E-03 0. -1.
         23    2    1    0    0    0 -0.28415958454E+02  0.54914697311E+01 -0.39607858675E+01  0.95788516653E+02  0.91225704509E+02 0.  0.
         11    1    3    3    0    0 -0.49010609877E+02  0.27138902911E+02  0.17847744865E+02  0.58797125174E+02  0.51100000000E-03 0.  1.
         22    1    1    0    0    0  0.28415958454E+02 -0.54914697311E+01  0.39607858675E+01  0.29211483347E+02  0.00000000000E+00 0.  1.
</event>
<event>
 5    1  0.1282524E-003  0.9118800E+02  0.7818608E-02  0.1130116E+00
         25   -1    0    0    0    0  0.00000000000E+00  0.00000000000E+00  0.99999998245E-14  0.12500000000E+03  0.12500000000E+03 0.  0.
        -11    1    3    3    0    0 -0.23254567646E+02  0.87613082072E+01  0.54464823765E+02  0.59866121187E+02  0.51100000000E-03 0.  1.
         23    2    1    0    0    0 -0.21195717058E+02  0.42577008629E+01  0.17432388624E+02  0.97228168743E+02  0.93177476816E+02 0.  0.
         11    1    3    3    0    0  0.20588505884E+01 -0.45036073443E+01 -0.37032435141E+02  0.37362047556E+02  0.51100000000E-03 0. -1.
         22    1    1    0    0    0  0.21195717058E+02 -0.42577008629E+01 -0.17432388624E+02  0.27771831257E+02  0.00000000000E+00 0.  1.
</event>
<event>
 5    1  0.1282524E-003  0.9118800E+02  0.7818608E-02  0.1130116E+00
         25   -1    0    0    0    0  0.00000000000E+00  0.00000000000E+00  0.99999998245E-14  0.12500000000E+03  0.12500000000E+03 0.  0.
        -11    1    3    3    0    0 -0.28707072656E+02 -0.12425554168E+02  0.84060585236E+01  0.32390619584E+02  0.51100000000E-03 0. -1.
         23    2    1    0    0    0  0.30560290844E+02  0.33192297626E+01  0.54157900954E+01  0.93786550254E+02  0.88440022408E+02 0.  0.
         11    1    3    3    0    0  0.59267363500E+02  0.15744783931E+02 -0.29902684282E+01  0.61395930670E+02  0.51100000000E-03 0.  1.
         22    1    1    0    0    0 -0.30560290844E+02 -0.33192297626E+01 -0.54157900954E+01  0.31213449746E+02  0.00000000000E+00 0.  1.
</event>
<event>
 5    1  0.1282524E-003  0.9118800E+02  0.7818608E-02  0.1130116E+00
         25   -1    0    0    0    0  0.00000000000E+00  0.00000000000E+00  0.99999998245E-14  0.12500000000E+03  0.12500000000E+03 0.  0.
        -11    1    3    3    0    0 -0.16665009168E+02 -0.24773906385E+02 -0.15234266823E+02  0.33519425025E+02  0.51100000000E-03 0.  1.
         23    2    1    0    0    0  0.10178579504E+02  0.27621402850E+02  0.36311790543E+01  0.95339743133E+02  0.90608695958E+02 0.  0.
         11    1    3    3    0    0  0.26843588672E+02  0.52395309234E+02  0.18865445877E+02  0.61820318108E+02  0.51100000000E-03 0. -1.
         22    1    1    0    0    0 -0.10178579504E+02 -0.27621402850E+02 -0.36311790543E+01  0.29660256867E+02  0.00000000000E+00 0. -1.
</event>
<event>
 5    1  0.1282524E-003  0.9118800E+02  0.7818608E-02  0.1130116E+00
         25   -1    0    0    0    0  0.00000000000E+00  0.00000000000E+00  0.99999998245E-14  0.12500000000E+03  0.12500000000E+03 0.  0.
        -11    1    3    3    0    0  0.11413010267E+02  0.16569308602E+02 -0.28326850276E+02  0.34744916718E+02  0.51100000000E-03 0.  1.
         23    2    1    0    0    0  0.24772938741E+00 -0.16066380270E+02  0.23216815573E+02  0.96765084201E+02  0.92554151989E+02 0.  0.
         11    1    3    3    0    0 -0.11165280880E+02 -0.32635688872E+02  0.51543665849E+02  0.62020167483E+02  0.51100000000E-03 0. -1.
         22    1    1    0    0    0 -0.24772938741E+00  0.16066380270E+02 -0.23216815573E+02  0.28234915799E+02  0.00000000000E+00 0. -1.
</event>
<event>
 5    1  0.1282524E-003  0.9118800E+02  0.7818608E-02  0.1130116E+00
         25   -1    0    0    0    0  0.00000000000E+00  0.00000000000E+00  0.99999998245E-14  0.12500000000E+03  0.12500000000E+03 0.  0.
        -11    1    3    3    0    0 -0.21688373918E+02 -0.18302247849E+01  0.41391272265E+02  0.46765079984E+02  0.51100000000E-03 0. -1.
         23    2    1    0    0    0  0.15693132093E+02 -0.19500977883E+02  0.16261806237E+02  0.95150228219E+02  0.90346870753E+02 0.  0.
         11    1    3    3    0    0  0.37381506011E+02 -0.17670753098E+02 -0.25129466027E+02  0.48385148235E+02  0.51100000000E-03 0.  1.
         22    1    1    0    0    0 -0.15693132093E+02  0.19500977883E+02 -0.16261806237E+02  0.29849771781E+02  0.00000000000E+00 0.  1.
</event>
<event>
 5    1  0.1282524E-003  0.9118800E+02  0.7818608E-02  0.1130116E+00
         25   -1    0    0    0    0  0.00000000000E+00  0.00000000000E+00  0.99999998245E-14  0.12500000000E+03  0.12500000000E+03 0.  0.
        -11    1    3    3    0    0 -0.41542913652E+02 -0.16111735011E+01 -0.32460422844E+02  0.52745507924E+02  0.51100000000E-03 0.  1.
         23    2    1    0    0    0 -0.26689286945E+02 -0.10909528645E+02  0.64805035259E+01  0.95447795702E+02  0.90757638387E+02 0.  0.
         11    1    3    3    0    0  0.14853626707E+02 -0.92983551435E+01  0.38940926370E+02  0.42702287778E+02  0.51100000000E-03 0. -1.
         22    1    1    0    0    0  0.26689286945E+02  0.10909528645E+02 -0.64805035259E+01  0.29552204298E+02  0.00000000000E+00 0.  1.
</event>
<event>
 5    1  0.1282524E-003  0.9118800E+02  0.7818608E-02  0.1130116E+00
         25   -1    0    0    0    0  0.00000000000E+00  0.00000000000E+00  0.99999998245E-14  0.12500000000E+03  0.12500000000E+03 0.  0.
        -11    1    3    3    0    0 -0.55796746055E+02  0.26458616281E+02 -0.69172451997E+01  0.62138422310E+02  0.51100000000E-03 0. -1.
         23    2    1    0    0    0 -0.26323449187E+02  0.11720354242E+02  0.14896116190E+01  0.96146757142E+02  0.91715262009E+02 0.  0.
         11    1    3    3    0    0  0.29473296868E+02 -0.14738262039E+02  0.84068568188E+01  0.34008334832E+02  0.51100000000E-03 0.  1.
         22    1    1    0    0    0  0.26323449187E+02 -0.11720354242E+02 -0.14896116190E+01  0.28853242858E+02  0.00000000000E+00 0. -1.
</event>
<event>
 5    1  0.1282524E-003  0.9118800E+02  0.7818608E-02  0.1130116E+00
         25   -1    0    0    0    0  0.00000000000E+00  0.00000000000E+00  0.99999998245E-14  0.12500000000E+03  0.12500000000E+03 0.  0.
        -11    1    3    3    0    0  0.40074895836E+02  0.12956997808E+02  0.40931818412E+02  0.58730697487E+02  0.51100000000E-03 0.  1.
         23    2    1    0    0    0  0.17672775062E+02  0.19181898700E+02  0.10848760130E+02  0.96751675935E+02  0.92536041539E+02 0.  0.
         11    1    3    3    0    0 -0.22402120774E+02  0.62249008917E+01 -0.30083058283E+02  0.38020978449E+02  0.51100000000E-03 0. -1.
         22    1    1    0    0    0 -0.17672775062E+02 -0.19181898700E+02 -0.10848760130E+02  0.28248324065E+02  0.00000000000E+00 0.  1.
</event>
<event>
 5    1  0.1282524E-003  0.9118800E+02  0.7818608E-02  0.1130116E+00
         25   -1    0    0    0    0  0.00000000000E+00  0.00000000000E+00  0.99999998245E-14  0.12500000000E+03  0.12500000000E+03 0.  0.
        -11    1    3    3    0    0 -0.25950617314E+01  0.14068134959E+02 -0.28889005815E+02  0.32236957422E+02  0.51100000000E-03 0.  1.
         23    2    1    0    0    0  0.70025801702E+01 -0.31695110880E+02  0.77352279125E+01  0.91631602772E+02  0.85339912660E+02 0.  0.
         11    1    3    3    0    0  0.95976419016E+01 -0.45763245839E+02  0.36624233727E+02  0.59394645349E+02  0.51100000000E-03 0. -1.
         22    1    1    0    0    0 -0.70025801702E+01  0.31695110880E+02 -0.77352279125E+01  0.33368397228E+02  0.00000000000E+00 0. -1.
</event>
<event>
 5    1  0.1282524E-003  0.9118800E+02  0.7818608E-02  0.1130116E+00
         25   -1    0    0    0    0  0.00000000000E+00  0.00000000000E+00  0.99999998245E-14  0.12500000000E+03  0.12500000000E+03 0.  0.
        -11    1    3    3    0    0  0.25992256161E+02 -0.36733267951E+02  0.92710846104E+00  0.45008775645E+02  0.51100000000E-03 0.  1.
         23    2    1    0    0    0  0.31541306988E+01 -0.28585123312E+01 -0.29023731223E+02  0.95665777540E+02  0.91057368648E+02 0.  0.
         11    1    3    3    0    0 -0.22838125462E+02  0.33874755620E+02 -0.29950839684E+02  0.50657001895E+02  0.51100000000E-03 0. -1.
         22    1    1    0    0    0 -0.31541306988E+01  0.28585123312E+01  0.29023731223E+02  0.29334222460E+02  0.00000000000E+00 0.  1.
</event>
<event>
 5    1  0.1282524E-003  0.9118800E+02  0.7818608E-02  0.1130116E+00
         25   -1    0    0    0    0  0.00000000000E+00  0.00000000000E+00  0.99999998245E-14  0.12500000000E+03  0.12500000000E+03 0.  0.
        -11    1    3    3    0    0  0.91905277823E+01 -0.24218331969E+02 -0.52975354968E+02  0.58969327946E+02  0.51100000000E-03 0.  1.
         23    2    1    0    0    0  0.16827003978E+02 -0.16031558229E+02 -0.18265315627E+02  0.95440218589E+02  0.90747201870E+02 0.  0.
         11    1    3    3    0    0  0.76364761960E+01  0.81867737401E+01  0.34710039341E+02  0.36470890642E+02  0.51100000000E-03 0. -1.
         22    1    1    0    0    0 -0.16827003978E+02  0.16031558229E+02  0.18265315627E+02  0.29559781411E+02  0.00000000000E+00 0.  1.
</event>
<event>
 5    1  0.1282524E-003  0.9118800E+02  0.7818608E-02  0.1130116E+00
         25   -1    0    0    0    0  0.00000000000E+00  0.00000000000E+00  0.99999998245E-14  0.12500000000E+03  0.12500000000E+03 0.  0.
        -11    1    3    3    0    0 -0.16449850388E+02 -0.50590310511E+02 -0.18483370222E+02  0.56317067310E+02  0.51100000000E-03 0.  1.
         23    2    1    0    0    0 -0.20727867955E+02 -0.10365261848E+02 -0.15986471362E+02  0.96845951805E+02  0.92663304233E+02 0.  0.
         11    1    3    3    0    0 -0.42780175670E+01  0.40225048663E+02  0.24968988602E+01  0.40528884495E+02  0.51100000000E-03 0. -1.
         22    1    1    0    0    0  0.20727867955E+02  0.10365261848E+02  0.15986471362E+02  0.28154048195E+02  0.00000000000E+00 0.  1.
</event>
<event>
 5    1  0.1282524E-003  0.9118800E+02  0.7818608E-02  0.1130116E+00
         25   -1    0    0    0    0  0.00000000000E+00  0.00000000000E+00  0.99999998245E-14  0.12500000000E+03  0.12500000000E+03 0.  0.
        -11    1    3    3    0    0 -0.43200120764E+02 -0.25988906830E+01 -0.21152937181E+02  0.48171064120E+02  0.51100000000E-03 0.  1.
         23    2    1    0    0    0 -0.35992110699E-03 -0.22679456152E+02 -0.18234726919E+02  0.95899089408E+02  0.91377088769E+02 0.  0.
         11    1    3    3    0    0  0.43199760843E+02 -0.20080565469E+02  0.29182102621E+01  0.47728025288E+02  0.51100000000E-03 0. -1.
         22    1    1    0    0    0  0.35992110699E-03  0.22679456152E+02  0.18234726919E+02  0.29100910592E+02  0.00000000000E+00 0. -1.
</event>
<event>
 5    1  0.1282524E-003  0.9118800E+02  0.7818608E-02  0.1130116E+00
         25   -1    0    0    0    0  0.00000000000E+00  0.00000000000E+00  0.99999998245E-14  0.12500000000E+03  0.12500000000E+03 0.  0.
        -11    1    3    3    0    0  0.26785775559E+02  0.18730222453E+02 -0.17167992082E+02  0.36919357495E+02  0.51100000000E-03 0. -1.
         23    2    1    0    0    0 -0.22164550035E+02  0.12192234605E+02  0.14746363175E+02  0.95719066104E+02  0.91130491747E+02 0.  0.
         11    1    3    3    0    0 -0.48950325594E+02 -0.65379878481E+01  0.31914355257E+02  0.58799708610E+02  0.51100000000E-03 0.  1.
         22    1    1    0    0    0  0.22164550035E+02 -0.12192234605E+02 -0.14746363175E+02  0.29280933896E+02  0.00000000000E+00 0.  1.
</event>
<event>
 5    1  0.1282524E-003  0.9118800E+02  0.7818608E-02  0.1130116E+00
         25   -1    0    0    0    0  0.00000000000E+00  0.00000000000E+00  0.99999998245E-14  0.12500000000E+03  0.12500000000E+03 0.  0.
        -11    1    3    3    0    0  0.43702713467E+02 -0.14347118581E+02  0.38796801840E+02  0.60174403273E+02  0.51100000000E-03 0.  1.
         23    2    1    0    0    0  0.19156549215E+02 -0.17360188616E+02  0.12462314218E+02  0.96300543520E+02  0.91924620641E+02 0.  0.
         11    1    3    3    0    0 -0.24546164252E+02 -0.30130700347E+01 -0.26334487623E+02  0.36126140247E+02  0.51100000000E-03 0. -1.
         22    1    1    0    0    0 -0.19156549215E+02  0.17360188616E+02 -0.12462314218E+02  0.28699456480E+02  0.00000000000E+00 0.  1.
</event>
<event>
 5    1  0.1282524E-003  0.9118800E+02  0.7818608E-02  0.1130116E+00
         25   -1    0    0    0    0  0.00000000000E+00  0.00000000000E+00  0.99999998245E-14  0.12500000000E+03  0.12500000000E+03 0.  0.
        -11    1    3    3    0    0  0.67862067071E+01 -0.42567923932E+02  0.26730276785E+01  0.43188260286E+02  0.51100000000E-03 0.  1.
         23    2    1    0    0    0 -0.24301226271E+02 -0.14296623736E+01  0.15264475351E+02  0.96266783325E+02  0.91878701728E+02 0.  0.
         11    1    3    3    0    0 -0.31087432978E+02  0.41138261558E+02  0.12591447672E+02  0.53078523038E+02  0.51100000000E-03 0. -1.
         22    1    1    0    0    0  0.24301226271E+02  0.14296623736E+01 -0.15264475351E+02  0.28733216675E+02  0.00000000000E+00 0. -1.
</event>
<event>
 5    1  0.1282524E-003  0.9118800E+02  0.7818608E-02  0.1130116E+00
         25   -1    0    0    0    0  0.00000000000E+00  0.00000000000E+00  0.99999998245E-14  0.12500000000E+03  0.12500000000E+03 0.  0.
        -11    1    3    3    0    0  0.26414903035E+02  0.21530624021E+02  0.22340366551E+02  0.40748090151E+02  0.51100000000E-03 0. -1.
         23    2    1    0    0    0 -0.22237287948E+02  0.21487699669E+02  0.51130483447E+00  0.94072994891E+02  0.88843957154E+02 0.  0.
         11    1    3    3    0    0 -0.48652190983E+02 -0.42924351504E-01 -0.21829061716E+02  0.53324904741E+02  0.51100000000E-03 0.  1.
         22    1    1    0    0    0  0.22237287948E+02 -0.21487699669E+02 -0.51130483447E+00  0.30927005109E+02  0.00000000000E+00 0.  1.
</event>
<event>
 5    1  0.1282524E-003  0.9118800E+02  0.7818608E-02  0.1130116E+00
         25   -1    0    0    0    0  0.00000000000E+00  0.00000000000E+00  0.99999998245E-14  0.12500000000E+03  0.12500000000E+03 0.  0.
        -11    1    3    3    0    0 -0.28264189200E+02 -0.10203027439E+02 -0.15350809503E+02  0.33743347681E+02  0.51100000000E-03 0. -1.
         23    2    1    0    0    0  0.23374773930E+02  0.35103278369E+01  0.16709731629E+02  0.96053193805E+02  0.91587654469E+02 0.  0.
         11    1    3    3    0    0  0.51638963130E+02  0.13713355275E+02  0.32060541132E+02  0.62309846124E+02  0.51100000000E-03 0.  1.
         22    1    1    0    0    0 -0.23374773930E+02 -0.35103278369E+01 -0.16709731629E+02  0.28946806195E+02  0.00000000000E+00 0.  1.
</event>
<event>
 5    1  0.1282524E-003  0.9118800E+02  0.7818608E-02  0.1130116E+00
         25   -1    0    0    0    0  0.00000000000E+00  0.00000000000E+00  0.99999998245E-14  0.12500000000E+03  0.12500000000E+03 0.  0.
        -11    1    3    3    0    0 -0.21779480735E+02  0.76242084648E+01 -0.32490908637E+02  0.39851392449E+02  0.51100000000E-03 0. -1.
         23    2    1    0    0    0  0.32068266689E+01  0.34537827204E+02  0.20313069031E+01  0.90254187979E+02  0.83297941120E+02 0.  0.
         11    1    3    3    0    0  0.24986307404E+02  0.26913618739E+02  0.34522215540E+02  0.50402795531E+02  0.51100000000E-03 0.  1.
         22    1    1    0    0    0 -0.32068266689E+01 -0.34537827204E+02 -0.20313069031E+01  0.34745812021E+02  0.00000000000E+00 0.  1.
</event>
<event>
 5    1  0.1282524E-003  0.9118800E+02  0.7818608E-02  0.1130116E+00
         25   -1    0    0    0    0  0.00000000000E+00  0.00000000000E+00  0.99999998245E-14  0.12500000000E+03  0.12500000000E+03 0.  0.
        -11    1    3    3    0    0 -0.21839203960E+02 -0.37232419487E+02  0.16354014709E+02  0.46159047735E+02  0.51100000000E-03 0.  1.
         23    2    1    0    0    0 -0.62951195444E+01 -0.10048725806E+02 -0.24587234535E+02  0.97702792772E+02  0.93812036503E+02 0.  0.
         11    1    3    3    0    0  0.15544084415E+02  0.27183693681E+02 -0.40941249244E+02  0.51543745036E+02  0.51100000000E-03 0. -1.
         22    1    1    0    0    0  0.62951195444E+01  0.10048725806E+02  0.24587234535E+02  0.27297207228E+02  0.00000000000E+00 0. -1.
</event>
<event>
 5    1  0.1282524E-003  0.9118800E+02  0.7818608E-02  0.1130116E+00
         25   -1    0    0    0    0  0.00000000000E+00  0.00000000000E+00  0.99999998245E-14  0.12500000000E+03  0.12500000000E+03 0.  0.
        -11    1    3    3    0    0 -0.21130526718E+02 -0.29739683319E+02 -0.43464303159E+01  0.36740160316E+02  0.51100000000E-03 0.  1.
         23    2    1    0    0    0  0.19886855288E+01  0.13118739629E+02  0.27182212811E+02  0.94752208462E+02  0.89794499362E+02 0.  0.
         11    1    3    3    0    0  0.23119212247E+02  0.42858422948E+02  0.31528643127E+02  0.58012048147E+02  0.51100000000E-03 0. -1.
         22    1    1    0    0    0 -0.19886855288E+01 -0.13118739629E+02 -0.27182212811E+02  0.30247791538E+02  0.00000000000E+00 0. -1.
</event>
<event>
 5    1  0.1282524E-003  0.9118800E+02  0.7818608E-02  0.1130116E+00
         25   -1    0    0    0    0  0.00000000000E+00  0.00000000000E+00  0.99999998245E-14  0.12500000000E+03  0.12500000000E+03 0.  0.
        -11    1    3    3    0    0  0.22056048841E+02  0.23033863281E+02 -0.32362291932E+02  0.45435075520E+02  0.51100000000E-03 0.  1.
         23    2    1    0    0    0  0.27077150025E+02 -0.88727138059E+01  0.63043256795E+01  0.95817100452E+02  0.91264862422E+02 0.  0.
         11    1    3    3    0    0  0.50211011838E+01 -0.31906577087E+02  0.38666617611E+02  0.50382024932E+02  0.51100000000E-03 0. -1.
         22    1    1    0    0    0 -0.27077150025E+02  0.88727138059E+01 -0.63043256795E+01  0.29182899548E+02  0.00000000000E+00 0. -1.
</event>
<event>
 5    1  0.1282524E-003  0.9118800E+02  0.7818608E-02  0.1130116E+00
         25   -1    0    0    0    0  0.00000000000E+00  0.00000000000E+00  0.99999998245E-14  0.12500000000E+03  0.12500000000E+03 0.  0.
        -11    1    3    3    0    0  0.45946918070E+01 -0.61785514323E+02  0.31392823197E+00  0.61956916677E+02  0.51100000000E-03 0. -1.
         23    2    1    0    0    0 -0.18115777957E+01 -0.29175364836E+02  0.43945922818E+01  0.95439956550E+02  0.90746840923E+02 0.  0.
         11    1    3    3    0    0 -0.64062696026E+01  0.32610149487E+02  0.40806640498E+01  0.33483039873E+02  0.51100000000E-03 0.  1.
         22    1    1    0    0    0  0.18115777957E+01  0.29175364836E+02 -0.43945922818E+01  0.29560043450E+02  0.00000000000E+00 0. -1.
</event>
<event>
 5    1  0.1282524E-003  0.9118800E+02  0.7818608E-02  0.1130116E+00
         25   -1    0    0    0    0  0.00000000000E+00  0.00000000000E+00  0.99999998245E-14  0.12500000000E+03  0.12500000000E+03 0.  0.
        -11    1    3    3    0    0  0.15237795732E+02 -0.28743739100E+02 -0.19613888259E+02  0.37988124054E+02  0.51100000000E-03 0.  1.
         23    2    1    0    0    0 -0.22540223900E+02 -0.84534967110E+01  0.17930157766E+02  0.94983107129E+02  0.90115352644E+02 0.  0.
         11    1    3    3    0    0 -0.37778019633E+02  0.20290242389E+02  0.37544046025E+02  0.56994983075E+02  0.51100000000E-03 0. -1.
         22    1    1    0    0    0  0.22540223900E+02  0.84534967110E+01 -0.17930157766E+02  0.30016892871E+02  0.00000000000E+00 0. -1.
</event>
<event>
 5    1  0.1282524E-003  0.9118800E+02  0.7818608E-02  0.1130116E+00
         25   -1    0    0    0    0  0.00000000000E+00  0.00000000000E+00  0.99999998245E-14  0.12500000000E+03  0.12500000000E+03 0.  0.
        -11    1    3    3    0    0  0.13283256571E+02  0.29740962365E+02  0.15026682985E+02  0.35871589724E+02  0.51100000000E-03 0.  1.
         23    2    1    0    0    0 -0.30643066517E+02  0.30263509757E+02  0.13641763261E+02  0.79822845893E+02  0.65808141390E+02 0.  0.
         11    1    3    3    0    0 -0.43926323089E+02  0.52254739139E+00 -0.13849197239E+01  0.43951256169E+02  0.51100000000E-03 0. -1.
         22    1    1    0    0    0  0.30643066517E+02 -0.30263509757E+02 -0.13641763261E+02  0.45177154107E+02  0.00000000000E+00 0.  1.
</event>
<event>
 5    1  0.1282524E-003  0.9118800E+02  0.7818608E-02  0.1130116E+00
         25   -1    0    0    0    0  0.00000000000E+00  0.00000000000E+00  0.99999998245E-14  0.12500000000E+03  0.12500000000E+03 0.  0.
        -11    1    3    3    0    0 -0.13588508447E+02 -0.27199017459E+02  0.18468190091E+02  0.35573981476E+02  0.51100000000E-03 0.  1.
         23    2    1    0    0    0  0.15870550378E+02  0.35696721322E+01 -0.24183656933E+02  0.95854396710E+02  0.91315930579E+02 0.  0.
         11    1    3    3    0    0  0.29459058826E+02  0.30768689591E+02 -0.42651847024E+02  0.60280415235E+02  0.51100000000E-03 0. -1.
         22    1    1    0    0    0 -0.15870550378E+02 -0.35696721322E+01  0.24183656933E+02  0.29145603290E+02  0.00000000000E+00 0. -1.
</event>
<event>
 5    1  0.1282524E-003  0.9118800E+02  0.7818608E-02  0.1130116E+00
         25   -1    0    0    0    0  0.00000000000E+00  0.00000000000E+00  0.99999998245E-14  0.12500000000E+03  0.12500000000E+03 0.  0.
        -11    1    3    3    0    0  0.46171142482E+02  0.56996529357E+01  0.16097248635E+01  0.46549453875E+02  0.51100000000E-03 0. -1.
         23    2    1    0    0    0 -0.16715310096E+01  0.17937631562E+02  0.18916565188E+02  0.98877422017E+02  0.95364330356E+02 0.  0.
         11    1    3    3    0    0 -0.47842673491E+02  0.12237978626E+02  0.17306840324E+02  0.52327968142E+02  0.51100000000E-03 0.  1.
         22    1    1    0    0    0  0.16715310096E+01 -0.17937631562E+02 -0.18916565188E+02  0.26122577983E+02  0.00000000000E+00 0.  1.
</event>
<event>
 5    1  0.1282524E-003  0.9118800E+02  0.7818608E-02  0.1130116E+00
         25   -1    0    0    0    0  0.00000000000E+00  0.00000000000E+00  0.99999998245E-14  0.12500000000E+03  0.12500000000E+03 0.  0.
        -11    1    3    3    0    0  0.19011085147E+02  0.86524415869E+01  0.12731102840E+02  0.24461542954E+02  0.51100000000E-03 0. -1.
         23    2    1    0    0    0 -0.33169768306E+02  0.22210933775E+02 -0.11334810832E+02  0.83502565799E+02  0.72461310020E+02 0.  0.
         11    1    3    3    0    0 -0.52180853454E+02  0.13558492188E+02 -0.24065913671E+02  0.59041022846E+02  0.51100000000E-03 0.  1.
         22    1    1    0    0    0  0.33169768306E+02 -0.22210933775E+02  0.11334810832E+02  0.41497434201E+02  0.00000000000E+00 0.  1.
</event>
<event>
 5    1  0.1282524E-003  0.9118800E+02  0.7818608E-02  0.1130116E+00
         25   -1    0    0    0    0  0.00000000000E+00  0.00000000000E+00  0.99999998245E-14  0.12500000000E+03  0.12500000000E+03 0.  0.
        -11    1    3    3    0    0 -0.26125494379E+02 -0.20851598812E+02  0.17422484589E+02  0.37694477037E+02  0.51100000000E-03 0.  1.
         23    2    1    0    0    0  0.26152075287E+02 -0.59348060645E+01 -0.69879538214E+01  0.97287467394E+02  0.93256993563E+02 0.  0.
         11    1    3    3    0    0  0.52277569666E+02  0.14916792748E+02 -0.24410438410E+02  0.59592990357E+02  0.51100000000E-03 0. -1.
         22    1    1    0    0    0 -0.26152075287E+02  0.59348060645E+01  0.69879538214E+01  0.27712532606E+02  0.00000000000E+00 0. -1.
</event>
<event>
 5    1  0.1282524E-003  0.9118800E+02  0.7818608E-02  0.1130116E+00
         25   -1    0    0    0    0  0.00000000000E+00  0.00000000000E+00  0.99999998245E-14  0.12500000000E+03  0.12500000000E+03 0.  0.
        -11    1    3    3    0    0 -0.40572421259E+01 -0.11620788332E+02 -0.47429364213E+02  0.49000495151E+02  0.51100000000E-03 0. -1.
         23    2    1    0    0    0  0.25285468797E+02  0.48295233304E+01 -0.20819981970E+02  0.91891830659E+02  0.85720229029E+02 0.  0.
         11    1    3    3    0    0  0.29342710922E+02  0.16450311662E+02  0.26609382243E+02  0.42891335508E+02  0.51100000000E-03 0.  1.
         22    1    1    0    0    0 -0.25285468797E+02 -0.48295233304E+01  0.20819981970E+02  0.33108169341E+02  0.00000000000E+00 0. -1.
</event>
<event>
 5    1  0.1282524E-003  0.9118800E+02  0.7818608E-02  0.1130116E+00
         25   -1    0    0    0    0  0.00000000000E+00  0.00000000000E+00  0.99999998245E-14  0.12500000000E+03  0.12500000000E+03 0.  0.
        -11    1    3    3    0    0  0.25352027194E+02  0.11542690544E+02 -0.49562862457E+02  0.56854518932E+02  0.51100000000E-03 0.  1.
         23    2    1    0    0    0 -0.55483466380E+01  0.99782244980E+01 -0.28540364825E+02  0.94260749214E+02  0.89107728641E+02 0.  0.
         11    1    3    3    0    0 -0.30900373832E+02 -0.15644660458E+01  0.21022497632E+02  0.37406230282E+02  0.51100000000E-03 0. -1.
         22    1    1    0    0    0  0.55483466380E+01 -0.99782244980E+01  0.28540364825E+02  0.30739250786E+02  0.00000000000E+00 0.  1.
</event>
<event>
 5    1  0.1282524E-003  0.9118800E+02  0.7818608E-02  0.1130116E+00
         25   -1    0    0    0    0  0.00000000000E+00  0.00000000000E+00  0.99999998245E-14  0.12500000000E+03  0.12500000000E+03 0.  0.
        -11    1    3    3    0    0  0.23801285941E+02 -0.33770638883E+02 -0.45976478775E+02  0.61812570436E+02  0.51100000000E-03 0. -1.
         23    2    1    0    0    0  0.45661106465E+01 -0.17165753471E+02 -0.21713432716E+02  0.96946736037E+02  0.92799159529E+02 0.  0.
         11    1    3    3    0    0 -0.19235175295E+02  0.16604885412E+02  0.24263046059E+02  0.35134165601E+02  0.51100000000E-03 0.  1.
         22    1    1    0    0    0 -0.45661106465E+01  0.17165753471E+02  0.21713432716E+02  0.28053263963E+02  0.00000000000E+00 0. -1.
</event>
<event>
 5    1  0.1282524E-003  0.9118800E+02  0.7818608E-02  0.1130116E+00
         25   -1    0    0    0    0  0.00000000000E+00  0.00000000000E+00  0.99999998245E-14  0.12500000000E+03  0.12500000000E+03 0.  0.
        -11    1    3    3    0    0 -0.17125197621E+02 -0.34384074536E+02  0.67716707562E+00  0.38418687259E+02  0.51100000000E-03 0.  1.
         23    2    1    0    0    0  0.29136445148E+02 -0.11904218131E+01 -0.40797188104E+01  0.95555244176E+02  0.90905506126E+02 0.  0.
         11    1    3    3    0    0  0.46261642769E+02  0.33193652723E+02 -0.47568858860E+01  0.57136556917E+02  0.51100000000E-03 0. -1.
         22    1    1    0    0    0 -0.29136445148E+02  0.11904218131E+01  0.40797188104E+01  0.29444755824E+02  0.00000000000E+00 0. -1.
</event>
<event>
 5    1  0.1282524E-003  0.9118800E+02  0.7818608E-02  0.1130116E+00
         25   -1    0    0    0    0  0.00000000000E+00  0.00000000000E+00  0.99999998245E-14  0.12500000000E+03  0.12500000000E+03 0.  0.
        -11    1    3    3    0    0  0.58412924006E+02 -0.10753823992E+02  0.59386179875E+01  0.59690716240E+02  0.51100000000E-03 0.  1.
         23    2    1    0    0    0  0.36153726277E+02  0.59141578326E+01 -0.10023643502E+01  0.88352027057E+02  0.80392827816E+02 0.  0.
         11    1    3    3    0    0 -0.22259197730E+02  0.16667981825E+02 -0.69409823377E+01  0.28661310817E+02  0.51100000000E-03 0. -1.
         22    1    1    0    0    0 -0.36153726277E+02 -0.59141578326E+01  0.10023643502E+01  0.36647972943E+02  0.00000000000E+00 0.  1.
</event>
<event>
 5    1  0.1282524E-003  0.9118800E+02  0.7818608E-02  0.1130116E+00
         25   -1    0    0    0    0  0.00000000000E+00  0.00000000000E+00  0.99999998245E-14  0.12500000000E+03  0.12500000000E+03 0.  0.
        -11    1    3    3    0    0 -0.34051853056E+02 -0.18048038711E+01 -0.51097812185E+02  0.61431037952E+02  0.51100000000E-03 0. -1.
         23    2    1    0    0    0 -0.88668266544E+01 -0.79492185478E+00 -0.27999552841E+02  0.95619266943E+02  0.90993498315E+02 0.  0.
         11    1    3    3    0    0  0.25185026402E+02  0.10098820164E+01  0.23098259343E+02  0.34188228990E+02  0.51100000000E-03 0.  1.
         22    1    1    0    0    0  0.88668266544E+01  0.79492185478E+00  0.27999552841E+02  0.29380733057E+02  0.00000000000E+00 0. -1.
</event>
<event>
 5    1  0.1282524E-003  0.9118800E+02  0.7818608E-02  0.1130116E+00
         25   -1    0    0    0    0  0.00000000000E+00  0.00000000000E+00  0.99999998245E-14  0.12500000000E+03  0.12500000000E+03 0.  0.
        -11    1    3    3    0    0 -0.16146328318E+02  0.35331382196E+02  0.28793888197E+02  0.48353887990E+02  0.51100000000E-03 0. -1.
         23    2    1    0    0    0 -0.30957270949E+02 -0.37776118885E+00  0.20429933421E+02  0.87907177141E+02  0.79698144804E+02 0.  0.
         11    1    3    3    0    0 -0.14810942631E+02 -0.35709143384E+02 -0.83639547766E+01  0.39553289151E+02  0.51100000000E-03 0.  1.
         22    1    1    0    0    0  0.30957270949E+02  0.37776118885E+00 -0.20429933421E+02  0.37092822859E+02  0.00000000000E+00 0.  1.
</event>
<event>
 5    1  0.1282524E-003  0.9118800E+02  0.7818608E-02  0.1130116E+00
         25   -1    0    0    0    0  0.00000000000E+00  0.00000000000E+00  0.99999998245E-14  0.12500000000E+03  0.12500000000E+03 0.  0.
        -11    1    3    3    0    0  0.27368667163E+02 -0.19978787800E+02 -0.36941739522E+02  0.50128714560E+02  0.51100000000E-03 0. -1.
         23    2    1    0    0    0  0.16365094073E+02  0.18727560536E+02 -0.14829203000E+02  0.96044118227E+02  0.91575267167E+02 0.  0.
         11    1    3    3    0    0 -0.11003573090E+02  0.38706348335E+02  0.22112536522E+02  0.45915403667E+02  0.51100000000E-03 0.  1.
         22    1    1    0    0    0 -0.16365094073E+02 -0.18727560536E+02  0.14829203000E+02  0.28955881773E+02  0.00000000000E+00 0.  1.
</event>
<event>
 5    1  0.1282524E-003  0.9118800E+02  0.7818608E-02  0.1130116E+00
         25   -1    0    0    0    0  0.00000000000E+00  0.00000000000E+00  0.99999998245E-14  0.12500000000E+03  0.12500000000E+03 0.  0.
        -11    1    3    3    0    0  0.24321339528E+02  0.23789465683E+02  0.29935724985E+02  0.45316816576E+02  0.51100000000E-03 0. -1.
         23    2    1    0    0    0  0.24973618767E+02 -0.16468040610E+02  0.69491104584E+00  0.95077418273E+02  0.90246077855E+02 0.  0.
         11    1    3    3    0    0  0.65227923941E+00 -0.40257506293E+02 -0.29240813939E+02  0.49760601697E+02  0.51100000000E-03 0.  1.
         22    1    1    0    0    0 -0.24973618767E+02  0.16468040610E+02 -0.69491104584E+00  0.29922581727E+02  0.00000000000E+00 0.  1.
</event>
<event>
 5    1  0.1282524E-003  0.9118800E+02  0.7818608E-02  0.1130116E+00
         25   -1    0    0    0    0  0.00000000000E+00  0.00000000000E+00  0.99999998245E-14  0.12500000000E+03  0.12500000000E+03 0.  0.
        -11    1    3    3    0    0  0.34783413747E+01  0.59046735506E+02 -0.69440769278E+01  0.59555319135E+02  0.51100000000E-03 0.  1.
         23    2    1    0    0    0 -0.11568631766E+02  0.24138815440E+02  0.18857178010E+00  0.98231525798E+02  0.94513921988E+02 0.  0.
         11    1    3    3    0    0 -0.15046973141E+02 -0.34907920066E+02  0.71326487079E+01  0.38676206663E+02  0.51100000000E-03 0. -1.
         22    1    1    0    0    0  0.11568631766E+02 -0.24138815440E+02 -0.18857178010E+00  0.26768474202E+02  0.00000000000E+00 0.  1.
</event>
<event>
 5    1  0.1282524E-003  0.9118800E+02  0.7818608E-02  0.1130116E+00
         25   -1    0    0    0    0  0.00000000000E+00  0.00000000000E+00  0.99999998245E-14  0.12500000000E+03  0.12500000000E+03 0.  0.
        -11    1    3    3    0    0 -0.18805733687E+01 -0.25113987634E+02  0.35602761793E+02  0.43609695925E+02  0.51100000000E-03 0. -1.
         23    2    1    0    0    0 -0.29094437001E+02 -0.16640866144E+01 -0.22202017804E+01  0.95773560864E+02  0.91205209368E+02 0.  0.
         11    1    3    3    0    0 -0.27213863632E+02  0.23449901019E+02 -0.37822963574E+02  0.52163864939E+02  0.51100000000E-03 0.  1.
         22    1    1    0    0    0  0.29094437001E+02  0.16640866144E+01  0.22202017804E+01  0.29226439136E+02  0.00000000000E+00 0.  1.
</event>
<event>
 5    1  0.1282524E-003  0.9118800E+02  0.7818608E-02  0.1130116E+00
         25   -1    0    0    0    0  0.00000000000E+00  0.00000000000E+00  0.99999998245E-14  0.12500000000E+03  0.12500000000E+03 0.  0.
        -11    1    3    3    0    0  0.28265773858E+01  0.27811790830E+02 -0.17206594071E+02  0.32826089146E+02  0.51100000000E-03 0.  1.
         23    2    1    0    0    0 -0.16395330236E+02 -0.21584919836E+02  0.14162162696E+02  0.94417611766E+02  0.89327503835E+02 0.  0.
         11    1    3    3    0    0 -0.19221907621E+02 -0.49396710666E+02  0.31368756767E+02  0.61591522619E+02  0.51100000000E-03 0. -1.
         22    1    1    0    0    0  0.16395330236E+02  0.21584919836E+02 -0.14162162696E+02  0.30582388234E+02  0.00000000000E+00 0. -1.
</event>
<event>
 5    1  0.1282524E-003  0.9118800E+02  0.7818608E-02  0.1130116E+00
         25   -1    0    0    0    0  0.00000000000E+00  0.00000000000E+00  0.99999998245E-14  0.12500000000E+03  0.12500000000E+03 0.  0.
        -11    1    3    3    0    0  0.17359927730E+02  0.26137437619E+02  0.15407224832E+01  0.31415069029E+02  0.51100000000E-03 0.  1.
         23    2    1    0    0    0  0.61121603418E+01 -0.32732742769E+02 -0.32611727368E+01  0.91542172802E+02  0.85208821142E+02 0.  0.
         11    1    3    3    0    0 -0.11247767388E+02 -0.58870180388E+02 -0.48018952201E+01  0.60127103772E+02  0.51100000000E-03 0. -1.
         22    1    1    0    0    0 -0.61121603418E+01  0.32732742769E+02  0.32611727368E+01  0.33457827198E+02  0.00000000000E+00 0. -1.
</event>
<event>
 5    1  0.1282524E-003  0.9118800E+02  0.7818608E-02  0.1130116E+00
         25   -1    0    0    0    0  0.00000000000E+00  0.00000000000E+00  0.99999998245E-14  0.12500000000E+03  0.12500000000E+03 0.  0.
        -11    1    3    3    0    0  0.45040894508E+01 -0.44302266576E+02  0.30433197941E+02  0.53936603367E+02  0.51100000000E-03 0.  1.
         23    2    1    0    0    0 -0.95651851827E+01 -0.48121965052E+01  0.26947970132E+02  0.96002705350E+02  0.91518721241E+02 0.  0.
         11    1    3    3    0    0 -0.14069274634E+02  0.39490070071E+02 -0.34852278093E+01  0.42066101983E+02  0.51100000000E-03 0. -1.
         22    1    1    0    0    0  0.95651851827E+01  0.48121965052E+01 -0.26947970132E+02  0.28997294650E+02  0.00000000000E+00 0.  1.
</event>
<event>
 5    1  0.1282524E-003  0.9118800E+02  0.7818608E-02  0.1130116E+00
         25   -1    0    0    0    0  0.00000000000E+00  0.00000000000E+00  0.99999998245E-14  0.12500000000E+03  0.12500000000E+03 0.  0.
        -11    1    3    3    0    0 -0.35207339356E+02 -0.14166118961E+02  0.17969084277E+02  0.41989566096E+02  0.51100000000E-03 0. -1.
         23    2    1    0    0    0  0.18107688639E+02 -0.54945473684E+01  0.21790153708E+02  0.96140179536E+02  0.91706296861E+02 0.  0.
         11    1    3    3    0    0  0.53315027995E+02  0.86715715928E+01  0.38210694311E+01  0.54150613439E+02  0.51100000000E-03 0.  1.
         22    1    1    0    0    0 -0.18107688639E+02  0.54945473684E+01 -0.21790153708E+02  0.28859820464E+02  0.00000000000E+00 0.  1.
</event>
<event>
 5    1  0.1282524E-003  0.9118800E+02  0.7818608E-02  0.1130116E+00
         25   -1    0    0    0    0  0.00000000000E+00  0.00000000000E+00  0.99999998245E-14  0.12500000000E+03  0.12500000000E+03 0.  0.
        -11    1    3    3    0    0 -0.12001482807E+02  0.29519817304E+02 -0.21622539601E+02  0.38509601689E+02  0.51100000000E-03 0.  1.
         23    2    1    0    0    0  0.12335540068E+02  0.51682559700E+01  0.25107431983E+02  0.96552512249E+02  0.92266614018E+02 0.  0.
         11    1    3    3    0    0  0.24337022874E+02 -0.24351561334E+02  0.46729971584E+02  0.58042910560E+02  0.51100000000E-03 0. -1.
         22    1    1    0    0    0 -0.12335540068E+02 -0.51682559700E+01 -0.25107431983E+02  0.28447487751E+02  0.00000000000E+00 0. -1.
</event>
<event>
 5    1  0.1282524E-003  0.9118800E+02  0.7818608E-02  0.1130116E+00
         25   -1    0    0    0    0  0.00000000000E+00  0.00000000000E+00  0.99999998245E-14  0.12500000000E+03  0.12500000000E+03 0.  0.
        -11    1    3    3    0    0 -0.11510820737E+02 -0.57096916879E+02  0.10994040283E+01  0.58256034885E+02  0.51100000000E-03 0.  1.
         23    2    1    0    0    0  0.92019156698E+01 -0.24435916232E+02  0.83119308588E+01  0.97597856859E+02  0.93672110123E+02 0.  0.
         11    1    3    3    0    0  0.20712736407E+02  0.32661000646E+02  0.72125268305E+01  0.39341821974E+02  0.51100000000E-03 0. -1.
         22    1    1    0    0    0 -0.92019156698E+01  0.24435916232E+02 -0.83119308588E+01  0.27402143141E+02  0.00000000000E+00 0.  1.
</event>
<event>
 5    1  0.1282524E-003  0.9118800E+02  0.7818608E-02  0.1130116E+00
         25   -1    0    0    0    0  0.00000000000E+00  0.00000000000E+00  0.99999998245E-14  0.12500000000E+03  0.12500000000E+03 0.  0.
        -11    1    3    3    0    0 -0.89188009639E+01 -0.15371734761E+02  0.34240658751E+02  0.38577946448E+02  0.51100000000E-03 0.  1.
         23    2    1    0    0    0  0.13766950860E+02  0.26490718378E+02  0.42639360159E+01  0.94842608758E+02  0.89920254612E+02 0.  0.
         11    1    3    3    0    0  0.22685751823E+02  0.41862453139E+02 -0.29976722735E+02  0.56264662310E+02  0.51100000000E-03 0. -1.
         22    1    1    0    0    0 -0.13766950860E+02 -0.26490718378E+02 -0.42639360159E+01  0.30157391242E+02  0.00000000000E+00 0. -1.
</event>
<event>
 5    1  0.1282524E-003  0.9118800E+02  0.7818608E-02  0.1130116E+00
         25   -1    0    0    0    0  0.00000000000E+00  0.00000000000E+00  0.99999998245E-14  0.12500000000E+03  0.12500000000E+03 0.  0.
        -11    1    3    3    0    0  0.29979935026E+02 -0.31929814489E+01  0.47810391743E+02  0.56522784730E+02  0.51100000000E-03 0.  1.
         23    2    1    0    0    0  0.26988371137E+02 -0.18678187290E+02  0.27901572113E+02  0.81921645999E+02  0.69680782858E+02 0.  0.
         11    1    3    3    0    0 -0.29915638891E+01 -0.15485205841E+02 -0.19908819630E+02  0.25398861269E+02  0.51100000000E-03 0. -1.
         22    1    1    0    0    0 -0.26988371137E+02  0.18678187290E+02 -0.27901572113E+02  0.43078354001E+02  0.00000000000E+00 0.  1.
</event>
<event>
 5    1  0.1282524E-003  0.9118800E+02  0.7818608E-02  0.1130116E+00
         25   -1    0    0    0    0  0.00000000000E+00  0.00000000000E+00  0.99999998245E-14  0.12500000000E+03  0.12500000000E+03 0.  0.
        -11    1    3    3    0    0 -0.36329465801E+02 -0.54004575485E+01  0.34234410715E+02  0.50209460308E+02  0.51100000000E-03 0. -1.
         23    2    1    0    0    0  0.74587781535E+01 -0.91094010715E+01  0.28039517610E+02  0.94588996938E+02  0.89567009744E+02 0.  0.
         11    1    3    3    0    0  0.43788243955E+02 -0.37089435229E+01 -0.61948931049E+01  0.44379536630E+02  0.51100000000E-03 0.  1.
         22    1    1    0    0    0 -0.74587781535E+01  0.91094010715E+01 -0.28039517610E+02  0.30411003062E+02  0.00000000000E+00 0. -1.
</event>
<event>
 5    1  0.1282524E-003  0.9118800E+02  0.7818608E-02  0.1130116E+00
         25   -1    0    0    0    0  0.00000000000E+00  0.00000000000E+00  0.99999998245E-14  0.12500000000E+03  0.12500000000E+03 0.  0.
        -11    1    3    3    0    0 -0.39497472046E+02  0.42478463416E+01 -0.14807533752E+02  0.42395253893E+02  0.51100000000E-03 0.  1.
         23    2    1    0    0    0 -0.52915941267E+01 -0.75682732590E+01  0.26278128567E+02  0.97146458583E+02  0.93067795964E+02 0.  0.
         11    1    3    3    0    0  0.34205877919E+02 -0.11816119601E+02  0.41085662318E+02  0.54751204690E+02  0.51100000000E-03 0. -1.
         22    1    1    0    0    0  0.52915941267E+01  0.75682732590E+01 -0.26278128567E+02  0.27853541417E+02  0.00000000000E+00 0. -1.
</event>
<event>
 5    1  0.1282524E-003  0.9118800E+02  0.7818608E-02  0.1130116E+00
         25   -1    0    0    0    0  0.00000000000E+00  0.00000000000E+00  0.99999998245E-14  0.12500000000E+03  0.12500000000E+03 0.  0.
        -11    1    3    3    0    0  0.13800936383E+02 -0.56307103958E+02  0.18572623385E+02  0.60876088416E+02  0.51100000000E-03 0. -1.
         23    2    1    0    0    0 -0.28081385737E+01 -0.27010340683E+02  0.12536222429E+02  0.95090118374E+02  0.90263667073E+02 0.  0.
         11    1    3    3    0    0 -0.16609074956E+02  0.29296763274E+02 -0.60364009553E+01  0.34214029959E+02  0.51100000000E-03 0.  1.
         22    1    1    0    0    0  0.28081385737E+01  0.27010340683E+02 -0.12536222429E+02  0.29909881626E+02  0.00000000000E+00 0. -1.
</event>
<event>
 5    1  0.1282524E-003  0.9118800E+02  0.7818608E-02  0.1130116E+00
         25   -1    0    0    0    0  0.00000000000E+00  0.00000000000E+00  0.99999998245E-14  0.12500000000E+03  0.12500000000E+03 0.  0.
        -11    1    3    3    0    0  0.32218461628E+02 -0.80316031987E+01 -0.24352575324E+01  0.33293639019E+02  0.51100000000E-03 0.  1.
         23    2    1    0    0    0 -0.28694597820E+02 -0.79409508198E+01  0.55053777197E+01  0.94722156157E+02  0.89752654775E+02 0.  0.
         11    1    3    3    0    0 -0.60913059448E+02  0.90652378871E-01  0.79406352521E+01  0.61428517137E+02  0.51100000000E-03 0. -1.
         22    1    1    0    0    0  0.28694597820E+02  0.79409508198E+01 -0.55053777197E+01  0.30277843843E+02  0.00000000000E+00 0. -1.
</event>
<event>
 5    1  0.1282524E-003  0.9118800E+02  0.7818608E-02  0.1130116E+00
         25   -1    0    0    0    0  0.00000000000E+00  0.00000000000E+00  0.99999998245E-14  0.12500000000E+03  0.12500000000E+03 0.  0.
        -11    1    3    3    0    0 -0.88996535107E+01  0.85602153431E+01 -0.32650225289E+02  0.34907281919E+02  0.51100000000E-03 0.  1.
         23    2    1    0    0    0  0.29608362908E+02  0.41040367968E+01  0.10874296492E+02  0.93192004208E+02  0.87595667998E+02 0.  0.
         11    1    3    3    0    0  0.38508016419E+02 -0.44561785463E+01  0.43524521781E+02  0.58284722288E+02  0.51100000000E-03 0. -1.
         22    1    1    0    0    0 -0.29608362908E+02 -0.41040367968E+01 -0.10874296492E+02  0.31807995792E+02  0.00000000000E+00 0. -1.
</event>
<event>
 5    1  0.1282524E-003  0.9118800E+02  0.7818608E-02  0.1130116E+00
         25   -1    0    0    0    0  0.00000000000E+00  0.00000000000E+00  0.99999998245E-14  0.12500000000E+03  0.12500000000E+03 0.  0.
        -11    1    3    3    0    0  0.38553675628E+02 -0.98923606365E+01  0.45837416547E+02  0.60706782647E+02  0.51100000000E-03 0. -1.
         23    2    1    0    0    0  0.95430069892E+01 -0.82223156216E+01  0.26633675446E+02  0.95537682977E+02  0.90881355317E+02 0.  0.
         11    1    3    3    0    0 -0.29010668639E+02  0.16700450149E+01 -0.19203741101E+02  0.34830900330E+02  0.51100000000E-03 0.  1.
         22    1    1    0    0    0 -0.95430069892E+01  0.82223156216E+01 -0.26633675446E+02  0.29462317023E+02  0.00000000000E+00 0. -1.
</event>
<event>
 5    1  0.1282524E-003  0.9118800E+02  0.7818608E-02  0.1130116E+00
         25   -1    0    0    0    0  0.00000000000E+00  0.00000000000E+00  0.99999998245E-14  0.12500000000E+03  0.12500000000E+03 0.  0.
        -11    1    3    3    0    0 -0.22927629051E+02  0.38635421967E+02  0.39611761300E+02  0.59895439209E+02  0.51100000000E-03 0.  1.
         23    2    1    0    0    0 -0.19654301520E+02  0.90004312977E+01  0.19739419533E+02  0.95726393880E+02  0.91140542406E+02 0.  0.
         11    1    3    3    0    0  0.32733275313E+01 -0.29634990669E+02 -0.19872341767E+02  0.35830954671E+02  0.51100000000E-03 0. -1.
         22    1    1    0    0    0  0.19654301520E+02 -0.90004312977E+01 -0.19739419533E+02  0.29273606120E+02  0.00000000000E+00 0.  1.
</event>
<event>
 5    1  0.1282524E-003  0.9118800E+02  0.7818608E-02  0.1130116E+00
         25   -1    0    0    0    0  0.00000000000E+00  0.00000000000E+00  0.99999998245E-14  0.12500000000E+03  0.12500000000E+03 0.  0.
        -11    1    3    3    0    0 -0.38901283432E+02  0.11957845643E+02  0.21569574652E+02  0.46060248327E+02  0.51100000000E-03 0. -1.
         23    2    1    0    0    0 -0.17694569398E+02 -0.23588805965E+02 -0.47798059840E+01  0.95127335267E+02  0.90315191505E+02 0.  0.
         11    1    3    3    0    0  0.21206714033E+02 -0.35546651607E+02 -0.26349380636E+02  0.49067086939E+02  0.51100000000E-03 0.  1.
         22    1    1    0    0    0  0.17694569398E+02  0.23588805965E+02  0.47798059840E+01  0.29872664733E+02  0.00000000000E+00 0. -1.
</event>
<event>
 5    1  0.1282524E-003  0.9118800E+02  0.7818608E-02  0.1130116E+00
         25   -1    0    0    0    0  0.00000000000E+00  0.00000000000E+00  0.99999998245E-14  0.12500000000E+03  0.12500000000E+03 0.  0.
        -11    1    3    3    0    0 -0.36520958359E+01 -0.15677398687E+02  0.36760415504E+02  0.40130372312E+02  0.51100000000E-03 0.  1.
         23    2    1    0    0    0 -0.24115468845E+01 -0.20263933841E+02 -0.19608506464E+02  0.96699185545E+02  0.92465109021E+02 0.  0.
         11    1    3    3    0    0  0.12405489514E+01 -0.45865351532E+01 -0.56368921968E+02  0.56568813233E+02  0.51100000000E-03 0. -1.
         22    1    1    0    0    0  0.24115468845E+01  0.20263933841E+02  0.19608506464E+02  0.28300814455E+02  0.00000000000E+00 0. -1.
</event>
<event>
 5    1  0.1282524E-003  0.9118800E+02  0.7818608E-02  0.1130116E+00
         25   -1    0    0    0    0  0.00000000000E+00  0.00000000000E+00  0.99999998245E-14  0.12500000000E+03  0.12500000000E+03 0.  0.
        -11    1    3    3    0    0  0.72927786363E+01 -0.12899936035E+02 -0.30274742015E+02  0.33706868355E+02  0.51100000000E-03 0.  1.
         23    2    1    0    0    0  0.52397220249E+01  0.26515873954E+01  0.29199928971E+02  0.95215415824E+02  0.90437016514E+02 0.  0.
         11    1    3    3    0    0 -0.20530566114E+01  0.15551523431E+02  0.59474670987E+02  0.61508547469E+02  0.51100000000E-03 0. -1.
         22    1    1    0    0    0 -0.52397220249E+01 -0.26515873954E+01 -0.29199928971E+02  0.29784584176E+02  0.00000000000E+00 0. -1.
</event>
<event>
 5    1  0.1282524E-003  0.9118800E+02  0.7818608E-02  0.1130116E+00
         25   -1    0    0    0    0  0.00000000000E+00  0.00000000000E+00  0.99999998245E-14  0.12500000000E+03  0.12500000000E+03 0.  0.
        -11    1    3    3    0    0 -0.58082055659E+02 -0.52158534073E+01  0.16341239603E+02  0.60562087385E+02  0.51100000000E-03 0.  1.
         23    2    1    0    0    0 -0.28036623808E+02  0.77592808839E+01  0.35776334478E+01  0.95690305776E+02  0.91091033829E+02 0.  0.
         11    1    3    3    0    0  0.30045431851E+02  0.12975134291E+02 -0.12763606156E+02  0.35128218391E+02  0.51100000000E-03 0. -1.
         22    1    1    0    0    0  0.28036623808E+02 -0.77592808839E+01 -0.35776334478E+01  0.29309694224E+02  0.00000000000E+00 0.  1.
</event>
<event>
 5    1  0.1282524E-003  0.9118800E+02  0.7818608E-02  0.1130116E+00
         25   -1    0    0    0    0  0.00000000000E+00  0.00000000000E+00  0.99999998245E-14  0.12500000000E+03  0.12500000000E+03 0.  0.
        -11    1    3    3    0    0  0.19468029359E+02 -0.29566721861E+02 -0.17726913899E+02  0.39590891444E+02  0.51100000000E-03 0.  1.
         23    2    1    0    0    0  0.11492445039E+02  0.24786398149E+02 -0.13042598316E+02  0.94725403438E+02  0.89757177203E+02 0.  0.
         11    1    3    3    0    0 -0.79755843202E+01  0.54353120010E+02  0.46843155828E+01  0.55134511994E+02  0.51100000000E-03 0. -1.
         22    1    1    0    0    0 -0.11492445039E+02 -0.24786398149E+02  0.13042598316E+02  0.30274596562E+02  0.00000000000E+00 0. -1.
</event>
<event>
 5    1  0.1282524E-003  0.9118800E+02  0.7818608E-02  0.1130116E+00
         25   -1    0    0    0    0  0.00000000000E+00  0.00000000000E+00  0.99999998245E-14  0.12500000000E+03  0.12500000000E+03 0.  0.
        -11    1    3    3    0    0 -0.34075982095E+02 -0.56497408115E+01  0.35929016668E+02  0.49839606398E+02  0.51100000000E-03 0.  1.
         23    2    1    0    0    0  0.65386745154E+01  0.12098823433E+02  0.26483952812E+02  0.95158157741E+02  0.90357841028E+02 0.  0.
         11    1    3    3    0    0  0.40614656610E+02  0.17748564244E+02 -0.94450638559E+01  0.45318551343E+02  0.51100000000E-03 0. -1.
         22    1    1    0    0    0 -0.65386745154E+01 -0.12098823433E+02 -0.26483952812E+02  0.29841842259E+02  0.00000000000E+00 0. -1.
</event>
<event>
 5    1  0.1282524E-003  0.9118800E+02  0.7818608E-02  0.1130116E+00
         25   -1    0    0    0    0  0.00000000000E+00  0.00000000000E+00  0.99999998245E-14  0.12500000000E+03  0.12500000000E+03 0.  0.
        -11    1    3    3    0    0 -0.29708714958E+02 -0.18471342897E+02 -0.24619025760E+02  0.42777268292E+02  0.51100000000E-03 0. -1.
         23    2    1    0    0    0  0.20060640233E+02 -0.62959751795E+01 -0.22712367611E+02  0.94049713531E+02  0.88811195143E+02 0.  0.
         11    1    3    3    0    0  0.49769355191E+02  0.12175367717E+02  0.19066581494E+01  0.51272445239E+02  0.51100000000E-03 0.  1.
         22    1    1    0    0    0 -0.20060640233E+02  0.62959751795E+01  0.22712367611E+02  0.30950286469E+02  0.00000000000E+00 0.  1.
</event>
<event>
 5    1  0.1282524E-003  0.9118800E+02  0.7818608E-02  0.1130116E+00
         25   -1    0    0    0    0  0.00000000000E+00  0.00000000000E+00  0.99999998245E-14  0.12500000000E+03  0.12500000000E+03 0.  0.
        -11    1    3    3    0    0  0.38440499213E+02  0.48906714684E+01 -0.34201270766E+02  0.51684790504E+02  0.51100000000E-03 0. -1.
         23    2    1    0    0    0  0.19342533149E+01  0.23148687629E+02 -0.18052778400E+02  0.95580518651E+02  0.90940253259E+02 0.  0.
         11    1    3    3    0    0 -0.36506245898E+02  0.18258016161E+02  0.16148492365E+02  0.43895728148E+02  0.51100000000E-03 0.  1.
         22    1    1    0    0    0 -0.19342533149E+01 -0.23148687629E+02  0.18052778400E+02  0.29419481349E+02  0.00000000000E+00 0. -1.
</event>
<event>
 5    1  0.1282524E-003  0.9118800E+02  0.7818608E-02  0.1130116E+00
         25   -1    0    0    0    0  0.00000000000E+00  0.00000000000E+00  0.99999998245E-14  0.12500000000E+03  0.12500000000E+03 0.  0.
        -11    1    3    3    0    0 -0.72659281400E+01 -0.60833063771E+02 -0.65943301220E+01  0.61619319612E+02  0.51100000000E-03 0. -1.
         23    2    1    0    0    0  0.67341115800E+00 -0.29683385567E+02  0.29784822791E+01  0.95159956133E+02  0.90360328869E+02 0.  0.
         11    1    3    3    0    0  0.79393392980E+01  0.31149678204E+02  0.95728124011E+01  0.33540636521E+02  0.51100000000E-03 0.  1.
         22    1    1    0    0    0 -0.67341115800E+00  0.29683385567E+02 -0.29784822791E+01  0.29840043867E+02  0.00000000000E+00 0. -1.
</event>
<event>
 5    1  0.1282524E-003  0.9118800E+02  0.7818608E-02  0.1130116E+00
         25   -1    0    0    0    0  0.00000000000E+00  0.00000000000E+00  0.99999998245E-14  0.12500000000E+03  0.12500000000E+03 0.  0.
        -11    1    3    3    0    0  0.49175555053E+02 -0.66976806307E+00 -0.23163562604E+02  0.54362067996E+02  0.51100000000E-03 0. -1.
         23    2    1    0    0    0  0.16913280814E+02 -0.20956058803E+02 -0.17481772077E+02  0.92893492507E+02  0.87168647614E+02 0.  0.
         11    1    3    3    0    0 -0.32262274239E+02 -0.20286290739E+02  0.56817905268E+01  0.38531424511E+02  0.51100000000E-03 0.  1.
         22    1    1    0    0    0 -0.16913280814E+02  0.20956058803E+02  0.17481772077E+02  0.32106507493E+02  0.00000000000E+00 0. -1.
</event>
<event>
 5    1  0.1282524E-003  0.9118800E+02  0.7818608E-02  0.1130116E+00
         25   -1    0    0    0    0  0.00000000000E+00  0.00000000000E+00  0.99999998245E-14  0.12500000000E+03  0.12500000000E+03 0.  0.
        -11    1    3    3    0    0 -0.45072032399E+02 -0.37970698661E+02 -0.19991895736E+02  0.62232933056E+02  0.51100000000E-03 0.  1.
         23    2    1    0    0    0 -0.21393264435E+02 -0.16704592532E+02 -0.13378943062E+02  0.94739278061E+02  0.89776497566E+02 0.  0.
         11    1    3    3    0    0  0.23678767964E+02  0.21266106129E+02  0.66129526736E+01  0.32506345004E+02  0.51100000000E-03 0. -1.
         22    1    1    0    0    0  0.21393264435E+02  0.16704592532E+02  0.13378943062E+02  0.30260721939E+02  0.00000000000E+00 0.  1.
</event>
<event>
 5    1  0.1282524E-003  0.9118800E+02  0.7818608E-02  0.1130116E+00
         25   -1    0    0    0    0  0.00000000000E+00  0.00000000000E+00  0.99999998245E-14  0.12500000000E+03  0.12500000000E+03 0.  0.
        -11    1    3    3    0    0  0.94672288761E+00 -0.42542562351E+02 -0.32907832360E+02  0.53793041618E+02  0.51100000000E-03 0.  1.
         23    2    1    0    0    0 -0.89559575319E+01 -0.25774103839E+01 -0.28277557856E+02  0.95226311986E+02  0.90452075690E+02 0.  0.
         11    1    3    3    0    0 -0.99026804195E+01  0.39965151967E+02  0.46302745032E+01  0.41433270369E+02  0.51100000000E-03 0. -1.
         22    1    1    0    0    0  0.89559575319E+01  0.25774103839E+01  0.28277557856E+02  0.29773688014E+02  0.00000000000E+00 0.  1.
</event>
<event>
 5    1  0.1282524E-003  0.9118800E+02  0.7818608E-02  0.1130116E+00
         25   -1    0    0    0    0  0.00000000000E+00  0.00000000000E+00  0.99999998245E-14  0.12500000000E+03  0.12500000000E+03 0.  0.
        -11    1    3    3    0    0 -0.33446121966E+02  0.72817155494E+01 -0.22258732590E+02  0.40830351855E+02  0.51100000000E-03 0.  1.
         23    2    1    0    0    0  0.21961327305E+02  0.97287546764E+01 -0.14788808567E+02  0.96792599847E+02  0.92591306081E+02 0.  0.
         11    1    3    3    0    0  0.55407449270E+02  0.24470391270E+01  0.74699240225E+01  0.55962247992E+02  0.51100000000E-03 0. -1.
         22    1    1    0    0    0 -0.21961327305E+02 -0.97287546764E+01  0.14788808567E+02  0.28207400153E+02  0.00000000000E+00 0. -1.
</event>
<event>
 5    1  0.1282524E-003  0.9118800E+02  0.7818608E-02  0.1130116E+00
         25   -1    0    0    0    0  0.00000000000E+00  0.00000000000E+00  0.99999998245E-14  0.12500000000E+03  0.12500000000E+03 0.  0.
        -11    1    3    3    0    0 -0.31695492844E+01  0.22253385488E+02 -0.23411635083E+02  0.32455567564E+02  0.51100000000E-03 0. -1.
         23    2    1    0    0    0 -0.33849134211E+01 -0.13259007608E+02  0.27356484497E+02  0.94411829645E+02  0.89319412287E+02 0.  0.
         11    1    3    3    0    0 -0.21536413678E+00 -0.35512393096E+02  0.50768119580E+02  0.61956262081E+02  0.51100000000E-03 0.  1.
         22    1    1    0    0    0  0.33849134211E+01  0.13259007608E+02 -0.27356484497E+02  0.30588170355E+02  0.00000000000E+00 0.  1.
</event>
<event>
 5    1  0.1282524E-003  0.9118800E+02  0.7818608E-02  0.1130116E+00
         25   -1    0    0    0    0  0.00000000000E+00  0.00000000000E+00  0.99999998245E-14  0.12500000000E+03  0.12500000000E+03 0.  0.
        -11    1    3    3    0    0 -0.35019682297E+02 -0.48220807918E+02  0.56036845034E+01  0.59858380739E+02  0.51100000000E-03 0. -1.
         23    2    1    0    0    0 -0.25758157337E+02 -0.15228578989E+02  0.74085699663E+01  0.94173401155E+02  0.88985112736E+02 0.  0.
         11    1    3    3    0    0  0.92615249595E+01  0.32992228929E+02  0.18048854628E+01  0.34315020415E+02  0.51100000000E-03 0.  1.
         22    1    1    0    0    0  0.25758157337E+02  0.15228578989E+02 -0.74085699663E+01  0.30826598845E+02  0.00000000000E+00 0. -1.
</event>
<event>
 5    1  0.1282524E-003  0.9118800E+02  0.7818608E-02  0.1130116E+00
         25   -1    0    0    0    0  0.00000000000E+00  0.00000000000E+00  0.99999998245E-14  0.12500000000E+03  0.12500000000E+03 0.  0.
        -11    1    3    3    0    0  0.26376168310E+02 -0.12930024715E+02  0.19215852529E+02  0.35101805972E+02  0.51100000000E-03 0.  1.
         23    2    1    0    0    0 -0.15544834498E+02  0.19484755017E+02 -0.12764887252E+02  0.96995716324E+02  0.92865112293E+02 0.  0.
         11    1    3    3    0    0 -0.41921002808E+02  0.32414779732E+02 -0.31980739780E+02  0.61893910352E+02  0.51100000000E-03 0. -1.
         22    1    1    0    0    0  0.15544834498E+02 -0.19484755017E+02  0.12764887252E+02  0.28004283676E+02  0.00000000000E+00 0. -1.
</event>
<event>
 5    1  0.1282524E-003  0.9118800E+02  0.7818608E-02  0.1130116E+00
         25   -1    0    0    0    0  0.00000000000E+00  0.00000000000E+00  0.99999998245E-14  0.12500000000E+03  0.12500000000E+03 0.  0.
        -11    1    3    3    0    0 -0.93354712851E+01  0.13742028450E+02 -0.51074662232E+02  0.53708616556E+02  0.51100000000E-03 0.  1.
         23    2    1    0    0    0  0.14369008249E+02  0.19718033986E+02 -0.18787300752E+02  0.94206625195E+02  0.89031771289E+02 0.  0.
         11    1    3    3    0    0  0.23704479534E+02  0.59760055356E+01  0.32287361480E+02  0.40498008639E+02  0.51100000000E-03 0. -1.
         22    1    1    0    0    0 -0.14369008249E+02 -0.19718033986E+02  0.18787300752E+02  0.30793374805E+02  0.00000000000E+00 0. -1.
</event>
<event>
 5    1  0.1282524E-003  0.9118800E+02  0.7818608E-02  0.1130116E+00
         25   -1    0    0    0    0  0.00000000000E+00  0.00000000000E+00  0.99999998245E-14  0.12500000000E+03  0.12500000000E+03 0.  0.
        -11    1    3    3    0    0 -0.19853975785E+02  0.29412251293E+02 -0.21320185352E+02  0.41398202670E+02  0.51100000000E-03 0. -1.
         23    2    1    0    0    0 -0.17360897667E+02  0.25383967785E+01  0.24672495541E+02  0.94724989476E+02  0.89756600699E+02 0.  0.
         11    1    3    3    0    0  0.24930781176E+01 -0.26873854515E+02  0.45992680893E+02  0.53326786806E+02  0.51100000000E-03 0.  1.
         22    1    1    0    0    0  0.17360897667E+02 -0.25383967785E+01 -0.24672495541E+02  0.30275010524E+02  0.00000000000E+00 0.  1.
</event>
<event>
 5    1  0.1282524E-003  0.9118800E+02  0.7818608E-02  0.1130116E+00
         25   -1    0    0    0    0  0.00000000000E+00  0.00000000000E+00  0.99999998245E-14  0.12500000000E+03  0.12500000000E+03 0.  0.
        -11    1    3    3    0    0  0.50591120223E+01  0.43467201865E+02 -0.16507130182E+01  0.43791747010E+02  0.51100000000E-03 0.  1.
         23    2    1    0    0    0 -0.38450402702E+01  0.47804678540E+01  0.29885286860E+02  0.94491516290E+02  0.89430861969E+02 0.  0.
         11    1    3    3    0    0 -0.89041522925E+01 -0.38686734011E+02  0.31535999878E+02  0.50699769280E+02  0.51100000000E-03 0. -1.
         22    1    1    0    0    0  0.38450402702E+01 -0.47804678540E+01 -0.29885286860E+02  0.30508483710E+02  0.00000000000E+00 0. -1.
</event>
<event>
 5    1  0.1282524E-003  0.9118800E+02  0.7818608E-02  0.1130116E+00
         25   -1    0    0    0    0  0.00000000000E+00  0.00000000000E+00  0.99999998245E-14  0.12500000000E+03  0.12500000000E+03 0.  0.
        -11    1    3    3    0    0 -0.47899626270E+02  0.66056319272E+01  0.79912574635E+00  0.48359561331E+02  0.51100000000E-03 0.  1.
         23    2    1    0    0    0 -0.92474176489E+01  0.53054732312E+01  0.27600030844E+02  0.95412426900E+02  0.90708912048E+02 0.  0.
         11    1    3    3    0    0  0.38652208621E+02 -0.13001586960E+01  0.26800905097E+02  0.47052865569E+02  0.51100000000E-03 0. -1.
         22    1    1    0    0    0  0.92474176489E+01 -0.53054732312E+01 -0.27600030844E+02  0.29587573100E+02  0.00000000000E+00 0. -1.
</event>
<event>
 5    1  0.1282524E-003  0.9118800E+02  0.7818608E-02  0.1130116E+00
         25   -1    0    0    0    0  0.00000000000E+00  0.00000000000E+00  0.99999998245E-14  0.12500000000E+03  0.12500000000E+03 0.  0.
        -11    1    3    3    0    0  0.10529946377E+02  0.33011726120E+02  0.17443478472E+02  0.38793411471E+02  0.51100000000E-03 0. -1.
         23    2    1    0    0    0  0.17255207328E+02 -0.10157529956E+02 -0.20269115781E+02  0.96508691689E+02  0.92207228145E+02 0.  0.
         11    1    3    3    0    0  0.67252609515E+01 -0.43169256076E+02 -0.37712594253E+02  0.57715280218E+02  0.51100000000E-03 0.  1.
         22    1    1    0    0    0 -0.17255207328E+02  0.10157529956E+02  0.20269115781E+02  0.28491308311E+02  0.00000000000E+00 0.  1.
</event>
<event>
 5    1  0.1282524E-003  0.9118800E+02  0.7818608E-02  0.1130116E+00
         25   -1    0    0    0    0  0.00000000000E+00  0.00000000000E+00  0.99999998245E-14  0.12500000000E+03  0.12500000000E+03 0.  0.
        -11    1    3    3    0    0  0.15677175295E+02  0.15785924867E+02  0.36001986525E+02  0.42321534509E+02  0.51100000000E-03 0.  1.
         23    2    1    0    0    0  0.14000434396E+02 -0.24967766978E+02  0.54031073384E+00  0.96369710326E+02  0.92018626275E+02 0.  0.
         11    1    3    3    0    0 -0.16767408995E+01 -0.40753691845E+02 -0.35461675791E+02  0.54048175818E+02  0.51100000000E-03 0. -1.
         22    1    1    0    0    0 -0.14000434396E+02  0.24967766978E+02 -0.54031073384E+00  0.28630289674E+02  0.00000000000E+00 0. -1.
</event>
<event>
 5    1  0.1282524E-003  0.9118800E+02  0.7818608E-02  0.1130116E+00
         25   -1    0    0    0    0  0.00000000000E+00  0.00000000000E+00  0.99999998245E-14  0.12500000000E+03  0.12500000000E+03 0.  0.
        -11    1    3    3    0    0 -0.22992244609E+02 -0.20914868022E+02  0.30570979030E+02  0.43596556924E+02  0.51100000000E-03 0.  1.
         23    2    1    0    0    0  0.93224773537E+00 -0.24787755664E+02 -0.15568346989E+02  0.95713905268E+02  0.91123412562E+02 0.  0.
         11    1    3    3    0    0  0.23924492345E+02 -0.38728876423E+01 -0.46139326019E+02  0.52117348344E+02  0.51100000000E-03 0. -1.
         22    1    1    0    0    0 -0.93224773537E+00  0.24787755664E+02  0.15568346989E+02  0.29286094732E+02  0.00000000000E+00 0. -1.
</event>
<event>
 5    1  0.1282524E-003  0.9118800E+02  0.7818608E-02  0.1130116E+00
         25   -1    0    0    0    0  0.00000000000E+00  0.00000000000E+00  0.99999998245E-14  0.12500000000E+03  0.12500000000E+03 0.  0.
        -11    1    3    3    0    0 -0.23313447303E+00  0.18892122007E+02 -0.51185646227E+02  0.54561314185E+02  0.51100000000E-03 0.  1.
         23    2    1    0    0    0  0.21185418504E+02  0.27955440990E+01 -0.19340032252E+02  0.96178586581E+02  0.91758632538E+02 0.  0.
         11    1    3    3    0    0  0.21418552977E+02 -0.16096577908E+02  0.31845613976E+02  0.41617272396E+02  0.51100000000E-03 0. -1.
         22    1    1    0    0    0 -0.21185418504E+02 -0.27955440990E+01  0.19340032252E+02  0.28821413419E+02  0.00000000000E+00 0.  1.
</event>
<event>
 5    1  0.1282524E-003  0.9118800E+02  0.7818608E-02  0.1130116E+00
         25   -1    0    0    0    0  0.00000000000E+00  0.00000000000E+00  0.99999998245E-14  0.12500000000E+03  0.12500000000E+03 0.  0.
        -11    1    3    3    0    0 -0.40471819594E+02 -0.13243415986E+02  0.36351962334E+02  0.55989475922E+02  0.51100000000E-03 0. -1.
         23    2    1    0    0    0 -0.17556298973E+02  0.13987318433E+02  0.19035350620E+02  0.95568498444E+02  0.90923729637E+02 0.  0.
         11    1    3    3    0    0  0.22915520621E+02  0.27230734419E+02 -0.17316611714E+02  0.39579022523E+02  0.51100000000E-03 0.  1.
         22    1    1    0    0    0  0.17556298973E+02 -0.13987318433E+02 -0.19035350620E+02  0.29431501556E+02  0.00000000000E+00 0. -1.
</event>
<event>
 5    1  0.1282524E-003  0.9118800E+02  0.7818608E-02  0.1130116E+00
         25   -1    0    0    0    0  0.00000000000E+00  0.00000000000E+00  0.99999998245E-14  0.12500000000E+03  0.12500000000E+03 0.  0.
        -11    1    3    3    0    0 -0.52446954694E+02 -0.20483902410E+02  0.21312407404E+02  0.60203754237E+02  0.51100000000E-03 0. -1.
         23    2    1    0    0    0 -0.25711182727E+02  0.21093900565E+01  0.12672298940E+02  0.96258016699E+02  0.91866774052E+02 0.  0.
         11    1    3    3    0    0  0.26735771967E+02  0.22593292466E+02 -0.86401084641E+01  0.36054262462E+02  0.51100000000E-03 0.  1.
         22    1    1    0    0    0  0.25711182727E+02 -0.21093900565E+01 -0.12672298940E+02  0.28741983301E+02  0.00000000000E+00 0. -1.
</event>
<event>
 5    1  0.1282524E-003  0.9118800E+02  0.7818608E-02  0.1130116E+00
         25   -1    0    0    0    0  0.00000000000E+00  0.00000000000E+00  0.99999998245E-14  0.12500000000E+03  0.12500000000E+03 0.  0.
        -11    1    3    3    0    0 -0.68091808337E+01  0.34051785619E+02  0.10137336376E+02  0.36175331879E+02  0.51100000000E-03 0.  1.
         23    2    1    0    0    0  0.20155678788E+02 -0.19005042280E+02 -0.30352842394E+01  0.97131451959E+02  0.93047638282E+02 0.  0.
         11    1    3    3    0    0  0.26964859622E+02 -0.53056827899E+02 -0.13172620615E+02  0.60956120081E+02  0.51100000000E-03 0. -1.
         22    1    1    0    0    0 -0.20155678788E+02  0.19005042280E+02  0.30352842394E+01  0.27868548041E+02  0.00000000000E+00 0. -1.
</event>
<event>
 5    1  0.1282524E-003  0.9118800E+02  0.7818608E-02  0.1130116E+00
         25   -1    0    0    0    0  0.00000000000E+00  0.00000000000E+00  0.99999998245E-14  0.12500000000E+03  0.12500000000E+03 0.  0.
        -11    1    3    3    0    0 -0.15133665923E+02  0.48095614683E+02  0.13254965927E+02  0.52133579563E+02  0.51100000000E-03 0. -1.
         23    2    1    0    0    0  0.96707334270E+01  0.25288519178E+02 -0.13110057098E+02  0.94918346383E+02  0.90025477482E+02 0.  0.
         11    1    3    3    0    0  0.24804399350E+02 -0.22807095506E+02 -0.26365023025E+02  0.42784766820E+02  0.51100000000E-03 0.  1.
         22    1    1    0    0    0 -0.96707334270E+01 -0.25288519178E+02  0.13110057098E+02  0.30081653617E+02  0.00000000000E+00 0.  1.
</event>
<event>
 5    1  0.1282524E-003  0.9118800E+02  0.7818608E-02  0.1130116E+00
         25   -1    0    0    0    0  0.00000000000E+00  0.00000000000E+00  0.99999998245E-14  0.12500000000E+03  0.12500000000E+03 0.  0.
        -11    1    3    3    0    0  0.45788894545E+02 -0.52143581103E+01 -0.19339028843E+02  0.49978099514E+02  0.51100000000E-03 0.  1.
         23    2    1    0    0    0  0.13346012718E+02  0.24224575897E+02 -0.14316697697E+01  0.97305310777E+02  0.93280907447E+02 0.  0.
         11    1    3    3    0    0 -0.32442881826E+02  0.29438934007E+02  0.17907359074E+02  0.47327211263E+02  0.51100000000E-03 0. -1.
         22    1    1    0    0    0 -0.13346012718E+02 -0.24224575897E+02  0.14316697697E+01  0.27694689223E+02  0.00000000000E+00 0.  1.
</event>
<event>
 5    1  0.1282524E-003  0.9118800E+02  0.7818608E-02  0.1130116E+00
         25   -1    0    0    0    0  0.00000000000E+00  0.00000000000E+00  0.99999998245E-14  0.12500000000E+03  0.12500000000E+03 0.  0.
        -11    1    3    3    0    0  0.19681591223E+02 -0.14036754006E+02  0.49341213733E+02  0.54944980381E+02  0.51100000000E-03 0.  1.
         23    2    1    0    0    0  0.36313250303E+01  0.14649598535E+02  0.24806046392E+02  0.95963175168E+02  0.91464713371E+02 0.  0.
         11    1    3    3    0    0 -0.16050266192E+02  0.28686352540E+02 -0.24535167341E+02  0.41018194788E+02  0.51100000000E-03 0. -1.
         22    1    1    0    0    0 -0.36313250303E+01 -0.14649598535E+02 -0.24806046392E+02  0.29036824832E+02  0.00000000000E+00 0.  1.
</event>
<event>
 5    1  0.1282524E-003  0.9118800E+02  0.7818608E-02  0.1130116E+00
         25   -1    0    0    0    0  0.00000000000E+00  0.00000000000E+00  0.99999998245E-14  0.12500000000E+03  0.12500000000E+03 0.  0.
        -11    1    3    3    0    0  0.30849812680E+02 -0.15023979625E+00  0.35109875323E+02  0.46737959517E+02  0.51100000000E-03 0. -1.
         23    2    1    0    0    0  0.20573388575E+02  0.28456890922E+02  0.49863846700E+01  0.89532789925E+02  0.82208256771E+02 0.  0.
         11    1    3    3    0    0 -0.10276424105E+02  0.28607130718E+02 -0.30123490653E+02  0.42794830408E+02  0.51100000000E-03 0.  1.
         22    1    1    0    0    0 -0.20573388575E+02 -0.28456890922E+02 -0.49863846700E+01  0.35467210075E+02  0.00000000000E+00 0. -1.
</event>
<event>
 5    1  0.1282524E-003  0.9118800E+02  0.7818608E-02  0.1130116E+00
         25   -1    0    0    0    0  0.00000000000E+00  0.00000000000E+00  0.99999998245E-14  0.12500000000E+03  0.12500000000E+03 0.  0.
        -11    1    3    3    0    0  0.14868564262E+02  0.23302638669E+02  0.50833721735E+02  0.57863239089E+02  0.51100000000E-03 0. -1.
         23    2    1    0    0    0 -0.39813991952E+01  0.23035816671E+02  0.18934903812E+02  0.94916267325E+02  0.90022590672E+02 0.  0.
         11    1    3    3    0    0 -0.18849963458E+02 -0.26682199748E+00 -0.31898817923E+02  0.37053028236E+02  0.51100000000E-03 0.  1.
         22    1    1    0    0    0  0.39813991952E+01 -0.23035816671E+02 -0.18934903812E+02  0.30083732675E+02  0.00000000000E+00 0. -1.
</event>
<event>
 5    1  0.1282524E-003  0.9118800E+02  0.7818608E-02  0.1130116E+00
         25   -1    0    0    0    0  0.00000000000E+00  0.00000000000E+00  0.99999998245E-14  0.12500000000E+03  0.12500000000E+03 0.  0.
        -11    1    3    3    0    0 -0.13599071195E+02 -0.49714331479E+02  0.64494578070E+01  0.51942708805E+02  0.51100000000E-03 0. -1.
         23    2    1    0    0    0  0.85704272490E+00 -0.13590492095E+02  0.26121545885E+02  0.95542044249E+02  0.90887353698E+02 0.  0.
         11    1    3    3    0    0  0.14456113920E+02  0.36123839384E+02  0.19672088078E+02  0.43599335444E+02  0.51100000000E-03 0.  1.
         22    1    1    0    0    0 -0.85704272490E+00  0.13590492095E+02 -0.26121545885E+02  0.29457955751E+02  0.00000000000E+00 0. -1.
</event>
<event>
 5    1  0.1282524E-003  0.9118800E+02  0.7818608E-02  0.1130116E+00
         25   -1    0    0    0    0  0.00000000000E+00  0.00000000000E+00  0.99999998245E-14  0.12500000000E+03  0.12500000000E+03 0.  0.
        -11    1    3    3    0    0  0.11400499082E+01  0.35211851248E+02 -0.24774361622E+02  0.43069051257E+02  0.51100000000E-03 0.  1.
         23    2    1    0    0    0  0.27745294243E+02  0.49282628965E+01  0.87446306485E+01  0.95494785326E+02  0.90822333880E+02 0.  0.
         11    1    3    3    0    0  0.26605244335E+02 -0.30283588351E+02  0.33518992271E+02  0.52425734069E+02  0.51100000000E-03 0. -1.
         22    1    1    0    0    0 -0.27745294243E+02 -0.49282628965E+01 -0.87446306485E+01  0.29505214674E+02  0.00000000000E+00 0.  1.
</event>
<event>
 5    1  0.1282524E-003  0.9118800E+02  0.7818608E-02  0.1130116E+00
         25   -1    0    0    0    0  0.00000000000E+00  0.00000000000E+00  0.99999998245E-14  0.12500000000E+03  0.12500000000E+03 0.  0.
        -11    1    3    3    0    0  0.14995460629E+02  0.26123096006E+02  0.39723615336E+02  0.49852237663E+02  0.51100000000E-03 0. -1.
         23    2    1    0    0    0 -0.20977406741E+02  0.91543393953E+01  0.21482106241E+02  0.93609963175E+02  0.88190083307E+02 0.  0.
         11    1    3    3    0    0 -0.35972867369E+02 -0.16968756611E+02 -0.18241509095E+02  0.43757725512E+02  0.51100000000E-03 0.  1.
         22    1    1    0    0    0  0.20977406741E+02 -0.91543393953E+01 -0.21482106241E+02  0.31390036825E+02  0.00000000000E+00 0. -1.
</event>
<event>
 5    1  0.1282524E-003  0.9118800E+02  0.7818608E-02  0.1130116E+00
         25   -1    0    0    0    0  0.00000000000E+00  0.00000000000E+00  0.99999998245E-14  0.12500000000E+03  0.12500000000E+03 0.  0.
        -11    1    3    3    0    0 -0.38359716588E+02 -0.19953081651E+02  0.34115905218E+02  0.55077112426E+02  0.51100000000E-03 0.  1.
         23    2    1    0    0    0 -0.17387802037E+02  0.34752761717E+01  0.34150105644E+02  0.86520876834E+02  0.77493349447E+02 0.  0.
         11    1    3    3    0    0  0.20971914552E+02  0.23428357822E+02  0.34200426236E-01  0.31443764408E+02  0.51100000000E-03 0. -1.
         22    1    1    0    0    0  0.17387802037E+02 -0.34752761717E+01 -0.34150105644E+02  0.38479123166E+02  0.00000000000E+00 0.  1.
</event>
<event>
 5    1  0.1282524E-003  0.9118800E+02  0.7818608E-02  0.1130116E+00
         25   -1    0    0    0    0  0.00000000000E+00  0.00000000000E+00  0.99999998245E-14  0.12500000000E+03  0.12500000000E+03 0.  0.
        -11    1    3    3    0    0  0.27744727573E+02  0.20405469537E+02  0.11077438584E+02  0.36178208095E+02  0.51100000000E-03 0.  1.
         23    2    1    0    0    0 -0.22603838808E+00 -0.99311209092E+01 -0.29391942283E+02  0.93974775955E+02  0.88705659283E+02 0.  0.
         11    1    3    3    0    0 -0.27970765961E+02 -0.30336590446E+02 -0.40469380867E+02  0.57796567860E+02  0.51100000000E-03 0. -1.
         22    1    1    0    0    0  0.22603838808E+00  0.99311209092E+01  0.29391942283E+02  0.31025224045E+02  0.00000000000E+00 0.  1.
</event>
<event>
 5    1  0.1282524E-003  0.9118800E+02  0.7818608E-02  0.1130116E+00
         25   -1    0    0    0    0  0.00000000000E+00  0.00000000000E+00  0.99999998245E-14  0.12500000000E+03  0.12500000000E+03 0.  0.
        -11    1    3    3    0    0 -0.46128388072E+01  0.55744225978E-01 -0.39634764122E+02  0.39902329713E+02  0.51100000000E-03 0. -1.
         23    2    1    0    0    0  0.15376007714E+02 -0.25606507567E+02  0.45685140566E+01  0.94784339099E+02  0.89839216241E+02 0.  0.
         11    1    3    3    0    0  0.19988846522E+02 -0.25662251792E+02  0.44203278178E+02  0.54882009386E+02  0.51100000000E-03 0.  1.
         22    1    1    0    0    0 -0.15376007714E+02  0.25606507567E+02 -0.45685140566E+01  0.30215660901E+02  0.00000000000E+00 0. -1.
</event>
<event>
 5    1  0.1282524E-003  0.9118800E+02  0.7818608E-02  0.1130116E+00
         25   -1    0    0    0    0  0.00000000000E+00  0.00000000000E+00  0.99999998245E-14  0.12500000000E+03  0.12500000000E+03 0.  0.
        -11    1    3    3    0    0  0.24923733247E+02  0.44980000584E+02  0.35304550607E+02  0.62376311412E+02  0.51100000000E-03 0. -1.
         23    2    1    0    0    0  0.14154241711E+02  0.20739171143E+02  0.15333099621E+02  0.95579603638E+02  0.90938995538E+02 0.  0.
         11    1    3    3    0    0 -0.10769491536E+02 -0.24240829441E+02 -0.19971450986E+02  0.33203292226E+02  0.51100000000E-03 0.  1.
         22    1    1    0    0    0 -0.14154241711E+02 -0.20739171143E+02 -0.15333099621E+02  0.29420396362E+02  0.00000000000E+00 0. -1.
</event>
<event>
 5    1  0.1282524E-003  0.9118800E+02  0.7818608E-02  0.1130116E+00
         25   -1    0    0    0    0  0.00000000000E+00  0.00000000000E+00  0.99999998245E-14  0.12500000000E+03  0.12500000000E+03 0.  0.
        -11    1    3    3    0    0 -0.75302802061E+01  0.20415714437E+02  0.29768722682E+02  0.36873884611E+02  0.51100000000E-03 0. -1.
         23    2    1    0    0    0  0.16230427631E+02 -0.22242506221E+02 -0.52592550147E+01  0.96967596832E+02  0.92827254661E+02 0.  0.
         11    1    3    3    0    0  0.23760707837E+02 -0.42658220659E+02 -0.35027977696E+02  0.60093712220E+02  0.51100000000E-03 0.  1.
         22    1    1    0    0    0 -0.16230427631E+02  0.22242506221E+02  0.52592550147E+01  0.28032403168E+02  0.00000000000E+00 0.  1.
</event>
<event>
 5    1  0.1282524E-003  0.9118800E+02  0.7818608E-02  0.1130116E+00
         25   -1    0    0    0    0  0.00000000000E+00  0.00000000000E+00  0.99999998245E-14  0.12500000000E+03  0.12500000000E+03 0.  0.
        -11    1    3    3    0    0 -0.10168777595E+02  0.12648318151E+02  0.19409368752E+02  0.25300347536E+02  0.51100000000E-03 0. -1.
         23    2    1    0    0    0 -0.40255622715E+01 -0.29722996277E+02 -0.24234776582E+02  0.86438541842E+02  0.77360425675E+02 0.  0.
         11    1    3    3    0    0  0.61432153236E+01 -0.42371314427E+02 -0.43644145334E+02  0.61138194306E+02  0.51100000000E-03 0.  1.
         22    1    1    0    0    0  0.40255622715E+01  0.29722996277E+02  0.24234776582E+02  0.38561458158E+02  0.00000000000E+00 0.  1.
</event>
<event>
 5    1  0.1282524E-003  0.9118800E+02  0.7818608E-02  0.1130116E+00
         25   -1    0    0    0    0  0.00000000000E+00  0.00000000000E+00  0.99999998245E-14  0.12500000000E+03  0.12500000000E+03 0.  0.
        -11    1    3    3    0    0 -0.24616703131E+02 -0.27156677185E+02  0.16977942874E+02  0.40394526031E+02  0.51100000000E-03 0.  1.
         23    2    1    0    0    0  0.11003859457E+02  0.20134977150E+02  0.98561028062E+01  0.10002711490E+03  0.96859582512E+02 0.  0.
         11    1    3    3    0    0  0.35620562588E+02  0.47291654335E+02 -0.71218400680E+01  0.59632588867E+02  0.51100000000E-03 0. -1.
         22    1    1    0    0    0 -0.11003859457E+02 -0.20134977150E+02 -0.98561028062E+01  0.24972885102E+02  0.00000000000E+00 0. -1.
</event>
<event>
 5    1  0.1282524E-003  0.9118800E+02  0.7818608E-02  0.1130116E+00
         25   -1    0    0    0    0  0.00000000000E+00  0.00000000000E+00  0.99999998245E-14  0.12500000000E+03  0.12500000000E+03 0.  0.
        -11    1    3    3    0    0 -0.37971361381E+02 -0.21945227355E+02  0.31772144039E+02  0.54156130086E+02  0.51100000000E-03 0.  1.
         23    2    1    0    0    0 -0.15441584521E+02  0.12136223403E+02  0.20657903826E+02  0.96495974995E+02  0.92189987248E+02 0.  0.
         11    1    3    3    0    0  0.22529776860E+02  0.34081450758E+02 -0.11114240213E+02  0.42339844909E+02  0.51100000000E-03 0. -1.
         22    1    1    0    0    0  0.15441584521E+02 -0.12136223403E+02 -0.20657903826E+02  0.28504025005E+02  0.00000000000E+00 0. -1.
</event>
<event>
 5    1  0.1282524E-003  0.9118800E+02  0.7818608E-02  0.1130116E+00
         25   -1    0    0    0    0  0.00000000000E+00  0.00000000000E+00  0.99999998245E-14  0.12500000000E+03  0.12500000000E+03 0.  0.
        -11    1    3    3    0    0  0.18360273367E+02  0.96983661563E+01  0.46372916404E+02  0.50809500296E+02  0.51100000000E-03 0. -1.
         23    2    1    0    0    0  0.13878342972E+01  0.27658107181E+02  0.84980157482E+01  0.96032548463E+02  0.91559473108E+02 0.  0.
         11    1    3    3    0    0 -0.16972439070E+02  0.17959741025E+02 -0.37874900656E+02  0.45223048168E+02  0.51100000000E-03 0.  1.
         22    1    1    0    0    0 -0.13878342972E+01 -0.27658107181E+02 -0.84980157482E+01  0.28967451537E+02  0.00000000000E+00 0. -1.
</event>
<event>
 5    1  0.1282524E-003  0.9118800E+02  0.7818608E-02  0.1130116E+00
         25   -1    0    0    0    0  0.00000000000E+00  0.00000000000E+00  0.99999998245E-14  0.12500000000E+03  0.12500000000E+03 0.  0.
        -11    1    3    3    0    0  0.59666483374E+01  0.53383145249E+02  0.31425634666E+02  0.62232882012E+02  0.51100000000E-03 0. -1.
         23    2    1    0    0    0  0.61999451123E+01  0.25602326680E+02  0.12545959314E+02  0.95822619276E+02  0.91272420911E+02 0.  0.
         11    1    3    3    0    0  0.23329677491E+00 -0.27780818569E+02 -0.18879675353E+02  0.33589737264E+02  0.51100000000E-03 0.  1.
         22    1    1    0    0    0 -0.61999451123E+01 -0.25602326680E+02 -0.12545959314E+02  0.29177380724E+02  0.00000000000E+00 0. -1.
</event>
<event>
 5    1  0.1282524E-003  0.9118800E+02  0.7818608E-02  0.1130116E+00
         25   -1    0    0    0    0  0.00000000000E+00  0.00000000000E+00  0.99999998245E-14  0.12500000000E+03  0.12500000000E+03 0.  0.
        -11    1    3    3    0    0 -0.81145284907E+01  0.34267942068E+02 -0.44433550499E+02  0.56696365284E+02  0.51100000000E-03 0. -1.
         23    2    1    0    0    0  0.15109231489E+02  0.17629726596E+02 -0.17950306275E+02  0.95651922867E+02  0.91038347506E+02 0.  0.
         11    1    3    3    0    0  0.23223759980E+02 -0.16638215472E+02  0.26483244224E+02  0.38955557583E+02  0.51100000000E-03 0.  1.
         22    1    1    0    0    0 -0.15109231489E+02 -0.17629726596E+02  0.17950306275E+02  0.29348077133E+02  0.00000000000E+00 0. -1.
</event>
<event>
 5    1  0.1282524E-003  0.9118800E+02  0.7818608E-02  0.1130116E+00
         25   -1    0    0    0    0  0.00000000000E+00  0.00000000000E+00  0.99999998245E-14  0.12500000000E+03  0.12500000000E+03 0.  0.
        -11    1    3    3    0    0 -0.35267691999E+02  0.35431926704E+01  0.10194774203E+02  0.36882214339E+02  0.51100000000E-03 0.  1.
         23    2    1    0    0    0  0.20807476316E+02 -0.17867639086E+02  0.49041765805E+01  0.97138655002E+02  0.93057314332E+02 0.  0.
         11    1    3    3    0    0  0.56075168315E+02 -0.21410831756E+02 -0.52905976227E+01  0.60256440664E+02  0.51100000000E-03 0. -1.
         22    1    1    0    0    0 -0.20807476316E+02  0.17867639086E+02 -0.49041765805E+01  0.27861344998E+02  0.00000000000E+00 0. -1.
</event>
<event>
 5    1  0.1282524E-003  0.9118800E+02  0.7818608E-02  0.1130116E+00
         25   -1    0    0    0    0  0.00000000000E+00  0.00000000000E+00  0.99999998245E-14  0.12500000000E+03  0.12500000000E+03 0.  0.
        -11    1    3    3    0    0  0.49228067833E+02  0.23476550192E+02  0.85552324936E+01  0.55206368064E+02  0.51100000000E-03 0.  1.
         23    2    1    0    0    0  0.17595772890E+02  0.18928445207E+02 -0.15192546783E+02  0.95021495379E+02  0.90168585687E+02 0.  0.
         11    1    3    3    0    0 -0.31632294943E+02 -0.45481049852E+01 -0.23747779277E+02  0.39815127315E+02  0.51100000000E-03 0. -1.
         22    1    1    0    0    0 -0.17595772890E+02 -0.18928445207E+02  0.15192546783E+02  0.29978504621E+02  0.00000000000E+00 0.  1.
</event>
<event>
 5    1  0.1282524E-003  0.9118800E+02  0.7818608E-02  0.1130116E+00
         25   -1    0    0    0    0  0.00000000000E+00  0.00000000000E+00  0.99999998245E-14  0.12500000000E+03  0.12500000000E+03 0.  0.
        -11    1    3    3    0    0 -0.31573217373E+02  0.39509968857E+02 -0.13313103259E+02  0.52298608137E+02  0.51100000000E-03 0.  1.
         23    2    1    0    0    0 -0.35305728881E+02  0.20843484732E+02 -0.27144707922E+02  0.75829068386E+02  0.57725792298E+02 0.  0.
         11    1    3    3    0    0 -0.37325115077E+01 -0.18666484124E+02 -0.13831604663E+02  0.23530460249E+02  0.51100000000E-03 0. -1.
         22    1    1    0    0    0  0.35305728881E+02 -0.20843484732E+02  0.27144707922E+02  0.49170931614E+02  0.00000000000E+00 0.  1.
</event>
<event>
 5    1  0.1282524E-003  0.9118800E+02  0.7818608E-02  0.1130116E+00
         25   -1    0    0    0    0  0.00000000000E+00  0.00000000000E+00  0.99999998245E-14  0.12500000000E+03  0.12500000000E+03 0.  0.
        -11    1    3    3    0    0  0.13910600529E+02 -0.33562049023E+02  0.20796987606E+01  0.36390123507E+02  0.51100000000E-03 0.  1.
         23    2    1    0    0    0 -0.18737348967E+02  0.84779399055E+01 -0.22063357315E+02  0.94837847435E+02  0.89913635555E+02 0.  0.
         11    1    3    3    0    0 -0.32647949496E+02  0.42039988928E+02 -0.24143056076E+02  0.58447723928E+02  0.51100000000E-03 0. -1.
         22    1    1    0    0    0  0.18737348967E+02 -0.84779399055E+01  0.22063357315E+02  0.30162152565E+02  0.00000000000E+00 0. -1.
</event>
<event>
 5    1  0.1282524E-003  0.9118800E+02  0.7818608E-02  0.1130116E+00
         25   -1    0    0    0    0  0.00000000000E+00  0.00000000000E+00  0.99999998245E-14  0.12500000000E+03  0.12500000000E+03 0.  0.
        -11    1    3    3    0    0  0.47341303457E-01  0.53219046675E+02  0.15140420138E+02  0.55330836722E+02  0.51100000000E-03 0.  1.
         23    2    1    0    0    0 -0.22297543134E+00  0.14301144086E+02  0.25639443044E+02  0.95640955740E+02  0.91023287872E+02 0.  0.
         11    1    3    3    0    0 -0.27031673479E+00 -0.38917902588E+02  0.10499022906E+02  0.40310119018E+02  0.51100000000E-03 0. -1.
         22    1    1    0    0    0  0.22297543134E+00 -0.14301144086E+02 -0.25639443044E+02  0.29359044260E+02  0.00000000000E+00 0.  1.
</event>
<event>
 5    1  0.1282524E-003  0.9118800E+02  0.7818608E-02  0.1130116E+00
         25   -1    0    0    0    0  0.00000000000E+00  0.00000000000E+00  0.99999998245E-14  0.12500000000E+03  0.12500000000E+03 0.  0.
        -11    1    3    3    0    0 -0.14032355394E+02 -0.30843150457E+01  0.23926820298E+02  0.27909007991E+02  0.51100000000E-03 0. -1.
         23    2    1    0    0    0  0.27225630653E+02  0.24185147481E+02 -0.92067070871E+01  0.87437787891E+02  0.78958514251E+02 0.  0.
         11    1    3    3    0    0  0.41257986047E+02  0.27269462527E+02 -0.33133527385E+02  0.59528779900E+02  0.51100000000E-03 0.  1.
         22    1    1    0    0    0 -0.27225630653E+02 -0.24185147481E+02  0.92067070871E+01  0.37562212109E+02  0.00000000000E+00 0.  1.
</event>
<event>
 5    1  0.1282524E-003  0.9118800E+02  0.7818608E-02  0.1130116E+00
         25   -1    0    0    0    0  0.00000000000E+00  0.00000000000E+00  0.99999998245E-14  0.12500000000E+03  0.12500000000E+03 0.  0.
        -11    1    3    3    0    0  0.10240365940E+02 -0.12737669640E+02 -0.30785393407E+02  0.34854752472E+02  0.51100000000E-03 0.  1.
         23    2    1    0    0    0 -0.44022701267E+01  0.25054058900E+02  0.14573853526E+02  0.95683058545E+02  0.91081088247E+02 0.  0.
         11    1    3    3    0    0 -0.14642636066E+02  0.37791728540E+02  0.45359246933E+02  0.60828306073E+02  0.51100000000E-03 0. -1.
         22    1    1    0    0    0  0.44022701267E+01 -0.25054058900E+02 -0.14573853526E+02  0.29316941455E+02  0.00000000000E+00 0. -1.
</event>
<event>
 5    1  0.1282524E-003  0.9118800E+02  0.7818608E-02  0.1130116E+00
         25   -1    0    0    0    0  0.00000000000E+00  0.00000000000E+00  0.99999998245E-14  0.12500000000E+03  0.12500000000E+03 0.  0.
        -11    1    3    3    0    0  0.51627762132E+02  0.13791851414E+02  0.26860763688E+02  0.59809210113E+02  0.51100000000E-03 0.  1.
         23    2    1    0    0    0  0.17952495234E+02 -0.46679978694E+01  0.17853827565E+02  0.99254292630E+02  0.95857045425E+02 0.  0.
         11    1    3    3    0    0 -0.33675266898E+02 -0.18459849283E+02 -0.90069361232E+01  0.39445082517E+02  0.51100000000E-03 0. -1.
         22    1    1    0    0    0 -0.17952495234E+02  0.46679978694E+01 -0.17853827565E+02  0.25745707370E+02  0.00000000000E+00 0.  1.
</event>
<event>
 5    1  0.1282524E-003  0.9118800E+02  0.7818608E-02  0.1130116E+00
         25   -1    0    0    0    0  0.00000000000E+00  0.00000000000E+00  0.99999998245E-14  0.12500000000E+03  0.12500000000E+03 0.  0.
        -11    1    3    3    0    0 -0.18138966884E+02  0.12635824299E+02  0.33162880483E+02  0.39855524303E+02  0.51100000000E-03 0.  1.
         23    2    1    0    0    0  0.14271533760E+02  0.23401654071E+02 -0.10812146286E+02  0.95534484623E+02  0.90876956132E+02 0.  0.
         11    1    3    3    0    0  0.32410500644E+02  0.10765829773E+02 -0.43975026769E+02  0.55678960320E+02  0.51100000000E-03 0. -1.
         22    1    1    0    0    0 -0.14271533760E+02 -0.23401654071E+02  0.10812146286E+02  0.29465515377E+02  0.00000000000E+00 0. -1.
</event>
<event>
 5    1  0.1282524E-003  0.9118800E+02  0.7818608E-02  0.1130116E+00
         25   -1    0    0    0    0  0.00000000000E+00  0.00000000000E+00  0.99999998245E-14  0.12500000000E+03  0.12500000000E+03 0.  0.
        -11    1    3    3    0    0 -0.27262001390E+02  0.22001977756E+02 -0.41504007475E+02  0.54312856504E+02  0.51100000000E-03 0.  1.
         23    2    1    0    0    0  0.26503635396E+01 -0.37321987189E+01 -0.28905773965E+02  0.95734021413E+02  0.91151003029E+02 0.  0.
         11    1    3    3    0    0  0.29912364929E+02 -0.25734176475E+02  0.12598233510E+02  0.41421164908E+02  0.51100000000E-03 0. -1.
         22    1    1    0    0    0 -0.26503635396E+01  0.37321987189E+01  0.28905773965E+02  0.29265978587E+02  0.00000000000E+00 0.  1.
</event>
<event>
 5    1  0.1282524E-003  0.9118800E+02  0.7818608E-02  0.1130116E+00
         25   -1    0    0    0    0  0.00000000000E+00  0.00000000000E+00  0.99999998245E-14  0.12500000000E+03  0.12500000000E+03 0.  0.
        -11    1    3    3    0    0  0.22039429590E+02  0.12273340040E+02 -0.38942991853E+02  0.46399654601E+02  0.51100000000E-03 0.  1.
         23    2    1    0    0    0  0.31519805731E+01 -0.25658795582E+02 -0.13320016915E+02  0.95918534719E+02  0.91403685263E+02 0.  0.
         11    1    3    3    0    0 -0.18887449017E+02 -0.37932135622E+02  0.25622974937E+02  0.49518880118E+02  0.51100000000E-03 0. -1.
         22    1    1    0    0    0 -0.31519805731E+01  0.25658795582E+02  0.13320016915E+02  0.29081465281E+02  0.00000000000E+00 0. -1.
</event>
<event>
 5    1  0.1282524E-003  0.9118800E+02  0.7818608E-02  0.1130116E+00
         25   -1    0    0    0    0  0.00000000000E+00  0.00000000000E+00  0.99999998245E-14  0.12500000000E+03  0.12500000000E+03 0.  0.
        -11    1    3    3    0    0  0.15892040783E+02  0.11902558058E+02 -0.30218113190E+02  0.36157464148E+02  0.51100000000E-03 0.  1.
         23    2    1    0    0    0  0.61139253258E+01 -0.26988458562E+02  0.12400351476E+02  0.94676317916E+02  0.89688792382E+02 0.  0.
         11    1    3    3    0    0 -0.97781154577E+01 -0.38891016619E+02  0.42618464666E+02  0.58518853768E+02  0.51100000000E-03 0. -1.
         22    1    1    0    0    0 -0.61139253258E+01  0.26988458562E+02 -0.12400351476E+02  0.30323682084E+02  0.00000000000E+00 0. -1.
</event>
<event>
 5    1  0.1282524E-003  0.9118800E+02  0.7818608E-02  0.1130116E+00
         25   -1    0    0    0    0  0.00000000000E+00  0.00000000000E+00  0.99999998245E-14  0.12500000000E+03  0.12500000000E+03 0.  0.
        -11    1    3    3    0    0 -0.39103023243E+02 -0.25750592285E+02  0.36684583371E+02  0.59480232743E+02  0.51100000000E-03 0. -1.
         23    2    1    0    0    0 -0.23535971504E+02  0.73249694406E+00  0.15034825733E+02  0.97062131591E+02  0.92954466799E+02 0.  0.
         11    1    3    3    0    0  0.15567051740E+02  0.26483089229E+02 -0.21649757638E+02  0.37581898848E+02  0.51100000000E-03 0.  1.
         22    1    1    0    0    0  0.23535971504E+02 -0.73249694406E+00 -0.15034825733E+02  0.27937868409E+02  0.00000000000E+00 0. -1.
</event>
<event>
 5    1  0.1282524E-003  0.9118800E+02  0.7818608E-02  0.1130116E+00
         25   -1    0    0    0    0  0.00000000000E+00  0.00000000000E+00  0.99999998245E-14  0.12500000000E+03  0.12500000000E+03 0.  0.
        -11    1    3    3    0    0 -0.26384360923E+01  0.31254968365E+02  0.42246693710E+02  0.52617654093E+02  0.51100000000E-03 0.  1.
         23    2    1    0    0    0 -0.80382194663E+01 -0.83460001584E+01  0.27394813018E+02  0.95255345503E+02  0.90492189584E+02 0.  0.
         11    1    3    3    0    0 -0.53997833740E+01 -0.39600968523E+02 -0.14851880692E+02  0.42637691410E+02  0.51100000000E-03 0. -1.
         22    1    1    0    0    0  0.80382194663E+01  0.83460001584E+01 -0.27394813018E+02  0.29744654497E+02  0.00000000000E+00 0.  1.
</event>
<event>
 5    1  0.1282524E-003  0.9118800E+02  0.7818608E-02  0.1130116E+00
         25   -1    0    0    0    0  0.00000000000E+00  0.00000000000E+00  0.99999998245E-14  0.12500000000E+03  0.12500000000E+03 0.  0.
        -11    1    3    3    0    0  0.49724742332E+02 -0.19440763837E+02 -0.21920360531E+02  0.57714777177E+02  0.51100000000E-03 0.  1.
         23    2    1    0    0    0  0.20746322606E+02  0.42916175142E+01 -0.20981782632E+02  0.95182839086E+02  0.90391978469E+02 0.  0.
         11    1    3    3    0    0 -0.28978419727E+02  0.23732381351E+02  0.93857789861E+00  0.37468061909E+02  0.51100000000E-03 0. -1.
         22    1    1    0    0    0 -0.20746322606E+02 -0.42916175142E+01  0.20981782632E+02  0.29817160914E+02  0.00000000000E+00 0.  1.
</event>
<event>
 5    1  0.1282524E-003  0.9118800E+02  0.7818608E-02  0.1130116E+00
         25   -1    0    0    0    0  0.00000000000E+00  0.00000000000E+00  0.99999998245E-14  0.12500000000E+03  0.12500000000E+03 0.  0.
        -11    1    3    3    0    0  0.43887071076E+02  0.17980176728E+02  0.30803368346E+02  0.56552712264E+02  0.51100000000E-03 0.  1.
         23    2    1    0    0    0  0.19608947823E+02  0.22455856119E+02  0.11116378491E+01  0.95166930304E+02  0.90369976076E+02 0.  0.
         11    1    3    3    0    0 -0.24278123253E+02  0.44756793908E+01 -0.29691730496E+02  0.38614218040E+02  0.51100000000E-03 0. -1.
         22    1    1    0    0    0 -0.19608947823E+02 -0.22455856119E+02 -0.11116378491E+01  0.29833069696E+02  0.00000000000E+00 0.  1.
</event>
<event>
 5    1  0.1282524E-003  0.9118800E+02  0.7818608E-02  0.1130116E+00
         25   -1    0    0    0    0  0.00000000000E+00  0.00000000000E+00  0.99999998245E-14  0.12500000000E+03  0.12500000000E+03 0.  0.
        -11    1    3    3    0    0 -0.21532145318E+02 -0.36447440209E+02 -0.36536609328E+02  0.55919343712E+02  0.51100000000E-03 0.  1.
         23    2    1    0    0    0  0.81846078507E+01 -0.12475899472E+02 -0.25142492106E+02  0.95763365744E+02  0.91191235523E+02 0.  0.
         11    1    3    3    0    0  0.29716753168E+02  0.23971540737E+02  0.11394117222E+02  0.39844022032E+02  0.51100000000E-03 0. -1.
         22    1    1    0    0    0 -0.81846078507E+01  0.12475899472E+02  0.25142492106E+02  0.29236634256E+02  0.00000000000E+00 0.  1.
</event>
<event>
 5    1  0.1282524E-003  0.9118800E+02  0.7818608E-02  0.1130116E+00
         25   -1    0    0    0    0  0.00000000000E+00  0.00000000000E+00  0.99999998245E-14  0.12500000000E+03  0.12500000000E+03 0.  0.
        -11    1    3    3    0    0  0.25648693796E+02  0.38558571682E+02 -0.35187433850E+02  0.58161623471E+02  0.51100000000E-03 0.  1.
         23    2    1    0    0    0  0.95951343611E+01  0.48708669372E+01 -0.26387995781E+02  0.96502311155E+02  0.92198578020E+02 0.  0.
         11    1    3    3    0    0 -0.16053559435E+02 -0.33687704745E+02  0.87994380687E+01  0.38340687684E+02  0.51100000000E-03 0. -1.
         22    1    1    0    0    0 -0.95951343611E+01 -0.48708669372E+01  0.26387995781E+02  0.28497688845E+02  0.00000000000E+00 0.  1.
</event>
<event>
 5    1  0.1282524E-003  0.9118800E+02  0.7818608E-02  0.1130116E+00
         25   -1    0    0    0    0  0.00000000000E+00  0.00000000000E+00  0.99999998245E-14  0.12500000000E+03  0.12500000000E+03 0.  0.
        -11    1    3    3    0    0 -0.48427235878E+02  0.18549919567E+02 -0.29940383305E+02  0.59880908839E+02  0.51100000000E-03 0.  1.
         23    2    1    0    0    0 -0.18758470225E+02  0.19936218170E+02 -0.19608065272E+02  0.91327916254E+02  0.84893928308E+02 0.  0.
         11    1    3    3    0    0  0.29668765652E+02  0.13862986024E+01  0.10332318033E+02  0.31447007415E+02  0.51100000000E-03 0. -1.
         22    1    1    0    0    0  0.18758470225E+02 -0.19936218170E+02  0.19608065272E+02  0.33672083746E+02  0.00000000000E+00 0.  1.
</event>
<event>
 5    1  0.1282524E-003  0.9118800E+02  0.7818608E-02  0.1130116E+00
         25   -1    0    0    0    0  0.00000000000E+00  0.00000000000E+00  0.99999998245E-14  0.12500000000E+03  0.12500000000E+03 0.  0.
        -11    1    3    3    0    0  0.17347072491E+02  0.30619368310E+02 -0.31486803394E+02  0.47221662698E+02  0.51100000000E-03 0.  1.
         23    2    1    0    0    0  0.16890377192E+02 -0.66877799253E+01 -0.35873958742E+02  0.84788656354E+02  0.74646929531E+02 0.  0.
         11    1    3    3    0    0 -0.45669529933E+00 -0.37307148235E+02 -0.43871553479E+01  0.37566993656E+02  0.51100000000E-03 0. -1.
         22    1    1    0    0    0 -0.16890377192E+02  0.66877799253E+01  0.35873958742E+02  0.40211343646E+02  0.00000000000E+00 0. -1.
</event>
<event>
 5    1  0.1282524E-003  0.9118800E+02  0.7818608E-02  0.1130116E+00
         25   -1    0    0    0    0  0.00000000000E+00  0.00000000000E+00  0.99999998245E-14  0.12500000000E+03  0.12500000000E+03 0.  0.
        -11    1    3    3    0    0  0.35600208219E+02  0.43706361174E+00  0.22668050501E+02  0.42206709936E+02  0.51100000000E-03 0.  1.
         23    2    1    0    0    0 -0.54333144260E+01 -0.26688587769E+02 -0.28401709826E+01  0.97616278668E+02  0.93696689733E+02 0.  0.
         11    1    3    3    0    0 -0.41033522645E+02 -0.27125651381E+02 -0.25508221483E+02  0.55409568732E+02  0.51100000000E-03 0. -1.
         22    1    1    0    0    0  0.54333144260E+01  0.26688587769E+02  0.28401709826E+01  0.27383721332E+02  0.00000000000E+00 0.  1.
</event>
<event>
 5    1  0.1282524E-003  0.9118800E+02  0.7818608E-02  0.1130116E+00
         25   -1    0    0    0    0  0.00000000000E+00  0.00000000000E+00  0.99999998245E-14  0.12500000000E+03  0.12500000000E+03 0.  0.
        -11    1    3    3    0    0  0.42086581645E+02 -0.24756138966E+02 -0.35679061166E+02  0.60474310058E+02  0.51100000000E-03 0.  1.
         23    2    1    0    0    0  0.26404744044E+02 -0.57041371699E+01 -0.97185757857E+01  0.96291144151E+02  0.91911838398E+02 0.  0.
         11    1    3    3    0    0 -0.15681837601E+02  0.19052001796E+02  0.25960485380E+02  0.35816834093E+02  0.51100000000E-03 0. -1.
         22    1    1    0    0    0 -0.26404744044E+02  0.57041371699E+01  0.97185757857E+01  0.28708855849E+02  0.00000000000E+00 0.  1.
</event>
<event>
 5    1  0.1282524E-003  0.9118800E+02  0.7818608E-02  0.1130116E+00
         25   -1    0    0    0    0  0.00000000000E+00  0.00000000000E+00  0.99999998245E-14  0.12500000000E+03  0.12500000000E+03 0.  0.
        -11    1    3    3    0    0 -0.78245492344E+00  0.10656235768E+01  0.47929657703E+02  0.47947887098E+02  0.51100000000E-03 0. -1.
         23    2    1    0    0    0 -0.10145436023E+02 -0.25403794867E+02  0.84947985193E+01  0.96356601674E+02  0.92000817489E+02 0.  0.
         11    1    3    3    0    0 -0.93629810998E+01 -0.26469418444E+02 -0.39434859184E+02  0.48408714577E+02  0.51100000000E-03 0.  1.
         22    1    1    0    0    0  0.10145436023E+02  0.25403794867E+02 -0.84947985193E+01  0.28643398326E+02  0.00000000000E+00 0. -1.
</event>
<event>
 5    1  0.1282524E-003  0.9118800E+02  0.7818608E-02  0.1130116E+00
         25   -1    0    0    0    0  0.00000000000E+00  0.00000000000E+00  0.99999998245E-14  0.12500000000E+03  0.12500000000E+03 0.  0.
        -11    1    3    3    0    0 -0.31697546728E+02 -0.10710820284E+02  0.29581348102E+02  0.44659963004E+02  0.51100000000E-03 0.  1.
         23    2    1    0    0    0 -0.16226743503E+02  0.15133808078E+02 -0.14822216341E+02  0.98315970152E+02  0.94625538508E+02 0.  0.
         11    1    3    3    0    0  0.15470803225E+02  0.25844628362E+02 -0.44403564443E+02  0.53656007148E+02  0.51100000000E-03 0. -1.
         22    1    1    0    0    0  0.16226743503E+02 -0.15133808078E+02  0.14822216341E+02  0.26684029848E+02  0.00000000000E+00 0.  1.
</event>
<event>
 5    1  0.1282524E-003  0.9118800E+02  0.7818608E-02  0.1130116E+00
         25   -1    0    0    0    0  0.00000000000E+00  0.00000000000E+00  0.99999998245E-14  0.12500000000E+03  0.12500000000E+03 0.  0.
        -11    1    3    3    0    0 -0.22310637489E+02 -0.27963952392E+02 -0.26961686861E+02  0.44795979029E+02  0.51100000000E-03 0. -1.
         23    2    1    0    0    0  0.20705091206E+02 -0.13122998427E+02 -0.24462820036E+02  0.90368461575E+02  0.83469248192E+02 0.  0.
         11    1    3    3    0    0  0.43015728695E+02  0.14840953964E+02  0.24988668247E+01  0.45572482546E+02  0.51100000000E-03 0.  1.
         22    1    1    0    0    0 -0.20705091206E+02  0.13122998427E+02  0.24462820036E+02  0.34631538425E+02  0.00000000000E+00 0. -1.
</event>
<event>
 5    1  0.1282524E-003  0.9118800E+02  0.7818608E-02  0.1130116E+00
         25   -1    0    0    0    0  0.00000000000E+00  0.00000000000E+00  0.99999998245E-14  0.12500000000E+03  0.12500000000E+03 0.  0.
        -11    1    3    3    0    0 -0.15974786846E+02 -0.30907055140E+02  0.16691842007E+02  0.38588307323E+02  0.51100000000E-03 0. -1.
         23    2    1    0    0    0  0.18069356252E+02 -0.58825138973E+01 -0.22034706953E+02  0.95903025662E+02  0.91382473241E+02 0.  0.
         11    1    3    3    0    0  0.34044143098E+02  0.25024541243E+02 -0.38726548960E+02  0.57314718339E+02  0.51100000000E-03 0.  1.
         22    1    1    0    0    0 -0.18069356252E+02  0.58825138973E+01  0.22034706953E+02  0.29096974338E+02  0.00000000000E+00 0.  1.
</event>
<event>
 5    1  0.1282524E-003  0.9118800E+02  0.7818608E-02  0.1130116E+00
         25   -1    0    0    0    0  0.00000000000E+00  0.00000000000E+00  0.99999998245E-14  0.12500000000E+03  0.12500000000E+03 0.  0.
        -11    1    3    3    0    0 -0.38634544991E+02  0.36034145671E+02  0.23740600658E+02  0.57919805255E+02  0.51100000000E-03 0. -1.
         23    2    1    0    0    0 -0.25628130372E+02  0.13453294226E+02 -0.37675039712E+01  0.95811196015E+02  0.91256775112E+02 0.  0.
         11    1    3    3    0    0  0.13006414619E+02 -0.22580851445E+02 -0.27508104629E+02  0.37891390760E+02  0.51100000000E-03 0.  1.
         22    1    1    0    0    0  0.25628130372E+02 -0.13453294226E+02  0.37675039712E+01  0.29188803985E+02  0.00000000000E+00 0. -1.
</event>
<event>
 5    1  0.1282524E-003  0.9118800E+02  0.7818608E-02  0.1130116E+00
         25   -1    0    0    0    0  0.00000000000E+00  0.00000000000E+00  0.99999998245E-14  0.12500000000E+03  0.12500000000E+03 0.  0.
        -11    1    3    3    0    0 -0.39040847951E+02 -0.23920059916E+01 -0.48194948616E+02  0.62069820153E+02  0.51100000000E-03 0.  1.
         23    2    1    0    0    0 -0.19730810933E+02  0.37341865885E+01 -0.21512131381E+02  0.95571767873E+02  0.90928224267E+02 0.  0.
         11    1    3    3    0    0  0.19310037018E+02  0.61261925800E+01  0.26682817235E+02  0.33501947720E+02  0.51100000000E-03 0. -1.
         22    1    1    0    0    0  0.19730810933E+02 -0.37341865885E+01  0.21512131381E+02  0.29428232127E+02  0.00000000000E+00 0.  1.
</event>
<event>
 5    1  0.1282524E-003  0.9118800E+02  0.7818608E-02  0.1130116E+00
         25   -1    0    0    0    0  0.00000000000E+00  0.00000000000E+00  0.99999998245E-14  0.12500000000E+03  0.12500000000E+03 0.  0.
        -11    1    3    3    0    0 -0.63544091627E+00  0.45242286087E+02  0.24291932375E+02  0.51355293927E+02  0.51100000000E-03 0.  1.
         23    2    1    0    0    0 -0.10068979954E+02  0.48352112412E+01  0.29764860296E+02  0.93208326035E+02  0.87618956332E+02 0.  0.
         11    1    3    3    0    0 -0.94335390380E+01 -0.40407074846E+02  0.54729279208E+01  0.41853032108E+02  0.51100000000E-03 0. -1.
         22    1    1    0    0    0  0.10068979954E+02 -0.48352112412E+01 -0.29764860296E+02  0.31791673965E+02  0.00000000000E+00 0.  1.
</event>
<event>
 5    1  0.1282524E-003  0.9118800E+02  0.7818608E-02  0.1130116E+00
         25   -1    0    0    0    0  0.00000000000E+00  0.00000000000E+00  0.99999998245E-14  0.12500000000E+03  0.12500000000E+03 0.  0.
        -11    1    3    3    0    0 -0.48583273858E+02 -0.12814729949E+01  0.19614110329E+01  0.48639734840E+02  0.51100000000E-03 0.  1.
         23    2    1    0    0    0 -0.11765046538E+02  0.93172274481E+01  0.26788690622E+02  0.94293958370E+02  0.89154302154E+02 0.  0.
         11    1    3    3    0    0  0.36818227320E+02  0.10598700443E+02  0.24827279589E+02  0.45654223530E+02  0.51100000000E-03 0. -1.
         22    1    1    0    0    0  0.11765046538E+02 -0.93172274481E+01 -0.26788690622E+02  0.30706041630E+02  0.00000000000E+00 0.  1.
</event>
<event>
 5    1  0.1282524E-003  0.9118800E+02  0.7818608E-02  0.1130116E+00
         25   -1    0    0    0    0  0.00000000000E+00  0.00000000000E+00  0.99999998245E-14  0.12500000000E+03  0.12500000000E+03 0.  0.
        -11    1    3    3    0    0  0.31626014092E+02 -0.26027813227E+02  0.45606614643E+02  0.61299389297E+02  0.51100000000E-03 0.  1.
         23    2    1    0    0    0  0.16342123140E+02 -0.64457509488E+01  0.28709670982E+02  0.91342045488E+02  0.84914730006E+02 0.  0.
         11    1    3    3    0    0 -0.15283890952E+02  0.19582062278E+02 -0.16896943660E+02  0.30042656191E+02  0.51100000000E-03 0. -1.
         22    1    1    0    0    0 -0.16342123140E+02  0.64457509488E+01 -0.28709670982E+02  0.33657954512E+02  0.00000000000E+00 0.  1.
</event>
<event>
 5    1  0.1282524E-003  0.9118800E+02  0.7818608E-02  0.1130116E+00
         25   -1    0    0    0    0  0.00000000000E+00  0.00000000000E+00  0.99999998245E-14  0.12500000000E+03  0.12500000000E+03 0.  0.
        -11    1    3    3    0    0 -0.51017070695E+02 -0.10608492157E+02 -0.41309166718E+01  0.52271847881E+02  0.51100000000E-03 0. -1.
         23    2    1    0    0    0 -0.14547272255E+02 -0.15218971154E+02  0.19770418563E+02  0.96119043243E+02  0.91677482572E+02 0.  0.
         11    1    3    3    0    0  0.36469798440E+02 -0.46104789969E+01  0.23901335235E+02  0.43847195362E+02  0.51100000000E-03 0.  1.
         22    1    1    0    0    0  0.14547272255E+02  0.15218971154E+02 -0.19770418563E+02  0.28880956757E+02  0.00000000000E+00 0. -1.
</event>
<event>
 5    1  0.1282524E-003  0.9118800E+02  0.7818608E-02  0.1130116E+00
         25   -1    0    0    0    0  0.00000000000E+00  0.00000000000E+00  0.99999998245E-14  0.12500000000E+03  0.12500000000E+03 0.  0.
        -11    1    3    3    0    0  0.13597235946E+02 -0.45051025088E+02  0.26940919483E+01  0.47135313922E+02  0.51100000000E-03 0. -1.
         23    2    1    0    0    0 -0.22957815337E+02 -0.15118015810E+02 -0.94755337869E+01  0.95924212347E+02  0.91411449430E+02 0.  0.
         11    1    3    3    0    0 -0.36555051283E+02  0.29933009278E+02 -0.12169625735E+02  0.48788898425E+02  0.51100000000E-03 0.  1.
         22    1    1    0    0    0  0.22957815337E+02  0.15118015810E+02  0.94755337869E+01  0.29075787653E+02  0.00000000000E+00 0.  1.
</event>
<event>
 5    1  0.1282524E-003  0.9118800E+02  0.7818608E-02  0.1130116E+00
         25   -1    0    0    0    0  0.00000000000E+00  0.00000000000E+00  0.99999998245E-14  0.12500000000E+03  0.12500000000E+03 0.  0.
        -11    1    3    3    0    0 -0.35875562402E+02 -0.41299409043E+01 -0.34951139268E+02  0.50256288422E+02  0.51100000000E-03 0. -1.
         23    2    1    0    0    0  0.80760553932E+01 -0.90623359517E+00 -0.29188664991E+02  0.94701120581E+02  0.89723353400E+02 0.  0.
         11    1    3    3    0    0  0.43951617796E+02  0.32237073091E+01  0.57624742763E+01  0.44444832160E+02  0.51100000000E-03 0.  1.
         22    1    1    0    0    0 -0.80760553932E+01  0.90623359517E+00  0.29188664991E+02  0.30298879419E+02  0.00000000000E+00 0. -1.
</event>
<event>
 5    1  0.1282524E-003  0.9118800E+02  0.7818608E-02  0.1130116E+00
         25   -1    0    0    0    0  0.00000000000E+00  0.00000000000E+00  0.99999998245E-14  0.12500000000E+03  0.12500000000E+03 0.  0.
        -11    1    3    3    0    0  0.21402686957E+02  0.34958975818E+02 -0.41806374421E+02  0.58548936299E+02  0.51100000000E-03 0.  1.
         23    2    1    0    0    0  0.21073663211E+02  0.51526764895E+01 -0.20126712576E+02  0.95407198253E+02  0.90701706507E+02 0.  0.
         11    1    3    3    0    0 -0.32902374579E+00 -0.29806299329E+02  0.21679661845E+02  0.36858261954E+02  0.51100000000E-03 0. -1.
         22    1    1    0    0    0 -0.21073663211E+02 -0.51526764895E+01  0.20126712576E+02  0.29592801747E+02  0.00000000000E+00 0.  1.
</event>
<event>
 5    1  0.1282524E-003  0.9118800E+02  0.7818608E-02  0.1130116E+00
         25   -1    0    0    0    0  0.00000000000E+00  0.00000000000E+00  0.99999998245E-14  0.12500000000E+03  0.12500000000E+03 0.  0.
        -11    1    3    3    0    0 -0.97438256330E+00 -0.17209062653E+02  0.57391860682E+02  0.59924343397E+02  0.51100000000E-03 0.  1.
         23    2    1    0    0    0 -0.65787921269E+01 -0.18307550754E+02  0.22606085556E+02  0.95175814770E+02  0.90382264259E+02 0.  0.
         11    1    3    3    0    0 -0.56044095636E+01 -0.10984881010E+01 -0.34785775125E+02  0.35251471373E+02  0.51100000000E-03 0. -1.
         22    1    1    0    0    0  0.65787921269E+01  0.18307550754E+02 -0.22606085556E+02  0.29824185230E+02  0.00000000000E+00 0.  1.
</event>
<event>
 5    1  0.1282524E-003  0.9118800E+02  0.7818608E-02  0.1130116E+00
         25   -1    0    0    0    0  0.00000000000E+00  0.00000000000E+00  0.99999998245E-14  0.12500000000E+03  0.12500000000E+03 0.  0.
        -11    1    3    3    0    0 -0.23013177996E+02  0.17781786874E+02  0.52971811894E+02  0.60430217288E+02  0.51100000000E-03 0.  1.
         23    2    1    0    0    0 -0.43254092286E+01 -0.10454125832E+01  0.27280106473E+02  0.97359336809E+02  0.93353276334E+02 0.  0.
         11    1    3    3    0    0  0.18687768767E+02 -0.18827199457E+02 -0.25691705421E+02  0.36929119521E+02  0.51100000000E-03 0. -1.
         22    1    1    0    0    0  0.43254092286E+01  0.10454125832E+01 -0.27280106473E+02  0.27640663191E+02  0.00000000000E+00 0.  1.
</event>
<event>
 5    1  0.1282524E-003  0.9118800E+02  0.7818608E-02  0.1130116E+00
         25   -1    0    0    0    0  0.00000000000E+00  0.00000000000E+00  0.99999998245E-14  0.12500000000E+03  0.12500000000E+03 0.  0.
        -11    1    3    3    0    0  0.11358585529E+00  0.39043975239E+02 -0.23340625589E+02  0.45488786612E+02  0.51100000000E-03 0. -1.
         23    2    1    0    0    0 -0.67239703243E+01  0.26517941793E+02  0.19995672761E+02  0.91114310646E+02  0.84578825136E+02 0.  0.
         11    1    3    3    0    0 -0.68375561796E+01 -0.12526033446E+02  0.43336298350E+02  0.45625524034E+02  0.51100000000E-03 0.  1.
         22    1    1    0    0    0  0.67239703243E+01 -0.26517941793E+02 -0.19995672761E+02  0.33885689354E+02  0.00000000000E+00 0. -1.
</event>
<event>
 5    1  0.1282524E-003  0.9118800E+02  0.7818608E-02  0.1130116E+00
         25   -1    0    0    0    0  0.00000000000E+00  0.00000000000E+00  0.99999998245E-14  0.12500000000E+03  0.12500000000E+03 0.  0.
        -11    1    3    3    0    0  0.84967704327E+01 -0.86921702546E+01 -0.54139298017E+02  0.55487048232E+02  0.51100000000E-03 0.  1.
         23    2    1    0    0    0  0.22822036430E+02  0.13322216603E+01 -0.17081787314E+02  0.96462172136E+02  0.92144142701E+02 0.  0.
         11    1    3    3    0    0  0.14325265997E+02  0.10024391915E+02  0.37057510703E+02  0.40975123904E+02  0.51100000000E-03 0. -1.
         22    1    1    0    0    0 -0.22822036430E+02 -0.13322216603E+01  0.17081787314E+02  0.28537827864E+02  0.00000000000E+00 0.  1.
</event>
<event>
 5    1  0.1282524E-003  0.9118800E+02  0.7818608E-02  0.1130116E+00
         25   -1    0    0    0    0  0.00000000000E+00  0.00000000000E+00  0.99999998245E-14  0.12500000000E+03  0.12500000000E+03 0.  0.
        -11    1    3    3    0    0  0.15037953166E+02  0.30106491310E+02  0.24079587398E+01  0.33739281557E+02  0.51100000000E-03 0.  1.
         23    2    1    0    0    0 -0.13534000487E+02 -0.24329230515E+02 -0.78648799603E+01  0.96070137169E+02  0.91610776071E+02 0.  0.
         11    1    3    3    0    0 -0.28571953653E+02 -0.54435721825E+02 -0.10272838700E+02  0.62330855612E+02  0.51100000000E-03 0. -1.
         22    1    1    0    0    0  0.13534000487E+02  0.24329230515E+02  0.78648799603E+01  0.28929862831E+02  0.00000000000E+00 0. -1.
</event>
<event>
 5    1  0.1282524E-003  0.9118800E+02  0.7818608E-02  0.1130116E+00
         25   -1    0    0    0    0  0.00000000000E+00  0.00000000000E+00  0.99999998245E-14  0.12500000000E+03  0.12500000000E+03 0.  0.
        -11    1    3    3    0    0 -0.43071619992E+02  0.37974952514E+02 -0.16326448642E+02  0.59697691687E+02  0.51100000000E-03 0. -1.
         23    2    1    0    0    0 -0.93383440080E+01  0.23491418089E+02 -0.13039492614E+02  0.96555672617E+02  0.92270895488E+02 0.  0.
         11    1    3    3    0    0  0.33733275984E+02 -0.14483534425E+02  0.32869560273E+01  0.36857980930E+02  0.51100000000E-03 0.  1.
         22    1    1    0    0    0  0.93383440080E+01 -0.23491418089E+02  0.13039492614E+02  0.28444327383E+02  0.00000000000E+00 0. -1.
</event>
<event>
 5    1  0.1282524E-003  0.9118800E+02  0.7818608E-02  0.1130116E+00
         25   -1    0    0    0    0  0.00000000000E+00  0.00000000000E+00  0.99999998245E-14  0.12500000000E+03  0.12500000000E+03 0.  0.
        -11    1    3    3    0    0 -0.17895076859E+02  0.28874752699E+02  0.20111288182E+02  0.39477196352E+02  0.51100000000E-03 0.  1.
         23    2    1    0    0    0  0.26206739371E+02  0.57884497951E+01 -0.84435911022E+01  0.96864727295E+02  0.92688628341E+02 0.  0.
         11    1    3    3    0    0  0.44101816230E+02 -0.23086302904E+02 -0.28554879285E+02  0.57387530943E+02  0.51100000000E-03 0. -1.
         22    1    1    0    0    0 -0.26206739371E+02 -0.57884497951E+01  0.84435911022E+01  0.28135272705E+02  0.00000000000E+00 0. -1.
</event>
<event>
 5    1  0.1282524E-003  0.9118800E+02  0.7818608E-02  0.1130116E+00
         25   -1    0    0    0    0  0.00000000000E+00  0.00000000000E+00  0.99999998245E-14  0.12500000000E+03  0.12500000000E+03 0.  0.
        -11    1    3    3    0    0  0.46789549758E+02  0.25190414776E+01 -0.10365201681E+02  0.47990050455E+02  0.51100000000E-03 0. -1.
         23    2    1    0    0    0  0.28933754964E+01  0.13829590382E+02 -0.25556590059E+02  0.95797799957E+02  0.91238423865E+02 0.  0.
         11    1    3    3    0    0 -0.43896174262E+02  0.11310548904E+02 -0.15191388378E+02  0.47807749502E+02  0.51100000000E-03 0.  1.
         22    1    1    0    0    0 -0.28933754964E+01 -0.13829590382E+02  0.25556590059E+02  0.29202200043E+02  0.00000000000E+00 0.  1.
</event>
<event>
 5    1  0.1282524E-003  0.9118800E+02  0.7818608E-02  0.1130116E+00
         25   -1    0    0    0    0  0.00000000000E+00  0.00000000000E+00  0.99999998245E-14  0.12500000000E+03  0.12500000000E+03 0.  0.
        -11    1    3    3    0    0 -0.42184452293E+02  0.37311633939E+01 -0.36601634095E+02  0.55974362115E+02  0.51100000000E-03 0.  1.
         23    2    1    0    0    0 -0.32243880313E+01 -0.13550419155E+01 -0.28745203026E+02  0.96042798585E+02  0.91573465842E+02 0.  0.
         11    1    3    3    0    0  0.38960064262E+02 -0.50862053094E+01  0.78564310683E+01  0.40068436470E+02  0.51100000000E-03 0. -1.
         22    1    1    0    0    0  0.32243880313E+01  0.13550419155E+01  0.28745203026E+02  0.28957201415E+02  0.00000000000E+00 0.  1.
</event>
<event>
 5    1  0.1282524E-003  0.9118800E+02  0.7818608E-02  0.1130116E+00
         25   -1    0    0    0    0  0.00000000000E+00  0.00000000000E+00  0.99999998245E-14  0.12500000000E+03  0.12500000000E+03 0.  0.
        -11    1    3    3    0    0 -0.22403841315E+02 -0.16445101417E+02 -0.52194016714E+02  0.59131961301E+02  0.51100000000E-03 0. -1.
         23    2    1    0    0    0  0.27829700696E+01 -0.51948096853E+01 -0.29685930075E+02  0.94734749060E+02  0.89770191405E+02 0.  0.
         11    1    3    3    0    0  0.25186811384E+02  0.11250291731E+02  0.22508086640E+02  0.35602787759E+02  0.51100000000E-03 0.  1.
         22    1    1    0    0    0 -0.27829700696E+01  0.51948096853E+01  0.29685930075E+02  0.30265250940E+02  0.00000000000E+00 0. -1.
</event>
<event>
 5    1  0.1282524E-003  0.9118800E+02  0.7818608E-02  0.1130116E+00
         25   -1    0    0    0    0  0.00000000000E+00  0.00000000000E+00  0.99999998245E-14  0.12500000000E+03  0.12500000000E+03 0.  0.
        -11    1    3    3    0    0 -0.55195206473E+02  0.23679685568E+02  0.23176088689E+01  0.60104988456E+02  0.51100000000E-03 0. -1.
         23    2    1    0    0    0 -0.18690996319E+02  0.21203424517E+02  0.10282382365E+01  0.96715802495E+02  0.92487570104E+02 0.  0.
         11    1    3    3    0    0  0.36504210154E+02 -0.24762610514E+01 -0.12893706324E+01  0.36610814039E+02  0.51100000000E-03 0.  1.
         22    1    1    0    0    0  0.18690996319E+02 -0.21203424517E+02 -0.10282382365E+01  0.28284197505E+02  0.00000000000E+00 0. -1.
</event>
<event>
 5    1  0.1282524E-003  0.9118800E+02  0.7818608E-02  0.1130116E+00
         25   -1    0    0    0    0  0.00000000000E+00  0.00000000000E+00  0.99999998245E-14  0.12500000000E+03  0.12500000000E+03 0.  0.
        -11    1    3    3    0    0  0.49112484414E+02 -0.25726650966E+02  0.16874500050E+02  0.57953821682E+02  0.51100000000E-03 0.  1.
         23    2    1    0    0    0  0.15764815820E+02 -0.79304374263E+01  0.22751142225E+02  0.96207019463E+02  0.91797357619E+02 0.  0.
         11    1    3    3    0    0 -0.33347668594E+02  0.17796213540E+02  0.58766421751E+01  0.38253197782E+02  0.51100000000E-03 0. -1.
         22    1    1    0    0    0 -0.15764815820E+02  0.79304374263E+01 -0.22751142225E+02  0.28792980537E+02  0.00000000000E+00 0.  1.
</event>
<event>
 5    1  0.1282524E-003  0.9118800E+02  0.7818608E-02  0.1130116E+00
         25   -1    0    0    0    0  0.00000000000E+00  0.00000000000E+00  0.99999998245E-14  0.12500000000E+03  0.12500000000E+03 0.  0.
        -11    1    3    3    0    0 -0.37757649455E+02 -0.56920738099E+01 -0.31400575472E+02  0.49437191838E+02  0.51100000000E-03 0.  1.
         23    2    1    0    0    0 -0.21663696919E+02 -0.15682402018E+02  0.11158345879E+02  0.96021349582E+02  0.91544182751E+02 0.  0.
         11    1    3    3    0    0  0.16093952536E+02 -0.99903282084E+01  0.42558921351E+02  0.46584157744E+02  0.51100000000E-03 0. -1.
         22    1    1    0    0    0  0.21663696919E+02  0.15682402018E+02 -0.11158345879E+02  0.28978650418E+02  0.00000000000E+00 0.  1.
</event>
<event>
 5    1  0.1282524E-003  0.9118800E+02  0.7818608E-02  0.1130116E+00
         25   -1    0    0    0    0  0.00000000000E+00  0.00000000000E+00  0.99999998245E-14  0.12500000000E+03  0.12500000000E+03 0.  0.
        -11    1    3    3    0    0 -0.27176846009E+02 -0.22972935502E+02 -0.35917627603E+02  0.50560979989E+02  0.51100000000E-03 0.  1.
         23    2    1    0    0    0  0.10203821913E+01  0.13177559052E+02 -0.23464527049E+02  0.98069101909E+02  0.94298862544E+02 0.  0.
         11    1    3    3    0    0  0.28197228200E+02  0.36150494553E+02  0.12453100554E+02  0.47508121919E+02  0.51100000000E-03 0. -1.
         22    1    1    0    0    0 -0.10203821913E+01 -0.13177559052E+02  0.23464527049E+02  0.26930898091E+02  0.00000000000E+00 0.  1.
</event>
<event>
 5    1  0.1282524E-003  0.9118800E+02  0.7818608E-02  0.1130116E+00
         25   -1    0    0    0    0  0.00000000000E+00  0.00000000000E+00  0.99999998245E-14  0.12500000000E+03  0.12500000000E+03 0.  0.
        -11    1    3    3    0    0 -0.13871190635E+02  0.23523061020E+02  0.17788354861E+02  0.32590948104E+02  0.51100000000E-03 0. -1.
         23    2    1    0    0    0 -0.69749678697E-01 -0.18016830525E+02 -0.25252180615E+02  0.93979302507E+02  0.88712037665E+02 0.  0.
         11    1    3    3    0    0  0.13801440956E+02 -0.41539891545E+02 -0.43040535475E+02  0.61388354403E+02  0.51100000000E-03 0.  1.
         22    1    1    0    0    0  0.69749678697E-01  0.18016830525E+02  0.25252180615E+02  0.31020697493E+02  0.00000000000E+00 0.  1.
</event>
<event>
 5    1  0.1282524E-003  0.9118800E+02  0.7818608E-02  0.1130116E+00
         25   -1    0    0    0    0  0.00000000000E+00  0.00000000000E+00  0.99999998245E-14  0.12500000000E+03  0.12500000000E+03 0.  0.
        -11    1    3    3    0    0  0.28100245038E+02  0.16195564061E+02 -0.22822011475E+02  0.39658092169E+02  0.51100000000E-03 0. -1.
         23    2    1    0    0    0  0.14209246891E+02  0.15955173539E+02  0.26534775453E+02  0.90932940129E+02  0.84310349497E+02 0.  0.
         11    1    3    3    0    0 -0.13890998147E+02 -0.24039052163E+00  0.49356786929E+02  0.51274847960E+02  0.51100000000E-03 0.  1.
         22    1    1    0    0    0 -0.14209246891E+02 -0.15955173539E+02 -0.26534775453E+02  0.34067059871E+02  0.00000000000E+00 0.  1.
</event>
<event>
 5    1  0.1282524E-003  0.9118800E+02  0.7818608E-02  0.1130116E+00
         25   -1    0    0    0    0  0.00000000000E+00  0.00000000000E+00  0.99999998245E-14  0.12500000000E+03  0.12500000000E+03 0.  0.
        -11    1    3    3    0    0  0.52796380121E+02  0.95437037363E+01  0.11136272892E+02  0.54795589321E+02  0.51100000000E-03 0. -1.
         23    2    1    0    0    0  0.25422692439E+02 -0.17253835280E+02  0.18073627653E+01  0.94222172220E+02  0.89053596530E+02 0.  0.
         11    1    3    3    0    0 -0.27373687682E+02 -0.26797539016E+02 -0.93289101270E+01  0.39426582899E+02  0.51100000000E-03 0.  1.
         22    1    1    0    0    0 -0.25422692439E+02  0.17253835280E+02 -0.18073627653E+01  0.30777827780E+02  0.00000000000E+00 0. -1.
</event>
<event>
 5    1  0.1282524E-003  0.9118800E+02  0.7818608E-02  0.1130116E+00
         25   -1    0    0    0    0  0.00000000000E+00  0.00000000000E+00  0.99999998245E-14  0.12500000000E+03  0.12500000000E+03 0.  0.
        -11    1    3    3    0    0  0.40775447316E+02  0.92955122875E+01 -0.12616569963E+02  0.43683194599E+02  0.51100000000E-03 0.  1.
         23    2    1    0    0    0 -0.33251242606E+01 -0.18822642088E+02 -0.20945349014E+02  0.96644119625E+02  0.92390637547E+02 0.  0.
         11    1    3    3    0    0 -0.44100571577E+02 -0.28118154375E+02 -0.83287790515E+01  0.52960925026E+02  0.51100000000E-03 0. -1.
         22    1    1    0    0    0  0.33251242606E+01  0.18822642088E+02  0.20945349014E+02  0.28355880375E+02  0.00000000000E+00 0. -1.
</event>
<event>
 5    1  0.1282524E-003  0.9118800E+02  0.7818608E-02  0.1130116E+00
         25   -1    0    0    0    0  0.00000000000E+00  0.00000000000E+00  0.99999998245E-14  0.12500000000E+03  0.12500000000E+03 0.  0.
        -11    1    3    3    0    0 -0.15637780488E+02 -0.21954526253E+02  0.46666041385E+02  0.53891194275E+02  0.51100000000E-03 0.  1.
         23    2    1    0    0    0 -0.10178467021E+02  0.12499351280E+02  0.25916303488E+02  0.94479682836E+02  0.89414320492E+02 0.  0.
         11    1    3    3    0    0  0.54593134672E+01  0.34453877533E+02 -0.20749737897E+02  0.40588488561E+02  0.51100000000E-03 0. -1.
         22    1    1    0    0    0  0.10178467021E+02 -0.12499351280E+02 -0.25916303488E+02  0.30520317164E+02  0.00000000000E+00 0.  1.
</event>
<event>
 5    1  0.1282524E-003  0.9118800E+02  0.7818608E-02  0.1130116E+00
         25   -1    0    0    0    0  0.00000000000E+00  0.00000000000E+00  0.99999998245E-14  0.12500000000E+03  0.12500000000E+03 0.  0.
        -11    1    3    3    0    0 -0.14394825104E+02  0.11289579379E+02 -0.50976674743E+02  0.54159827921E+02  0.51100000000E-03 0.  1.
         23    2    1    0    0    0  0.61033840661E+01 -0.14119340462E+02 -0.23920627521E+02  0.96560529310E+02  0.92277474648E+02 0.  0.
         11    1    3    3    0    0  0.20498209171E+02 -0.25408919841E+02  0.27056047222E+02  0.42400701389E+02  0.51100000000E-03 0. -1.
         22    1    1    0    0    0 -0.61033840661E+01  0.14119340462E+02  0.23920627521E+02  0.28439470690E+02  0.00000000000E+00 0.  1.
</event>
<event>
 5    1  0.1282524E-003  0.9118800E+02  0.7818608E-02  0.1130116E+00
         25   -1    0    0    0    0  0.00000000000E+00  0.00000000000E+00  0.99999998245E-14  0.12500000000E+03  0.12500000000E+03 0.  0.
        -11    1    3    3    0    0 -0.90550034397E+01  0.17729007358E+02 -0.34000803027E+02  0.39400068477E+02  0.51100000000E-03 0. -1.
         23    2    1    0    0    0  0.30774191164E+02 -0.50597736481E+01 -0.57500066289E+01  0.93286994349E+02  0.87731115274E+02 0.  0.
         11    1    3    3    0    0  0.39829194604E+02 -0.22788781006E+02  0.28250796398E+02  0.53886925872E+02  0.51100000000E-03 0.  1.
         22    1    1    0    0    0 -0.30774191164E+02  0.50597736481E+01  0.57500066289E+01  0.31713005651E+02  0.00000000000E+00 0.  1.
</event>
<event>
 5    1  0.1282524E-003  0.9118800E+02  0.7818608E-02  0.1130116E+00
         25   -1    0    0    0    0  0.00000000000E+00  0.00000000000E+00  0.99999998245E-14  0.12500000000E+03  0.12500000000E+03 0.  0.
        -11    1    3    3    0    0  0.23250837335E+02 -0.21823374148E+02 -0.25835078011E+02  0.41040374659E+02  0.51100000000E-03 0.  1.
         23    2    1    0    0    0 -0.22748719667E+02 -0.19836876312E+02  0.18416188929E+01  0.94760994255E+02  0.89806728945E+02 0.  0.
         11    1    3    3    0    0 -0.45999557002E+02  0.19864978365E+01  0.27676696904E+02  0.53720619596E+02  0.51100000000E-03 0. -1.
         22    1    1    0    0    0  0.22748719667E+02  0.19836876312E+02 -0.18416188929E+01  0.30239005745E+02  0.00000000000E+00 0. -1.
</event>
<event>
 5    1  0.1282524E-003  0.9118800E+02  0.7818608E-02  0.1130116E+00
         25   -1    0    0    0    0  0.00000000000E+00  0.00000000000E+00  0.99999998245E-14  0.12500000000E+03  0.12500000000E+03 0.  0.
        -11    1    3    3    0    0 -0.50323771915E+02  0.18244425683E+02  0.87069921024E+01  0.54232396222E+02  0.51100000000E-03 0. -1.
         23    2    1    0    0    0 -0.14247653843E+02  0.24088521299E+02 -0.99900063408E+01  0.95283796927E+02  0.90531481992E+02 0.  0.
         11    1    3    3    0    0  0.36076118072E+02  0.58440956162E+01 -0.18696998443E+02  0.41051400704E+02  0.51100000000E-03 0.  1.
         22    1    1    0    0    0  0.14247653843E+02 -0.24088521299E+02  0.99900063408E+01  0.29716203073E+02  0.00000000000E+00 0.  1.
</event>
<event>
 5    1  0.1282524E-003  0.9118800E+02  0.7818608E-02  0.1130116E+00
         25   -1    0    0    0    0  0.00000000000E+00  0.00000000000E+00  0.99999998245E-14  0.12500000000E+03  0.12500000000E+03 0.  0.
        -11    1    3    3    0    0 -0.41779485157E+02 -0.14548400440E+02  0.81648938871E+01  0.44987185151E+02  0.51100000000E-03 0.  1.
         23    2    1    0    0    0  0.87703525939E+01 -0.25893927876E+02  0.68717237403E+01  0.96810725929E+02  0.92615773399E+02 0.  0.
         11    1    3    3    0    0  0.50549837751E+02 -0.11345527437E+02 -0.12931701468E+01  0.51823540778E+02  0.51100000000E-03 0. -1.
         22    1    1    0    0    0 -0.87703525939E+01  0.25893927876E+02 -0.68717237403E+01  0.28189274071E+02  0.00000000000E+00 0. -1.
</event>
<event>
 5    1  0.1282524E-003  0.9118800E+02  0.7818608E-02  0.1130116E+00
         25   -1    0    0    0    0  0.00000000000E+00  0.00000000000E+00  0.99999998245E-14  0.12500000000E+03  0.12500000000E+03 0.  0.
        -11    1    3    3    0    0  0.81779332446E+01  0.27951646274E+02 -0.16933071277E+02  0.33688306943E+02  0.51100000000E-03 0.  1.
         23    2    1    0    0    0  0.39389702639E+01 -0.21299269027E+02  0.20096677916E+02  0.95452566760E+02  0.90764209301E+02 0.  0.
         11    1    3    3    0    0 -0.42389629806E+01 -0.49250915301E+02  0.37029749193E+02  0.61764259816E+02  0.51100000000E-03 0. -1.
         22    1    1    0    0    0 -0.39389702639E+01  0.21299269027E+02 -0.20096677916E+02  0.29547433240E+02  0.00000000000E+00 0. -1.
</event>
<event>
 5    1  0.1282524E-003  0.9118800E+02  0.7818608E-02  0.1130116E+00
         25   -1    0    0    0    0  0.00000000000E+00  0.00000000000E+00  0.99999998245E-14  0.12500000000E+03  0.12500000000E+03 0.  0.
        -11    1    3    3    0    0 -0.14237227306E+02 -0.37459297070E+02  0.17163492526E+01  0.40110390591E+02  0.51100000000E-03 0. -1.
         23    2    1    0    0    0 -0.11132885410E+02  0.12589525529E+02  0.24581721236E+02  0.95222520094E+02  0.90446835343E+02 0.  0.
         11    1    3    3    0    0  0.31043418959E+01  0.50048822599E+02  0.22865371984E+02  0.55112129503E+02  0.51100000000E-03 0.  1.
         22    1    1    0    0    0  0.11132885410E+02 -0.12589525529E+02 -0.24581721236E+02  0.29777479906E+02  0.00000000000E+00 0.  1.
</event>
<event>
 5    1  0.1282524E-003  0.9118800E+02  0.7818608E-02  0.1130116E+00
         25   -1    0    0    0    0  0.00000000000E+00  0.00000000000E+00  0.99999998245E-14  0.12500000000E+03  0.12500000000E+03 0.  0.
        -11    1    3    3    0    0 -0.29641807352E+02 -0.11012997349E+02 -0.36792026817E+02  0.48513669118E+02  0.51100000000E-03 0. -1.
         23    2    1    0    0    0  0.12278653589E+02  0.70815803805E+01 -0.25932889158E+02  0.95446170219E+02  0.90755399590E+02 0.  0.
         11    1    3    3    0    0  0.41920460941E+02  0.18094577729E+02  0.10859137659E+02  0.46932501102E+02  0.51100000000E-03 0.  1.
         22    1    1    0    0    0 -0.12278653589E+02 -0.70815803805E+01  0.25932889158E+02  0.29553829781E+02  0.00000000000E+00 0. -1.
</event>
<event>
 5    1  0.1282524E-003  0.9118800E+02  0.7818608E-02  0.1130116E+00
         25   -1    0    0    0    0  0.00000000000E+00  0.00000000000E+00  0.99999998245E-14  0.12500000000E+03  0.12500000000E+03 0.  0.
        -11    1    3    3    0    0  0.53170905444E+02  0.28453829608E+02  0.51516287534E+01  0.60525241711E+02  0.51100000000E-03 0.  1.
         23    2    1    0    0    0  0.23678168930E+02  0.13047934798E+02  0.13428718463E+02  0.94813334634E+02  0.89879550836E+02 0.  0.
         11    1    3    3    0    0 -0.29492736514E+02 -0.15405894810E+02  0.82770897098E+01  0.34288092923E+02  0.51100000000E-03 0. -1.
         22    1    1    0    0    0 -0.23678168930E+02 -0.13047934798E+02 -0.13428718463E+02  0.30186665366E+02  0.00000000000E+00 0.  1.
</event>
<event>
 5    1  0.1282524E-003  0.9118800E+02  0.7818608E-02  0.1130116E+00
         25   -1    0    0    0    0  0.00000000000E+00  0.00000000000E+00  0.99999998245E-14  0.12500000000E+03  0.12500000000E+03 0.  0.
        -11    1    3    3    0    0 -0.19553356028E+02  0.18844472026E+02 -0.18850088231E+02  0.33057127590E+02  0.51100000000E-03 0. -1.
         23    2    1    0    0    0  0.93607788027E+01 -0.23276287130E+02  0.16309742912E+02  0.95076473533E+02  0.90244769285E+02 0.  0.
         11    1    3    3    0    0  0.28914134831E+02 -0.42120759156E+02  0.35159831144E+02  0.62019345943E+02  0.51100000000E-03 0.  1.
         22    1    1    0    0    0 -0.93607788027E+01  0.23276287130E+02 -0.16309742912E+02  0.29923526467E+02  0.00000000000E+00 0.  1.
</event>
<event>
 5    1  0.1282524E-003  0.9118800E+02  0.7818608E-02  0.1130116E+00
         25   -1    0    0    0    0  0.00000000000E+00  0.00000000000E+00  0.99999998245E-14  0.12500000000E+03  0.12500000000E+03 0.  0.
        -11    1    3    3    0    0 -0.30958434065E+02 -0.38643049334E+02  0.18184970578E+02  0.52748488668E+02  0.51100000000E-03 0. -1.
         23    2    1    0    0    0 -0.18970490846E+02 -0.16158903614E+02 -0.16000843817E+02  0.95385532391E+02  0.90671842915E+02 0.  0.
         11    1    3    3    0    0  0.11987943219E+02  0.22484145720E+02 -0.34185814394E+02  0.42637043723E+02  0.51100000000E-03 0.  1.
         22    1    1    0    0    0  0.18970490846E+02  0.16158903614E+02  0.16000843817E+02  0.29614467609E+02  0.00000000000E+00 0. -1.
</event>
<event>
 5    1  0.1282524E-003  0.9118800E+02  0.7818608E-02  0.1130116E+00
         25   -1    0    0    0    0  0.00000000000E+00  0.00000000000E+00  0.99999998245E-14  0.12500000000E+03  0.12500000000E+03 0.  0.
        -11    1    3    3    0    0  0.16450761272E+02 -0.19048337526E+02  0.24010428632E+02  0.34784585556E+02  0.51100000000E-03 0.  1.
         23    2    1    0    0    0 -0.22270466391E+02  0.15787599911E+02 -0.87704770833E+01  0.96326959483E+02  0.91960534311E+02 0.  0.
         11    1    3    3    0    0 -0.38721227663E+02  0.34835937437E+02 -0.32780905715E+02  0.61542373927E+02  0.51100000000E-03 0. -1.
         22    1    1    0    0    0  0.22270466391E+02 -0.15787599911E+02  0.87704770833E+01  0.28673040517E+02  0.00000000000E+00 0. -1.
</event>
<event>
 5    1  0.1282524E-003  0.9118800E+02  0.7818608E-02  0.1130116E+00
         25   -1    0    0    0    0  0.00000000000E+00  0.00000000000E+00  0.99999998245E-14  0.12500000000E+03  0.12500000000E+03 0.  0.
        -11    1    3    3    0    0  0.70195564845E+01  0.41036221662E+02 -0.32202905523E+02  0.52633380909E+02  0.51100000000E-03 0. -1.
         23    2    1    0    0    0 -0.58372737116E+01  0.27841891442E+02  0.67851303823E+01  0.95754783678E+02  0.91179470932E+02 0.  0.
         11    1    3    3    0    0 -0.12856830196E+02 -0.13194330220E+02  0.38988035906E+02  0.43121402768E+02  0.51100000000E-03 0.  1.
         22    1    1    0    0    0  0.58372737116E+01 -0.27841891442E+02 -0.67851303823E+01  0.29245216322E+02  0.00000000000E+00 0. -1.
</event>
<event>
 5    1  0.1282524E-003  0.9118800E+02  0.7818608E-02  0.1130116E+00
         25   -1    0    0    0    0  0.00000000000E+00  0.00000000000E+00  0.99999998245E-14  0.12500000000E+03  0.12500000000E+03 0.  0.
        -11    1    3    3    0    0  0.40710305766E+02 -0.23823943893E+02  0.32246749918E+02  0.57138097437E+02  0.51100000000E-03 0. -1.
         23    2    1    0    0    0  0.26287450765E+02 -0.14277448694E+02 -0.14881999429E+01  0.95048533458E+02  0.90206060576E+02 0.  0.
         11    1    3    3    0    0 -0.14422855002E+02  0.95464951989E+01 -0.33734949861E+02  0.37910436021E+02  0.51100000000E-03 0.  1.
         22    1    1    0    0    0 -0.26287450765E+02  0.14277448694E+02  0.14881999429E+01  0.29951466542E+02  0.00000000000E+00 0. -1.
</event>
<event>
 5    1  0.1282524E-003  0.9118800E+02  0.7818608E-02  0.1130116E+00
         25   -1    0    0    0    0  0.00000000000E+00  0.00000000000E+00  0.99999998245E-14  0.12500000000E+03  0.12500000000E+03 0.  0.
        -11    1    3    3    0    0 -0.39881177177E+02 -0.29382622735E+02 -0.30298675163E+02  0.58067689198E+02  0.51100000000E-03 0. -1.
         23    2    1    0    0    0 -0.66985822300E+01 -0.10147889365E+02 -0.25536217183E+02  0.96716629436E+02  0.92488687735E+02 0.  0.
         11    1    3    3    0    0  0.33182594947E+02  0.19234733370E+02  0.47624579798E+01  0.38648940238E+02  0.51100000000E-03 0.  1.
         22    1    1    0    0    0  0.66985822300E+01  0.10147889365E+02  0.25536217183E+02  0.28283370564E+02  0.00000000000E+00 0.  1.
</event>
<event>
 5    1  0.1282524E-003  0.9118800E+02  0.7818608E-02  0.1130116E+00
         25   -1    0    0    0    0  0.00000000000E+00  0.00000000000E+00  0.99999998245E-14  0.12500000000E+03  0.12500000000E+03 0.  0.
        -11    1    3    3    0    0  0.46924213766E+02 -0.40491378831E+02 -0.51103949543E+01  0.62189627222E+02  0.51100000000E-03 0.  1.
         23    2    1    0    0    0  0.18343323308E+02 -0.21619542284E+02 -0.22834024760E+01  0.96555386354E+02  0.92270507686E+02 0.  0.
         11    1    3    3    0    0 -0.28580890457E+02  0.18871836547E+02  0.28269924783E+01  0.34365759132E+02  0.51100000000E-03 0. -1.
         22    1    1    0    0    0 -0.18343323308E+02  0.21619542284E+02  0.22834024760E+01  0.28444613646E+02  0.00000000000E+00 0.  1.
</event>
<event>
 5    1  0.1282524E-003  0.9118800E+02  0.7818608E-02  0.1130116E+00
         25   -1    0    0    0    0  0.00000000000E+00  0.00000000000E+00  0.99999998245E-14  0.12500000000E+03  0.12500000000E+03 0.  0.
        -11    1    3    3    0    0  0.32630726766E+01 -0.51262480859E+02 -0.25333260911E+02  0.57273586371E+02  0.51100000000E-03 0. -1.
         23    2    1    0    0    0  0.14274523456E+02 -0.19425042006E+02 -0.23994072412E+02  0.90988093442E+02  0.84392081148E+02 0.  0.
         11    1    3    3    0    0  0.11011450779E+02  0.31837438852E+02  0.13391884996E+01  0.33714507071E+02  0.51100000000E-03 0.  1.
         22    1    1    0    0    0 -0.14274523456E+02  0.19425042006E+02  0.23994072412E+02  0.34011906558E+02  0.00000000000E+00 0. -1.
</event>
<event>
 5    1  0.1282524E-003  0.9118800E+02  0.7818608E-02  0.1130116E+00
         25   -1    0    0    0    0  0.00000000000E+00  0.00000000000E+00  0.99999998245E-14  0.12500000000E+03  0.12500000000E+03 0.  0.
        -11    1    3    3    0    0 -0.34195512220E+02 -0.57402933622E+01  0.76067702820E+01  0.35498548960E+02  0.51100000000E-03 0.  1.
         23    2    1    0    0    0  0.19949823206E+02  0.52874380968E+01  0.24201277300E+02  0.93193486979E+02  0.87597783903E+02 0.  0.
         11    1    3    3    0    0  0.54145335426E+02  0.11027731459E+02  0.16594507018E+02  0.57694938019E+02  0.51100000000E-03 0. -1.
         22    1    1    0    0    0 -0.19949823206E+02 -0.52874380968E+01 -0.24201277300E+02  0.31806513021E+02  0.00000000000E+00 0.  1.
</event>
<event>
 5    1  0.1282524E-003  0.9118800E+02  0.7818608E-02  0.1130116E+00
         25   -1    0    0    0    0  0.00000000000E+00  0.00000000000E+00  0.99999998245E-14  0.12500000000E+03  0.12500000000E+03 0.  0.
        -11    1    3    3    0    0  0.44267622650E+02 -0.18835881105E+02 -0.19400108521E+02  0.51872700363E+02  0.51100000000E-03 0.  1.
         23    2    1    0    0    0  0.44971757259E+01 -0.25936293913E+02 -0.19447455045E+02  0.92272038878E+02  0.86272879398E+02 0.  0.
         11    1    3    3    0    0 -0.39770446924E+02 -0.71004128077E+01 -0.47346524737E-01  0.40399338516E+02  0.51100000000E-03 0. -1.
         22    1    1    0    0    0 -0.44971757259E+01  0.25936293913E+02  0.19447455045E+02  0.32727961122E+02  0.00000000000E+00 0.  1.
</event>
<event>
 5    1  0.1282524E-003  0.9118800E+02  0.7818608E-02  0.1130116E+00
         25   -1    0    0    0    0  0.00000000000E+00  0.00000000000E+00  0.99999998245E-14  0.12500000000E+03  0.12500000000E+03 0.  0.
        -11    1    3    3    0    0  0.40089016710E+02 -0.35552269398E+02  0.19073363690E+02  0.56876061070E+02  0.51100000000E-03 0.  1.
         23    2    1    0    0    0  0.18359732708E+02 -0.19636861813E+02 -0.98229828021E+01  0.96378729621E+02  0.92030877456E+02 0.  0.
         11    1    3    3    0    0 -0.21729284002E+02  0.15915407585E+02 -0.28896346492E+02  0.39502668552E+02  0.51100000000E-03 0. -1.
         22    1    1    0    0    0 -0.18359732708E+02  0.19636861813E+02  0.98229828021E+01  0.28621270379E+02  0.00000000000E+00 0. -1.
</event>
<event>
 5    1  0.1282524E-003  0.9118800E+02  0.7818608E-02  0.1130116E+00
         25   -1    0    0    0    0  0.00000000000E+00  0.00000000000E+00  0.99999998245E-14  0.12500000000E+03  0.12500000000E+03 0.  0.
        -11    1    3    3    0    0 -0.11224783803E+02 -0.37204559730E+02 -0.20322405483E+02  0.43854021492E+02  0.51100000000E-03 0.  1.
         23    2    1    0    0    0  0.12931418589E+02 -0.16978554514E+02  0.20491063400E+02  0.95413236416E+02  0.90710027582E+02 0.  0.
         11    1    3    3    0    0  0.24156202392E+02  0.20226005216E+02  0.40813468883E+02  0.51559214924E+02  0.51100000000E-03 0. -1.
         22    1    1    0    0    0 -0.12931418589E+02  0.16978554514E+02 -0.20491063400E+02  0.29586763584E+02  0.00000000000E+00 0. -1.
</event>
<event>
 5    1  0.1282524E-003  0.9118800E+02  0.7818608E-02  0.1130116E+00
         25   -1    0    0    0    0  0.00000000000E+00  0.00000000000E+00  0.99999998245E-14  0.12500000000E+03  0.12500000000E+03 0.  0.
        -11    1    3    3    0    0  0.32928129444E+02 -0.56629508276E+01  0.26268799404E+02  0.42501535774E+02  0.51100000000E-03 0.  1.
         23    2    1    0    0    0 -0.19230975506E+02 -0.13233060221E+02  0.17251984818E+02  0.95972852674E+02  0.91477938151E+02 0.  0.
         11    1    3    3    0    0 -0.52159104950E+02 -0.75701093938E+01 -0.90168145856E+01  0.53471316900E+02  0.51100000000E-03 0. -1.
         22    1    1    0    0    0  0.19230975506E+02  0.13233060221E+02 -0.17251984818E+02  0.29027147326E+02  0.00000000000E+00 0. -1.
</event>
<event>
 5    1  0.1282524E-003  0.9118800E+02  0.7818608E-02  0.1130116E+00
         25   -1    0    0    0    0  0.00000000000E+00  0.00000000000E+00  0.99999998245E-14  0.12500000000E+03  0.12500000000E+03 0.  0.
        -11    1    3    3    0    0  0.52848776708E+02 -0.18073243252E+02  0.27535373012E+02  0.62272241716E+02  0.51100000000E-03 0.  1.
         23    2    1    0    0    0  0.23630637953E+02 -0.11378836380E+02  0.15198743278E+02  0.94686854919E+02  0.89703476688E+02 0.  0.
         11    1    3    3    0    0 -0.29218138755E+02  0.66944068713E+01 -0.12336629734E+02  0.32414613203E+02  0.51100000000E-03 0. -1.
         22    1    1    0    0    0 -0.23630637953E+02  0.11378836380E+02 -0.15198743278E+02  0.30313145081E+02  0.00000000000E+00 0.  1.
</event>
<event>
 5    1  0.1282524E-003  0.9118800E+02  0.7818608E-02  0.1130116E+00
         25   -1    0    0    0    0  0.00000000000E+00  0.00000000000E+00  0.99999998245E-14  0.12500000000E+03  0.12500000000E+03 0.  0.
        -11    1    3    3    0    0 -0.21603710501E+02 -0.31485562434E+02 -0.32473011574E+02  0.50125417008E+02  0.51100000000E-03 0. -1.
         23    2    1    0    0    0 -0.17384093226E+02  0.13384676450E+02 -0.14800468846E+02  0.98534737125E+02  0.94914088951E+02 0.  0.
         11    1    3    3    0    0  0.42196172755E+01  0.44870238885E+02  0.17672542728E+02  0.48409320118E+02  0.51100000000E-03 0.  1.
         22    1    1    0    0    0  0.17384093226E+02 -0.13384676450E+02  0.14800468846E+02  0.26465262875E+02  0.00000000000E+00 0. -1.
</event>
<event>
 5    1  0.1282524E-003  0.9118800E+02  0.7818608E-02  0.1130116E+00
         25   -1    0    0    0    0  0.00000000000E+00  0.00000000000E+00  0.99999998245E-14  0.12500000000E+03  0.12500000000E+03 0.  0.
        -11    1    3    3    0    0 -0.24522553652E+02 -0.12832671175E+02 -0.25254817859E+02  0.37467838375E+02  0.51100000000E-03 0. -1.
         23    2    1    0    0    0  0.17306348277E+02 -0.13875889376E+02  0.17089988879E+02  0.96997897998E+02  0.92868048862E+02 0.  0.
         11    1    3    3    0    0  0.41828901929E+02 -0.10432182006E+01  0.42344806738E+02  0.59530059623E+02  0.51100000000E-03 0.  1.
         22    1    1    0    0    0 -0.17306348277E+02  0.13875889376E+02 -0.17089988879E+02  0.28002102002E+02  0.00000000000E+00 0.  1.
</event>
<event>
 5    1  0.1282524E-003  0.9118800E+02  0.7818608E-02  0.1130116E+00
         25   -1    0    0    0    0  0.00000000000E+00  0.00000000000E+00  0.99999998245E-14  0.12500000000E+03  0.12500000000E+03 0.  0.
        -11    1    3    3    0    0  0.39515479216E+02 -0.33148359341E+02  0.17893598792E+02  0.54593659913E+02  0.51100000000E-03 0. -1.
         23    2    1    0    0    0  0.75441917249E+01 -0.91315857192E+01  0.26922158911E+02  0.95587361101E+02  0.90949657918E+02 0.  0.
         11    1    3    3    0    0 -0.31971287491E+02  0.24016773622E+02  0.90285601191E+01  0.40993701188E+02  0.51100000000E-03 0.  1.
         22    1    1    0    0    0 -0.75441917249E+01  0.91315857192E+01 -0.26922158911E+02  0.29412638899E+02  0.00000000000E+00 0. -1.
</event>
<event>
 5    1  0.1282524E-003  0.9118800E+02  0.7818608E-02  0.1130116E+00
         25   -1    0    0    0    0  0.00000000000E+00  0.00000000000E+00  0.99999998245E-14  0.12500000000E+03  0.12500000000E+03 0.  0.
        -11    1    3    3    0    0 -0.19399422738E+02 -0.21652580006E+02 -0.23240602534E+02  0.37219583957E+02  0.51100000000E-03 0. -1.
         23    2    1    0    0    0  0.35151999182E+01 -0.30995936642E+01  0.28147453328E+02  0.96465052300E+02  0.92148049763E+02 0.  0.
         11    1    3    3    0    0  0.22914622656E+02  0.18552986342E+02  0.51388055863E+02  0.59245468344E+02  0.51100000000E-03 0.  1.
         22    1    1    0    0    0 -0.35151999182E+01  0.30995936642E+01 -0.28147453328E+02  0.28534947700E+02  0.00000000000E+00 0.  1.
</event>
<event>
 5    1  0.1282524E-003  0.9118800E+02  0.7818608E-02  0.1130116E+00
         25   -1    0    0    0    0  0.00000000000E+00  0.00000000000E+00  0.99999998245E-14  0.12500000000E+03  0.12500000000E+03 0.  0.
        -11    1    3    3    0    0 -0.44956423321E+02 -0.14143338639E+02 -0.74817354597E+01  0.47718868296E+02  0.51100000000E-03 0.  1.
         23    2    1    0    0    0 -0.11574357449E+01 -0.29916902489E+02  0.10283991964E+01  0.95043058952E+02  0.90198474145E+02 0.  0.
         11    1    3    3    0    0  0.43798987576E+02 -0.15773563850E+02  0.85101346561E+01  0.47324190657E+02  0.51100000000E-03 0. -1.
         22    1    1    0    0    0  0.11574357449E+01  0.29916902489E+02 -0.10283991964E+01  0.29956941048E+02  0.00000000000E+00 0. -1.
</event>
<event>
 5    1  0.1282524E-003  0.9118800E+02  0.7818608E-02  0.1130116E+00
         25   -1    0    0    0    0  0.00000000000E+00  0.00000000000E+00  0.99999998245E-14  0.12500000000E+03  0.12500000000E+03 0.  0.
        -11    1    3    3    0    0 -0.50289993146E+02  0.32993200614E+01  0.47001710602E+01  0.50616800884E+02  0.51100000000E-03 0. -1.
         23    2    1    0    0    0 -0.25829473600E+02 -0.22194665144E+02 -0.10906297444E+02  0.89240914564E+02  0.81763247495E+02 0.  0.
         11    1    3    3    0    0  0.24460519546E+02 -0.25493985206E+02 -0.15606468504E+02  0.38624113680E+02  0.51100000000E-03 0.  1.
         22    1    1    0    0    0  0.25829473600E+02  0.22194665144E+02  0.10906297444E+02  0.35759085436E+02  0.00000000000E+00 0. -1.
</event>
<event>
 5    1  0.1282524E-003  0.9118800E+02  0.7818608E-02  0.1130116E+00
         25   -1    0    0    0    0  0.00000000000E+00  0.00000000000E+00  0.99999998245E-14  0.12500000000E+03  0.12500000000E+03 0.  0.
        -11    1    3    3    0    0  0.24300409220E+02  0.35092455039E+01  0.55032099067E+02  0.60260738630E+02  0.51100000000E-03 0.  1.
         23    2    1    0    0    0  0.17150674754E+01 -0.38652375799E+01  0.29736051020E+02  0.94964783200E+02  0.90089931735E+02 0.  0.
         11    1    3    3    0    0 -0.22585341744E+02 -0.73744830838E+01 -0.25296048047E+02  0.34704044570E+02  0.51100000000E-03 0. -1.
         22    1    1    0    0    0 -0.17150674754E+01  0.38652375799E+01 -0.29736051020E+02  0.30035216800E+02  0.00000000000E+00 0.  1.
</event>
<event>
 5    1  0.1282524E-003  0.9118800E+02  0.7818608E-02  0.1130116E+00
         25   -1    0    0    0    0  0.00000000000E+00  0.00000000000E+00  0.99999998245E-14  0.12500000000E+03  0.12500000000E+03 0.  0.
        -11    1    3    3    0    0 -0.52366272749E+02  0.10518367567E+01 -0.11055110292E+01  0.52388501001E+02  0.51100000000E-03 0.  1.
         23    2    1    0    0    0 -0.17258115852E+02 -0.22880535014E+02 -0.75476241411E+01  0.95363399731E+02  0.90641325745E+02 0.  0.
         11    1    3    3    0    0  0.35108156897E+02 -0.23932371771E+02 -0.64421131120E+01  0.42974898730E+02  0.51100000000E-03 0. -1.
         22    1    1    0    0    0  0.17258115852E+02  0.22880535014E+02  0.75476241411E+01  0.29636600269E+02  0.00000000000E+00 0.  1.
</event>
<event>
 5    1  0.1282524E-003  0.9118800E+02  0.7818608E-02  0.1130116E+00
         25   -1    0    0    0    0  0.00000000000E+00  0.00000000000E+00  0.99999998245E-14  0.12500000000E+03  0.12500000000E+03 0.  0.
        -11    1    3    3    0    0  0.59202467601E+02 -0.14121712066E+02 -0.74842535575E+01  0.61321847439E+02  0.51100000000E-03 0.  1.
         23    2    1    0    0    0  0.27983970686E+02  0.57675058788E-01 -0.88882949332E+01  0.95638328921E+02  0.91019680455E+02 0.  0.
         11    1    3    3    0    0 -0.31218496915E+02  0.14179387125E+02 -0.14040413757E+01  0.34316481482E+02  0.51100000000E-03 0. -1.
         22    1    1    0    0    0 -0.27983970686E+02 -0.57675058788E-01  0.88882949332E+01  0.29361671079E+02  0.00000000000E+00 0.  1.
</event>
<event>
 5    1  0.1282524E-003  0.9118800E+02  0.7818608E-02  0.1130116E+00
         25   -1    0    0    0    0  0.00000000000E+00  0.00000000000E+00  0.99999998245E-14  0.12500000000E+03  0.12500000000E+03 0.  0.
        -11    1    3    3    0    0  0.27666143648E+02  0.16786102726E+02  0.26907702162E+02  0.42085783644E+02  0.51100000000E-03 0.  1.
         23    2    1    0    0    0 -0.64931318693E+01 -0.18850678821E+02  0.26983007474E+02  0.91450163252E+02  0.85073737504E+02 0.  0.
         11    1    3    3    0    0 -0.34159275517E+02 -0.35636781547E+02  0.75305312068E-01  0.49364379607E+02  0.51100000000E-03 0. -1.
         22    1    1    0    0    0  0.64931318693E+01  0.18850678821E+02 -0.26983007474E+02  0.33549836748E+02  0.00000000000E+00 0.  1.
</event>
<event>
 5    1  0.1282524E-003  0.9118800E+02  0.7818608E-02  0.1130116E+00
         25   -1    0    0    0    0  0.00000000000E+00  0.00000000000E+00  0.99999998245E-14  0.12500000000E+03  0.12500000000E+03 0.  0.
        -11    1    3    3    0    0  0.12899164262E+02 -0.28986975641E+02  0.50678008617E+01  0.32129671665E+02  0.51100000000E-03 0. -1.
         23    2    1    0    0    0 -0.24314219340E+02  0.19738260225E+02  0.37955173823E+01  0.93453429172E+02  0.87967933322E+02 0.  0.
         11    1    3    3    0    0 -0.37213383602E+02  0.48725235865E+02 -0.12722834793E+01  0.61323757507E+02  0.51100000000E-03 0.  1.
         22    1    1    0    0    0  0.24314219340E+02 -0.19738260225E+02 -0.37955173823E+01  0.31546570828E+02  0.00000000000E+00 0.  1.
</event>
<event>
 5    1  0.1282524E-003  0.9118800E+02  0.7818608E-02  0.1130116E+00
         25   -1    0    0    0    0  0.00000000000E+00  0.00000000000E+00  0.99999998245E-14  0.12500000000E+03  0.12500000000E+03 0.  0.
        -11    1    3    3    0    0 -0.42796074615E+02 -0.17718017661E+02  0.32752501942E+02  0.56728815746E+02  0.51100000000E-03 0. -1.
         23    2    1    0    0    0 -0.24931631544E+02 -0.11432354872E+02 -0.32219722867E+01  0.97383590118E+02  0.93385745858E+02 0.  0.
         11    1    3    3    0    0  0.17864443071E+02  0.62856627888E+01 -0.35974474228E+02  0.40654774372E+02  0.51100000000E-03 0.  1.
         22    1    1    0    0    0  0.24931631544E+02  0.11432354872E+02  0.32219722867E+01  0.27616409882E+02  0.00000000000E+00 0.  1.
</event>
<event>
 5    1  0.1282524E-003  0.9118800E+02  0.7818608E-02  0.1130116E+00
         25   -1    0    0    0    0  0.00000000000E+00  0.00000000000E+00  0.99999998245E-14  0.12500000000E+03  0.12500000000E+03 0.  0.
        -11    1    3    3    0    0 -0.12767132752E+02 -0.31272425767E+02 -0.49872923363E+02  0.60235145696E+02  0.51100000000E-03 0.  1.
         23    2    1    0    0    0 -0.19196743335E+01 -0.12420255673E+02 -0.37916232948E+02  0.85055180292E+02  0.75091910837E+02 0.  0.
         11    1    3    3    0    0  0.10847458419E+02  0.18852170094E+02  0.11956690415E+02  0.24820034596E+02  0.51100000000E-03 0. -1.
         22    1    1    0    0    0  0.19196743335E+01  0.12420255673E+02  0.37916232948E+02  0.39944819708E+02  0.00000000000E+00 0.  1.
</event>
<event>
 5    1  0.1282524E-003  0.9118800E+02  0.7818608E-02  0.1130116E+00
         25   -1    0    0    0    0  0.00000000000E+00  0.00000000000E+00  0.99999998245E-14  0.12500000000E+03  0.12500000000E+03 0.  0.
        -11    1    3    3    0    0 -0.20970513693E+02 -0.30038312587E+02  0.45786385633E+02  0.58638347327E+02  0.51100000000E-03 0. -1.
         23    2    1    0    0    0  0.52432097740E+01 -0.18046413410E+02  0.22419438755E+02  0.95746017027E+02  0.91167451741E+02 0.  0.
         11    1    3    3    0    0  0.26213723467E+02  0.11991899177E+02 -0.23366946879E+02  0.37107669700E+02  0.51100000000E-03 0.  1.
         22    1    1    0    0    0 -0.52432097740E+01  0.18046413410E+02 -0.22419438755E+02  0.29253982973E+02  0.00000000000E+00 0. -1.
</event>
<event>
 5    1  0.1282524E-003  0.9118800E+02  0.7818608E-02  0.1130116E+00
         25   -1    0    0    0    0  0.00000000000E+00  0.00000000000E+00  0.99999998245E-14  0.12500000000E+03  0.12500000000E+03 0.  0.
        -11    1    3    3    0    0 -0.13973083052E+02 -0.31224257088E+02  0.83795660575E+01  0.35219574220E+02  0.51100000000E-03 0.  1.
         23    2    1    0    0    0  0.13415484302E+02  0.12773335188E+02 -0.22739495454E+02  0.95670527376E+02  0.91063888804E+02 0.  0.
         11    1    3    3    0    0  0.27388567354E+02  0.43997592277E+02 -0.31119061511E+02  0.60450953156E+02  0.51100000000E-03 0. -1.
         22    1    1    0    0    0 -0.13415484302E+02 -0.12773335188E+02  0.22739495454E+02  0.29329472624E+02  0.00000000000E+00 0. -1.
</event>
<event>
 5    1  0.1282524E-003  0.9118800E+02  0.7818608E-02  0.1130116E+00
         25   -1    0    0    0    0  0.00000000000E+00  0.00000000000E+00  0.99999998245E-14  0.12500000000E+03  0.12500000000E+03 0.  0.
        -11    1    3    3    0    0  0.31331425590E+02  0.46148516791E+02  0.20529248117E+01  0.55817186708E+02  0.51100000000E-03 0.  1.
         23    2    1    0    0    0  0.18841710237E+02  0.13500936395E+02  0.19338672596E+02  0.94812757894E+02  0.89878748731E+02 0.  0.
         11    1    3    3    0    0 -0.12489715352E+02 -0.32647580396E+02  0.17285747785E+02  0.38995571185E+02  0.51100000000E-03 0. -1.
         22    1    1    0    0    0 -0.18841710237E+02 -0.13500936395E+02 -0.19338672596E+02  0.30187242106E+02  0.00000000000E+00 0.  1.
</event>
<event>
 5    1  0.1282524E-003  0.9118800E+02  0.7818608E-02  0.1130116E+00
         25   -1    0    0    0    0  0.00000000000E+00  0.00000000000E+00  0.99999998245E-14  0.12500000000E+03  0.12500000000E+03 0.  0.
        -11    1    3    3    0    0 -0.30841172932E+02  0.54257115050E+02  0.27344005437E+01  0.62469908179E+02  0.51100000000E-03 0. -1.
         23    2    1    0    0    0 -0.15949421618E+02  0.25289765966E+02  0.13773455265E+01  0.95069189900E+02  0.90234680002E+02 0.  0.
         11    1    3    3    0    0  0.14891751314E+02 -0.28967349084E+02 -0.13570550171E+01  0.32599281721E+02  0.51100000000E-03 0.  1.
         22    1    1    0    0    0  0.15949421618E+02 -0.25289765966E+02 -0.13773455265E+01  0.29930810100E+02  0.00000000000E+00 0. -1.
</event>
<event>
 5    1  0.1282524E-003  0.9118800E+02  0.7818608E-02  0.1130116E+00
         25   -1    0    0    0    0  0.00000000000E+00  0.00000000000E+00  0.99999998245E-14  0.12500000000E+03  0.12500000000E+03 0.  0.
        -11    1    3    3    0    0 -0.31959386489E+02 -0.69113810376E+01  0.22474086978E+02  0.39676871832E+02  0.51100000000E-03 0.  1.
         23    2    1    0    0    0  0.20155923302E+02  0.13228387797E+02  0.16320740642E+02  0.95886119067E+02  0.91359344168E+02 0.  0.
         11    1    3    3    0    0  0.52115309791E+02  0.20139768835E+02 -0.61533463357E+01  0.56209247235E+02  0.51100000000E-03 0. -1.
         22    1    1    0    0    0 -0.20155923302E+02 -0.13228387797E+02 -0.16320740642E+02  0.29113880933E+02  0.00000000000E+00 0. -1.
</event>
<event>
 5    1  0.1282524E-003  0.9118800E+02  0.7818608E-02  0.1130116E+00
         25   -1    0    0    0    0  0.00000000000E+00  0.00000000000E+00  0.99999998245E-14  0.12500000000E+03  0.12500000000E+03 0.  0.
        -11    1    3    3    0    0  0.36781635597E+02 -0.30380307057E+02  0.36941092180E+02  0.60336523481E+02  0.51100000000E-03 0.  1.
         23    2    1    0    0    0  0.72650803545E+01 -0.20292016095E+02  0.18657470624E+02  0.96493009281E+02  0.92185965961E+02 0.  0.
         11    1    3    3    0    0 -0.29516555242E+02  0.10088290962E+02 -0.18283621556E+02  0.36156485800E+02  0.51100000000E-03 0. -1.
         22    1    1    0    0    0 -0.72650803545E+01  0.20292016095E+02 -0.18657470624E+02  0.28506990719E+02  0.00000000000E+00 0.  1.
</event>
<event>
 4    1  0.1282524E-003  0.9118800E+02  0.7818608E-02  0.1130116E+00
         25   -1    0    0    0    0  0.00000000000E+00  0.00000000000E+00  0.99999998245E-14  0.12500000000E+03  0.12500000000E+03 0.  0.
        -11    1    1    0    0    0  0.13384048021E+02 -0.15988385246E+02 -0.27126368304E+02  0.34214047726E+02  0.51100000000E-03 0.  1.
         11    1    1    0    0    0 -0.17226488109E+02 -0.33144641433E+02  0.11968613116E+02  0.39224569449E+02  0.51100000000E-03 0. -1.
         22    1    1    0    0    0  0.38424400878E+01  0.49133026679E+02  0.15157755188E+02  0.51561382825E+02  0.00000000000E+00 0.  1.
</event>
<event>
 5    1  0.1282524E-003  0.9118800E+02  0.7818608E-02  0.1130116E+00
         25   -1    0    0    0    0  0.00000000000E+00  0.00000000000E+00  0.99999998245E-14  0.12500000000E+03  0.12500000000E+03 0.  0.
        -11    1    3    3    0    0 -0.11986698653E+02  0.19509717333E+02 -0.37481352879E+02  0.43922224772E+02  0.51100000000E-03 0.  1.
         23    2    1    0    0    0 -0.20192199871E+02 -0.21558113321E+02 -0.10953117376E+02  0.93496857842E+02  0.88029622630E+02 0.  0.
         11    1    3    3    0    0 -0.82055012189E+01 -0.41067830654E+02  0.26528235503E+02  0.49574633070E+02  0.51100000000E-03 0. -1.
         22    1    1    0    0    0  0.20192199871E+02  0.21558113321E+02  0.10953117376E+02  0.31503142158E+02  0.00000000000E+00 0. -1.
</event>
<event>
 5    1  0.1282524E-003  0.9118800E+02  0.7818608E-02  0.1130116E+00
         25   -1    0    0    0    0  0.00000000000E+00  0.00000000000E+00  0.99999998245E-14  0.12500000000E+03  0.12500000000E+03 0.  0.
        -11    1    3    3    0    0  0.32141615790E+02 -0.37145288244E+02 -0.37827767006E+01  0.49266269436E+02  0.51100000000E-03 0.  1.
         23    2    1    0    0    0  0.91894055907E+00 -0.10605407975E+02 -0.26727254477E+02  0.96230827924E+02  0.91829771757E+02 0.  0.
         11    1    3    3    0    0 -0.31222675231E+02  0.26539880269E+02 -0.22944477776E+02  0.46964558488E+02  0.51100000000E-03 0. -1.
         22    1    1    0    0    0 -0.91894055907E+00  0.10605407975E+02  0.26727254477E+02  0.28769172076E+02  0.00000000000E+00 0.  1.
</event>
<event>
 5    1  0.1282524E-003  0.9118800E+02  0.7818608E-02  0.1130116E+00
         25   -1    0    0    0    0  0.00000000000E+00  0.00000000000E+00  0.99999998245E-14  0.12500000000E+03  0.12500000000E+03 0.  0.
        -11    1    3    3    0    0  0.33959951802E+02  0.29199185570E+02  0.39078314380E+02  0.59438921754E+02  0.51100000000E-03 0.  1.
         23    2    1    0    0    0  0.19022928565E+02 -0.89404716723E+00  0.14359779037E+02  0.10114891228E+03  0.98296633052E+02 0.  0.
         11    1    3    3    0    0 -0.14937023236E+02 -0.30093232737E+02 -0.24718535343E+02  0.41709990523E+02  0.51100000000E-03 0. -1.
         22    1    1    0    0    0 -0.19022928565E+02  0.89404716723E+00 -0.14359779037E+02  0.23851087722E+02  0.00000000000E+00 0. -1.
</event>
<event>
 5    1  0.1282524E-003  0.9118800E+02  0.7818608E-02  0.1130116E+00
         25   -1    0    0    0    0  0.00000000000E+00  0.00000000000E+00  0.99999998245E-14  0.12500000000E+03  0.12500000000E+03 0.  0.
        -11    1    3    3    0    0 -0.50824945017E+02 -0.12338434685E+02 -0.83750659977E+01  0.52967478108E+02  0.51100000000E-03 0.  1.
         23    2    1    0    0    0 -0.41341535664E+02 -0.52012488560E+01  0.16228076374E+02  0.80283939982E+02  0.66678219798E+02 0.  0.
         11    1    3    3    0    0  0.94834093522E+01  0.71371858290E+01  0.24603142371E+02  0.27316461874E+02  0.51100000000E-03 0. -1.
         22    1    1    0    0    0  0.41341535664E+02  0.52012488560E+01 -0.16228076374E+02  0.44716060018E+02  0.00000000000E+00 0.  1.
</event>
<event>
 5    1  0.1282524E-003  0.9118800E+02  0.7818608E-02  0.1130116E+00
         25   -1    0    0    0    0  0.00000000000E+00  0.00000000000E+00  0.99999998245E-14  0.12500000000E+03  0.12500000000E+03 0.  0.
        -11    1    3    3    0    0 -0.26378078335E+02  0.54674608165E+01  0.32102825872E+02  0.41908084825E+02  0.51100000000E-03 0. -1.
         23    2    1    0    0    0  0.11747257671E+02 -0.25103482929E+02  0.10107012723E+02  0.95498565728E+02  0.90827536749E+02 0.  0.
         11    1    3    3    0    0  0.38125336006E+02 -0.30570943745E+02 -0.21995813149E+02  0.53590480903E+02  0.51100000000E-03 0.  1.
         22    1    1    0    0    0 -0.11747257671E+02  0.25103482929E+02 -0.10107012723E+02  0.29501434272E+02  0.00000000000E+00 0. -1.
</event>
<event>
 5    1  0.1282524E-003  0.9118800E+02  0.7818608E-02  0.1130116E+00
         25   -1    0    0    0    0  0.00000000000E+00  0.00000000000E+00  0.99999998245E-14  0.12500000000E+03  0.12500000000E+03 0.  0.
        -11    1    3    3    0    0  0.32185040072E+02  0.26336673737E+02  0.10439118427E+02  0.42877411089E+02  0.51100000000E-03 0. -1.
         23    2    1    0    0    0  0.10522284134E+02 -0.71895344953E+01 -0.25438680569E+02  0.96547683069E+02  0.92260071359E+02 0.  0.
         11    1    3    3    0    0 -0.21662755938E+02 -0.33526208232E+02 -0.35877798997E+02  0.53670271979E+02  0.51100000000E-03 0.  1.
         22    1    1    0    0    0 -0.10522284134E+02  0.71895344953E+01  0.25438680569E+02  0.28452316931E+02  0.00000000000E+00 0.  1.
</event>
<event>
 5    1  0.1282524E-003  0.9118800E+02  0.7818608E-02  0.1130116E+00
         25   -1    0    0    0    0  0.00000000000E+00  0.00000000000E+00  0.99999998245E-14  0.12500000000E+03  0.12500000000E+03 0.  0.
        -11    1    3    3    0    0  0.28951190105E+02 -0.94461671740E+01 -0.38825921212E+02  0.49344236147E+02  0.51100000000E-03 0. -1.
         23    2    1    0    0    0 -0.13976447614E+02 -0.11934460240E+02 -0.23878195868E+02  0.94867946186E+02  0.89955469798E+02 0.  0.
         11    1    3    3    0    0 -0.42927637719E+02 -0.24882930659E+01  0.14947725344E+02  0.45523710039E+02  0.51100000000E-03 0.  1.
         22    1    1    0    0    0  0.13976447614E+02  0.11934460240E+02  0.23878195868E+02  0.30132053814E+02  0.00000000000E+00 0.  1.
</event>
<event>
 5    1  0.1282524E-003  0.9118800E+02  0.7818608E-02  0.1130116E+00
         25   -1    0    0    0    0  0.00000000000E+00  0.00000000000E+00  0.99999998245E-14  0.12500000000E+03  0.12500000000E+03 0.  0.
        -11    1    3    3    0    0 -0.10981896885E+02  0.91672658931E+00 -0.38815354650E+02  0.40349401529E+02  0.51100000000E-03 0.  1.
         23    2    1    0    0    0 -0.16102459698E+02 -0.19620897827E+02  0.13116315022E+02  0.96428920922E+02  0.92099024048E+02 0.  0.
         11    1    3    3    0    0 -0.51205628129E+01 -0.20537624417E+02  0.51931669672E+02  0.56079519394E+02  0.51100000000E-03 0. -1.
         22    1    1    0    0    0  0.16102459698E+02  0.19620897827E+02 -0.13116315022E+02  0.28571079078E+02  0.00000000000E+00 0.  1.
</event>
<event>
 5    1  0.1282524E-003  0.9118800E+02  0.7818608E-02  0.1130116E+00
         25   -1    0    0    0    0  0.00000000000E+00  0.00000000000E+00  0.99999998245E-14  0.12500000000E+03  0.12500000000E+03 0.  0.
        -11    1    3    3    0    0 -0.39895093914E+02 -0.27742085447E+02 -0.38074146709E+02  0.61732345422E+02  0.51100000000E-03 0. -1.
         23    2    1    0    0    0 -0.19566746972E+02 -0.73984135570E+01 -0.21842521444E+02  0.94756160078E+02  0.89800000108E+02 0.  0.
         11    1    3    3    0    0  0.20328346943E+02  0.20343671890E+02  0.16231625265E+02  0.33023814656E+02  0.51100000000E-03 0.  1.
         22    1    1    0    0    0  0.19566746972E+02  0.73984135570E+01  0.21842521444E+02  0.30243839922E+02  0.00000000000E+00 0. -1.
</event>
<event>
 5    1  0.1282524E-003  0.9118800E+02  0.7818608E-02  0.1130116E+00
         25   -1    0    0    0    0  0.00000000000E+00  0.00000000000E+00  0.99999998245E-14  0.12500000000E+03  0.12500000000E+03 0.  0.
        -11    1    3    3    0    0 -0.39219456175E+02 -0.35619131619E+02  0.25326204325E+02  0.58722269248E+02  0.51100000000E-03 0.  1.
         23    2    1    0    0    0 -0.26794878781E+02 -0.43141026691E+01  0.15206898272E+02  0.93890085732E+02  0.88586237266E+02 0.  0.
         11    1    3    3    0    0  0.12424577394E+02  0.31305028950E+02 -0.10119306053E+02  0.35167816484E+02  0.51100000000E-03 0. -1.
         22    1    1    0    0    0  0.26794878781E+02  0.43141026691E+01 -0.15206898272E+02  0.31109914268E+02  0.00000000000E+00 0.  1.
</event>
<event>
 5    1  0.1282524E-003  0.9118800E+02  0.7818608E-02  0.1130116E+00
         25   -1    0    0    0    0  0.00000000000E+00  0.00000000000E+00  0.99999998245E-14  0.12500000000E+03  0.12500000000E+03 0.  0.
        -11    1    3    3    0    0 -0.15270728880E+02 -0.81940253424E+00 -0.53797311208E+02  0.55928680250E+02  0.51100000000E-03 0.  1.
         23    2    1    0    0    0 -0.56689784106E+01  0.19642085579E+02 -0.21688561519E+02  0.95194924209E+02  0.90408689031E+02 0.  0.
         11    1    3    3    0    0  0.96017504690E+01  0.20461488113E+02  0.32108749688E+02  0.39266243960E+02  0.51100000000E-03 0. -1.
         22    1    1    0    0    0  0.56689784106E+01 -0.19642085579E+02  0.21688561519E+02  0.29805075791E+02  0.00000000000E+00 0.  1.
</event>
<event>
 5    1  0.1282524E-003  0.9118800E+02  0.7818608E-02  0.1130116E+00
         25   -1    0    0    0    0  0.00000000000E+00  0.00000000000E+00  0.99999998245E-14  0.12500000000E+03  0.12500000000E+03 0.  0.
        -11    1    3    3    0    0  0.26749472145E+02 -0.13175374632E+02 -0.26158529439E+02  0.39666023488E+02  0.51100000000E-03 0.  1.
         23    2    1    0    0    0 -0.68957038850E+01  0.25912029670E+02  0.14168609597E+01  0.98148714953E+02  0.94404336438E+02 0.  0.
         11    1    3    3    0    0 -0.33645176030E+02  0.39087404302E+02  0.27575390398E+02  0.58482691465E+02  0.51100000000E-03 0. -1.
         22    1    1    0    0    0  0.68957038850E+01 -0.25912029670E+02 -0.14168609597E+01  0.26851285047E+02  0.00000000000E+00 0. -1.
</event>
<event>
 5    1  0.1282524E-003  0.9118800E+02  0.7818608E-02  0.1130116E+00
         25   -1    0    0    0    0  0.00000000000E+00  0.00000000000E+00  0.99999998245E-14  0.12500000000E+03  0.12500000000E+03 0.  0.
        -11    1    3    3    0    0  0.28331682237E+02  0.12612339557E+02 -0.12297623661E+02  0.33361457934E+02  0.51100000000E-03 0. -1.
         23    2    1    0    0    0 -0.20852806824E+02 -0.18333611342E+02  0.98347879105E+01  0.95543525151E+02  0.90889390403E+02 0.  0.
         11    1    3    3    0    0 -0.49184489061E+02 -0.30945950899E+02  0.22132411571E+02  0.62182067218E+02  0.51100000000E-03 0.  1.
         22    1    1    0    0    0  0.20852806824E+02  0.18333611342E+02 -0.98347879105E+01  0.29456474849E+02  0.00000000000E+00 0.  1.
</event>
<event>
 5    1  0.1282524E-003  0.9118800E+02  0.7818608E-02  0.1130116E+00
         25   -1    0    0    0    0  0.00000000000E+00  0.00000000000E+00  0.99999998245E-14  0.12500000000E+03  0.12500000000E+03 0.  0.
        -11    1    3    3    0    0 -0.22575016140E+02  0.50132029708E+01 -0.57738814888E+02  0.62197542578E+02  0.51100000000E-03 0.  1.
         23    2    1    0    0    0 -0.11980429024E+02  0.64671088329E+01 -0.26656734391E+02  0.95067815571E+02  0.90232776156E+02 0.  0.
         11    1    3    3    0    0  0.10594587116E+02  0.14539058621E+01  0.31082080497E+02  0.32870272994E+02  0.51100000000E-03 0. -1.
         22    1    1    0    0    0  0.11980429024E+02 -0.64671088329E+01  0.26656734391E+02  0.29932184429E+02  0.00000000000E+00 0.  1.
</event>
<event>
 5    1  0.1282524E-003  0.9118800E+02  0.7818608E-02  0.1130116E+00
         25   -1    0    0    0    0  0.00000000000E+00  0.00000000000E+00  0.99999998245E-14  0.12500000000E+03  0.12500000000E+03 0.  0.
        -11    1    3    3    0    0  0.10820095293E+02 -0.42541752560E+02 -0.40126105619E+02  0.59472510670E+02  0.51100000000E-03 0.  1.
         23    2    1    0    0    0  0.17979337736E+02 -0.30560025585E+02 -0.19054098450E+02  0.84747914130E+02  0.74578673443E+02 0.  0.
         11    1    3    3    0    0  0.71592424422E+01  0.11981726975E+02  0.21072007169E+02  0.25275403459E+02  0.51100000000E-03 0. -1.
         22    1    1    0    0    0 -0.17979337736E+02  0.30560025585E+02  0.19054098450E+02  0.40252085870E+02  0.00000000000E+00 0.  1.
</event>
<event>
 5    1  0.1282524E-003  0.9118800E+02  0.7818608E-02  0.1130116E+00
         25   -1    0    0    0    0  0.00000000000E+00  0.00000000000E+00  0.99999998245E-14  0.12500000000E+03  0.12500000000E+03 0.  0.
        -11    1    3    3    0    0 -0.33044816159E+02 -0.24210224274E+02  0.17252706799E+02  0.44449417617E+02  0.51100000000E-03 0. -1.
         23    2    1    0    0    0 -0.18791030135E+02  0.21913144740E+02  0.14221728857E+02  0.92820094817E+02  0.87063331571E+02 0.  0.
         11    1    3    3    0    0  0.14253786024E+02  0.46123369014E+02 -0.30309779418E+01  0.48370677199E+02  0.51100000000E-03 0.  1.
         22    1    1    0    0    0  0.18791030135E+02 -0.21913144740E+02 -0.14221728857E+02  0.32179905183E+02  0.00000000000E+00 0.  1.
</event>
<event>
 5    1  0.1282524E-003  0.9118800E+02  0.7818608E-02  0.1130116E+00
         25   -1    0    0    0    0  0.00000000000E+00  0.00000000000E+00  0.99999998245E-14  0.12500000000E+03  0.12500000000E+03 0.  0.
        -11    1    3    3    0    0 -0.33022698896E+02 -0.44964768798E+02 -0.19886569018E+02  0.59226722879E+02  0.51100000000E-03 0.  1.
         23    2    1    0    0    0 -0.47513432558E+01 -0.29471811915E+02 -0.50166349955E+01  0.94729063659E+02  0.89762274451E+02 0.  0.
         11    1    3    3    0    0  0.28271355641E+02  0.15492956883E+02  0.14869934023E+02  0.35502340780E+02  0.51100000000E-03 0. -1.
         22    1    1    0    0    0  0.47513432558E+01  0.29471811915E+02  0.50166349955E+01  0.30270936341E+02  0.00000000000E+00 0.  1.
</event>
<event>
 5    1  0.1282524E-003  0.9118800E+02  0.7818608E-02  0.1130116E+00
         25   -1    0    0    0    0  0.00000000000E+00  0.00000000000E+00  0.99999998245E-14  0.12500000000E+03  0.12500000000E+03 0.  0.
        -11    1    3    3    0    0  0.33309137516E+01 -0.41834038572E+02 -0.38843601969E+02  0.57183976636E+02  0.51100000000E-03 0. -1.
         23    2    1    0    0    0 -0.11795636811E+02 -0.92421486254E+01 -0.25324249936E+02  0.95574297055E+02  0.90931701094E+02 0.  0.
         11    1    3    3    0    0 -0.15126550563E+02  0.32591889947E+02  0.13519352034E+02  0.38390320419E+02  0.51100000000E-03 0.  1.
         22    1    1    0    0    0  0.11795636811E+02  0.92421486254E+01  0.25324249936E+02  0.29425702945E+02  0.00000000000E+00 0. -1.
</event>
<event>
 5    1  0.1282524E-003  0.9118800E+02  0.7818608E-02  0.1130116E+00
         25   -1    0    0    0    0  0.00000000000E+00  0.00000000000E+00  0.99999998245E-14  0.12500000000E+03  0.12500000000E+03 0.  0.
        -11    1    3    3    0    0 -0.30071607155E+02 -0.38635393737E+02  0.96468614157E+01  0.49900472358E+02  0.51100000000E-03 0. -1.
         23    2    1    0    0    0  0.40221598760E+01 -0.24960125767E+02 -0.16339867300E+02  0.94897227507E+02  0.89996149233E+02 0.  0.
         11    1    3    3    0    0  0.34093767031E+02  0.13675267970E+02 -0.25986728716E+02  0.44996755150E+02  0.51100000000E-03 0.  1.
         22    1    1    0    0    0 -0.40221598760E+01  0.24960125767E+02  0.16339867300E+02  0.30102772493E+02  0.00000000000E+00 0.  1.
</event>
<event>
 5    1  0.1282524E-003  0.9118800E+02  0.7818608E-02  0.1130116E+00
         25   -1    0    0    0    0  0.00000000000E+00  0.00000000000E+00  0.99999998245E-14  0.12500000000E+03  0.12500000000E+03 0.  0.
        -11    1    3    3    0    0  0.42809946501E+02 -0.10225388166E+02 -0.33692743223E+02  0.55429694467E+02  0.51100000000E-03 0.  1.
         23    2    1    0    0    0  0.31112851081E+01 -0.80883507418E+01 -0.28120491423E+02  0.95574440521E+02  0.90931898311E+02 0.  0.
         11    1    3    3    0    0 -0.39698661393E+02  0.21370374238E+01  0.55722518001E+01  0.40144746054E+02  0.51100000000E-03 0. -1.
         22    1    1    0    0    0 -0.31112851081E+01  0.80883507418E+01  0.28120491423E+02  0.29425559479E+02  0.00000000000E+00 0. -1.
</event>
<event>
 5    1  0.1282524E-003  0.9118800E+02  0.7818608E-02  0.1130116E+00
         25   -1    0    0    0    0  0.00000000000E+00  0.00000000000E+00  0.99999998245E-14  0.12500000000E+03  0.12500000000E+03 0.  0.
        -11    1    3    3    0    0 -0.46128466817E+02 -0.88684007600E+01 -0.30445082985E+02  0.55976665328E+02  0.51100000000E-03 0.  1.
         23    2    1    0    0    0 -0.24341282795E+02 -0.18441011118E+02 -0.20016819816E+00  0.94461352249E+02  0.89388690908E+02 0.  0.
         11    1    3    3    0    0  0.21787184022E+02 -0.95726103575E+01  0.30244914787E+02  0.38484686921E+02  0.51100000000E-03 0. -1.
         22    1    1    0    0    0  0.24341282795E+02  0.18441011118E+02  0.20016819816E+00  0.30538647751E+02  0.00000000000E+00 0. -1.
</event>
<event>
 5    1  0.1282524E-003  0.9118800E+02  0.7818608E-02  0.1130116E+00
         25   -1    0    0    0    0  0.00000000000E+00  0.00000000000E+00  0.99999998245E-14  0.12500000000E+03  0.12500000000E+03 0.  0.
        -11    1    3    3    0    0 -0.23294788276E+02 -0.30703507128E+01 -0.21531576287E+02  0.31869781800E+02  0.51100000000E-03 0. -1.
         23    2    1    0    0    0  0.21272731504E+02  0.14614641254E+02  0.17601462467E+02  0.93760148438E+02  0.88402698543E+02 0.  0.
         11    1    3    3    0    0  0.44567519780E+02  0.17684991967E+02  0.39133038754E+02  0.61890366638E+02  0.51100000000E-03 0.  1.
         22    1    1    0    0    0 -0.21272731504E+02 -0.14614641254E+02 -0.17601462467E+02  0.31239851562E+02  0.00000000000E+00 0.  1.
</event>
<event>
 5    1  0.1282524E-003  0.9118800E+02  0.7818608E-02  0.1130116E+00
         25   -1    0    0    0    0  0.00000000000E+00  0.00000000000E+00  0.99999998245E-14  0.12500000000E+03  0.12500000000E+03 0.  0.
        -11    1    3    3    0    0 -0.22471290458E+02  0.52195126391E+02 -0.19684748638E+02  0.60139666136E+02  0.51100000000E-03 0.  1.
         23    2    1    0    0    0 -0.14044307313E+02  0.24361240894E+02  0.25752614468E+01  0.96762709101E+02  0.92550944216E+02 0.  0.
         11    1    3    3    0    0  0.84269831452E+01 -0.27833885497E+02  0.22260010084E+02  0.36623042965E+02  0.51100000000E-03 0. -1.
         22    1    1    0    0    0  0.14044307313E+02 -0.24361240894E+02 -0.25752614468E+01  0.28237290899E+02  0.00000000000E+00 0.  1.
</event>
<event>
 5    1  0.1282524E-003  0.9118800E+02  0.7818608E-02  0.1130116E+00
         25   -1    0    0    0    0  0.00000000000E+00  0.00000000000E+00  0.99999998245E-14  0.12500000000E+03  0.12500000000E+03 0.  0.
        -11    1    3    3    0    0 -0.11188726306E+02 -0.55130282651E+02 -0.63565810758E+01  0.56612205263E+02  0.51100000000E-03 0.  1.
         23    2    1    0    0    0 -0.64353284490E+01 -0.19663472094E+02 -0.21222470395E+02  0.95361193737E+02  0.90638283491E+02 0.  0.
         11    1    3    3    0    0  0.47533978569E+01  0.35466810556E+02 -0.14865889319E+02  0.38748988474E+02  0.51100000000E-03 0. -1.
         22    1    1    0    0    0  0.64353284490E+01  0.19663472094E+02  0.21222470395E+02  0.29638806263E+02  0.00000000000E+00 0.  1.
</event>
<event>
 5    1  0.1282524E-003  0.9118800E+02  0.7818608E-02  0.1130116E+00
         25   -1    0    0    0    0  0.00000000000E+00  0.00000000000E+00  0.99999998245E-14  0.12500000000E+03  0.12500000000E+03 0.  0.
        -11    1    3    3    0    0 -0.45328683589E+02 -0.22663136112E+02  0.21677151350E+02  0.55119925483E+02  0.51100000000E-03 0. -1.
         23    2    1    0    0    0 -0.13306767425E+02 -0.11537156444E+01  0.27780733048E+02  0.94175168325E+02  0.88987595098E+02 0.  0.
         11    1    3    3    0    0  0.32021916164E+02  0.21509420468E+02  0.61035816981E+01  0.39055242842E+02  0.51100000000E-03 0.  1.
         22    1    1    0    0    0  0.13306767425E+02  0.11537156444E+01 -0.27780733048E+02  0.30824831675E+02  0.00000000000E+00 0. -1.
</event>
<event>
 5    1  0.1282524E-003  0.9118800E+02  0.7818608E-02  0.1130116E+00
         25   -1    0    0    0    0  0.00000000000E+00  0.00000000000E+00  0.99999998245E-14  0.12500000000E+03  0.12500000000E+03 0.  0.
        -11    1    3    3    0    0 -0.58948810515E+02  0.10723602830E+01  0.97442049870E+01  0.59758361330E+02  0.51100000000E-03 0. -1.
         23    2    1    0    0    0 -0.28771173613E+02 -0.48169797046E+01 -0.73211814826E+01  0.94923706630E+02  0.90032919855E+02 0.  0.
         11    1    3    3    0    0  0.30177636902E+02 -0.58893399876E+01 -0.17065386470E+02  0.35165345301E+02  0.51100000000E-03 0.  1.
         22    1    1    0    0    0  0.28771173613E+02  0.48169797046E+01  0.73211814826E+01  0.30076293370E+02  0.00000000000E+00 0. -1.
</event>
<event>
 4    1  0.1282524E-003  0.9118800E+02  0.7818608E-02  0.1130116E+00
         25   -1    0    0    0    0  0.00000000000E+00  0.00000000000E+00  0.99999998245E-14  0.12500000000E+03  0.12500000000E+03 0.  0.
        -11    1    1    0    0    0  0.44547997673E+01  0.58148528847E+02 -0.82087606630E+01  0.58893806125E+02  0.51100000000E-03 0. -1.
         11    1    1    0    0    0  0.81449732702E+01 -0.25627737624E+01  0.20279458002E+01  0.87761588043E+01  0.51100000000E-03 0.  1.
         22    1    1    0    0    0 -0.12599773037E+02 -0.55585755084E+02  0.61808148628E+01  0.57330035071E+02  0.00000000000E+00 0. -1.
</event>
<event>
 5    1  0.1282524E-003  0.9118800E+02  0.7818608E-02  0.1130116E+00
         25   -1    0    0    0    0  0.00000000000E+00  0.00000000000E+00  0.99999998245E-14  0.12500000000E+03  0.12500000000E+03 0.  0.
        -11    1    3    3    0    0 -0.29001580547E+01 -0.51827975027E+02  0.15531488883E+02  0.54182811475E+02  0.51100000000E-03 0. -1.
         23    2    1    0    0    0  0.18683232912E+02 -0.16297549892E+02  0.15511011215E+02  0.95755089444E+02  0.91179890113E+02 0.  0.
         11    1    3    3    0    0  0.21583390966E+02  0.35530425136E+02 -0.20477667677E-01  0.41572277969E+02  0.51100000000E-03 0.  1.
         22    1    1    0    0    0 -0.18683232912E+02  0.16297549892E+02 -0.15511011215E+02  0.29244910556E+02  0.00000000000E+00 0. -1.
</event>
<event>
 5    1  0.1282524E-003  0.9118800E+02  0.7818608E-02  0.1130116E+00
         25   -1    0    0    0    0  0.00000000000E+00  0.00000000000E+00  0.99999998245E-14  0.12500000000E+03  0.12500000000E+03 0.  0.
        -11    1    3    3    0    0 -0.95975329195E+01  0.56956364368E+02 -0.19185834385E+02  0.60862437689E+02  0.51100000000E-03 0. -1.
         23    2    1    0    0    0 -0.59554971627E+01  0.22093900126E+02 -0.17916906819E+02  0.95937585799E+02  0.91429735041E+02 0.  0.
         11    1    3    3    0    0  0.36420357568E+01 -0.34862464242E+02  0.12689275663E+01  0.35075148109E+02  0.51100000000E-03 0.  1.
         22    1    1    0    0    0  0.59554971627E+01 -0.22093900126E+02  0.17916906819E+02  0.29062414201E+02  0.00000000000E+00 0. -1.
</event>
<event>
 5    1  0.1282524E-003  0.9118800E+02  0.7818608E-02  0.1130116E+00
         25   -1    0    0    0    0  0.00000000000E+00  0.00000000000E+00  0.99999998245E-14  0.12500000000E+03  0.12500000000E+03 0.  0.
        -11    1    3    3    0    0 -0.26926088106E+02 -0.76785935564E+01  0.23260185146E+02  0.36400703743E+02  0.51100000000E-03 0. -1.
         23    2    1    0    0    0  0.17466453228E+02 -0.17941162473E+02 -0.14925741321E+02  0.95849698917E+02  0.91309499667E+02 0.  0.
         11    1    3    3    0    0  0.44392541333E+02 -0.10262568916E+02 -0.38185926467E+02  0.59448995174E+02  0.51100000000E-03 0.  1.
         22    1    1    0    0    0 -0.17466453228E+02  0.17941162473E+02  0.14925741321E+02  0.29150301083E+02  0.00000000000E+00 0.  1.
</event>
<event>
 5    1  0.1282524E-003  0.9118800E+02  0.7818608E-02  0.1130116E+00
         25   -1    0    0    0    0  0.00000000000E+00  0.00000000000E+00  0.99999998245E-14  0.12500000000E+03  0.12500000000E+03 0.  0.
        -11    1    3    3    0    0 -0.25136241970E+02  0.16662848276E+02  0.27686422660E+01  0.30284427570E+02  0.51100000000E-03 0. -1.
         23    2    1    0    0    0  0.19232169597E+02 -0.25932583277E+02  0.71015618903E+01  0.91942362394E+02  0.85793884389E+02 0.  0.
         11    1    3    3    0    0  0.44368411566E+02 -0.42595431552E+02  0.43329196243E+01  0.61657934824E+02  0.51100000000E-03 0.  1.
         22    1    1    0    0    0 -0.19232169597E+02  0.25932583277E+02 -0.71015618903E+01  0.33057637606E+02  0.00000000000E+00 0.  1.
</event>
<event>
 5    1  0.1282524E-003  0.9118800E+02  0.7818608E-02  0.1130116E+00
         25   -1    0    0    0    0  0.00000000000E+00  0.00000000000E+00  0.99999998245E-14  0.12500000000E+03  0.12500000000E+03 0.  0.
        -11    1    3    3    0    0  0.36702165302E+02 -0.19574344702E+02 -0.70058931991E+01  0.42181588971E+02  0.51100000000E-03 0.  1.
         23    2    1    0    0    0 -0.41450584570E+00  0.21718676229E+02  0.11131191331E+02  0.10059147418E+03  0.97585186095E+02 0.  0.
         11    1    3    3    0    0 -0.37116671148E+02  0.41293020931E+02  0.18137084530E+02  0.58409885209E+02  0.51100000000E-03 0. -1.
         22    1    1    0    0    0  0.41450584570E+00 -0.21718676229E+02 -0.11131191331E+02  0.24408525819E+02  0.00000000000E+00 0. -1.
</event>
<event>
 5    1  0.1282524E-003  0.9118800E+02  0.7818608E-02  0.1130116E+00
         25   -1    0    0    0    0  0.00000000000E+00  0.00000000000E+00  0.99999998245E-14  0.12500000000E+03  0.12500000000E+03 0.  0.
        -11    1    3    3    0    0 -0.28649300045E+02 -0.25267972236E+02  0.52970425285E+00  0.38203840132E+02  0.51100000000E-03 0. -1.
         23    2    1    0    0    0  0.56650165921E+01  0.41638495226E+01  0.31319923401E+02  0.92900659544E+02  0.87178924552E+02 0.  0.
         11    1    3    3    0    0  0.34314316637E+02  0.29431821759E+02  0.30790219148E+02  0.54696819412E+02  0.51100000000E-03 0.  1.
         22    1    1    0    0    0 -0.56650165921E+01 -0.41638495226E+01 -0.31319923401E+02  0.32099340456E+02  0.00000000000E+00 0.  1.
</event>
<event>
 5    1  0.1282524E-003  0.9118800E+02  0.7818608E-02  0.1130116E+00
         25   -1    0    0    0    0  0.00000000000E+00  0.00000000000E+00  0.99999998245E-14  0.12500000000E+03  0.12500000000E+03 0.  0.
        -11    1    3    3    0    0 -0.44793736951E+02  0.60555488460E+01 -0.24298826456E+02  0.51318432451E+02  0.51100000000E-03 0. -1.
         23    2    1    0    0    0  0.75392159749E-02  0.11265387119E+02 -0.26219835519E+02  0.96462502240E+02  0.92144590508E+02 0.  0.
         11    1    3    3    0    0  0.44801276167E+02  0.52098382733E+01 -0.19210090623E+01  0.45144069788E+02  0.51100000000E-03 0.  1.
         22    1    1    0    0    0 -0.75392159749E-02 -0.11265387119E+02  0.26219835519E+02  0.28537497760E+02  0.00000000000E+00 0.  1.
</event>
<event>
 5    1  0.1282524E-003  0.9118800E+02  0.7818608E-02  0.1130116E+00
         25   -1    0    0    0    0  0.00000000000E+00  0.00000000000E+00  0.99999998245E-14  0.12500000000E+03  0.12500000000E+03 0.  0.
        -11    1    3    3    0    0  0.20865473722E+02  0.81908044644E+01 -0.48357611638E+02  0.53300242729E+02  0.51100000000E-03 0.  1.
         23    2    1    0    0    0 -0.12840852553E+02  0.13181952033E+02 -0.21594276976E+02  0.96628109830E+02  0.92368974540E+02 0.  0.
         11    1    3    3    0    0 -0.33706326275E+02  0.49911475688E+01  0.26763334662E+02  0.43327867101E+02  0.51100000000E-03 0. -1.
         22    1    1    0    0    0  0.12840852553E+02 -0.13181952033E+02  0.21594276976E+02  0.28371890170E+02  0.00000000000E+00 0.  1.
</event>
<event>
 5    1  0.1282524E-003  0.9118800E+02  0.7818608E-02  0.1130116E+00
         25   -1    0    0    0    0  0.00000000000E+00  0.00000000000E+00  0.99999998245E-14  0.12500000000E+03  0.12500000000E+03 0.  0.
        -11    1    3    3    0    0  0.22745270144E+02  0.39552154340E+02  0.40872244949E+02  0.61255698791E+02  0.51100000000E-03 0.  1.
         23    2    1    0    0    0  0.98101905733E+01  0.13507969062E+02  0.26467243264E+02  0.93707508357E+02  0.88328234949E+02 0.  0.
         11    1    3    3    0    0 -0.12935079571E+02 -0.26044185278E+02 -0.14405001685E+02  0.32451809566E+02  0.51100000000E-03 0. -1.
         22    1    1    0    0    0 -0.98101905733E+01 -0.13507969062E+02 -0.26467243264E+02  0.31292491643E+02  0.00000000000E+00 0.  1.
</event>
<event>
 5    1  0.1282524E-003  0.9118800E+02  0.7818608E-02  0.1130116E+00
         25   -1    0    0    0    0  0.00000000000E+00  0.00000000000E+00  0.99999998245E-14  0.12500000000E+03  0.12500000000E+03 0.  0.
        -11    1    3    3    0    0 -0.24707677290E+02  0.11533065871E+02 -0.38200403558E+02  0.46933482267E+02  0.51100000000E-03 0. -1.
         23    2    1    0    0    0  0.15057557160E+02 -0.11819766757E+02 -0.22061401854E+02  0.95791399117E+02  0.91229654056E+02 0.  0.
         11    1    3    3    0    0  0.39765234450E+02 -0.23352832628E+02  0.16139001705E+02  0.48857916850E+02  0.51100000000E-03 0.  1.
         22    1    1    0    0    0 -0.15057557160E+02  0.11819766757E+02  0.22061401854E+02  0.29208600883E+02  0.00000000000E+00 0.  1.
</event>
<event>
 5    1  0.1282524E-003  0.9118800E+02  0.7818608E-02  0.1130116E+00
         25   -1    0    0    0    0  0.00000000000E+00  0.00000000000E+00  0.99999998245E-14  0.12500000000E+03  0.12500000000E+03 0.  0.
        -11    1    3    3    0    0 -0.15183675512E+02  0.29365154200E+02  0.45072488988E+02  0.55896203333E+02  0.51100000000E-03 0. -1.
         23    2    1    0    0    0 -0.19373352540E+02 -0.24611965532E+01  0.22865723337E+02  0.94929656124E+02  0.90041179640E+02 0.  0.
         11    1    3    3    0    0 -0.41896770272E+01 -0.31826350753E+02 -0.22206765651E+02  0.39033452791E+02  0.51100000000E-03 0.  1.
         22    1    1    0    0    0  0.19373352540E+02  0.24611965532E+01 -0.22865723337E+02  0.30070343876E+02  0.00000000000E+00 0. -1.
</event>
<event>
 5    1  0.1282524E-003  0.9118800E+02  0.7818608E-02  0.1130116E+00
         25   -1    0    0    0    0  0.00000000000E+00  0.00000000000E+00  0.99999998245E-14  0.12500000000E+03  0.12500000000E+03 0.  0.
        -11    1    3    3    0    0 -0.36094731660E+02  0.64316661627E+01  0.41220557708E+02  0.55166387967E+02  0.51100000000E-03 0.  1.
         23    2    1    0    0    0 -0.16518186410E+01  0.11773451827E+02  0.31469941434E+02  0.91359252586E+02  0.84940056195E+02 0.  0.
         11    1    3    3    0    0  0.34442913019E+02  0.53417856645E+01 -0.97506162746E+01  0.36192864619E+02  0.51100000000E-03 0. -1.
         22    1    1    0    0    0  0.16518186410E+01 -0.11773451827E+02 -0.31469941434E+02  0.33640747414E+02  0.00000000000E+00 0. -1.
</event>
<event>
 5    1  0.1282524E-003  0.9118800E+02  0.7818608E-02  0.1130116E+00
         25   -1    0    0    0    0  0.00000000000E+00  0.00000000000E+00  0.99999998245E-14  0.12500000000E+03  0.12500000000E+03 0.  0.
        -11    1    3    3    0    0 -0.42151939980E+02  0.26530326180E+02  0.19286489276E+02  0.53409857893E+02  0.51100000000E-03 0. -1.
         23    2    1    0    0    0 -0.54111318506E+01  0.29476327094E+02 -0.46383220033E-01  0.95031076791E+02  0.90181867345E+02 0.  0.
         11    1    3    3    0    0  0.36740808129E+02  0.29460009140E+01 -0.19332872496E+02  0.41621218898E+02  0.51100000000E-03 0.  1.
         22    1    1    0    0    0  0.54111318506E+01 -0.29476327094E+02  0.46383220033E-01  0.29968923209E+02  0.00000000000E+00 0. -1.
</event>
<event>
 5    1  0.1282524E-003  0.9118800E+02  0.7818608E-02  0.1130116E+00
         25   -1    0    0    0    0  0.00000000000E+00  0.00000000000E+00  0.99999998245E-14  0.12500000000E+03  0.12500000000E+03 0.  0.
        -11    1    3    3    0    0  0.94524523958E+01  0.10712747313E+02  0.35530404434E+02  0.38295188350E+02  0.51100000000E-03 0.  1.
         23    2    1    0    0    0 -0.28840287264E+02  0.12281125302E+01 -0.59361791827E+01  0.95529529132E+02  0.90870139667E+02 0.  0.
         11    1    3    3    0    0 -0.38292739660E+02 -0.94846347829E+01 -0.41466583617E+02  0.57234340782E+02  0.51100000000E-03 0. -1.
         22    1    1    0    0    0  0.28840287264E+02 -0.12281125302E+01  0.59361791827E+01  0.29470470868E+02  0.00000000000E+00 0. -1.
</event>
<event>
 5    1  0.1282524E-003  0.9118800E+02  0.7818608E-02  0.1130116E+00
         25   -1    0    0    0    0  0.00000000000E+00  0.00000000000E+00  0.99999998245E-14  0.12500000000E+03  0.12500000000E+03 0.  0.
        -11    1    3    3    0    0  0.17993205282E+02  0.66965193557E+01 -0.43606045556E+02  0.47645419687E+02  0.51100000000E-03 0. -1.
         23    2    1    0    0    0 -0.12370766252E+02  0.24046962579E+02 -0.99390955635E+01  0.96188927692E+02  0.91772718838E+02 0.  0.
         11    1    3    3    0    0 -0.30363971534E+02  0.17350443223E+02  0.33666949993E+02  0.48543508005E+02  0.51100000000E-03 0.  1.
         22    1    1    0    0    0  0.12370766252E+02 -0.24046962579E+02  0.99390955635E+01  0.28811072308E+02  0.00000000000E+00 0.  1.
</event>
<event>
 5    1  0.1282524E-003  0.9118800E+02  0.7818608E-02  0.1130116E+00
         25   -1    0    0    0    0  0.00000000000E+00  0.00000000000E+00  0.99999998245E-14  0.12500000000E+03  0.12500000000E+03 0.  0.
        -11    1    3    3    0    0 -0.24619638986E+01  0.26519686888E+02  0.26624051079E+02  0.37658931941E+02  0.51100000000E-03 0. -1.
         23    2    1    0    0    0  0.47858494187E+01 -0.26124619937E+02 -0.26142000138E+01  0.98312284413E+02  0.94620669536E+02 0.  0.
         11    1    3    3    0    0  0.72478133173E+01 -0.52644306825E+02 -0.29238251092E+02  0.60653352472E+02  0.51100000000E-03 0.  1.
         22    1    1    0    0    0 -0.47858494187E+01  0.26124619937E+02  0.26142000138E+01  0.26687715587E+02  0.00000000000E+00 0.  1.
</event>
<event>
 5    1  0.1282524E-003  0.9118800E+02  0.7818608E-02  0.1130116E+00
         25   -1    0    0    0    0  0.00000000000E+00  0.00000000000E+00  0.99999998245E-14  0.12500000000E+03  0.12500000000E+03 0.  0.
        -11    1    3    3    0    0 -0.19655922294E+02 -0.34834492771E+02  0.96508228147E+01  0.41145298019E+02  0.51100000000E-03 0.  1.
         23    2    1    0    0    0  0.94260383771E+01 -0.22668201610E+02 -0.26342103316E+02  0.88991612493E+02  0.81381220950E+02 0.  0.
         11    1    3    3    0    0  0.29081960671E+02  0.12166291161E+02 -0.35992926130E+02  0.47846314474E+02  0.51100000000E-03 0. -1.
         22    1    1    0    0    0 -0.94260383771E+01  0.22668201610E+02  0.26342103316E+02  0.36008387507E+02  0.00000000000E+00 0. -1.
</event>
<event>
 5    1  0.1282524E-003  0.9118800E+02  0.7818608E-02  0.1130116E+00
         25   -1    0    0    0    0  0.00000000000E+00  0.00000000000E+00  0.99999998245E-14  0.12500000000E+03  0.12500000000E+03 0.  0.
        -11    1    3    3    0    0 -0.18073780312E+02  0.17316962975E+02  0.29998776844E+02  0.39070005808E+02  0.51100000000E-03 0. -1.
         23    2    1    0    0    0  0.25910946370E+02 -0.98762277133E+01  0.38903160743E+01  0.96999079037E+02  0.92869638522E+02 0.  0.
         11    1    3    3    0    0  0.43984726682E+02 -0.27193190688E+02 -0.26108460770E+02  0.57929073229E+02  0.51100000000E-03 0.  1.
         22    1    1    0    0    0 -0.25910946370E+02  0.98762277133E+01 -0.38903160743E+01  0.28000920963E+02  0.00000000000E+00 0.  1.
</event>
<event>
 5    1  0.1282524E-003  0.9118800E+02  0.7818608E-02  0.1130116E+00
         25   -1    0    0    0    0  0.00000000000E+00  0.00000000000E+00  0.99999998245E-14  0.12500000000E+03  0.12500000000E+03 0.  0.
        -11    1    3    3    0    0  0.54765121172E+02  0.26575467251E+02  0.33941170011E+01  0.60967154986E+02  0.51100000000E-03 0.  1.
         23    2    1    0    0    0  0.24616620565E+02  0.17182808712E+02  0.10245062186E+02  0.93279529914E+02  0.87720479242E+02 0.  0.
         11    1    3    3    0    0 -0.30148500607E+02 -0.93926585389E+01  0.68509451851E+01  0.32312374928E+02  0.51100000000E-03 0. -1.
         22    1    1    0    0    0 -0.24616620565E+02 -0.17182808712E+02 -0.10245062186E+02  0.31720470086E+02  0.00000000000E+00 0.  1.
</event>
<event>
 5    1  0.1282524E-003  0.9118800E+02  0.7818608E-02  0.1130116E+00
         25   -1    0    0    0    0  0.00000000000E+00  0.00000000000E+00  0.99999998245E-14  0.12500000000E+03  0.12500000000E+03 0.  0.
        -11    1    3    3    0    0 -0.53746101416E+02 -0.33940143122E+01  0.24078657098E+02  0.58991054224E+02  0.51100000000E-03 0.  1.
         23    2    1    0    0    0 -0.23649851130E+02  0.11884606681E+02  0.17191342879E+02  0.93438922636E+02  0.87947317520E+02 0.  0.
         11    1    3    3    0    0  0.30096250286E+02  0.15278620993E+02 -0.68873142195E+01  0.34447868412E+02  0.51100000000E-03 0. -1.
         22    1    1    0    0    0  0.23649851130E+02 -0.11884606681E+02 -0.17191342879E+02  0.31561077364E+02  0.00000000000E+00 0.  1.
</event>
<event>
 5    1  0.1282524E-003  0.9118800E+02  0.7818608E-02  0.1130116E+00
         25   -1    0    0    0    0  0.00000000000E+00  0.00000000000E+00  0.99999998245E-14  0.12500000000E+03  0.12500000000E+03 0.  0.
        -11    1    3    3    0    0 -0.39455771028E+02 -0.32493561101E+02  0.47684566662E+01  0.51335441555E+02  0.51100000000E-03 0. -1.
         23    2    1    0    0    0 -0.25270678464E+02  0.61537616092E+01 -0.12699086311E+02  0.96056213704E+02  0.91591775974E+02 0.  0.
         11    1    3    3    0    0  0.14185092564E+02  0.38647322710E+02 -0.17467542977E+02  0.44720772149E+02  0.51100000000E-03 0.  1.
         22    1    1    0    0    0  0.25270678464E+02 -0.61537616092E+01  0.12699086311E+02  0.28943786296E+02  0.00000000000E+00 0. -1.
</event>
<event>
 5    1  0.1282524E-003  0.9118800E+02  0.7818608E-02  0.1130116E+00
         25   -1    0    0    0    0  0.00000000000E+00  0.00000000000E+00  0.99999998245E-14  0.12500000000E+03  0.12500000000E+03 0.  0.
        -11    1    3    3    0    0 -0.18817153216E+02  0.72602720790E+01  0.24628451407E+02  0.31833275433E+02  0.51100000000E-03 0.  1.
         23    2    1    0    0    0 -0.74494601023E+01  0.63574580446E+01 -0.32999124529E+02  0.90578292484E+02  0.83782892771E+02 0.  0.
         11    1    3    3    0    0  0.11367693114E+02 -0.90281403437E+00 -0.57627575936E+02  0.58745017052E+02  0.51100000000E-03 0. -1.
         22    1    1    0    0    0  0.74494601023E+01 -0.63574580446E+01  0.32999124529E+02  0.34421707516E+02  0.00000000000E+00 0. -1.
</event>
<event>
 5    1  0.1282524E-003  0.9118800E+02  0.7818608E-02  0.1130116E+00
         25   -1    0    0    0    0  0.00000000000E+00  0.00000000000E+00  0.99999998245E-14  0.12500000000E+03  0.12500000000E+03 0.  0.
        -11    1    3    3    0    0 -0.33834908971E+02 -0.31456654249E+02  0.32603367122E+02  0.56544687722E+02  0.51100000000E-03 0.  1.
         23    2    1    0    0    0 -0.16934264991E+02  0.51040570274E+01  0.18961316653E+02  0.99070243770E+02  0.95616739866E+02 0.  0.
         11    1    3    3    0    0  0.16900643980E+02  0.36560711276E+02 -0.13642050469E+02  0.42525556048E+02  0.51100000000E-03 0. -1.
         22    1    1    0    0    0  0.16934264991E+02 -0.51040570274E+01 -0.18961316653E+02  0.25929756230E+02  0.00000000000E+00 0.  1.
</event>
<event>
 5    1  0.1282524E-003  0.9118800E+02  0.7818608E-02  0.1130116E+00
         25   -1    0    0    0    0  0.00000000000E+00  0.00000000000E+00  0.99999998245E-14  0.12500000000E+03  0.12500000000E+03 0.  0.
        -11    1    3    3    0    0  0.54572044696E+02 -0.86962562499E+01  0.54536234750E+01  0.55529045952E+02  0.51100000000E-03 0.  1.
         23    2    1    0    0    0  0.18335202610E+02 -0.34518051326E+01  0.22377083862E+02  0.95865338588E+02  0.91330907403E+02 0.  0.
         11    1    3    3    0    0 -0.36236842086E+02  0.52444511173E+01  0.16923460387E+02  0.40336292636E+02  0.51100000000E-03 0. -1.
         22    1    1    0    0    0 -0.18335202610E+02  0.34518051326E+01 -0.22377083862E+02  0.29134661412E+02  0.00000000000E+00 0. -1.
</event>
<event>
 5    1  0.1282524E-003  0.9118800E+02  0.7818608E-02  0.1130116E+00
         25   -1    0    0    0    0  0.00000000000E+00  0.00000000000E+00  0.99999998245E-14  0.12500000000E+03  0.12500000000E+03 0.  0.
        -11    1    3    3    0    0  0.48371508945E+02 -0.34320938762E+02 -0.12967171530E+02  0.60711426049E+02  0.51100000000E-03 0.  1.
         23    2    1    0    0    0  0.27019252709E+02 -0.70501810349E+01 -0.94290181769E+01  0.95527106465E+02  0.90866807010E+02 0.  0.
         11    1    3    3    0    0 -0.21352256236E+02  0.27270757727E+02  0.35381533532E+01  0.34815680416E+02  0.51100000000E-03 0. -1.
         22    1    1    0    0    0 -0.27019252709E+02  0.70501810349E+01  0.94290181769E+01  0.29472893535E+02  0.00000000000E+00 0.  1.
</event>
<event>
 5    1  0.1282524E-003  0.9118800E+02  0.7818608E-02  0.1130116E+00
         25   -1    0    0    0    0  0.00000000000E+00  0.00000000000E+00  0.99999998245E-14  0.12500000000E+03  0.12500000000E+03 0.  0.
        -11    1    3    3    0    0  0.32078921730E+02 -0.43199905487E+01  0.36953242814E+02  0.49124959974E+02  0.51100000000E-03 0.  1.
         23    2    1    0    0    0  0.16189566046E+02  0.24291086443E+02  0.40573122460E+01  0.95527627988E+02  0.90867524435E+02 0.  0.
         11    1    3    3    0    0 -0.15889355684E+02  0.28611076992E+02 -0.32895930568E+02  0.46402668014E+02  0.51100000000E-03 0. -1.
         22    1    1    0    0    0 -0.16189566046E+02 -0.24291086443E+02 -0.40573122460E+01  0.29472372012E+02  0.00000000000E+00 0. -1.
</event>
<event>
 5    1  0.1282524E-003  0.9118800E+02  0.7818608E-02  0.1130116E+00
         25   -1    0    0    0    0  0.00000000000E+00  0.00000000000E+00  0.99999998245E-14  0.12500000000E+03  0.12500000000E+03 0.  0.
        -11    1    3    3    0    0  0.55974070655E+00  0.36905818829E+02  0.19078742370E+02  0.41549382472E+02  0.51100000000E-03 0. -1.
         23    2    1    0    0    0 -0.20642278056E+02  0.47980972584E+01 -0.19619334768E+02  0.96120185641E+02  0.91679040191E+02 0.  0.
         11    1    3    3    0    0 -0.21202018763E+02 -0.32107721571E+02 -0.38698077138E+02  0.54570803169E+02  0.51100000000E-03 0.  1.
         22    1    1    0    0    0  0.20642278056E+02 -0.47980972584E+01  0.19619334768E+02  0.28879814359E+02  0.00000000000E+00 0.  1.
</event>
<event>
 5    1  0.1282524E-003  0.9118800E+02  0.7818608E-02  0.1130116E+00
         25   -1    0    0    0    0  0.00000000000E+00  0.00000000000E+00  0.99999998245E-14  0.12500000000E+03  0.12500000000E+03 0.  0.
        -11    1    3    3    0    0 -0.32623350005E+02 -0.51498972279E+02  0.19852567389E+01  0.60994822370E+02  0.51100000000E-03 0.  1.
         23    2    1    0    0    0 -0.20074774699E+02 -0.21601391957E+02 -0.71003785730E+01  0.94667969248E+02  0.89677156021E+02 0.  0.
         11    1    3    3    0    0  0.12548575307E+02  0.29897580323E+02 -0.90856353118E+01  0.33673146878E+02  0.51100000000E-03 0. -1.
         22    1    1    0    0    0  0.20074774699E+02  0.21601391957E+02  0.71003785730E+01  0.30332030752E+02  0.00000000000E+00 0.  1.
</event>
<event>
 5    1  0.1282524E-003  0.9118800E+02  0.7818608E-02  0.1130116E+00
         25   -1    0    0    0    0  0.00000000000E+00  0.00000000000E+00  0.99999998245E-14  0.12500000000E+03  0.12500000000E+03 0.  0.
        -11    1    3    3    0    0  0.37576285951E+02 -0.80041692319E+00  0.13145397950E+02  0.39817325634E+02  0.51100000000E-03 0. -1.
         23    2    1    0    0    0 -0.13585363633E+02  0.20029340201E+02  0.17357545005E+02  0.95217103188E+02  0.90439348720E+02 0.  0.
         11    1    3    3    0    0 -0.51161649584E+02  0.20829757124E+02  0.42121470544E+01  0.55399777554E+02  0.51100000000E-03 0.  1.
         22    1    1    0    0    0  0.13585363633E+02 -0.20029340201E+02 -0.17357545005E+02  0.29782896812E+02  0.00000000000E+00 0.  1.
</event>
<event>
 5    1  0.1282524E-003  0.9118800E+02  0.7818608E-02  0.1130116E+00
         25   -1    0    0    0    0  0.00000000000E+00  0.00000000000E+00  0.99999998245E-14  0.12500000000E+03  0.12500000000E+03 0.  0.
        -11    1    3    3    0    0  0.37787862758E+02 -0.13624005644E+02  0.47688884077E+02  0.62351950782E+02  0.51100000000E-03 0. -1.
         23    2    1    0    0    0  0.18871627528E+02 -0.98705160490E+01  0.26493349704E+02  0.91007898106E+02  0.84421410355E+02 0.  0.
         11    1    3    3    0    0 -0.18916235229E+02  0.37534895950E+01 -0.21195534373E+02  0.28655947323E+02  0.51100000000E-03 0.  1.
         22    1    1    0    0    0 -0.18871627528E+02  0.98705160490E+01 -0.26493349704E+02  0.33992101894E+02  0.00000000000E+00 0. -1.
</event>
<event>
 5    1  0.1282524E-003  0.9118800E+02  0.7818608E-02  0.1130116E+00
         25   -1    0    0    0    0  0.00000000000E+00  0.00000000000E+00  0.99999998245E-14  0.12500000000E+03  0.12500000000E+03 0.  0.
        -11    1    3    3    0    0 -0.16511799156E+02  0.33591516013E+02 -0.56922468735E+01  0.37860680582E+02  0.51100000000E-03 0. -1.
         23    2    1    0    0    0  0.23769864436E+02 -0.31173900459E+01  0.15628929177E+02  0.96382033559E+02  0.92035364886E+02 0.  0.
         11    1    3    3    0    0  0.40281663592E+02 -0.36708906058E+02  0.21321176051E+02  0.58521352977E+02  0.51100000000E-03 0.  1.
         22    1    1    0    0    0 -0.23769864436E+02  0.31173900459E+01 -0.15628929177E+02  0.28617966441E+02  0.00000000000E+00 0.  1.
</event>
<event>
 5    1  0.1282524E-003  0.9118800E+02  0.7818608E-02  0.1130116E+00
         25   -1    0    0    0    0  0.00000000000E+00  0.00000000000E+00  0.99999998245E-14  0.12500000000E+03  0.12500000000E+03 0.  0.
        -11    1    3    3    0    0 -0.32265764212E+02 -0.27348881018E+02 -0.24436904616E+02  0.48848778292E+02  0.51100000000E-03 0. -1.
         23    2    1    0    0    0  0.11506913612E+02 -0.25827843575E+02 -0.82124997646E+01  0.95556295801E+02  0.90906952155E+02 0.  0.
         11    1    3    3    0    0  0.43772677824E+02  0.15210374433E+01  0.16224404851E+02  0.46707517509E+02  0.51100000000E-03 0.  1.
         22    1    1    0    0    0 -0.11506913612E+02  0.25827843575E+02  0.82124997646E+01  0.29443704199E+02  0.00000000000E+00 0.  1.
</event>
<event>
 5    1  0.1282524E-003  0.9118800E+02  0.7818608E-02  0.1130116E+00
         25   -1    0    0    0    0  0.00000000000E+00  0.00000000000E+00  0.99999998245E-14  0.12500000000E+03  0.12500000000E+03 0.  0.
        -11    1    3    3    0    0  0.61834258373E+01  0.18349483747E+02  0.42791307728E+02  0.46968439683E+02  0.51100000000E-03 0.  1.
         23    2    1    0    0    0 -0.25834840035E+02  0.42046592585E+01  0.52365922876E+01  0.98306554777E+02  0.94613100013E+02 0.  0.
         11    1    3    3    0    0 -0.32018265872E+02 -0.14144824489E+02 -0.37554715441E+02  0.51338115094E+02  0.51100000000E-03 0. -1.
         22    1    1    0    0    0  0.25834840035E+02 -0.42046592585E+01 -0.52365922876E+01  0.26693445223E+02  0.00000000000E+00 0.  1.
</event>
<event>
 5    1  0.1282524E-003  0.9118800E+02  0.7818608E-02  0.1130116E+00
         25   -1    0    0    0    0  0.00000000000E+00  0.00000000000E+00  0.99999998245E-14  0.12500000000E+03  0.12500000000E+03 0.  0.
        -11    1    3    3    0    0  0.34861896919E+02 -0.41526833303E+02  0.17505463712E+02  0.56976056384E+02  0.51100000000E-03 0. -1.
         23    2    1    0    0    0  0.36188546573E+01 -0.27274439952E+02 -0.35515288772E+01  0.97258252739E+02  0.93217826539E+02 0.  0.
         11    1    3    3    0    0 -0.31243042262E+02  0.14252393351E+02 -0.21056992589E+02  0.40282196355E+02  0.51100000000E-03 0.  1.
         22    1    1    0    0    0 -0.36188546573E+01  0.27274439952E+02  0.35515288772E+01  0.27741747261E+02  0.00000000000E+00 0. -1.
</event>
<event>
 5    1  0.1282524E-003  0.9118800E+02  0.7818608E-02  0.1130116E+00
         25   -1    0    0    0    0  0.00000000000E+00  0.00000000000E+00  0.99999998245E-14  0.12500000000E+03  0.12500000000E+03 0.  0.
        -11    1    3    3    0    0  0.44925112635E+02 -0.75084997956E+01  0.36282849649E+02  0.58233053272E+02  0.51100000000E-03 0.  1.
         23    2    1    0    0    0  0.93339110047E+01 -0.12259533232E+02  0.24562884316E+02  0.96004253146E+02  0.91520835259E+02 0.  0.
         11    1    3    3    0    0 -0.35591201630E+02 -0.47510334365E+01 -0.11719965333E+02  0.37771199874E+02  0.51100000000E-03 0. -1.
         22    1    1    0    0    0 -0.93339110047E+01  0.12259533232E+02 -0.24562884316E+02  0.28995746854E+02  0.00000000000E+00 0.  1.
</event>
<event>
 5    1  0.1282524E-003  0.9118800E+02  0.7818608E-02  0.1130116E+00
         25   -1    0    0    0    0  0.00000000000E+00  0.00000000000E+00  0.99999998245E-14  0.12500000000E+03  0.12500000000E+03 0.  0.
        -11    1    3    3    0    0 -0.30004106544E+02 -0.43489021866E+02  0.21250607975E+02  0.56948483491E+02  0.51100000000E-03 0.  1.
         23    2    1    0    0    0  0.22429834723E+01 -0.29331199551E+02  0.89809730174E+01  0.94242755028E+02  0.89082482885E+02 0.  0.
         11    1    3    3    0    0  0.32247090016E+02  0.14157822315E+02 -0.12269634958E+02  0.37294271537E+02  0.51100000000E-03 0. -1.
         22    1    1    0    0    0 -0.22429834723E+01  0.29331199551E+02 -0.89809730174E+01  0.30757244972E+02  0.00000000000E+00 0.  1.
</event>
<event>
 5    1  0.1282524E-003  0.9118800E+02  0.7818608E-02  0.1130116E+00
         25   -1    0    0    0    0  0.00000000000E+00  0.00000000000E+00  0.99999998245E-14  0.12500000000E+03  0.12500000000E+03 0.  0.
        -11    1    3    3    0    0 -0.16839592952E+02 -0.36080697807E+02  0.27872281736E+02  0.48603011578E+02  0.51100000000E-03 0.  1.
         23    2    1    0    0    0  0.14708770276E+02 -0.11099452718E+01  0.25228820214E+02  0.95775467995E+02  0.91207823122E+02 0.  0.
         11    1    3    3    0    0  0.31548363228E+02  0.34970752535E+02 -0.26434615224E+01  0.47172456416E+02  0.51100000000E-03 0. -1.
         22    1    1    0    0    0 -0.14708770276E+02  0.11099452718E+01 -0.25228820214E+02  0.29224532005E+02  0.00000000000E+00 0.  1.
</event>
<event>
 5    1  0.1282524E-003  0.9118800E+02  0.7818608E-02  0.1130116E+00
         25   -1    0    0    0    0  0.00000000000E+00  0.00000000000E+00  0.99999998245E-14  0.12500000000E+03  0.12500000000E+03 0.  0.
        -11    1    3    3    0    0  0.27629589535E+02 -0.88830419875E+01  0.37370813355E+02  0.47316808260E+02  0.51100000000E-03 0.  1.
         23    2    1    0    0    0  0.22335392901E+02 -0.11354983720E+02 -0.12130666465E+02  0.97161923554E+02  0.93088564756E+02 0.  0.
         11    1    3    3    0    0 -0.52941966339E+01 -0.24719417328E+01 -0.49501479820E+02  0.49845115293E+02  0.51100000000E-03 0. -1.
         22    1    1    0    0    0 -0.22335392901E+02  0.11354983720E+02  0.12130666465E+02  0.27838076446E+02  0.00000000000E+00 0. -1.
</event>
<event>
 5    1  0.1282524E-003  0.9118800E+02  0.7818608E-02  0.1130116E+00
         25   -1    0    0    0    0  0.00000000000E+00  0.00000000000E+00  0.99999998245E-14  0.12500000000E+03  0.12500000000E+03 0.  0.
        -11    1    3    3    0    0 -0.14571605595E+02 -0.43631778847E+02 -0.42191568426E+02  0.62419486232E+02  0.51100000000E-03 0.  1.
         23    2    1    0    0    0 -0.54747531881E+01 -0.16736309740E+02 -0.19147013158E+02  0.98986828354E+02  0.95507628431E+02 0.  0.
         11    1    3    3    0    0  0.90968524070E+01  0.26895469107E+02  0.23044555267E+02  0.36567342123E+02  0.51100000000E-03 0. -1.
         22    1    1    0    0    0  0.54747531881E+01  0.16736309740E+02  0.19147013158E+02  0.26013171646E+02  0.00000000000E+00 0.  1.
</event>
<event>
 5    1  0.1282524E-003  0.9118800E+02  0.7818608E-02  0.1130116E+00
         25   -1    0    0    0    0  0.00000000000E+00  0.00000000000E+00  0.99999998245E-14  0.12500000000E+03  0.12500000000E+03 0.  0.
        -11    1    3    3    0    0 -0.90199013766E+01  0.10387094328E+02 -0.56031700922E+02  0.57695769844E+02  0.51100000000E-03 0. -1.
         23    2    1    0    0    0 -0.17318240534E+02 -0.59681440647E+01 -0.21844016955E+02  0.96492083986E+02  0.92184711294E+02 0.  0.
         11    1    3    3    0    0 -0.82983391570E+01 -0.16355238393E+02  0.34187683968E+02  0.38796314142E+02  0.51100000000E-03 0.  1.
         22    1    1    0    0    0  0.17318240534E+02  0.59681440647E+01  0.21844016955E+02  0.28507916014E+02  0.00000000000E+00 0. -1.
</event>
<event>
 5    1  0.1282524E-003  0.9118800E+02  0.7818608E-02  0.1130116E+00
         25   -1    0    0    0    0  0.00000000000E+00  0.00000000000E+00  0.99999998245E-14  0.12500000000E+03  0.12500000000E+03 0.  0.
        -11    1    3    3    0    0  0.18872430380E+02 -0.41080986590E+02  0.11687860624E+02  0.46694990887E+02  0.51100000000E-03 0.  1.
         23    2    1    0    0    0  0.10094994647E+01 -0.14452895640E+02 -0.25422449610E+02  0.95738998211E+02  0.91157827710E+02 0.  0.
         11    1    3    3    0    0 -0.17862930915E+02  0.26628090950E+02 -0.37110310234E+02  0.49044007324E+02  0.51100000000E-03 0. -1.
         22    1    1    0    0    0 -0.10094994647E+01  0.14452895640E+02  0.25422449610E+02  0.29261001789E+02  0.00000000000E+00 0. -1.
</event>
<event>
 5    1  0.1282524E-003  0.9118800E+02  0.7818608E-02  0.1130116E+00
         25   -1    0    0    0    0  0.00000000000E+00  0.00000000000E+00  0.99999998245E-14  0.12500000000E+03  0.12500000000E+03 0.  0.
        -11    1    3    3    0    0  0.42361071677E+02  0.30757036305E+01 -0.32333466101E+02  0.53379522074E+02  0.51100000000E-03 0.  1.
         23    2    1    0    0    0  0.28446114041E+02  0.34233154415E+01  0.73395579997E+01  0.95423495740E+02  0.90724164008E+02 0.  0.
         11    1    3    3    0    0 -0.13914957637E+02  0.34761181106E+00  0.39673024101E+02  0.42043973666E+02  0.51100000000E-03 0. -1.
         22    1    1    0    0    0 -0.28446114041E+02 -0.34233154415E+01 -0.73395579997E+01  0.29576504260E+02  0.00000000000E+00 0. -1.
</event>
<event>
 5    1  0.1282524E-003  0.9118800E+02  0.7818608E-02  0.1130116E+00
         25   -1    0    0    0    0  0.00000000000E+00  0.00000000000E+00  0.99999998245E-14  0.12500000000E+03  0.12500000000E+03 0.  0.
        -11    1    3    3    0    0 -0.12308721714E+02  0.15162177833E+02  0.52027062271E+02  0.55571678719E+02  0.51100000000E-03 0. -1.
         23    2    1    0    0    0  0.13221764690E+02  0.15277218819E+02  0.26516480991E+02  0.91663349891E+02  0.85386400982E+02 0.  0.
         11    1    3    3    0    0  0.25530486404E+02  0.11504098598E+00 -0.25510581280E+02  0.36091671171E+02  0.51100000000E-03 0.  1.
         22    1    1    0    0    0 -0.13221764690E+02 -0.15277218819E+02 -0.26516480991E+02  0.33336650109E+02  0.00000000000E+00 0. -1.
</event>
<event>
 5    1  0.1282524E-003  0.9118800E+02  0.7818608E-02  0.1130116E+00
         25   -1    0    0    0    0  0.00000000000E+00  0.00000000000E+00  0.99999998245E-14  0.12500000000E+03  0.12500000000E+03 0.  0.
        -11    1    3    3    0    0  0.13509064315E+02  0.55990210588E+02 -0.19479587111E+01  0.57629793022E+02  0.51100000000E-03 0.  1.
         23    2    1    0    0    0 -0.10616235795E+02  0.25738757138E+02  0.43105751396E+01  0.96826091157E+02  0.92636508943E+02 0.  0.
         11    1    3    3    0    0 -0.24125300110E+02 -0.30251453450E+02  0.62585338506E+01  0.39196298135E+02  0.51100000000E-03 0. -1.
         22    1    1    0    0    0  0.10616235795E+02 -0.25738757138E+02 -0.43105751396E+01  0.28173908843E+02  0.00000000000E+00 0.  1.
</event>
<event>
 5    1  0.1282524E-003  0.9118800E+02  0.7818608E-02  0.1130116E+00
         25   -1    0    0    0    0  0.00000000000E+00  0.00000000000E+00  0.99999998245E-14  0.12500000000E+03  0.12500000000E+03 0.  0.
        -11    1    3    3    0    0 -0.35115734125E+02  0.23144555265E+01 -0.45607725918E+02  0.57606737030E+02  0.51100000000E-03 0.  1.
         23    2    1    0    0    0 -0.28692839267E+02 -0.48021743026E+01 -0.10386035290E+02  0.94109716216E+02  0.88895607619E+02 0.  0.
         11    1    3    3    0    0  0.64228948581E+01 -0.71166298291E+01  0.35221690628E+02  0.36502979186E+02  0.51100000000E-03 0. -1.
         22    1    1    0    0    0  0.28692839267E+02  0.48021743026E+01  0.10386035290E+02  0.30890283784E+02  0.00000000000E+00 0. -1.
</event>
<event>
 5    1  0.1282524E-003  0.9118800E+02  0.7818608E-02  0.1130116E+00
         25   -1    0    0    0    0  0.00000000000E+00  0.00000000000E+00  0.99999998245E-14  0.12500000000E+03  0.12500000000E+03 0.  0.
        -11    1    3    3    0    0  0.21284197484E+02 -0.27181685374E+02 -0.48972810961E+02  0.59918255115E+02  0.51100000000E-03 0.  1.
         23    2    1    0    0    0  0.21805544702E+02 -0.11464772663E+02 -0.18562953561E+02  0.94153508516E+02  0.88957164573E+02 0.  0.
         11    1    3    3    0    0  0.52134721774E+00  0.15716912711E+02  0.30409857400E+02  0.34235253401E+02  0.51100000000E-03 0. -1.
         22    1    1    0    0    0 -0.21805544702E+02  0.11464772663E+02  0.18562953561E+02  0.30846491484E+02  0.00000000000E+00 0.  1.
</event>
<event>
 5    1  0.1282524E-003  0.9118800E+02  0.7818608E-02  0.1130116E+00
         25   -1    0    0    0    0  0.00000000000E+00  0.00000000000E+00  0.99999998245E-14  0.12500000000E+03  0.12500000000E+03 0.  0.
        -11    1    3    3    0    0  0.31948250329E+02  0.20506609623E+02  0.14610151410E+01  0.37991397748E+02  0.51100000000E-03 0. -1.
         23    2    1    0    0    0 -0.24870003309E+02  0.15473175931E+02 -0.45891180686E+01  0.95352129206E+02  0.90625781660E+02 0.  0.
         11    1    3    3    0    0 -0.56818253638E+02 -0.50334336925E+01 -0.60501332095E+01  0.57360731458E+02  0.51100000000E-03 0.  1.
         22    1    1    0    0    0  0.24870003309E+02 -0.15473175931E+02  0.45891180686E+01  0.29647870794E+02  0.00000000000E+00 0.  1.
</event>
<event>
 5    1  0.1282524E-003  0.9118800E+02  0.7818608E-02  0.1130116E+00
         25   -1    0    0    0    0  0.00000000000E+00  0.00000000000E+00  0.99999998245E-14  0.12500000000E+03  0.12500000000E+03 0.  0.
        -11    1    3    3    0    0  0.24636738853E+02  0.44822426811E+02  0.90006464342E+01  0.51932942176E+02  0.51100000000E-03 0.  1.
         23    2    1    0    0    0  0.23795032507E+02  0.63347331482E+01 -0.13897461951E+02  0.96725066494E+02  0.92500089857E+02 0.  0.
         11    1    3    3    0    0 -0.84170634624E+00 -0.38487693663E+02 -0.22898108386E+02  0.44792124318E+02  0.51100000000E-03 0. -1.
         22    1    1    0    0    0 -0.23795032507E+02 -0.63347331482E+01  0.13897461951E+02  0.28274933506E+02  0.00000000000E+00 0.  1.
</event>
<event>
 5    1  0.1282524E-003  0.9118800E+02  0.7818608E-02  0.1130116E+00
         25   -1    0    0    0    0  0.00000000000E+00  0.00000000000E+00  0.99999998245E-14  0.12500000000E+03  0.12500000000E+03 0.  0.
        -11    1    3    3    0    0 -0.16684748857E+02 -0.71985879565E+01 -0.42131288145E+02  0.45882959299E+02  0.51100000000E-03 0.  1.
         23    2    1    0    0    0  0.19345795326E+01  0.27500066036E+02 -0.16412707376E+02  0.92916153700E+02  0.87201137751E+02 0.  0.
         11    1    3    3    0    0  0.18619328390E+02  0.34698653993E+02  0.25718580768E+02  0.47033194402E+02  0.51100000000E-03 0. -1.
         22    1    1    0    0    0 -0.19345795326E+01 -0.27500066036E+02  0.16412707376E+02  0.32083846300E+02  0.00000000000E+00 0.  1.
</event>
<event>
 5    1  0.1282524E-003  0.9118800E+02  0.7818608E-02  0.1130116E+00
         25   -1    0    0    0    0  0.00000000000E+00  0.00000000000E+00  0.99999998245E-14  0.12500000000E+03  0.12500000000E+03 0.  0.
        -11    1    3    3    0    0  0.40592712211E+02  0.12382028388E+01  0.37440054426E+02  0.55236392955E+02  0.51100000000E-03 0.  1.
         23    2    1    0    0    0  0.26996828740E+02 -0.12142464173E+02  0.21896858606E+01  0.95317295905E+02  0.90577723400E+02 0.  0.
         11    1    3    3    0    0 -0.13595883471E+02 -0.13380667012E+02 -0.35250368566E+02  0.40080902950E+02  0.51100000000E-03 0. -1.
         22    1    1    0    0    0 -0.26996828740E+02  0.12142464173E+02 -0.21896858606E+01  0.29682704095E+02  0.00000000000E+00 0.  1.
</event>
<event>
 5    1  0.1282524E-003  0.9118800E+02  0.7818608E-02  0.1130116E+00
         25   -1    0    0    0    0  0.00000000000E+00  0.00000000000E+00  0.99999998245E-14  0.12500000000E+03  0.12500000000E+03 0.  0.
        -11    1    3    3    0    0  0.32103279589E+02 -0.18051107892E+02  0.44256407252E+02  0.57576841174E+02  0.51100000000E-03 0. -1.
         23    2    1    0    0    0  0.10880749660E+02 -0.23708217174E+02  0.12798057031E+02  0.95943838201E+02  0.91438282739E+02 0.  0.
         11    1    3    3    0    0 -0.21222529929E+02 -0.56571092817E+01 -0.31458350221E+02  0.38366997027E+02  0.51100000000E-03 0.  1.
         22    1    1    0    0    0 -0.10880749660E+02  0.23708217174E+02 -0.12798057031E+02  0.29056161799E+02  0.00000000000E+00 0. -1.
</event>
<event>
 5    1  0.1282524E-003  0.9118800E+02  0.7818608E-02  0.1130116E+00
         25   -1    0    0    0    0  0.00000000000E+00  0.00000000000E+00  0.99999998245E-14  0.12500000000E+03  0.12500000000E+03 0.  0.
        -11    1    3    3    0    0  0.33610389423E+02  0.29505111608E+01  0.22682184273E+02  0.40655199875E+02  0.51100000000E-03 0. -1.
         23    2    1    0    0    0  0.11359698477E+02 -0.76045921190E+01 -0.26232290042E+02  0.95419506231E+02  0.90718667085E+02 0.  0.
         11    1    3    3    0    0 -0.22250690946E+02 -0.10555103280E+02 -0.48914474315E+02  0.54764306355E+02  0.51100000000E-03 0.  1.
         22    1    1    0    0    0 -0.11359698477E+02  0.76045921190E+01  0.26232290042E+02  0.29580493769E+02  0.00000000000E+00 0.  1.
</event>
<event>
 5    1  0.1282524E-003  0.9118800E+02  0.7818608E-02  0.1130116E+00
         25   -1    0    0    0    0  0.00000000000E+00  0.00000000000E+00  0.99999998245E-14  0.12500000000E+03  0.12500000000E+03 0.  0.
        -11    1    3    3    0    0  0.67206131999E+01 -0.46319517274E+02  0.21052541889E+02  0.51321280600E+02  0.51100000000E-03 0.  1.
         23    2    1    0    0    0 -0.18016401906E+02 -0.19955534805E+02 -0.71585666344E+01  0.97178080885E+02  0.93110258410E+02 0.  0.
         11    1    3    3    0    0 -0.24737015106E+02  0.26363982469E+02 -0.28211108523E+02  0.45856800284E+02  0.51100000000E-03 0. -1.
         22    1    1    0    0    0  0.18016401906E+02  0.19955534805E+02  0.71585666344E+01  0.27821919115E+02  0.00000000000E+00 0.  1.
</event>
<event>
 5    1  0.1282524E-003  0.9118800E+02  0.7818608E-02  0.1130116E+00
         25   -1    0    0    0    0  0.00000000000E+00  0.00000000000E+00  0.99999998245E-14  0.12500000000E+03  0.12500000000E+03 0.  0.
        -11    1    3    3    0    0 -0.30106816865E+02  0.23657806458E+02 -0.12432328781E+02  0.40257608316E+02  0.51100000000E-03 0. -1.
         23    2    1    0    0    0  0.15531500671E+02  0.25329974924E+02  0.13042206734E+02  0.92551050877E+02  0.86676194651E+02 0.  0.
         11    1    3    3    0    0  0.45638317536E+02  0.16721684654E+01  0.25474535515E+02  0.52293442560E+02  0.51100000000E-03 0.  1.
         22    1    1    0    0    0 -0.15531500671E+02 -0.25329974924E+02 -0.13042206734E+02  0.32448949123E+02  0.00000000000E+00 0.  1.
</event>
<event>
 5    1  0.1282524E-003  0.9118800E+02  0.7818608E-02  0.1130116E+00
         25   -1    0    0    0    0  0.00000000000E+00  0.00000000000E+00  0.99999998245E-14  0.12500000000E+03  0.12500000000E+03 0.  0.
        -11    1    3    3    0    0  0.11263923589E+02 -0.72540937450E+01 -0.60169527131E+02  0.61643084333E+02  0.51100000000E-03 0.  1.
         23    2    1    0    0    0 -0.11054828339E+01 -0.51595599947E+01 -0.33144847704E+02  0.91437758106E+02  0.85055508502E+02 0.  0.
         11    1    3    3    0    0 -0.12369406423E+02  0.20945337504E+01  0.27024679427E+02  0.29794673773E+02  0.51100000000E-03 0. -1.
         22    1    1    0    0    0  0.11054828339E+01  0.51595599947E+01  0.33144847704E+02  0.33562241894E+02  0.00000000000E+00 0.  1.
</event>
<event>
 5    1  0.1282524E-003  0.9118800E+02  0.7818608E-02  0.1130116E+00
         25   -1    0    0    0    0  0.00000000000E+00  0.00000000000E+00  0.99999998245E-14  0.12500000000E+03  0.12500000000E+03 0.  0.
        -11    1    3    3    0    0  0.60616829310E+02 -0.10630295490E+02 -0.64842699961E+01  0.61882541443E+02  0.51100000000E-03 0. -1.
         23    2    1    0    0    0  0.30023956200E+02 -0.96082381453E+01  0.12389059630E+01  0.93451765911E+02  0.87965569842E+02 0.  0.
         11    1    3    3    0    0 -0.30592873110E+02  0.10220573443E+01  0.77231759591E+01  0.31569224468E+02  0.51100000000E-03 0.  1.
         22    1    1    0    0    0 -0.30023956200E+02  0.96082381453E+01 -0.12389059630E+01  0.31548234089E+02  0.00000000000E+00 0. -1.
</event>
<event>
 5    1  0.1282524E-003  0.9118800E+02  0.7818608E-02  0.1130116E+00
         25   -1    0    0    0    0  0.00000000000E+00  0.00000000000E+00  0.99999998245E-14  0.12500000000E+03  0.12500000000E+03 0.  0.
        -11    1    3    3    0    0  0.17447462276E+02  0.11360166372E+02  0.18631274572E+01  0.20903075469E+02  0.51100000000E-03 0. -1.
         23    2    1    0    0    0 -0.14827490163E+02 -0.35758158722E+02  0.20777533819E+02  0.81065886929E+02  0.68128347494E+02 0.  0.
         11    1    3    3    0    0 -0.32274952439E+02 -0.47118325094E+02  0.18914406362E+02  0.60162811461E+02  0.51100000000E-03 0.  1.
         22    1    1    0    0    0  0.14827490163E+02  0.35758158722E+02 -0.20777533819E+02  0.43934113071E+02  0.00000000000E+00 0.  1.
</event>
<event>
 5    1  0.1282524E-003  0.9118800E+02  0.7818608E-02  0.1130116E+00
         25   -1    0    0    0    0  0.00000000000E+00  0.00000000000E+00  0.99999998245E-14  0.12500000000E+03  0.12500000000E+03 0.  0.
        -11    1    3    3    0    0 -0.20126080078E+02 -0.29211777759E+02 -0.26658201977E+02  0.44373942714E+02  0.51100000000E-03 0. -1.
         23    2    1    0    0    0 -0.96138657307E+00  0.18567578384E+02 -0.22194925508E+02  0.96046693634E+02  0.91578782524E+02 0.  0.
         11    1    3    3    0    0  0.19164693505E+02  0.47779356143E+02  0.44632764686E+01  0.51672750920E+02  0.51100000000E-03 0.  1.
         22    1    1    0    0    0  0.96138657307E+00 -0.18567578384E+02  0.22194925508E+02  0.28953306366E+02  0.00000000000E+00 0. -1.
</event>
<event>
 5    1  0.1282524E-003  0.9118800E+02  0.7818608E-02  0.1130116E+00
         25   -1    0    0    0    0  0.00000000000E+00  0.00000000000E+00  0.99999998245E-14  0.12500000000E+03  0.12500000000E+03 0.  0.
        -11    1    3    3    0    0  0.37066593167E+01  0.53821130284E+02  0.11513429273E+02  0.55163506436E+02  0.51100000000E-03 0.  1.
         23    2    1    0    0    0 -0.93781678035E+01  0.17339115983E+02  0.22144327976E+02  0.95352635261E+02  0.90626479658E+02 0.  0.
         11    1    3    3    0    0 -0.13084827120E+02 -0.36482014301E+02  0.10630898703E+02  0.40189128825E+02  0.51100000000E-03 0. -1.
         22    1    1    0    0    0  0.93781678035E+01 -0.17339115983E+02 -0.22144327976E+02  0.29647364739E+02  0.00000000000E+00 0.  1.
</event>
<event>
 5    1  0.1282524E-003  0.9118800E+02  0.7818608E-02  0.1130116E+00
         25   -1    0    0    0    0  0.00000000000E+00  0.00000000000E+00  0.99999998245E-14  0.12500000000E+03  0.12500000000E+03 0.  0.
        -11    1    3    3    0    0 -0.14602225360E+02  0.56595723238E+01  0.29982689400E+02  0.33826282803E+02  0.51100000000E-03 0.  1.
         23    2    1    0    0    0  0.11724107606E+02 -0.12941794437E+02 -0.23167933435E+02  0.95987970046E+02  0.91498592948E+02 0.  0.
         11    1    3    3    0    0  0.26326332967E+02 -0.18601366761E+02 -0.53150622835E+02  0.62161687243E+02  0.51100000000E-03 0. -1.
         22    1    1    0    0    0 -0.11724107606E+02  0.12941794437E+02  0.23167933435E+02  0.29012029954E+02  0.00000000000E+00 0. -1.
</event>
<event>
 5    1  0.1282524E-003  0.9118800E+02  0.7818608E-02  0.1130116E+00
         25   -1    0    0    0    0  0.00000000000E+00  0.00000000000E+00  0.99999998245E-14  0.12500000000E+03  0.12500000000E+03 0.  0.
        -11    1    3    3    0    0 -0.15068120460E+02 -0.24555974517E+02 -0.26276549838E+02  0.38993604736E+02  0.51100000000E-03 0.  1.
         23    2    1    0    0    0  0.17124708590E+02  0.20360330944E+02 -0.95944627424E+01  0.96718337465E+02  0.92490996136E+02 0.  0.
         11    1    3    3    0    0  0.32192829050E+02  0.44916305461E+02  0.16682087096E+02  0.57724732729E+02  0.51100000000E-03 0. -1.
         22    1    1    0    0    0 -0.17124708590E+02 -0.20360330944E+02  0.95944627424E+01  0.28281662535E+02  0.00000000000E+00 0. -1.
</event>
<event>
 5    1  0.1282524E-003  0.9118800E+02  0.7818608E-02  0.1130116E+00
         25   -1    0    0    0    0  0.00000000000E+00  0.00000000000E+00  0.99999998245E-14  0.12500000000E+03  0.12500000000E+03 0.  0.
        -11    1    3    3    0    0  0.20845598472E+02 -0.16915928106E+02 -0.47994696235E+02  0.54992531005E+02  0.51100000000E-03 0.  1.
         23    2    1    0    0    0 -0.81064045977E+01  0.32723595970E+01 -0.28234484018E+02  0.95443135813E+02  0.90751220119E+02 0.  0.
         11    1    3    3    0    0 -0.28952003070E+02  0.20188287703E+02  0.19760212217E+02  0.40450604807E+02  0.51100000000E-03 0. -1.
         22    1    1    0    0    0  0.81064045977E+01 -0.32723595970E+01  0.28234484018E+02  0.29556864187E+02  0.00000000000E+00 0.  1.
</event>
<event>
 5    1  0.1282524E-003  0.9118800E+02  0.7818608E-02  0.1130116E+00
         25   -1    0    0    0    0  0.00000000000E+00  0.00000000000E+00  0.99999998245E-14  0.12500000000E+03  0.12500000000E+03 0.  0.
        -11    1    3    3    0    0  0.27100558617E+02 -0.19076047588E+02  0.40143233749E+01  0.33383389003E+02  0.51100000000E-03 0. -1.
         23    2    1    0    0    0 -0.29484664036E+02  0.33071226462E+01 -0.50421983315E+01  0.94905046312E+02  0.90007008493E+02 0.  0.
         11    1    3    3    0    0 -0.56585222652E+02  0.22383170234E+02 -0.90565217063E+01  0.61521657309E+02  0.51100000000E-03 0.  1.
         22    1    1    0    0    0  0.29484664036E+02 -0.33071226462E+01  0.50421983315E+01  0.30094953688E+02  0.00000000000E+00 0.  1.
</event>
<event>
 5    1  0.1282524E-003  0.9118800E+02  0.7818608E-02  0.1130116E+00
         25   -1    0    0    0    0  0.00000000000E+00  0.00000000000E+00  0.99999998245E-14  0.12500000000E+03  0.12500000000E+03 0.  0.
        -11    1    3    3    0    0  0.19089033158E+02  0.38014559120E+02 -0.18070123536E+02  0.46217174913E+02  0.51100000000E-03 0.  1.
         23    2    1    0    0    0  0.37052572720E+01 -0.84543184401E+01 -0.27434727430E+02  0.96054038263E+02  0.91588806989E+02 0.  0.
         11    1    3    3    0    0 -0.15383775886E+02 -0.46468877560E+02 -0.93646038937E+01  0.49836863350E+02  0.51100000000E-03 0. -1.
         22    1    1    0    0    0 -0.37052572720E+01  0.84543184401E+01  0.27434727430E+02  0.28945961737E+02  0.00000000000E+00 0. -1.
</event>
<event>
 5    1  0.1282524E-003  0.9118800E+02  0.7818608E-02  0.1130116E+00
         25   -1    0    0    0    0  0.00000000000E+00  0.00000000000E+00  0.99999998245E-14  0.12500000000E+03  0.12500000000E+03 0.  0.
        -11    1    3    3    0    0  0.94590346597E+01 -0.31544978307E+02  0.35552039779E+02  0.48461392115E+02  0.51100000000E-03 0. -1.
         23    2    1    0    0    0 -0.77354967429E+01  0.77641302648E+01  0.31605966866E+02  0.91547694098E+02  0.85216920412E+02 0.  0.
         11    1    3    3    0    0 -0.17194531403E+02  0.39309108571E+02 -0.39460729124E+01  0.43086301983E+02  0.51100000000E-03 0.  1.
         22    1    1    0    0    0  0.77354967429E+01 -0.77641302648E+01 -0.31605966866E+02  0.33452305902E+02  0.00000000000E+00 0.  1.
</event>
<event>
 5    1  0.1282524E-003  0.9118800E+02  0.7818608E-02  0.1130116E+00
         25   -1    0    0    0    0  0.00000000000E+00  0.00000000000E+00  0.99999998245E-14  0.12500000000E+03  0.12500000000E+03 0.  0.
        -11    1    3    3    0    0 -0.70053535113E-01 -0.35824406167E+02  0.23422979132E+01  0.35900965788E+02  0.51100000000E-03 0. -1.
         23    2    1    0    0    0 -0.44423409858E+01  0.18199360422E+02 -0.22667322662E+02  0.95593221362E+02  0.90957711825E+02 0.  0.
         11    1    3    3    0    0 -0.43722874506E+01  0.54023766589E+02 -0.25009620575E+02  0.59692255574E+02  0.51100000000E-03 0.  1.
         22    1    1    0    0    0  0.44423409858E+01 -0.18199360422E+02  0.22667322662E+02  0.29406778638E+02  0.00000000000E+00 0.  1.
</event>
<event>
 5    1  0.1282524E-003  0.9118800E+02  0.7818608E-02  0.1130116E+00
         25   -1    0    0    0    0  0.00000000000E+00  0.00000000000E+00  0.99999998245E-14  0.12500000000E+03  0.12500000000E+03 0.  0.
        -11    1    3    3    0    0  0.52920831811E+02  0.77774314163E+01  0.27799776727E-01  0.53489285395E+02  0.51100000000E-03 0.  1.
         23    2    1    0    0    0  0.17587313011E+02  0.63740012794E+00  0.22853146044E+02  0.96155830017E+02  0.91727626724E+02 0.  0.
         11    1    3    3    0    0 -0.35333518799E+02 -0.71400312884E+01  0.22825346267E+02  0.42666544623E+02  0.51100000000E-03 0. -1.
         22    1    1    0    0    0 -0.17587313011E+02 -0.63740012794E+00 -0.22853146044E+02  0.28844169983E+02  0.00000000000E+00 0.  1.
</event>
<event>
 4    1  0.1282524E-003  0.9118800E+02  0.7818608E-02  0.1130116E+00
         25   -1    0    0    0    0  0.00000000000E+00  0.00000000000E+00  0.99999998245E-14  0.12500000000E+03  0.12500000000E+03 0.  0.
        -11    1    1    0    0    0  0.31289889412E+02  0.46782170036E+02 -0.16942061420E+02  0.58776373298E+02  0.51100000000E-03 0.  1.
         11    1    1    0    0    0  0.54592346167E+01 -0.12732342347E+02  0.24257660567E+01  0.14064143254E+02  0.51100000000E-03 0. -1.
         22    1    1    0    0    0 -0.36749124028E+02 -0.34049827689E+02  0.14516295363E+02  0.52159483448E+02  0.00000000000E+00 0.  1.
</event>
<event>
 5    1  0.1282524E-003  0.9118800E+02  0.7818608E-02  0.1130116E+00
         25   -1    0    0    0    0  0.00000000000E+00  0.00000000000E+00  0.99999998245E-14  0.12500000000E+03  0.12500000000E+03 0.  0.
        -11    1    3    3    0    0  0.59019369017E+02  0.56369024385E+01  0.11740688766E+02  0.60439261753E+02  0.51100000000E-03 0. -1.
         23    2    1    0    0    0  0.34618464124E+02 -0.69803106986E+01  0.11328471377E+02  0.87912305821E+02  0.79706188312E+02 0.  0.
         11    1    3    3    0    0 -0.24400904893E+02 -0.12617213137E+02 -0.41221738842E+00  0.27473044068E+02  0.51100000000E-03 0.  1.
         22    1    1    0    0    0 -0.34618464124E+02  0.69803106986E+01 -0.11328471377E+02  0.37087694179E+02  0.00000000000E+00 0. -1.
</event>
<event>
 5    1  0.1282524E-003  0.9118800E+02  0.7818608E-02  0.1130116E+00
         25   -1    0    0    0    0  0.00000000000E+00  0.00000000000E+00  0.99999998245E-14  0.12500000000E+03  0.12500000000E+03 0.  0.
        -11    1    3    3    0    0 -0.90210437645E+01  0.19945095445E+02 -0.36875008497E+02  0.42883007297E+02  0.51100000000E-03 0.  1.
         23    2    1    0    0    0  0.10347392882E+02 -0.23561443749E+02 -0.13740699746E+02  0.95827804325E+02  0.91279521698E+02 0.  0.
         11    1    3    3    0    0  0.19368436646E+02 -0.43506539194E+02  0.23134308751E+02  0.52944797028E+02  0.51100000000E-03 0. -1.
         22    1    1    0    0    0 -0.10347392882E+02  0.23561443749E+02  0.13740699746E+02  0.29172195675E+02  0.00000000000E+00 0.  1.
</event>
<event>
 5    1  0.1282524E-003  0.9118800E+02  0.7818608E-02  0.1130116E+00
         25   -1    0    0    0    0  0.00000000000E+00  0.00000000000E+00  0.99999998245E-14  0.12500000000E+03  0.12500000000E+03 0.  0.
        -11    1    3    3    0    0 -0.12769070221E+02 -0.15806553561E+02 -0.56458501701E+02  0.60003822415E+02  0.51100000000E-03 0. -1.
         23    2    1    0    0    0 -0.40677877665E+00 -0.17411073109E+02 -0.20288566849E+02  0.98261696379E+02  0.94553815865E+02 0.  0.
         11    1    3    3    0    0  0.12362291445E+02 -0.16045195478E+01  0.36169934853E+02  0.38257873964E+02  0.51100000000E-03 0.  1.
         22    1    1    0    0    0  0.40677877665E+00  0.17411073109E+02  0.20288566849E+02  0.26738303621E+02  0.00000000000E+00 0. -1.
</event>
<event>
 5    1  0.1282524E-003  0.9118800E+02  0.7818608E-02  0.1130116E+00
         25   -1    0    0    0    0  0.00000000000E+00  0.00000000000E+00  0.99999998245E-14  0.12500000000E+03  0.12500000000E+03 0.  0.
        -11    1    3    3    0    0 -0.30158778837E+02  0.38327302799E+02 -0.38110622472E+02  0.61894697885E+02  0.51100000000E-03 0. -1.
         23    2    1    0    0    0 -0.12059946799E+02  0.21966985980E+02 -0.13557865212E+02  0.96507781782E+02  0.92205994629E+02 0.  0.
         11    1    3    3    0    0  0.18098832038E+02 -0.16360316819E+02  0.24552757260E+02  0.34613083897E+02  0.51100000000E-03 0.  1.
         22    1    1    0    0    0  0.12059946799E+02 -0.21966985980E+02  0.13557865212E+02  0.28492218218E+02  0.00000000000E+00 0. -1.
</event>
<event>
 5    1  0.1282524E-003  0.9118800E+02  0.7818608E-02  0.1130116E+00
         25   -1    0    0    0    0  0.00000000000E+00  0.00000000000E+00  0.99999998245E-14  0.12500000000E+03  0.12500000000E+03 0.  0.
        -11    1    3    3    0    0 -0.50614489093E+01  0.36371694020E+02 -0.19091855415E+02  0.41388613583E+02  0.51100000000E-03 0.  1.
         23    2    1    0    0    0 -0.24323686277E+02  0.17778039701E+01  0.17245317291E+02  0.95130228164E+02  0.90319195307E+02 0.  0.
         11    1    3    3    0    0 -0.19262237368E+02 -0.34593890049E+02  0.36337172706E+02  0.53741614580E+02  0.51100000000E-03 0. -1.
         22    1    1    0    0    0  0.24323686277E+02 -0.17778039701E+01 -0.17245317291E+02  0.29869771836E+02  0.00000000000E+00 0. -1.
</event>
<event>
 4    1  0.1282524E-003  0.9118800E+02  0.7818608E-02  0.1130116E+00
         25   -1    0    0    0    0  0.00000000000E+00  0.00000000000E+00  0.99999998245E-14  0.12500000000E+03  0.12500000000E+03 0.  0.
        -11    1    1    0    0    0 -0.91733914004E+01  0.79331411787E+00 -0.62621125105E+01  0.11135282234E+02  0.51100000000E-03 0. -1.
         11    1    1    0    0    0  0.36809444537E+02 -0.43445129112E+02 -0.14826119095E+02  0.58840702395E+02  0.51100000000E-03 0.  1.
         22    1    1    0    0    0 -0.27636053137E+02  0.42651814994E+02  0.21088231605E+02  0.55024015371E+02  0.00000000000E+00 0.  1.
</event>
<event>
 5    1  0.1282524E-003  0.9118800E+02  0.7818608E-02  0.1130116E+00
         25   -1    0    0    0    0  0.00000000000E+00  0.00000000000E+00  0.99999998245E-14  0.12500000000E+03  0.12500000000E+03 0.  0.
        -11    1    3    3    0    0  0.29008435266E+02 -0.17470418514E+02 -0.49514132296E+02  0.59986282906E+02  0.51100000000E-03 0.  1.
         23    2    1    0    0    0  0.56085966897E+01 -0.17820229832E+02 -0.23526206212E+02  0.94958373433E+02  0.90081037728E+02 0.  0.
         11    1    3    3    0    0 -0.23399838577E+02 -0.34981131845E+00  0.25987926084E+02  0.34972090526E+02  0.51100000000E-03 0. -1.
         22    1    1    0    0    0 -0.56085966897E+01  0.17820229832E+02  0.23526206212E+02  0.30041626567E+02  0.00000000000E+00 0.  1.
</event>
<event>
 5    1  0.1282524E-003  0.9118800E+02  0.7818608E-02  0.1130116E+00
         25   -1    0    0    0    0  0.00000000000E+00  0.00000000000E+00  0.99999998245E-14  0.12500000000E+03  0.12500000000E+03 0.  0.
        -11    1    3    3    0    0  0.59008232601E+01 -0.12800504015E+02 -0.43191769399E+02  0.45433485033E+02  0.51100000000E-03 0.  1.
         23    2    1    0    0    0 -0.10904815657E+01 -0.30290505177E+02  0.22321649147E+01  0.94607790240E+02  0.89593233896E+02 0.  0.
         11    1    3    3    0    0 -0.69913048259E+01 -0.17490001162E+02  0.45423934313E+02  0.49174305207E+02  0.51100000000E-03 0. -1.
         22    1    1    0    0    0  0.10904815657E+01  0.30290505177E+02 -0.22321649147E+01  0.30392209760E+02  0.00000000000E+00 0. -1.
</event>
<event>
 5    1  0.1282524E-003  0.9118800E+02  0.7818608E-02  0.1130116E+00
         25   -1    0    0    0    0  0.00000000000E+00  0.00000000000E+00  0.99999998245E-14  0.12500000000E+03  0.12500000000E+03 0.  0.
        -11    1    3    3    0    0 -0.15290071431E+02  0.61729930761E+01 -0.21692236590E+02  0.27247848657E+02  0.51100000000E-03 0.  1.
         23    2    1    0    0    0  0.29739676107E+02  0.28562611374E+02  0.37299473516E+01  0.83597299476E+02  0.72624547289E+02 0.  0.
         11    1    3    3    0    0  0.45029747539E+02  0.22389618298E+02  0.25422183941E+02  0.56349450819E+02  0.51100000000E-03 0. -1.
         22    1    1    0    0    0 -0.29739676107E+02 -0.28562611374E+02 -0.37299473516E+01  0.41402700524E+02  0.00000000000E+00 0. -1.
</event>
<event>
 5    1  0.1282524E-003  0.9118800E+02  0.7818608E-02  0.1130116E+00
         25   -1    0    0    0    0  0.00000000000E+00  0.00000000000E+00  0.99999998245E-14  0.12500000000E+03  0.12500000000E+03 0.  0.
        -11    1    3    3    0    0 -0.26105069720E+02 -0.19154759048E+02 -0.30005004296E+02  0.44143852826E+02  0.51100000000E-03 0.  1.
         23    2    1    0    0    0 -0.91534725602E+01  0.25542350459E+02 -0.13303868193E+02  0.94780955744E+02  0.89834508603E+02 0.  0.
         11    1    3    3    0    0  0.16951597160E+02  0.44697109507E+02  0.16701136103E+02  0.50637102918E+02  0.51100000000E-03 0. -1.
         22    1    1    0    0    0  0.91534725602E+01 -0.25542350459E+02  0.13303868193E+02  0.30219044256E+02  0.00000000000E+00 0.  1.
</event>
<event>
 5    1  0.1282524E-003  0.9118800E+02  0.7818608E-02  0.1130116E+00
         25   -1    0    0    0    0  0.00000000000E+00  0.00000000000E+00  0.99999998245E-14  0.12500000000E+03  0.12500000000E+03 0.  0.
        -11    1    3    3    0    0 -0.72454860576E+01  0.14062292492E+02  0.43410506394E+02  0.46202999946E+02  0.51100000000E-03 0.  1.
         23    2    1    0    0    0  0.24144120348E+02 -0.10016063400E+02  0.18935073206E+02  0.92723118634E+02  0.86923987820E+02 0.  0.
         11    1    3    3    0    0  0.31389606405E+02 -0.24078355892E+02 -0.24475433188E+02  0.46520118688E+02  0.51100000000E-03 0. -1.
         22    1    1    0    0    0 -0.24144120348E+02  0.10016063400E+02 -0.18935073206E+02  0.32276881366E+02  0.00000000000E+00 0.  1.
</event>
<event>
 5    1  0.1282524E-003  0.9118800E+02  0.7818608E-02  0.1130116E+00
         25   -1    0    0    0    0  0.00000000000E+00  0.00000000000E+00  0.99999998245E-14  0.12500000000E+03  0.12500000000E+03 0.  0.
        -11    1    3    3    0    0 -0.30414490651E+02 -0.62405792411E+01 -0.29167614736E+01  0.31184829142E+02  0.51100000000E-03 0.  1.
         23    2    1    0    0    0  0.28665528237E+02 -0.88485863186E+01  0.12812381378E+02  0.92378425766E+02  0.86426884946E+02 0.  0.
         11    1    3    3    0    0  0.59080018888E+02 -0.26080070775E+01  0.15729142851E+02  0.61193596624E+02  0.51100000000E-03 0. -1.
         22    1    1    0    0    0 -0.28665528237E+02  0.88485863186E+01 -0.12812381378E+02  0.32621574234E+02  0.00000000000E+00 0. -1.
</event>
<event>
 5    1  0.1282524E-003  0.9118800E+02  0.7818608E-02  0.1130116E+00
         25   -1    0    0    0    0  0.00000000000E+00  0.00000000000E+00  0.99999998245E-14  0.12500000000E+03  0.12500000000E+03 0.  0.
        -11    1    3    3    0    0 -0.11016848835E+02  0.24457578763E+02  0.90134619069E+01  0.28298173315E+02  0.51100000000E-03 0.  1.
         23    2    1    0    0    0  0.17496280137E+02 -0.29778503344E+02  0.78373800979E+01  0.89583851044E+02  0.82285860031E+02 0.  0.
         11    1    3    3    0    0  0.28513128972E+02 -0.54236082107E+02 -0.11760818090E+01  0.61285677729E+02  0.51100000000E-03 0. -1.
         22    1    1    0    0    0 -0.17496280137E+02  0.29778503344E+02 -0.78373800979E+01  0.35416148956E+02  0.00000000000E+00 0. -1.
</event>
<event>
 5    1  0.1282524E-003  0.9118800E+02  0.7818608E-02  0.1130116E+00
         25   -1    0    0    0    0  0.00000000000E+00  0.00000000000E+00  0.99999998245E-14  0.12500000000E+03  0.12500000000E+03 0.  0.
        -11    1    3    3    0    0 -0.15157686945E+02  0.37780603333E+02  0.45253692892E+02  0.60868926246E+02  0.51100000000E-03 0. -1.
         23    2    1    0    0    0 -0.55114840361E+00  0.12341246976E+02  0.26705794403E+02  0.95575357331E+02  0.90933158599E+02 0.  0.
         11    1    3    3    0    0  0.14606538541E+02 -0.25439356357E+02 -0.18547898489E+02  0.34706431085E+02  0.51100000000E-03 0.  1.
         22    1    1    0    0    0  0.55114840361E+00 -0.12341246976E+02 -0.26705794403E+02  0.29424642669E+02  0.00000000000E+00 0. -1.
</event>
<event>
 5    1  0.1282524E-003  0.9118800E+02  0.7818608E-02  0.1130116E+00
         25   -1    0    0    0    0  0.00000000000E+00  0.00000000000E+00  0.99999998245E-14  0.12500000000E+03  0.12500000000E+03 0.  0.
        -11    1    3    3    0    0 -0.45595067025E+01 -0.45008523997E+00 -0.43059599634E+02  0.43302665034E+02  0.51100000000E-03 0. -1.
         23    2    1    0    0    0  0.31410392522E+02 -0.10515995585E+01 -0.10386739014E+02  0.91900106233E+02  0.85732295888E+02 0.  0.
         11    1    3    3    0    0  0.35969899225E+02 -0.60151431851E+00  0.32672860621E+02  0.48597441199E+02  0.51100000000E-03 0.  1.
         22    1    1    0    0    0 -0.31410392522E+02  0.10515995585E+01  0.10386739014E+02  0.33099893767E+02  0.00000000000E+00 0. -1.
</event>
<event>
 5    1  0.1282524E-003  0.9118800E+02  0.7818608E-02  0.1130116E+00
         25   -1    0    0    0    0  0.00000000000E+00  0.00000000000E+00  0.99999998245E-14  0.12500000000E+03  0.12500000000E+03 0.  0.
        -11    1    3    3    0    0 -0.39702921735E+02 -0.72914614750E+00  0.34104873834E+02  0.52344971754E+02  0.51100000000E-03 0.  1.
         23    2    1    0    0    0 -0.27872561648E+02 -0.20912108343E+02  0.48265881986E+01  0.89821996620E+02  0.82646833908E+02 0.  0.
         11    1    3    3    0    0  0.11830360087E+02 -0.20182962196E+02 -0.29278285636E+02  0.37477024866E+02  0.51100000000E-03 0. -1.
         22    1    1    0    0    0  0.27872561648E+02  0.20912108343E+02 -0.48265881986E+01  0.35178003380E+02  0.00000000000E+00 0. -1.
</event>
<event>
 5    1  0.1282524E-003  0.9118800E+02  0.7818608E-02  0.1130116E+00
         25   -1    0    0    0    0  0.00000000000E+00  0.00000000000E+00  0.99999998245E-14  0.12500000000E+03  0.12500000000E+03 0.  0.
        -11    1    3    3    0    0 -0.54634867479E+02  0.15253332992E+02  0.94437599633E+01  0.57504934695E+02  0.51100000000E-03 0. -1.
         23    2    1    0    0    0 -0.31800452392E+02 -0.39349915884E+01 -0.78869255879E+01  0.92000658698E+02  0.85878778953E+02 0.  0.
         11    1    3    3    0    0  0.22834415087E+02 -0.19188324580E+02 -0.17330685551E+02  0.34495724003E+02  0.51100000000E-03 0.  1.
         22    1    1    0    0    0  0.31800452392E+02  0.39349915884E+01  0.78869255879E+01  0.32999341302E+02  0.00000000000E+00 0. -1.
</event>
<event>
 5    1  0.1282524E-003  0.9118800E+02  0.7818608E-02  0.1130116E+00
         25   -1    0    0    0    0  0.00000000000E+00  0.00000000000E+00  0.99999998245E-14  0.12500000000E+03  0.12500000000E+03 0.  0.
        -11    1    3    3    0    0 -0.16410292020E+02 -0.29229110198E+02  0.95117010317E+01  0.34844095969E+02  0.51100000000E-03 0.  1.
         23    2    1    0    0    0  0.13400318889E+02  0.18076023471E+02 -0.17070851870E+02  0.96755971350E+02  0.92541843711E+02 0.  0.
         11    1    3    3    0    0  0.29810610909E+02  0.47305133668E+02 -0.26582552902E+02  0.61911875381E+02  0.51100000000E-03 0. -1.
         22    1    1    0    0    0 -0.13400318889E+02 -0.18076023471E+02  0.17070851870E+02  0.28244028650E+02  0.00000000000E+00 0. -1.
</event>
<event>
 5    1  0.1282524E-003  0.9118800E+02  0.7818608E-02  0.1130116E+00
         25   -1    0    0    0    0  0.00000000000E+00  0.00000000000E+00  0.99999998245E-14  0.12500000000E+03  0.12500000000E+03 0.  0.
        -11    1    3    3    0    0 -0.21746534818E+02 -0.97824100000E+01 -0.24067515504E+02  0.33879973801E+02  0.51100000000E-03 0.  1.
         23    2    1    0    0    0 -0.12747960460E+02  0.39522455147E+01  0.30949686885E+02  0.91295195316E+02  0.84845735479E+02 0.  0.
         11    1    3    3    0    0  0.89985743575E+01  0.13734655515E+02  0.55017202389E+02  0.57415221514E+02  0.51100000000E-03 0. -1.
         22    1    1    0    0    0  0.12747960460E+02 -0.39522455147E+01 -0.30949686885E+02  0.33704804684E+02  0.00000000000E+00 0. -1.
</event>
<event>
 5    1  0.1282524E-003  0.9118800E+02  0.7818608E-02  0.1130116E+00
         25   -1    0    0    0    0  0.00000000000E+00  0.00000000000E+00  0.99999998245E-14  0.12500000000E+03  0.12500000000E+03 0.  0.
        -11    1    3    3    0    0  0.33195573462E+02 -0.33772352274E+01 -0.17725971860E+02  0.37783090052E+02  0.51100000000E-03 0.  1.
         23    2    1    0    0    0 -0.19200503279E+02 -0.22028480000E+02 -0.10875234981E+02  0.93820134812E+02  0.88487477661E+02 0.  0.
         11    1    3    3    0    0 -0.52396076740E+02 -0.18651244773E+02  0.68507368790E+01  0.56037044760E+02  0.51100000000E-03 0. -1.
         22    1    1    0    0    0  0.19200503279E+02  0.22028480000E+02  0.10875234981E+02  0.31179865188E+02  0.00000000000E+00 0. -1.
</event>
<event>
 5    1  0.1282524E-003  0.9118800E+02  0.7818608E-02  0.1130116E+00
         25   -1    0    0    0    0  0.00000000000E+00  0.00000000000E+00  0.99999998245E-14  0.12500000000E+03  0.12500000000E+03 0.  0.
        -11    1    3    3    0    0  0.12885793355E+01 -0.27710469941E+02 -0.21920852080E+02  0.35356107496E+02  0.51100000000E-03 0. -1.
         23    2    1    0    0    0 -0.35721467970E+01  0.24425554058E+02  0.11802546011E+02  0.97638201519E+02  0.93725932270E+02 0.  0.
         11    1    3    3    0    0 -0.48607261324E+01  0.52136023999E+02  0.33723398090E+02  0.62282094024E+02  0.51100000000E-03 0.  1.
         22    1    1    0    0    0  0.35721467970E+01 -0.24425554058E+02 -0.11802546011E+02  0.27361798481E+02  0.00000000000E+00 0.  1.
</event>
<event>
 5    1  0.1282524E-003  0.9118800E+02  0.7818608E-02  0.1130116E+00
         25   -1    0    0    0    0  0.00000000000E+00  0.00000000000E+00  0.99999998245E-14  0.12500000000E+03  0.12500000000E+03 0.  0.
        -11    1    3    3    0    0 -0.46051439696E+02 -0.33029544102E+01 -0.98290685567E+01  0.47204398046E+02  0.51100000000E-03 0. -1.
         23    2    1    0    0    0  0.14432817763E+01 -0.19095468904E+02 -0.18925905752E+02  0.98075849066E+02  0.94307805969E+02 0.  0.
         11    1    3    3    0    0  0.47494721472E+02 -0.15792514494E+02 -0.90968371951E+01  0.50871451021E+02  0.51100000000E-03 0.  1.
         22    1    1    0    0    0 -0.14432817763E+01  0.19095468904E+02  0.18925905752E+02  0.26924150934E+02  0.00000000000E+00 0. -1.
</event>
<event>
 5    1  0.1282524E-003  0.9118800E+02  0.7818608E-02  0.1130116E+00
         25   -1    0    0    0    0  0.00000000000E+00  0.00000000000E+00  0.99999998245E-14  0.12500000000E+03  0.12500000000E+03 0.  0.
        -11    1    3    3    0    0 -0.24946611384E+02  0.41674868540E+01  0.52880167688E+02  0.58617518723E+02  0.51100000000E-03 0.  1.
         23    2    1    0    0    0 -0.12928746845E+02 -0.13430385281E+02  0.21585001660E+02  0.96479129739E+02  0.92167144009E+02 0.  0.
         11    1    3    3    0    0  0.12017864540E+02 -0.17597872135E+02 -0.31295166028E+02  0.37861611017E+02  0.51100000000E-03 0. -1.
         22    1    1    0    0    0  0.12928746845E+02  0.13430385281E+02 -0.21585001660E+02  0.28520870261E+02  0.00000000000E+00 0.  1.
</event>
<event>
 5    1  0.1282524E-003  0.9118800E+02  0.7818608E-02  0.1130116E+00
         25   -1    0    0    0    0  0.00000000000E+00  0.00000000000E+00  0.99999998245E-14  0.12500000000E+03  0.12500000000E+03 0.  0.
        -11    1    3    3    0    0  0.31983476254E+02  0.48115602710E+02 -0.14395223007E+02  0.59542223868E+02  0.51100000000E-03 0. -1.
         23    2    1    0    0    0  0.32199187301E+01  0.27640470254E+02 -0.11234901152E+02  0.94990226986E+02  0.90125228135E+02 0.  0.
         11    1    3    3    0    0 -0.28763557524E+02 -0.20475132457E+02  0.31603218552E+01  0.35448003118E+02  0.51100000000E-03 0.  1.
         22    1    1    0    0    0 -0.32199187301E+01 -0.27640470254E+02  0.11234901152E+02  0.30009773014E+02  0.00000000000E+00 0. -1.
</event>
<event>
 5    1  0.1282524E-003  0.9118800E+02  0.7818608E-02  0.1130116E+00
         25   -1    0    0    0    0  0.00000000000E+00  0.00000000000E+00  0.99999998245E-14  0.12500000000E+03  0.12500000000E+03 0.  0.
        -11    1    3    3    0    0 -0.30758719163E+02 -0.30757378541E+02  0.38363896789E+02  0.57999169963E+02  0.51100000000E-03 0.  1.
         23    2    1    0    0    0 -0.58155114622E+01 -0.27041315162E+02  0.10940373589E+02  0.95255342101E+02  0.90492184884E+02 0.  0.
         11    1    3    3    0    0  0.24943207700E+02  0.37160633784E+01 -0.27423523200E+02  0.37256172138E+02  0.51100000000E-03 0. -1.
         22    1    1    0    0    0  0.58155114622E+01  0.27041315162E+02 -0.10940373589E+02  0.29744657899E+02  0.00000000000E+00 0.  1.
</event>
<event>
 5    1  0.1282524E-003  0.9118800E+02  0.7818608E-02  0.1130116E+00
         25   -1    0    0    0    0  0.00000000000E+00  0.00000000000E+00  0.99999998245E-14  0.12500000000E+03  0.12500000000E+03 0.  0.
        -11    1    3    3    0    0  0.23150425503E+02 -0.32068608927E+01  0.43368975990E+02  0.49265548170E+02  0.51100000000E-03 0. -1.
         23    2    1    0    0    0 -0.76985121697E+01  0.21237694334E+02  0.18266404249E+02  0.95948867932E+02  0.91445158335E+02 0.  0.
         11    1    3    3    0    0 -0.30848937673E+02  0.24444555227E+02 -0.25102571741E+02  0.46683319762E+02  0.51100000000E-03 0.  1.
         22    1    1    0    0    0  0.76985121697E+01 -0.21237694334E+02 -0.18266404249E+02  0.29051132068E+02  0.00000000000E+00 0. -1.
</event>
<event>
 5    1  0.1282524E-003  0.9118800E+02  0.7818608E-02  0.1130116E+00
         25   -1    0    0    0    0  0.00000000000E+00  0.00000000000E+00  0.99999998245E-14  0.12500000000E+03  0.12500000000E+03 0.  0.
        -11    1    3    3    0    0  0.32589410433E+02 -0.51431791890E+01 -0.19115510765E+02  0.38130364758E+02  0.51100000000E-03 0.  1.
         23    2    1    0    0    0 -0.14105672341E+02  0.23602309622E+02  0.31740780509E+01  0.97321239494E+02  0.93302250099E+02 0.  0.
         11    1    3    3    0    0 -0.46695082773E+02  0.28745488811E+02  0.22289588816E+02  0.59190874736E+02  0.51100000000E-03 0. -1.
         22    1    1    0    0    0  0.14105672341E+02 -0.23602309622E+02 -0.31740780509E+01  0.27678760506E+02  0.00000000000E+00 0. -1.
</event>
<event>
 5    1  0.1282524E-003  0.9118800E+02  0.7818608E-02  0.1130116E+00
         25   -1    0    0    0    0  0.00000000000E+00  0.00000000000E+00  0.99999998245E-14  0.12500000000E+03  0.12500000000E+03 0.  0.
        -11    1    3    3    0    0  0.69345286717E+01  0.39106221232E+02 -0.19659321245E+02  0.44315608300E+02  0.51100000000E-03 0.  1.
         23    2    1    0    0    0 -0.43284837523E+01  0.11575172222E+02  0.24500397606E+02  0.97559339177E+02  0.93620696399E+02 0.  0.
         11    1    3    3    0    0 -0.11263012424E+02 -0.27531049009E+02  0.44159718851E+02  0.53243730877E+02  0.51100000000E-03 0. -1.
         22    1    1    0    0    0  0.43284837523E+01 -0.11575172222E+02 -0.24500397606E+02  0.27440660823E+02  0.00000000000E+00 0. -1.
</event>
<event>
 5    1  0.1282524E-003  0.9118800E+02  0.7818608E-02  0.1130116E+00
         25   -1    0    0    0    0  0.00000000000E+00  0.00000000000E+00  0.99999998245E-14  0.12500000000E+03  0.12500000000E+03 0.  0.
        -11    1    3    3    0    0  0.52925335862E+02  0.18518992435E+02 -0.11653212857E+02  0.57269901581E+02  0.51100000000E-03 0. -1.
         23    2    1    0    0    0  0.26604624535E+02 -0.89736213293E+01 -0.54921038775E+00  0.96917379779E+02  0.92759608369E+02 0.  0.
         11    1    3    3    0    0 -0.26320711327E+02 -0.27492613765E+02  0.11104002469E+02  0.39647478198E+02  0.51100000000E-03 0.  1.
         22    1    1    0    0    0 -0.26604624535E+02  0.89736213293E+01  0.54921038775E+00  0.28082620221E+02  0.00000000000E+00 0. -1.
</event>
<event>
 5    1  0.1282524E-003  0.9118800E+02  0.7818608E-02  0.1130116E+00
         25   -1    0    0    0    0  0.00000000000E+00  0.00000000000E+00  0.99999998245E-14  0.12500000000E+03  0.12500000000E+03 0.  0.
        -11    1    3    3    0    0 -0.20878968122E+02  0.12153355935E+02 -0.54821977469E+02  0.59908969146E+02  0.51100000000E-03 0.  1.
         23    2    1    0    0    0 -0.20914928274E+02  0.78816765112E+00 -0.22037886568E+02  0.94607173917E+02  0.89592374001E+02 0.  0.
         11    1    3    3    0    0 -0.35960151297E-01 -0.11365188284E+02  0.32784090901E+02  0.34698204771E+02  0.51100000000E-03 0. -1.
         22    1    1    0    0    0  0.20914928274E+02 -0.78816765112E+00  0.22037886568E+02  0.30392826083E+02  0.00000000000E+00 0.  1.
</event>
<event>
 5    1  0.1282524E-003  0.9118800E+02  0.7818608E-02  0.1130116E+00
         25   -1    0    0    0    0  0.00000000000E+00  0.00000000000E+00  0.99999998245E-14  0.12500000000E+03  0.12500000000E+03 0.  0.
        -11    1    3    3    0    0 -0.36637941799E+02  0.16841962762E+02  0.11446271492E+02  0.41916674728E+02  0.51100000000E-03 0. -1.
         23    2    1    0    0    0  0.12616931737E+02  0.28841492808E+02  0.65248245366E+01  0.92850474201E+02  0.87106937440E+02 0.  0.
         11    1    3    3    0    0  0.49254873536E+02  0.11999530046E+02 -0.49214469551E+01  0.50933799473E+02  0.51100000000E-03 0.  1.
         22    1    1    0    0    0 -0.12616931737E+02 -0.28841492808E+02 -0.65248245366E+01  0.32149525799E+02  0.00000000000E+00 0.  1.
</event>
<event>
 5    1  0.1282524E-003  0.9118800E+02  0.7818608E-02  0.1130116E+00
         25   -1    0    0    0    0  0.00000000000E+00  0.00000000000E+00  0.99999998245E-14  0.12500000000E+03  0.12500000000E+03 0.  0.
        -11    1    3    3    0    0 -0.56473971472E+02  0.10883488652E+02  0.21498448230E+02  0.61399862016E+02  0.51100000000E-03 0. -1.
         23    2    1    0    0    0 -0.40939901575E+02  0.14527808047E+02  0.12153708521E+02  0.79890739549E+02  0.65936976631E+02 0.  0.
         11    1    3    3    0    0  0.15534069897E+02  0.36443193958E+01 -0.93447397090E+01  0.18490877532E+02  0.51100000000E-03 0.  1.
         22    1    1    0    0    0  0.40939901575E+02 -0.14527808047E+02 -0.12153708521E+02  0.45109260451E+02  0.00000000000E+00 0. -1.
</event>
<event>
 5    1  0.1282524E-003  0.9118800E+02  0.7818608E-02  0.1130116E+00
         25   -1    0    0    0    0  0.00000000000E+00  0.00000000000E+00  0.99999998245E-14  0.12500000000E+03  0.12500000000E+03 0.  0.
        -11    1    3    3    0    0 -0.97241074475E+00 -0.70225554027E+01  0.54855672425E+02  0.55311903461E+02  0.51100000000E-03 0. -1.
         23    2    1    0    0    0  0.12433829976E+02  0.13473357797E+02  0.20585261511E+02  0.97433997575E+02  0.93453193599E+02 0.  0.
         11    1    3    3    0    0  0.13406240720E+02  0.20495913200E+02 -0.34270410913E+02  0.42122094114E+02  0.51100000000E-03 0.  1.
         22    1    1    0    0    0 -0.12433829976E+02 -0.13473357797E+02 -0.20585261511E+02  0.27566002425E+02  0.00000000000E+00 0. -1.
</event>
<event>
 5    1  0.1282524E-003  0.9118800E+02  0.7818608E-02  0.1130116E+00
         25   -1    0    0    0    0  0.00000000000E+00  0.00000000000E+00  0.99999998245E-14  0.12500000000E+03  0.12500000000E+03 0.  0.
        -11    1    3    3    0    0 -0.31259522129E+02  0.25124441508E+02 -0.56997138898E+01  0.40507802008E+02  0.51100000000E-03 0.  1.
         23    2    1    0    0    0 -0.14222852025E+02 -0.20038420025E+02  0.18249235651E+02  0.94391791972E+02  0.89291365725E+02 0.  0.
         11    1    3    3    0    0  0.17036670104E+02 -0.45162861533E+02  0.23948949541E+02  0.53883989964E+02  0.51100000000E-03 0. -1.
         22    1    1    0    0    0  0.14222852025E+02  0.20038420025E+02 -0.18249235651E+02  0.30608208028E+02  0.00000000000E+00 0. -1.
</event>
<event>
 4    1  0.1282524E-003  0.9118800E+02  0.7818608E-02  0.1130116E+00
         25   -1    0    0    0    0  0.00000000000E+00  0.00000000000E+00  0.99999998245E-14  0.12500000000E+03  0.12500000000E+03 0.  0.
        -11    1    1    0    0    0  0.84910599048E+01  0.13819222685E+02  0.75012663615E+01  0.17870031092E+02  0.51100000000E-03 0.  1.
         11    1    1    0    0    0  0.32641454041E+02 -0.94623615577E+01 -0.41462820542E+02  0.53611251577E+02  0.51100000000E-03 0. -1.
         22    1    1    0    0    0 -0.41132513946E+02 -0.43568611276E+01  0.33961554181E+02  0.53518717331E+02  0.00000000000E+00 0. -1.
</event>
<event>
 5    1  0.1282524E-003  0.9118800E+02  0.7818608E-02  0.1130116E+00
         25   -1    0    0    0    0  0.00000000000E+00  0.00000000000E+00  0.99999998245E-14  0.12500000000E+03  0.12500000000E+03 0.  0.
        -11    1    3    3    0    0 -0.46999379876E+02 -0.24610204607E+02 -0.30280526260E+02  0.61086120767E+02  0.51100000000E-03 0. -1.
         23    2    1    0    0    0 -0.26672705972E+02 -0.21687074672E+02 -0.25572715039E+02  0.82154624448E+02  0.70097475789E+02 0.  0.
         11    1    3    3    0    0  0.20326673903E+02  0.29231299343E+01  0.47078112211E+01  0.21068503681E+02  0.51100000000E-03 0.  1.
         22    1    1    0    0    0  0.26672705972E+02  0.21687074672E+02  0.25572715039E+02  0.42845375552E+02  0.00000000000E+00 0. -1.
</event>
<event>
 5    1  0.1282524E-003  0.9118800E+02  0.7818608E-02  0.1130116E+00
         25   -1    0    0    0    0  0.00000000000E+00  0.00000000000E+00  0.99999998245E-14  0.12500000000E+03  0.12500000000E+03 0.  0.
        -11    1    3    3    0    0  0.39660955173E+02  0.13312134222E+02 -0.51412977249E+01  0.42150174678E+02  0.51100000000E-03 0. -1.
         23    2    1    0    0    0 -0.11472155820E+02  0.27087478232E+02 -0.53171225405E+01  0.95106629025E+02  0.90286528654E+02 0.  0.
         11    1    3    3    0    0 -0.51133110993E+02  0.13775344010E+02 -0.17582481568E+00  0.52956454348E+02  0.51100000000E-03 0.  1.
         22    1    1    0    0    0  0.11472155820E+02 -0.27087478232E+02  0.53171225405E+01  0.29893370975E+02  0.00000000000E+00 0.  1.
</event>
<event>
 5    1  0.1282524E-003  0.9118800E+02  0.7818608E-02  0.1130116E+00
         25   -1    0    0    0    0  0.00000000000E+00  0.00000000000E+00  0.99999998245E-14  0.12500000000E+03  0.12500000000E+03 0.  0.
        -11    1    3    3    0    0 -0.30120725968E+02  0.16001875106E+02  0.22877310349E+02  0.41069325156E+02  0.51100000000E-03 0. -1.
         23    2    1    0    0    0  0.11088872884E+02 -0.19693675797E+02  0.18551217530E+02  0.95760443915E+02  0.91187230349E+02 0.  0.
         11    1    3    3    0    0  0.41209598852E+02 -0.35695550902E+02 -0.43260928189E+01  0.54691118759E+02  0.51100000000E-03 0.  1.
         22    1    1    0    0    0 -0.11088872884E+02  0.19693675797E+02 -0.18551217530E+02  0.29239556085E+02  0.00000000000E+00 0.  1.
</event>
<event>
 5    1  0.1282524E-003  0.9118800E+02  0.7818608E-02  0.1130116E+00
         25   -1    0    0    0    0  0.00000000000E+00  0.00000000000E+00  0.99999998245E-14  0.12500000000E+03  0.12500000000E+03 0.  0.
        -11    1    3    3    0    0 -0.12061531426E+02  0.35935948574E+02  0.96277815524E+01  0.39109680619E+02  0.51100000000E-03 0.  1.
         23    2    1    0    0    0  0.93029858467E+01  0.98157753691E+01 -0.30557212491E+02  0.91583862776E+02  0.85269957746E+02 0.  0.
         11    1    3    3    0    0  0.21364517272E+02 -0.26120173204E+02 -0.40184994044E+02  0.52474182157E+02  0.51100000000E-03 0. -1.
         22    1    1    0    0    0 -0.93029858467E+01 -0.98157753691E+01  0.30557212491E+02  0.33416137224E+02  0.00000000000E+00 0. -1.
</event>
<event>
 5    1  0.1282524E-003  0.9118800E+02  0.7818608E-02  0.1130116E+00
         25   -1    0    0    0    0  0.00000000000E+00  0.00000000000E+00  0.99999998245E-14  0.12500000000E+03  0.12500000000E+03 0.  0.
        -11    1    3    3    0    0  0.42677383639E+01  0.28109588204E+02 -0.45613993036E+02  0.53749408376E+02  0.51100000000E-03 0.  1.
         23    2    1    0    0    0  0.22181747165E+02  0.15939726784E+02 -0.90883551429E+01  0.96212798044E+02  0.91805225946E+02 0.  0.
         11    1    3    3    0    0  0.17914008801E+02 -0.12169861420E+02  0.36525637893E+02  0.42463389668E+02  0.51100000000E-03 0. -1.
         22    1    1    0    0    0 -0.22181747165E+02 -0.15939726784E+02  0.90883551429E+01  0.28787201956E+02  0.00000000000E+00 0.  1.
</event>
<event>
 5    1  0.1282524E-003  0.9118800E+02  0.7818608E-02  0.1130116E+00
         25   -1    0    0    0    0  0.00000000000E+00  0.00000000000E+00  0.99999998245E-14  0.12500000000E+03  0.12500000000E+03 0.  0.
        -11    1    3    3    0    0 -0.12050399114E+02  0.32009032827E+02  0.34013435346E+02  0.48235921113E+02  0.51100000000E-03 0. -1.
         23    2    1    0    0    0 -0.24655961211E+02  0.10946258034E+02 -0.79717175195E+01  0.96870206748E+02  0.92696017643E+02 0.  0.
         11    1    3    3    0    0 -0.12605562097E+02 -0.21062774793E+02 -0.41985152865E+02  0.48634285634E+02  0.51100000000E-03 0.  1.
         22    1    1    0    0    0  0.24655961211E+02 -0.10946258034E+02  0.79717175195E+01  0.28129793252E+02  0.00000000000E+00 0.  1.
</event>
<event>
 5    1  0.1282524E-003  0.9118800E+02  0.7818608E-02  0.1130116E+00
         25   -1    0    0    0    0  0.00000000000E+00  0.00000000000E+00  0.99999998245E-14  0.12500000000E+03  0.12500000000E+03 0.  0.
        -11    1    3    3    0    0 -0.36192904195E+02 -0.36610752257E+02 -0.11991207137E+02  0.52858892760E+02  0.51100000000E-03 0.  1.
         23    2    1    0    0    0 -0.39986459583E+02 -0.93371993178E+01 -0.16471974253E+02  0.80757190676E+02  0.67559586063E+02 0.  0.
         11    1    3    3    0    0 -0.37935553874E+01  0.27273552939E+02 -0.44807671156E+01  0.27898297916E+02  0.51100000000E-03 0. -1.
         22    1    1    0    0    0  0.39986459583E+02  0.93371993178E+01  0.16471974253E+02  0.44242809324E+02  0.00000000000E+00 0.  1.
</event>
<event>
 5    1  0.1282524E-003  0.9118800E+02  0.7818608E-02  0.1130116E+00
         25   -1    0    0    0    0  0.00000000000E+00  0.00000000000E+00  0.99999998245E-14  0.12500000000E+03  0.12500000000E+03 0.  0.
        -11    1    3    3    0    0 -0.11496762134E+02  0.33931740095E+02 -0.49484188248E+02  0.61091925917E+02  0.51100000000E-03 0. -1.
         23    2    1    0    0    0 -0.21080537776E+01  0.87914603633E+01 -0.28327488199E+02  0.95264831366E+02  0.90505291787E+02 0.  0.
         11    1    3    3    0    0  0.93887083561E+01 -0.25140279732E+02  0.21156700049E+02  0.34172905449E+02  0.51100000000E-03 0.  1.
         22    1    1    0    0    0  0.21080537776E+01 -0.87914603633E+01  0.28327488199E+02  0.29735168634E+02  0.00000000000E+00 0. -1.
</event>
<event>
 5    1  0.1282524E-003  0.9118800E+02  0.7818608E-02  0.1130116E+00
         25   -1    0    0    0    0  0.00000000000E+00  0.00000000000E+00  0.99999998245E-14  0.12500000000E+03  0.12500000000E+03 0.  0.
        -11    1    3    3    0    0  0.14913385001E+02 -0.21831257596E+02 -0.19423014413E+02  0.32806498587E+02  0.51100000000E-03 0.  1.
         23    2    1    0    0    0 -0.27890269539E+02  0.11987060035E+02  0.76318945099E+01  0.93698202016E+02  0.88315063856E+02 0.  0.
         11    1    3    3    0    0 -0.42803654540E+02  0.33818317631E+02  0.27054908923E+02  0.60891703428E+02  0.51100000000E-03 0. -1.
         22    1    1    0    0    0  0.27890269539E+02 -0.11987060035E+02 -0.76318945099E+01  0.31301797984E+02  0.00000000000E+00 0. -1.
</event>
<event>
 5    1  0.1282524E-003  0.9118800E+02  0.7818608E-02  0.1130116E+00
         25   -1    0    0    0    0  0.00000000000E+00  0.00000000000E+00  0.99999998245E-14  0.12500000000E+03  0.12500000000E+03 0.  0.
        -11    1    3    3    0    0  0.15490595699E+02 -0.26654785193E+02 -0.16978872015E+02  0.35195429021E+02  0.51100000000E-03 0. -1.
         23    2    1    0    0    0  0.90154824874E+01  0.15546094418E+02  0.24429618183E+02  0.94672352207E+02  0.89683265171E+02 0.  0.
         11    1    3    3    0    0 -0.64751132120E+01  0.42200879610E+02  0.41408490198E+02  0.59476923186E+02  0.51100000000E-03 0.  1.
         22    1    1    0    0    0 -0.90154824874E+01 -0.15546094418E+02 -0.24429618183E+02  0.30327647793E+02  0.00000000000E+00 0.  1.
</event>
<event>
 5    1  0.1282524E-003  0.9118800E+02  0.7818608E-02  0.1130116E+00
         25   -1    0    0    0    0  0.00000000000E+00  0.00000000000E+00  0.99999998245E-14  0.12500000000E+03  0.12500000000E+03 0.  0.
        -11    1    3    3    0    0  0.32770755375E+02 -0.14541018531E+02  0.16420019771E+02  0.39433243302E+02  0.51100000000E-03 0.  1.
         23    2    1    0    0    0 -0.88622180631E+01  0.22391783775E+02  0.17718713352E+02  0.95102112240E+02  0.90280275033E+02 0.  0.
         11    1    3    3    0    0 -0.41632973438E+02  0.36932802307E+02  0.12986935814E+01  0.55668868938E+02  0.51100000000E-03 0. -1.
         22    1    1    0    0    0  0.88622180631E+01 -0.22391783775E+02 -0.17718713352E+02  0.29897887760E+02  0.00000000000E+00 0. -1.
</event>
<event>
 5    1  0.1282524E-003  0.9118800E+02  0.7818608E-02  0.1130116E+00
         25   -1    0    0    0    0  0.00000000000E+00  0.00000000000E+00  0.99999998245E-14  0.12500000000E+03  0.12500000000E+03 0.  0.
        -11    1    3    3    0    0  0.92494490204E+01  0.52349073919E+02  0.23470932437E+02  0.58110777977E+02  0.51100000000E-03 0.  1.
         23    2    1    0    0    0  0.31088394044E+01  0.31317755864E+02 -0.40290722726E+01  0.93271461770E+02  0.87708981538E+02 0.  0.
         11    1    3    3    0    0 -0.61406096159E+01 -0.21031318054E+02 -0.27500004709E+02  0.35160683794E+02  0.51100000000E-03 0. -1.
         22    1    1    0    0    0 -0.31088394044E+01 -0.31317755864E+02  0.40290722726E+01  0.31728538230E+02  0.00000000000E+00 0.  1.
</event>
<event>
 5    1  0.1282524E-003  0.9118800E+02  0.7818608E-02  0.1130116E+00
         25   -1    0    0    0    0  0.00000000000E+00  0.00000000000E+00  0.99999998245E-14  0.12500000000E+03  0.12500000000E+03 0.  0.
        -11    1    3    3    0    0  0.97256100922E+01  0.18378039915E+02  0.29292408481E+02  0.35921929760E+02  0.51100000000E-03 0.  1.
         23    2    1    0    0    0 -0.29277888984E+01  0.40669233060E+01 -0.28124145166E+02  0.96432897341E+02  0.92104420823E+02 0.  0.
         11    1    3    3    0    0 -0.12653398991E+02 -0.14311116609E+02 -0.57416553647E+02  0.60510967581E+02  0.51100000000E-03 0. -1.
         22    1    1    0    0    0  0.29277888984E+01 -0.40669233060E+01  0.28124145166E+02  0.28567102659E+02  0.00000000000E+00 0. -1.
</event>
<event>
 5    1  0.1282524E-003  0.9118800E+02  0.7818608E-02  0.1130116E+00
         25   -1    0    0    0    0  0.00000000000E+00  0.00000000000E+00  0.99999998245E-14  0.12500000000E+03  0.12500000000E+03 0.  0.
        -11    1    3    3    0    0 -0.79983506175E+01  0.19792818772E+02  0.32658404739E+02  0.39016671922E+02  0.51100000000E-03 0.  1.
         23    2    1    0    0    0 -0.10971123898E+02  0.51660242714E+01 -0.24269924129E+02  0.97869158074E+02  0.94033448935E+02 0.  0.
         11    1    3    3    0    0 -0.29727732807E+01 -0.14626794500E+02 -0.56928328868E+02  0.58852486152E+02  0.51100000000E-03 0. -1.
         22    1    1    0    0    0  0.10971123898E+02 -0.51660242714E+01  0.24269924129E+02  0.27130841926E+02  0.00000000000E+00 0. -1.
</event>
<event>
 5    1  0.1282524E-003  0.9118800E+02  0.7818608E-02  0.1130116E+00
         25   -1    0    0    0    0  0.00000000000E+00  0.00000000000E+00  0.99999998245E-14  0.12500000000E+03  0.12500000000E+03 0.  0.
        -11    1    3    3    0    0 -0.70324920229E+01  0.24072417782E+02  0.46044034252E+02  0.52430814721E+02  0.51100000000E-03 0.  1.
         23    2    1    0    0    0  0.17368772708E+02  0.20816611960E+02  0.99496755306E+01  0.96120913414E+02  0.91680032469E+02 0.  0.
         11    1    3    3    0    0  0.24401264731E+02 -0.32558058220E+01 -0.36094358721E+02  0.43690098693E+02  0.51100000000E-03 0. -1.
         22    1    1    0    0    0 -0.17368772708E+02 -0.20816611960E+02 -0.99496755306E+01  0.28879086586E+02  0.00000000000E+00 0. -1.
</event>
<event>
 5    1  0.1282524E-003  0.9118800E+02  0.7818608E-02  0.1130116E+00
         25   -1    0    0    0    0  0.00000000000E+00  0.00000000000E+00  0.99999998245E-14  0.12500000000E+03  0.12500000000E+03 0.  0.
        -11    1    3    3    0    0  0.24368750422E+02  0.34280809624E+02 -0.51139389973E+01  0.42369355411E+02  0.51100000000E-03 0.  1.
         23    2    1    0    0    0  0.20116949569E+01 -0.21410871532E+02  0.41681241319E+01  0.10309462178E+03  0.10074053526E+03 0.  0.
         11    1    3    3    0    0 -0.22357055465E+02 -0.55691681155E+02  0.92820631292E+01  0.60725266366E+02  0.51100000000E-03 0. -1.
         22    1    1    0    0    0 -0.20116949569E+01  0.21410871532E+02 -0.41681241319E+01  0.21905378224E+02  0.00000000000E+00 0. -1.
</event>
<event>
 5    1  0.1282524E-003  0.9118800E+02  0.7818608E-02  0.1130116E+00
         25   -1    0    0    0    0  0.00000000000E+00  0.00000000000E+00  0.99999998245E-14  0.12500000000E+03  0.12500000000E+03 0.  0.
        -11    1    3    3    0    0  0.32053500596E+02  0.30888982519E+01  0.32672599243E+02  0.45874469310E+02  0.51100000000E-03 0.  1.
         23    2    1    0    0    0 -0.17990607075E+02  0.32915846743E+01  0.20789863502E+02  0.97310382866E+02  0.93287703994E+02 0.  0.
         11    1    3    3    0    0 -0.50044107671E+02  0.20268642235E+00 -0.11882735741E+02  0.51435913556E+02  0.51100000000E-03 0. -1.
         22    1    1    0    0    0  0.17990607075E+02 -0.32915846743E+01 -0.20789863502E+02  0.27689617134E+02  0.00000000000E+00 0.  1.
</event>
<event>
 5    1  0.1282524E-003  0.9118800E+02  0.7818608E-02  0.1130116E+00
         25   -1    0    0    0    0  0.00000000000E+00  0.00000000000E+00  0.99999998245E-14  0.12500000000E+03  0.12500000000E+03 0.  0.
        -11    1    3    3    0    0  0.27936679700E+02 -0.21289159178E+02 -0.12107369479E+02  0.37152049300E+02  0.51100000000E-03 0.  1.
         23    2    1    0    0    0  0.61540049049E+00  0.28111761390E+02  0.56254432414E+01  0.96324305450E+02  0.91956926670E+02 0.  0.
         11    1    3    3    0    0 -0.27321279210E+02  0.49400920569E+02  0.17732812720E+02  0.59172256151E+02  0.51100000000E-03 0. -1.
         22    1    1    0    0    0 -0.61540049049E+00 -0.28111761390E+02 -0.56254432414E+01  0.28675694550E+02  0.00000000000E+00 0. -1.
</event>
<event>
 5    1  0.1282524E-003  0.9118800E+02  0.7818608E-02  0.1130116E+00
         25   -1    0    0    0    0  0.00000000000E+00  0.00000000000E+00  0.99999998245E-14  0.12500000000E+03  0.12500000000E+03 0.  0.
        -11    1    3    3    0    0 -0.52475738098E+02 -0.40781528428E+01 -0.40070253575E+01  0.52786273519E+02  0.51100000000E-03 0. -1.
         23    2    1    0    0    0 -0.15843021252E+02 -0.18325310801E+02 -0.18332078685E+02  0.94621003188E+02  0.89611666635E+02 0.  0.
         11    1    3    3    0    0  0.36632716846E+02 -0.14247157959E+02 -0.14325053327E+02  0.41834729669E+02  0.51100000000E-03 0.  1.
         22    1    1    0    0    0  0.15843021252E+02  0.18325310801E+02  0.18332078685E+02  0.30378996812E+02  0.00000000000E+00 0. -1.
</event>
<event>
 5    1  0.1282524E-003  0.9118800E+02  0.7818608E-02  0.1130116E+00
         25   -1    0    0    0    0  0.00000000000E+00  0.00000000000E+00  0.99999998245E-14  0.12500000000E+03  0.12500000000E+03 0.  0.
        -11    1    3    3    0    0  0.10250111128E+02 -0.32249993802E+02 -0.26348766850E+02  0.42888044875E+02  0.51100000000E-03 0. -1.
         23    2    1    0    0    0 -0.24531614309E+02  0.66131310722E+01 -0.11470351579E+02  0.97123440518E+02  0.93036875107E+02 0.  0.
         11    1    3    3    0    0 -0.34781725437E+02  0.38863124875E+02  0.14878415271E+02  0.54235395644E+02  0.51100000000E-03 0.  1.
         22    1    1    0    0    0  0.24531614309E+02 -0.66131310722E+01  0.11470351579E+02  0.27876559482E+02  0.00000000000E+00 0.  1.
</event>
<event>
 5    1  0.1282524E-003  0.9118800E+02  0.7818608E-02  0.1130116E+00
         25   -1    0    0    0    0  0.00000000000E+00  0.00000000000E+00  0.99999998245E-14  0.12500000000E+03  0.12500000000E+03 0.  0.
        -11    1    3    3    0    0 -0.64889595434E+01 -0.38750752376E+02 -0.12738655415E+02  0.41303761907E+02  0.51100000000E-03 0.  1.
         23    2    1    0    0    0  0.14392169748E+02 -0.33109229473E+01  0.24239851696E+02  0.96615723171E+02  0.92352210547E+02 0.  0.
         11    1    3    3    0    0  0.20881129292E+02  0.35439829429E+02  0.36978507111E+02  0.55311961264E+02  0.51100000000E-03 0. -1.
         22    1    1    0    0    0 -0.14392169748E+02  0.33109229473E+01 -0.24239851696E+02  0.28384276829E+02  0.00000000000E+00 0. -1.
</event>
<event>
 5    1  0.1282524E-003  0.9118800E+02  0.7818608E-02  0.1130116E+00
         25   -1    0    0    0    0  0.00000000000E+00  0.00000000000E+00  0.99999998245E-14  0.12500000000E+03  0.12500000000E+03 0.  0.
        -11    1    3    3    0    0  0.42016682152E+02  0.14417797958E+02  0.33063197950E+02  0.55375531925E+02  0.51100000000E-03 0.  1.
         23    2    1    0    0    0  0.10825392845E+02  0.25718461118E+02  0.12357093058E+02  0.94482363765E+02  0.89418068316E+02 0.  0.
         11    1    3    3    0    0 -0.31191289307E+02  0.11300663160E+02 -0.20706104893E+02  0.39106831840E+02  0.51100000000E-03 0. -1.
         22    1    1    0    0    0 -0.10825392845E+02 -0.25718461118E+02 -0.12357093058E+02  0.30517636235E+02  0.00000000000E+00 0.  1.
</event>
<event>
 5    1  0.1282524E-003  0.9118800E+02  0.7818608E-02  0.1130116E+00
         25   -1    0    0    0    0  0.00000000000E+00  0.00000000000E+00  0.99999998245E-14  0.12500000000E+03  0.12500000000E+03 0.  0.
        -11    1    3    3    0    0 -0.48707865267E+02  0.15097273918E+02  0.35564787591E+02  0.62171037753E+02  0.51100000000E-03 0.  1.
         23    2    1    0    0    0 -0.24733756864E+02  0.31188301219E+01  0.15575715672E+02  0.95604613481E+02  0.90973366268E+02 0.  0.
         11    1    3    3    0    0  0.23974108403E+02 -0.11978443796E+02 -0.19989071919E+02  0.33433575728E+02  0.51100000000E-03 0. -1.
         22    1    1    0    0    0  0.24733756864E+02 -0.31188301219E+01 -0.15575715672E+02  0.29395386519E+02  0.00000000000E+00 0.  1.
</event>
<event>
 5    1  0.1282524E-003  0.9118800E+02  0.7818608E-02  0.1130116E+00
         25   -1    0    0    0    0  0.00000000000E+00  0.00000000000E+00  0.99999998245E-14  0.12500000000E+03  0.12500000000E+03 0.  0.
        -11    1    3    3    0    0 -0.12076082219E+02 -0.11158150864E+02 -0.24939972862E+02  0.29872032725E+02  0.51100000000E-03 0. -1.
         23    2    1    0    0    0  0.68162534354E+01 -0.45784734535E+02  0.36174274159E+01  0.78569525003E+02  0.63382815105E+02 0.  0.
         11    1    3    3    0    0  0.18892335655E+02 -0.34626583672E+02  0.28557400278E+02  0.48697492278E+02  0.51100000000E-03 0.  1.
         22    1    1    0    0    0 -0.68162534354E+01  0.45784734535E+02 -0.36174274159E+01  0.46430474997E+02  0.00000000000E+00 0. -1.
</event>
<event>
 5    1  0.1282524E-003  0.9118800E+02  0.7818608E-02  0.1130116E+00
         25   -1    0    0    0    0  0.00000000000E+00  0.00000000000E+00  0.99999998245E-14  0.12500000000E+03  0.12500000000E+03 0.  0.
        -11    1    3    3    0    0 -0.19237443027E+02  0.39470516218E+01  0.33842801614E+02  0.39127913976E+02  0.51100000000E-03 0.  1.
         23    2    1    0    0    0  0.14404713186E+02 -0.26549832332E+02  0.17275472824E+01  0.94744855339E+02  0.89784262735E+02 0.  0.
         11    1    3    3    0    0  0.33642156213E+02 -0.30496883954E+02 -0.32115254332E+02  0.55616941363E+02  0.51100000000E-03 0. -1.
         22    1    1    0    0    0 -0.14404713186E+02  0.26549832332E+02 -0.17275472824E+01  0.30255144661E+02  0.00000000000E+00 0. -1.
</event>
<event>
 5    1  0.1282524E-003  0.9118800E+02  0.7818608E-02  0.1130116E+00
         25   -1    0    0    0    0  0.00000000000E+00  0.00000000000E+00  0.99999998245E-14  0.12500000000E+03  0.12500000000E+03 0.  0.
        -11    1    3    3    0    0 -0.25822033235E+02 -0.37198936461E+01  0.44660846094E+02  0.51722395374E+02  0.51100000000E-03 0. -1.
         23    2    1    0    0    0  0.71168862075E+01  0.15721967349E+02  0.24705643579E+02  0.94863657301E+02  0.89949509867E+02 0.  0.
         11    1    3    3    0    0  0.32938919442E+02  0.19441860995E+02 -0.19955202515E+02  0.43141261927E+02  0.51100000000E-03 0.  1.
         22    1    1    0    0    0 -0.71168862075E+01 -0.15721967349E+02 -0.24705643579E+02  0.30136342699E+02  0.00000000000E+00 0.  1.
</event>
<event>
 5    1  0.1282524E-003  0.9118800E+02  0.7818608E-02  0.1130116E+00
         25   -1    0    0    0    0  0.00000000000E+00  0.00000000000E+00  0.99999998245E-14  0.12500000000E+03  0.12500000000E+03 0.  0.
        -11    1    3    3    0    0 -0.45463649188E+02 -0.36289202628E+02 -0.13981945798E+02  0.59827622663E+02  0.51100000000E-03 0. -1.
         23    2    1    0    0    0 -0.21318859895E+02 -0.10136726069E+02 -0.17528448151E+02  0.95597729727E+02  0.90963907303E+02 0.  0.
         11    1    3    3    0    0  0.24144789293E+02  0.26152476559E+02 -0.35465023531E+01  0.35770107065E+02  0.51100000000E-03 0.  1.
         22    1    1    0    0    0  0.21318859895E+02  0.10136726069E+02  0.17528448151E+02  0.29402270273E+02  0.00000000000E+00 0. -1.
</event>
<event>
 5    1  0.1282524E-003  0.9118800E+02  0.7818608E-02  0.1130116E+00
         25   -1    0    0    0    0  0.00000000000E+00  0.00000000000E+00  0.99999998245E-14  0.12500000000E+03  0.12500000000E+03 0.  0.
        -11    1    3    3    0    0  0.37864323318E+02  0.19693191579E+02  0.11731996447E+01  0.42695493586E+02  0.51100000000E-03 0.  1.
         23    2    1    0    0    0 -0.97412880109E+01  0.12166696530E+02  0.24282208299E+02  0.96146112282E+02  0.91714383117E+02 0.  0.
         11    1    3    3    0    0 -0.47605611329E+02 -0.75264950491E+01  0.23109008654E+02  0.53450618696E+02  0.51100000000E-03 0. -1.
         22    1    1    0    0    0  0.97412880109E+01 -0.12166696530E+02 -0.24282208299E+02  0.28853887718E+02  0.00000000000E+00 0.  1.
</event>
<event>
 5    1  0.1282524E-003  0.9118800E+02  0.7818608E-02  0.1130116E+00
         25   -1    0    0    0    0  0.00000000000E+00  0.00000000000E+00  0.99999998245E-14  0.12500000000E+03  0.12500000000E+03 0.  0.
        -11    1    3    3    0    0  0.20570887827E+02  0.35106140551E+02  0.24207404389E+02  0.47345548448E+02  0.51100000000E-03 0.  1.
         23    2    1    0    0    0  0.99760673525E+01 -0.12197799351E+02  0.24556188189E+02  0.95822703909E+02  0.91272536818E+02 0.  0.
         11    1    3    3    0    0 -0.10594820474E+02 -0.47303939902E+02  0.34878380024E+00  0.48477155461E+02  0.51100000000E-03 0. -1.
         22    1    1    0    0    0 -0.99760673525E+01  0.12197799351E+02 -0.24556188189E+02  0.29177296091E+02  0.00000000000E+00 0. -1.
</event>
<event>
 5    1  0.1282524E-003  0.9118800E+02  0.7818608E-02  0.1130116E+00
         25   -1    0    0    0    0  0.00000000000E+00  0.00000000000E+00  0.99999998245E-14  0.12500000000E+03  0.12500000000E+03 0.  0.
        -11    1    3    3    0    0 -0.41883987111E+02 -0.12370852855E+02  0.13047687337E+02  0.45580132973E+02  0.51100000000E-03 0.  1.
         23    2    1    0    0    0  0.81339382936E+01 -0.15932739805E+02  0.22133453421E+02  0.96541206804E+02  0.92251296473E+02 0.  0.
         11    1    3    3    0    0  0.50017925405E+02 -0.35618869495E+01  0.90857660831E+01  0.50961073831E+02  0.51100000000E-03 0. -1.
         22    1    1    0    0    0 -0.81339382936E+01  0.15932739805E+02 -0.22133453421E+02  0.28458793196E+02  0.00000000000E+00 0. -1.
</event>
<event>
 5    1  0.1282524E-003  0.9118800E+02  0.7818608E-02  0.1130116E+00
         25   -1    0    0    0    0  0.00000000000E+00  0.00000000000E+00  0.99999998245E-14  0.12500000000E+03  0.12500000000E+03 0.  0.
        -11    1    3    3    0    0  0.14819863886E+01  0.20461735194E+02  0.45642432599E+02  0.50041088563E+02  0.51100000000E-03 0.  1.
         23    2    1    0    0    0 -0.24703880467E+01 -0.18795371911E+02  0.21669953888E+02  0.96208408799E+02  0.91799249451E+02 0.  0.
         11    1    3    3    0    0 -0.39523744352E+01 -0.39257107105E+02 -0.23972478711E+02  0.46167320236E+02  0.51100000000E-03 0. -1.
         22    1    1    0    0    0  0.24703880467E+01  0.18795371911E+02 -0.21669953888E+02  0.28791591201E+02  0.00000000000E+00 0.  1.
</event>
<event>
 5    1  0.1282524E-003  0.9118800E+02  0.7818608E-02  0.1130116E+00
         25   -1    0    0    0    0  0.00000000000E+00  0.00000000000E+00  0.99999998245E-14  0.12500000000E+03  0.12500000000E+03 0.  0.
        -11    1    3    3    0    0 -0.23036702648E+02  0.29128250193E+02  0.44201888658E+01  0.37398966538E+02  0.51100000000E-03 0. -1.
         23    2    1    0    0    0  0.18912530515E+02 -0.59229625984E+01  0.22537212540E+02  0.94988481453E+02  0.90122807120E+02 0.  0.
         11    1    3    3    0    0  0.41949233163E+02 -0.35051212792E+02  0.18117023674E+02  0.57589514915E+02  0.51100000000E-03 0.  1.
         22    1    1    0    0    0 -0.18912530515E+02  0.59229625984E+01 -0.22537212540E+02  0.30011518547E+02  0.00000000000E+00 0.  1.
</event>
<event>
 5    1  0.1282524E-003  0.9118800E+02  0.7818608E-02  0.1130116E+00
         25   -1    0    0    0    0  0.00000000000E+00  0.00000000000E+00  0.99999998245E-14  0.12500000000E+03  0.12500000000E+03 0.  0.
        -11    1    3    3    0    0  0.90741617253E+00 -0.19525641889E+02  0.28040577969E+02  0.34181107477E+02  0.51100000000E-03 0.  1.
         23    2    1    0    0    0 -0.67679077900E+00  0.54687226315E+01 -0.28474704316E+02  0.95997004312E+02  0.91510934199E+02 0.  0.
         11    1    3    3    0    0 -0.15842069515E+01  0.24994364521E+02 -0.56515282285E+02  0.61815896835E+02  0.51100000000E-03 0. -1.
         22    1    1    0    0    0  0.67679077900E+00 -0.54687226315E+01  0.28474704316E+02  0.29002995688E+02  0.00000000000E+00 0. -1.
</event>
<event>
 5    1  0.1282524E-003  0.9118800E+02  0.7818608E-02  0.1130116E+00
         25   -1    0    0    0    0  0.00000000000E+00  0.00000000000E+00  0.99999998245E-14  0.12500000000E+03  0.12500000000E+03 0.  0.
        -11    1    3    3    0    0 -0.27053887412E+02 -0.73954358648E+01 -0.19785227336E+02  0.34322886195E+02  0.51100000000E-03 0.  1.
         23    2    1    0    0    0  0.17552899542E+02 -0.28545895054E+02  0.74024630394E+01  0.90681362704E+02  0.83936527663E+02 0.  0.
         11    1    3    3    0    0  0.44606786954E+02 -0.21150459189E+02  0.27187690376E+02  0.56358476510E+02  0.51100000000E-03 0. -1.
         22    1    1    0    0    0 -0.17552899542E+02  0.28545895054E+02 -0.74024630394E+01  0.34318637296E+02  0.00000000000E+00 0. -1.
</event>
<event>
 5    1  0.1282524E-003  0.9118800E+02  0.7818608E-02  0.1130116E+00
         25   -1    0    0    0    0  0.00000000000E+00  0.00000000000E+00  0.99999998245E-14  0.12500000000E+03  0.12500000000E+03 0.  0.
        -11    1    3    3    0    0 -0.33201022820E+02  0.86294503029E+01  0.88005643317E+00  0.34315445916E+02  0.51100000000E-03 0.  1.
         23    2    1    0    0    0  0.27520600747E+02  0.19570781399E+01 -0.85261782382E+01  0.96122511611E+02  0.91682211485E+02 0.  0.
         11    1    3    3    0    0  0.60721623567E+02 -0.66723721630E+01 -0.94062346714E+01  0.61807065695E+02  0.51100000000E-03 0. -1.
         22    1    1    0    0    0 -0.27520600747E+02 -0.19570781399E+01  0.85261782382E+01  0.28877488389E+02  0.00000000000E+00 0. -1.
</event>
<event>
 5    1  0.1282524E-003  0.9118800E+02  0.7818608E-02  0.1130116E+00
         25   -1    0    0    0    0  0.00000000000E+00  0.00000000000E+00  0.99999998245E-14  0.12500000000E+03  0.12500000000E+03 0.  0.
        -11    1    3    3    0    0 -0.56909037585E+01  0.31032658960E+02  0.19654400764E+02  0.37171330046E+02  0.51100000000E-03 0.  1.
         23    2    1    0    0    0  0.13265604323E+01 -0.26814425290E+02  0.10572727771E+02  0.96145958018E+02  0.91714172865E+02 0.  0.
         11    1    3    3    0    0  0.70174641907E+01 -0.57847084250E+02 -0.90816729925E+01  0.58974627972E+02  0.51100000000E-03 0. -1.
         22    1    1    0    0    0 -0.13265604323E+01  0.26814425290E+02 -0.10572727771E+02  0.28854041982E+02  0.00000000000E+00 0. -1.
</event>
<event>
 5    1  0.1282524E-003  0.9118800E+02  0.7818608E-02  0.1130116E+00
         25   -1    0    0    0    0  0.00000000000E+00  0.00000000000E+00  0.99999998245E-14  0.12500000000E+03  0.12500000000E+03 0.  0.
        -11    1    3    3    0    0  0.14812076985E+02 -0.44537750270E+02  0.16236776767E+02  0.49665297178E+02  0.51100000000E-03 0.  1.
         23    2    1    0    0    0 -0.36321238232E+00 -0.26571724859E+02  0.35910108448E+02  0.80326468977E+02  0.66757900239E+02 0.  0.
         11    1    3    3    0    0 -0.15175289367E+02  0.17966025410E+02  0.19673331682E+02  0.30661171800E+02  0.51100000000E-03 0. -1.
         22    1    1    0    0    0  0.36321238232E+00  0.26571724859E+02 -0.35910108448E+02  0.44673531023E+02  0.00000000000E+00 0.  1.
</event>
<event>
 5    1  0.1282524E-003  0.9118800E+02  0.7818608E-02  0.1130116E+00
         25   -1    0    0    0    0  0.00000000000E+00  0.00000000000E+00  0.99999998245E-14  0.12500000000E+03  0.12500000000E+03 0.  0.
        -11    1    3    3    0    0 -0.44911906963E+02  0.23549222354E+02  0.81691821777E+01  0.51365171062E+02  0.51100000000E-03 0.  1.
         23    2    1    0    0    0 -0.24239336702E+02  0.37318895012E+01 -0.21343702466E+02  0.92488062531E+02  0.86585308412E+02 0.  0.
         11    1    3    3    0    0  0.20672570260E+02 -0.19817332853E+02 -0.29512884644E+02  0.41122891470E+02  0.51100000000E-03 0. -1.
         22    1    1    0    0    0  0.24239336702E+02 -0.37318895012E+01  0.21343702466E+02  0.32511937469E+02  0.00000000000E+00 0. -1.
</event>
<event>
 5    1  0.1282524E-003  0.9118800E+02  0.7818608E-02  0.1130116E+00
         25   -1    0    0    0    0  0.00000000000E+00  0.00000000000E+00  0.99999998245E-14  0.12500000000E+03  0.12500000000E+03 0.  0.
        -11    1    3    3    0    0 -0.38174372511E+02  0.41086345140E+01  0.30879324497E+02  0.49271657937E+02  0.51100000000E-03 0.  1.
         23    2    1    0    0    0 -0.44407797698E+00 -0.19719061594E+02  0.23194570962E+02  0.94552886549E+02  0.89516599786E+02 0.  0.
         11    1    3    3    0    0  0.37730294534E+02 -0.23827696108E+02 -0.76847535353E+01  0.45281228612E+02  0.51100000000E-03 0. -1.
         22    1    1    0    0    0  0.44407797698E+00  0.19719061594E+02 -0.23194570962E+02  0.30447113451E+02  0.00000000000E+00 0. -1.
</event>
<event>
 5    1  0.1282524E-003  0.9118800E+02  0.7818608E-02  0.1130116E+00
         25   -1    0    0    0    0  0.00000000000E+00  0.00000000000E+00  0.99999998245E-14  0.12500000000E+03  0.12500000000E+03 0.  0.
        -11    1    3    3    0    0 -0.28692497776E+01 -0.52533422799E+02  0.21259228114E+01  0.52654654622E+02  0.51100000000E-03 0. -1.
         23    2    1    0    0    0 -0.22387966137E+02 -0.16165429706E+02 -0.99308796793E+01  0.95654395278E+02  0.91041742181E+02 0.  0.
         11    1    3    3    0    0 -0.19518716359E+02  0.36367993093E+02 -0.12056802491E+02  0.42999740656E+02  0.51100000000E-03 0.  1.
         22    1    1    0    0    0  0.22387966137E+02  0.16165429706E+02  0.99308796793E+01  0.29345604722E+02  0.00000000000E+00 0. -1.
</event>
<event>
 5    1  0.1282524E-003  0.9118800E+02  0.7818608E-02  0.1130116E+00
         25   -1    0    0    0    0  0.00000000000E+00  0.00000000000E+00  0.99999998245E-14  0.12500000000E+03  0.12500000000E+03 0.  0.
        -11    1    3    3    0    0  0.14223724731E+02  0.32774843382E+02  0.22191212574E+02  0.42058942208E+02  0.51100000000E-03 0.  1.
         23    2    1    0    0    0  0.81653900243E+01 -0.21581447597E+02  0.15598651588E+02  0.97147703758E+02  0.93069468352E+02 0.  0.
         11    1    3    3    0    0 -0.60583347062E+01 -0.54356290979E+02 -0.65925609866E+01  0.55088761549E+02  0.51100000000E-03 0. -1.
         22    1    1    0    0    0 -0.81653900243E+01  0.21581447597E+02 -0.15598651588E+02  0.27852296242E+02  0.00000000000E+00 0. -1.
</event>
<event>
 5    1  0.1282524E-003  0.9118800E+02  0.7818608E-02  0.1130116E+00
         25   -1    0    0    0    0  0.00000000000E+00  0.00000000000E+00  0.99999998245E-14  0.12500000000E+03  0.12500000000E+03 0.  0.
        -11    1    3    3    0    0  0.58557009919E+02 -0.52557371244E+01  0.18191320859E+02  0.61542427140E+02  0.51100000000E-03 0.  1.
         23    2    1    0    0    0  0.31443411678E+02  0.46156125080E+01  0.11824403967E+02  0.91091173038E+02  0.84544622889E+02 0.  0.
         11    1    3    3    0    0 -0.27113598241E+02  0.98713496324E+01 -0.63669168920E+01  0.29548745898E+02  0.51100000000E-03 0. -1.
         22    1    1    0    0    0 -0.31443411678E+02 -0.46156125080E+01 -0.11824403967E+02  0.33908826962E+02  0.00000000000E+00 0.  1.
</event>
<event>
 5    1  0.1282524E-003  0.9118800E+02  0.7818608E-02  0.1130116E+00
         25   -1    0    0    0    0  0.00000000000E+00  0.00000000000E+00  0.99999998245E-14  0.12500000000E+03  0.12500000000E+03 0.  0.
        -11    1    3    3    0    0  0.36412154784E+02  0.30154950035E+02 -0.38769350858E+02  0.61141054897E+02  0.51100000000E-03 0. -1.
         23    2    1    0    0    0  0.24298399782E+02  0.11144384895E+02 -0.13337286872E+02  0.95125382550E+02  0.90312488824E+02 0.  0.
         11    1    3    3    0    0 -0.12113755002E+02 -0.19010565141E+02  0.25432063986E+02  0.33984327653E+02  0.51100000000E-03 0.  1.
         22    1    1    0    0    0 -0.24298399782E+02 -0.11144384895E+02  0.13337286872E+02  0.29874617450E+02  0.00000000000E+00 0. -1.
</event>
<event>
 5    1  0.1282524E-003  0.9118800E+02  0.7818608E-02  0.1130116E+00
         25   -1    0    0    0    0  0.00000000000E+00  0.00000000000E+00  0.99999998245E-14  0.12500000000E+03  0.12500000000E+03 0.  0.
        -11    1    3    3    0    0 -0.32749118139E+02  0.12248001234E+01  0.19054024100E+02  0.37908583578E+02  0.51100000000E-03 0.  1.
         23    2    1    0    0    0  0.21992857377E+02  0.17187633534E+02  0.76296545468E+01  0.96063653468E+02  0.91601928839E+02 0.  0.
         11    1    3    3    0    0  0.54741975517E+02  0.15962833410E+02 -0.11424369553E+02  0.58155069890E+02  0.51100000000E-03 0. -1.
         22    1    1    0    0    0 -0.21992857377E+02 -0.17187633534E+02 -0.76296545468E+01  0.28936346532E+02  0.00000000000E+00 0. -1.
</event>
<event>
 5    1  0.1282524E-003  0.9118800E+02  0.7818608E-02  0.1130116E+00
         25   -1    0    0    0    0  0.00000000000E+00  0.00000000000E+00  0.99999998245E-14  0.12500000000E+03  0.12500000000E+03 0.  0.
        -11    1    3    3    0    0 -0.31927187806E+02 -0.27531171312E+02  0.39108057744E+02  0.57504355450E+02  0.51100000000E-03 0. -1.
         23    2    1    0    0    0 -0.15549975453E+02 -0.24732826434E+02  0.51147706888E+01  0.95340679050E+02  0.90609987101E+02 0.  0.
         11    1    3    3    0    0  0.16377212352E+02  0.27983448773E+01 -0.33993287055E+02  0.37836323600E+02  0.51100000000E-03 0.  1.
         22    1    1    0    0    0  0.15549975453E+02  0.24732826434E+02 -0.51147706888E+01  0.29659320950E+02  0.00000000000E+00 0. -1.
</event>
<event>
 5    1  0.1282524E-003  0.9118800E+02  0.7818608E-02  0.1130116E+00
         25   -1    0    0    0    0  0.00000000000E+00  0.00000000000E+00  0.99999998245E-14  0.12500000000E+03  0.12500000000E+03 0.  0.
        -11    1    3    3    0    0  0.12333879173E+02  0.60197406157E+01  0.52606192811E+02  0.54367024701E+02  0.51100000000E-03 0. -1.
         23    2    1    0    0    0  0.84476208031E+01 -0.19123041888E+02  0.17418368966E+02  0.97788741196E+02  0.93926488804E+02 0.  0.
         11    1    3    3    0    0 -0.38862583703E+01 -0.25142782503E+02 -0.35187823845E+02  0.43421716495E+02  0.51100000000E-03 0.  1.
         22    1    1    0    0    0 -0.84476208031E+01  0.19123041888E+02 -0.17418368966E+02  0.27211258804E+02  0.00000000000E+00 0. -1.
</event>
<event>
 5    1  0.1282524E-003  0.9118800E+02  0.7818608E-02  0.1130116E+00
         25   -1    0    0    0    0  0.00000000000E+00  0.00000000000E+00  0.99999998245E-14  0.12500000000E+03  0.12500000000E+03 0.  0.
        -11    1    3    3    0    0 -0.24342758635E+02 -0.67275959547E+01  0.31967990915E+02  0.40740433094E+02  0.51100000000E-03 0.  1.
         23    2    1    0    0    0  0.38254998216E+00  0.30138006662E+02  0.10402555518E+01  0.94841619380E+02  0.89918879246E+02 0.  0.
         11    1    3    3    0    0  0.24725308617E+02  0.36865602616E+02 -0.30927735364E+02  0.54101186285E+02  0.51100000000E-03 0. -1.
         22    1    1    0    0    0 -0.38254998216E+00 -0.30138006662E+02 -0.10402555518E+01  0.30158380620E+02  0.00000000000E+00 0. -1.
</event>
<event>
 5    1  0.1282524E-003  0.9118800E+02  0.7818608E-02  0.1130116E+00
         25   -1    0    0    0    0  0.00000000000E+00  0.00000000000E+00  0.99999998245E-14  0.12500000000E+03  0.12500000000E+03 0.  0.
        -11    1    3    3    0    0 -0.24009507868E+02 -0.31163571820E+02 -0.10904086453E+02  0.40823078990E+02  0.51100000000E-03 0.  1.
         23    2    1    0    0    0  0.23854319806E+02 -0.73927629913E+00 -0.13468698357E+02  0.97595968576E+02  0.93669590285E+02 0.  0.
         11    1    3    3    0    0  0.47863827673E+02  0.30424295521E+02 -0.25646119041E+01  0.56772889586E+02  0.51100000000E-03 0. -1.
         22    1    1    0    0    0 -0.23854319806E+02  0.73927629913E+00  0.13468698357E+02  0.27404031424E+02  0.00000000000E+00 0. -1.
</event>
<event>
 5    1  0.1282524E-003  0.9118800E+02  0.7818608E-02  0.1130116E+00
         25   -1    0    0    0    0  0.00000000000E+00  0.00000000000E+00  0.99999998245E-14  0.12500000000E+03  0.12500000000E+03 0.  0.
        -11    1    3    3    0    0  0.31514545184E+02  0.48872557169E+01 -0.30311415854E+02  0.43998110845E+02  0.51100000000E-03 0.  1.
         23    2    1    0    0    0  0.22833128067E+02 -0.61777964776E+01  0.18611040330E+02  0.94902031151E+02  0.90002820999E+02 0.  0.
         11    1    3    3    0    0 -0.86814171164E+01 -0.11065052194E+02  0.48922456184E+02  0.50903920306E+02  0.51100000000E-03 0. -1.
         22    1    1    0    0    0 -0.22833128067E+02  0.61777964776E+01 -0.18611040330E+02  0.30097968849E+02  0.00000000000E+00 0. -1.
</event>
<event>
 5    1  0.1282524E-003  0.9118800E+02  0.7818608E-02  0.1130116E+00
         25   -1    0    0    0    0  0.00000000000E+00  0.00000000000E+00  0.99999998245E-14  0.12500000000E+03  0.12500000000E+03 0.  0.
        -11    1    3    3    0    0  0.30681475233E+01  0.20235220258E+02 -0.27176302436E+02  0.34021009427E+02  0.51100000000E-03 0.  1.
         23    2    1    0    0    0 -0.16216169538E+02 -0.14939196988E+02  0.19499509965E+02  0.95565757186E+02  0.90919960936E+02 0.  0.
         11    1    3    3    0    0 -0.19284317061E+02 -0.35174417246E+02  0.46675812401E+02  0.61544747759E+02  0.51100000000E-03 0. -1.
         22    1    1    0    0    0  0.16216169538E+02  0.14939196988E+02 -0.19499509965E+02  0.29434242814E+02  0.00000000000E+00 0. -1.
</event>
<event>
 5    1  0.1282524E-003  0.9118800E+02  0.7818608E-02  0.1130116E+00
         25   -1    0    0    0    0  0.00000000000E+00  0.00000000000E+00  0.99999998245E-14  0.12500000000E+03  0.12500000000E+03 0.  0.
        -11    1    3    3    0    0 -0.14003260641E+02 -0.10662728641E+00  0.58297845861E+02  0.59956163239E+02  0.51100000000E-03 0. -1.
         23    2    1    0    0    0 -0.16122699390E+02  0.69788699382E+01  0.22798268094E+02  0.96217938063E+02  0.91812224218E+02 0.  0.
         11    1    3    3    0    0 -0.21194387482E+01  0.70854972246E+01 -0.35499577767E+02  0.36261774825E+02  0.51100000000E-03 0.  1.
         22    1    1    0    0    0  0.16122699390E+02 -0.69788699382E+01 -0.22798268094E+02  0.28782061937E+02  0.00000000000E+00 0. -1.
</event>
<event>
 5    1  0.1282524E-003  0.9118800E+02  0.7818608E-02  0.1130116E+00
         25   -1    0    0    0    0  0.00000000000E+00  0.00000000000E+00  0.99999998245E-14  0.12500000000E+03  0.12500000000E+03 0.  0.
        -11    1    3    3    0    0 -0.37979111619E+02  0.23346564678E+02  0.14099956441E+02  0.46757713519E+02  0.51100000000E-03 0.  1.
         23    2    1    0    0    0  0.35423008486E+01  0.26763156751E+02 -0.11499929147E+02  0.95656127983E+02  0.91044121149E+02 0.  0.
         11    1    3    3    0    0  0.41521412468E+02  0.34165920723E+01 -0.25599885588E+02  0.48898414464E+02  0.51100000000E-03 0. -1.
         22    1    1    0    0    0 -0.35423008486E+01 -0.26763156751E+02  0.11499929147E+02  0.29343872017E+02  0.00000000000E+00 0.  1.
</event>
<event>
 5    1  0.1282524E-003  0.9118800E+02  0.7818608E-02  0.1130116E+00
         25   -1    0    0    0    0  0.00000000000E+00  0.00000000000E+00  0.99999998245E-14  0.12500000000E+03  0.12500000000E+03 0.  0.
        -11    1    3    3    0    0 -0.14112217362E+02 -0.42000829208E+02  0.27958229917E+02  0.52391668741E+02  0.51100000000E-03 0. -1.
         23    2    1    0    0    0  0.17342381838E+02 -0.22282283512E+02  0.42352474203E+01  0.96448368050E+02  0.92125414585E+02 0.  0.
         11    1    3    3    0    0  0.31454599200E+02  0.19718545696E+02 -0.23722982497E+02  0.44056699309E+02  0.51100000000E-03 0.  1.
         22    1    1    0    0    0 -0.17342381838E+02  0.22282283512E+02 -0.42352474203E+01  0.28551631950E+02  0.00000000000E+00 0.  1.
</event>
<event>
 5    1  0.1282524E-003  0.9118800E+02  0.7818608E-02  0.1130116E+00
         25   -1    0    0    0    0  0.00000000000E+00  0.00000000000E+00  0.99999998245E-14  0.12500000000E+03  0.12500000000E+03 0.  0.
        -11    1    3    3    0    0 -0.29014747935E+02 -0.33117593764E+02 -0.25373048622E+02  0.50817538420E+02  0.51100000000E-03 0.  1.
         23    2    1    0    0    0  0.13765670898E+02 -0.14397621372E+02 -0.18115346372E+02  0.98075086432E+02  0.94306795132E+02 0.  0.
         11    1    3    3    0    0  0.42780418833E+02  0.18719972392E+02  0.72577022506E+01  0.47257548012E+02  0.51100000000E-03 0. -1.
         22    1    1    0    0    0 -0.13765670898E+02  0.14397621372E+02  0.18115346372E+02  0.26924913568E+02  0.00000000000E+00 0.  1.
</event>
<event>
 5    1  0.1282524E-003  0.9118800E+02  0.7818608E-02  0.1130116E+00
         25   -1    0    0    0    0  0.00000000000E+00  0.00000000000E+00  0.99999998245E-14  0.12500000000E+03  0.12500000000E+03 0.  0.
        -11    1    3    3    0    0 -0.22316598090E+02 -0.52861921222E+02  0.22562102057E+02  0.61655994964E+02  0.51100000000E-03 0. -1.
         23    2    1    0    0    0 -0.13659968234E+02 -0.26937691586E+02  0.43844733328E+01  0.94480210248E+02  0.89415057803E+02 0.  0.
         11    1    3    3    0    0  0.86566298557E+01  0.25924229636E+02 -0.18177628724E+02  0.32824215283E+02  0.51100000000E-03 0.  1.
         22    1    1    0    0    0  0.13659968234E+02  0.26937691586E+02 -0.43844733328E+01  0.30519789752E+02  0.00000000000E+00 0. -1.
</event>
<event>
 5    1  0.1282524E-003  0.9118800E+02  0.7818608E-02  0.1130116E+00
         25   -1    0    0    0    0  0.00000000000E+00  0.00000000000E+00  0.99999998245E-14  0.12500000000E+03  0.12500000000E+03 0.  0.
        -11    1    3    3    0    0 -0.53823181577E+01  0.29976646069E+02 -0.21452162436E+02  0.37252703683E+02  0.51100000000E-03 0.  1.
         23    2    1    0    0    0  0.31597299785E+02 -0.82124978669E+00  0.62483352537E+01  0.92780355397E+02  0.87006257529E+02 0.  0.
         11    1    3    3    0    0  0.36979617943E+02 -0.30797895855E+02  0.27700497690E+02  0.55527651714E+02  0.51100000000E-03 0. -1.
         22    1    1    0    0    0 -0.31597299785E+02  0.82124978669E+00 -0.62483352537E+01  0.32219644603E+02  0.00000000000E+00 0. -1.
</event>
<event>
 5    1  0.1282524E-003  0.9118800E+02  0.7818608E-02  0.1130116E+00
         25   -1    0    0    0    0  0.00000000000E+00  0.00000000000E+00  0.99999998245E-14  0.12500000000E+03  0.12500000000E+03 0.  0.
        -11    1    3    3    0    0 -0.54379617816E+02 -0.15278187865E+02 -0.25453918173E+02  0.61955369492E+02  0.51100000000E-03 0.  1.
         23    2    1    0    0    0 -0.19986125401E+02 -0.10899161066E+02 -0.12932008421E+02  0.98818446145E+02  0.95286995630E+02 0.  0.
         11    1    3    3    0    0  0.34393492415E+02  0.43790267986E+01  0.12521909752E+02  0.36863076653E+02  0.51100000000E-03 0. -1.
         22    1    1    0    0    0  0.19986125401E+02  0.10899161066E+02  0.12932008421E+02  0.26181553855E+02  0.00000000000E+00 0.  1.
</event>
<event>
 5    1  0.1282524E-003  0.9118800E+02  0.7818608E-02  0.1130116E+00
         25   -1    0    0    0    0  0.00000000000E+00  0.00000000000E+00  0.99999998245E-14  0.12500000000E+03  0.12500000000E+03 0.  0.
        -11    1    3    3    0    0  0.50413776233E+02  0.25155679611E+02 -0.49580236704E+00  0.56343614288E+02  0.51100000000E-03 0. -1.
         23    2    1    0    0    0  0.32351103075E+02 -0.57438393062E+01 -0.68780543579E+00  0.92135754436E+02  0.86075191600E+02 0.  0.
         11    1    3    3    0    0 -0.18062673158E+02 -0.30899518917E+02 -0.19200306874E+00  0.35792140148E+02  0.51100000000E-03 0.  1.
         22    1    1    0    0    0 -0.32351103075E+02  0.57438393062E+01  0.68780543579E+00  0.32864245564E+02  0.00000000000E+00 0. -1.
</event>
<event>
 5    1  0.1282524E-003  0.9118800E+02  0.7818608E-02  0.1130116E+00
         25   -1    0    0    0    0  0.00000000000E+00  0.00000000000E+00  0.99999998245E-14  0.12500000000E+03  0.12500000000E+03 0.  0.
        -11    1    3    3    0    0 -0.30428055540E+02  0.11482113378E+02 -0.49986079531E+02  0.59634835782E+02  0.51100000000E-03 0. -1.
         23    2    1    0    0    0 -0.22602141536E+02 -0.32763101346E+01 -0.17276623437E+02  0.96363088024E+02  0.92009629964E+02 0.  0.
         11    1    3    3    0    0  0.78259140042E+01 -0.14758423513E+02  0.32709456094E+02  0.36728252243E+02  0.51100000000E-03 0.  1.
         22    1    1    0    0    0  0.22602141536E+02  0.32763101346E+01  0.17276623437E+02  0.28636911976E+02  0.00000000000E+00 0. -1.
</event>
<event>
 5    1  0.1282524E-003  0.9118800E+02  0.7818608E-02  0.1130116E+00
         25   -1    0    0    0    0  0.00000000000E+00  0.00000000000E+00  0.99999998245E-14  0.12500000000E+03  0.12500000000E+03 0.  0.
        -11    1    3    3    0    0  0.58473858467E+02  0.37470098940E+01  0.70418842655E+01  0.59015424606E+02  0.51100000000E-03 0.  1.
         23    2    1    0    0    0  0.26339624644E+02 -0.12989485770E+02  0.26440845880E+01  0.95512820578E+02  0.90847152650E+02 0.  0.
         11    1    3    3    0    0 -0.32134233823E+02 -0.16736495664E+02 -0.43977996775E+01  0.36497395973E+02  0.51100000000E-03 0. -1.
         22    1    1    0    0    0 -0.26339624644E+02  0.12989485770E+02 -0.26440845880E+01  0.29487179422E+02  0.00000000000E+00 0.  1.
</event>
<event>
 5    1  0.1282524E-003  0.9118800E+02  0.7818608E-02  0.1130116E+00
         25   -1    0    0    0    0  0.00000000000E+00  0.00000000000E+00  0.99999998245E-14  0.12500000000E+03  0.12500000000E+03 0.  0.
        -11    1    3    3    0    0 -0.25328563887E+02  0.28233300048E+01  0.41097639463E+02  0.48358280683E+02  0.51100000000E-03 0.  1.
         23    2    1    0    0    0 -0.25415008210E+02 -0.33268712565E+01 -0.82387711937E+01  0.98076626039E+02  0.94308835799E+02 0.  0.
         11    1    3    3    0    0 -0.86444322787E-01 -0.61502012613E+01 -0.49336410657E+02  0.49718345356E+02  0.51100000000E-03 0. -1.
         22    1    1    0    0    0  0.25415008210E+02  0.33268712565E+01  0.82387711937E+01  0.26923373961E+02  0.00000000000E+00 0.  1.
</event>
<event>
 5    1  0.1282524E-003  0.9118800E+02  0.7818608E-02  0.1130116E+00
         25   -1    0    0    0    0  0.00000000000E+00  0.00000000000E+00  0.99999998245E-14  0.12500000000E+03  0.12500000000E+03 0.  0.
        -11    1    3    3    0    0  0.32217824336E+02  0.92902687813E+01  0.22186310619E+02  0.40206090062E+02  0.51100000000E-03 0. -1.
         23    2    1    0    0    0  0.65098098232E+00  0.13039602121E+02 -0.24822018406E+02  0.96953830967E+02  0.92808715871E+02 0.  0.
         11    1    3    3    0    0 -0.31566843354E+02  0.37493333399E+01 -0.47008329024E+02  0.56747740904E+02  0.51100000000E-03 0.  1.
         22    1    1    0    0    0 -0.65098098232E+00 -0.13039602121E+02  0.24822018406E+02  0.28046169033E+02  0.00000000000E+00 0.  1.
</event>
<event>
 5    1  0.1282524E-003  0.9118800E+02  0.7818608E-02  0.1130116E+00
         25   -1    0    0    0    0  0.00000000000E+00  0.00000000000E+00  0.99999998245E-14  0.12500000000E+03  0.12500000000E+03 0.  0.
        -11    1    3    3    0    0  0.15598868865E+02 -0.21965049095E+02  0.21936738356E+02  0.34742029036E+02  0.51100000000E-03 0.  1.
         23    2    1    0    0    0 -0.24218125214E+02  0.16773156948E+02 -0.25068577731E+01  0.95434129156E+02  0.90738813575E+02 0.  0.
         11    1    3    3    0    0 -0.39816994079E+02  0.38738206043E+02 -0.24443596129E+02  0.60692100119E+02  0.51100000000E-03 0. -1.
         22    1    1    0    0    0  0.24218125214E+02 -0.16773156948E+02  0.25068577731E+01  0.29565870844E+02  0.00000000000E+00 0. -1.
</event>
<event>
 5    1  0.1282524E-003  0.9118800E+02  0.7818608E-02  0.1130116E+00
         25   -1    0    0    0    0  0.00000000000E+00  0.00000000000E+00  0.99999998245E-14  0.12500000000E+03  0.12500000000E+03 0.  0.
        -11    1    3    3    0    0  0.44920895924E+02 -0.17387150542E+02 -0.11471045033E+02  0.49515500290E+02  0.51100000000E-03 0.  1.
         23    2    1    0    0    0  0.43436074701E+01  0.12285966398E+01 -0.27637569256E+02  0.96996221506E+02  0.92865792284E+02 0.  0.
         11    1    3    3    0    0 -0.40577288454E+02  0.18615747181E+02 -0.16166524223E+02  0.47480721216E+02  0.51100000000E-03 0. -1.
         22    1    1    0    0    0 -0.43436074701E+01 -0.12285966398E+01  0.27637569256E+02  0.28003778494E+02  0.00000000000E+00 0.  1.
</event>
<event>
 5    1  0.1282524E-003  0.9118800E+02  0.7818608E-02  0.1130116E+00
         25   -1    0    0    0    0  0.00000000000E+00  0.00000000000E+00  0.99999998245E-14  0.12500000000E+03  0.12500000000E+03 0.  0.
        -11    1    3    3    0    0 -0.25848726313E+02  0.33016439814E+02 -0.40075835798E+02  0.58002711705E+02  0.51100000000E-03 0. -1.
         23    2    1    0    0    0 -0.25085481988E+02  0.10597287356E+02 -0.90196879811E+01  0.96313092234E+02  0.91941682922E+02 0.  0.
         11    1    3    3    0    0  0.76324432459E+00 -0.22419152458E+02  0.31056147817E+02  0.38310380530E+02  0.51100000000E-03 0.  1.
         22    1    1    0    0    0  0.25085481988E+02 -0.10597287356E+02  0.90196879811E+01  0.28686907766E+02  0.00000000000E+00 0. -1.
</event>
<event>
 5    1  0.1282524E-003  0.9118800E+02  0.7818608E-02  0.1130116E+00
         25   -1    0    0    0    0  0.00000000000E+00  0.00000000000E+00  0.99999998245E-14  0.12500000000E+03  0.12500000000E+03 0.  0.
        -11    1    3    3    0    0 -0.37712103536E+02  0.44855047684E+02 -0.19243334075E+02  0.61680499044E+02  0.51100000000E-03 0.  1.
         23    2    1    0    0    0 -0.13709765301E+02  0.24535885797E+02 -0.40604211690E+01  0.96601859629E+02  0.92333444143E+02 0.  0.
         11    1    3    3    0    0  0.24002338235E+02 -0.20319161886E+02  0.15182912906E+02  0.34921360584E+02  0.51100000000E-03 0. -1.
         22    1    1    0    0    0  0.13709765301E+02 -0.24535885797E+02  0.40604211690E+01  0.28398140371E+02  0.00000000000E+00 0.  1.
</event>
<event>
 5    1  0.1282524E-003  0.9118800E+02  0.7818608E-02  0.1130116E+00
         25   -1    0    0    0    0  0.00000000000E+00  0.00000000000E+00  0.99999998245E-14  0.12500000000E+03  0.12500000000E+03 0.  0.
        -11    1    3    3    0    0 -0.23596820544E+02  0.99961873446E+00 -0.20022504193E+02  0.30963040093E+02  0.51100000000E-03 0.  1.
         23    2    1    0    0    0  0.29595519834E+02 -0.17713586657E+02 -0.92908133603E+00  0.90495954750E+02  0.83659958687E+02 0.  0.
         11    1    3    3    0    0  0.53192340378E+02 -0.18713205391E+02  0.19093422857E+02  0.59532914657E+02  0.51100000000E-03 0. -1.
         22    1    1    0    0    0 -0.29595519834E+02  0.17713586657E+02  0.92908133603E+00  0.34504045250E+02  0.00000000000E+00 0. -1.
</event>
<event>
 5    1  0.1282524E-003  0.9118800E+02  0.7818608E-02  0.1130116E+00
         25   -1    0    0    0    0  0.00000000000E+00  0.00000000000E+00  0.99999998245E-14  0.12500000000E+03  0.12500000000E+03 0.  0.
        -11    1    3    3    0    0  0.25541122805E+01 -0.37487193373E+02  0.36587517926E+01  0.37751816135E+02  0.51100000000E-03 0.  1.
         23    2    1    0    0    0  0.45437913493E+01  0.12358766186E+02 -0.26048162750E+02  0.95812812329E+02  0.91258989049E+02 0.  0.
         11    1    3    3    0    0  0.19896790688E+01  0.49845959559E+02 -0.29706914543E+02  0.58060996194E+02  0.51100000000E-03 0. -1.
         22    1    1    0    0    0 -0.45437913493E+01 -0.12358766186E+02  0.26048162750E+02  0.29187187671E+02  0.00000000000E+00 0. -1.
</event>
<event>
 5    1  0.1282524E-003  0.9118800E+02  0.7818608E-02  0.1130116E+00
         25   -1    0    0    0    0  0.00000000000E+00  0.00000000000E+00  0.99999998245E-14  0.12500000000E+03  0.12500000000E+03 0.  0.
        -11    1    3    3    0    0 -0.38749050232E+02 -0.43660463033E+02 -0.31325891593E+01  0.58459712976E+02  0.51100000000E-03 0.  1.
         23    2    1    0    0    0 -0.22793087262E+02 -0.12966262632E+02 -0.14701965526E+02  0.94936790193E+02  0.90051082994E+02 0.  0.
         11    1    3    3    0    0  0.15955962970E+02  0.30694200401E+02 -0.11569376367E+02  0.36477077218E+02  0.51100000000E-03 0. -1.
         22    1    1    0    0    0  0.22793087262E+02  0.12966262632E+02  0.14701965526E+02  0.30063209807E+02  0.00000000000E+00 0.  1.
</event>
<event>
 5    1  0.1282524E-003  0.9118800E+02  0.7818608E-02  0.1130116E+00
         25   -1    0    0    0    0  0.00000000000E+00  0.00000000000E+00  0.99999998245E-14  0.12500000000E+03  0.12500000000E+03 0.  0.
        -11    1    3    3    0    0 -0.97877836786E+01  0.35290425130E+02  0.44815585482E+02  0.57876174006E+02  0.51100000000E-03 0.  1.
         23    2    1    0    0    0  0.92951936607E+01  0.56095906852E+01  0.23532224219E+02  0.99084103150E+02  0.95634856551E+02 0.  0.
         11    1    3    3    0    0  0.19082977339E+02 -0.29680834444E+02 -0.21283361263E+02  0.41207929144E+02  0.51100000000E-03 0. -1.
         22    1    1    0    0    0 -0.92951936607E+01 -0.56095906852E+01 -0.23532224219E+02  0.25915896850E+02  0.00000000000E+00 0.  1.
</event>
<event>
 5    1  0.1282524E-003  0.9118800E+02  0.7818608E-02  0.1130116E+00
         25   -1    0    0    0    0  0.00000000000E+00  0.00000000000E+00  0.99999998245E-14  0.12500000000E+03  0.12500000000E+03 0.  0.
        -11    1    3    3    0    0  0.21972329773E+02  0.91957880180E+01 -0.17706199575E+02  0.29679206468E+02  0.51100000000E-03 0.  1.
         23    2    1    0    0    0 -0.31633948794E+02 -0.12458246384E+02 -0.15758806455E+02  0.87526614776E+02  0.79099011966E+02 0.  0.
         11    1    3    3    0    0 -0.53606278567E+02 -0.21654034402E+02  0.19473931199E+01  0.57847408308E+02  0.51100000000E-03 0. -1.
         22    1    1    0    0    0  0.31633948794E+02  0.12458246384E+02  0.15758806455E+02  0.37473385224E+02  0.00000000000E+00 0. -1.
</event>
<event>
 5    1  0.1282524E-003  0.9118800E+02  0.7818608E-02  0.1130116E+00
         25   -1    0    0    0    0  0.00000000000E+00  0.00000000000E+00  0.99999998245E-14  0.12500000000E+03  0.12500000000E+03 0.  0.
        -11    1    3    3    0    0  0.33748924953E+02 -0.21003895287E+02 -0.31009250804E+02  0.50415545107E+02  0.51100000000E-03 0. -1.
         23    2    1    0    0    0  0.31062078850E+01  0.91977286168E+01 -0.30017630015E+02  0.93451547568E+02  0.87965259574E+02 0.  0.
         11    1    3    3    0    0 -0.30642717068E+02  0.30201623904E+02  0.99162078870E+00  0.43036002461E+02  0.51100000000E-03 0.  1.
         22    1    1    0    0    0 -0.31062078850E+01 -0.91977286168E+01  0.30017630015E+02  0.31548452432E+02  0.00000000000E+00 0. -1.
</event>
<event>
 5    1  0.1282524E-003  0.9118800E+02  0.7818608E-02  0.1130116E+00
         25   -1    0    0    0    0  0.00000000000E+00  0.00000000000E+00  0.99999998245E-14  0.12500000000E+03  0.12500000000E+03 0.  0.
        -11    1    3    3    0    0 -0.26773113589E+02  0.28337275561E+02 -0.17343509605E+02  0.42668467551E+02  0.51100000000E-03 0. -1.
         23    2    1    0    0    0 -0.21598130539E+02 -0.14429000421E+02  0.13573299011E+02  0.95692838043E+02  0.91094508675E+02 0.  0.
         11    1    3    3    0    0  0.51749830499E+01 -0.42766275981E+02  0.30916808616E+02  0.53024370492E+02  0.51100000000E-03 0.  1.
         22    1    1    0    0    0  0.21598130539E+02  0.14429000421E+02 -0.13573299011E+02  0.29307161957E+02  0.00000000000E+00 0.  1.
</event>
<event>
 5    1  0.1282524E-003  0.9118800E+02  0.7818608E-02  0.1130116E+00
         25   -1    0    0    0    0  0.00000000000E+00  0.00000000000E+00  0.99999998245E-14  0.12500000000E+03  0.12500000000E+03 0.  0.
        -11    1    3    3    0    0  0.85612806147E-01  0.87227785755E+01  0.60037000826E+02  0.60667418472E+02  0.51100000000E-03 0.  1.
         23    2    1    0    0    0 -0.33094194735E+01  0.14002930438E+02  0.25947979874E+02  0.95329611097E+02  0.90594717143E+02 0.  0.
         11    1    3    3    0    0 -0.33950322796E+01  0.52801518621E+01 -0.34089020952E+02  0.34662192625E+02  0.51100000000E-03 0. -1.
         22    1    1    0    0    0  0.33094194735E+01 -0.14002930438E+02 -0.25947979874E+02  0.29670388903E+02  0.00000000000E+00 0.  1.
</event>
<event>
 5    1  0.1282524E-003  0.9118800E+02  0.7818608E-02  0.1130116E+00
         25   -1    0    0    0    0  0.00000000000E+00  0.00000000000E+00  0.99999998245E-14  0.12500000000E+03  0.12500000000E+03 0.  0.
        -11    1    3    3    0    0  0.23982714251E+02 -0.25789091080E+02  0.18753113545E+01  0.35267046865E+02  0.51100000000E-03 0.  1.
         23    2    1    0    0    0 -0.16322838046E+02 -0.21679644119E+02 -0.28305348756E+02  0.85787313543E+02  0.76300906847E+02 0.  0.
         11    1    3    3    0    0 -0.40305552297E+02  0.41094469617E+01 -0.30180660110E+02  0.50520266678E+02  0.51100000000E-03 0. -1.
         22    1    1    0    0    0  0.16322838046E+02  0.21679644119E+02  0.28305348756E+02  0.39212686457E+02  0.00000000000E+00 0. -1.
</event>
<event>
 5    1  0.1282524E-003  0.9118800E+02  0.7818608E-02  0.1130116E+00
         25   -1    0    0    0    0  0.00000000000E+00  0.00000000000E+00  0.99999998245E-14  0.12500000000E+03  0.12500000000E+03 0.  0.
        -11    1    3    3    0    0  0.38044048283E+02  0.14696678651E+01 -0.15471563977E+02  0.41095970916E+02  0.51100000000E-03 0.  1.
         23    2    1    0    0    0 -0.81452977473E+00  0.25097176252E+01  0.26537956616E+02  0.98331192703E+02  0.94645645307E+02 0.  0.
         11    1    3    3    0    0 -0.38858578058E+02  0.10400497602E+01  0.42009520593E+02  0.57235221786E+02  0.51100000000E-03 0. -1.
         22    1    1    0    0    0  0.81452977473E+00 -0.25097176252E+01 -0.26537956616E+02  0.26668807297E+02  0.00000000000E+00 0. -1.
</event>
<event>
 5    1  0.1282524E-003  0.9118800E+02  0.7818608E-02  0.1130116E+00
         25   -1    0    0    0    0  0.00000000000E+00  0.00000000000E+00  0.99999998245E-14  0.12500000000E+03  0.12500000000E+03 0.  0.
        -11    1    3    3    0    0  0.19097364150E+02 -0.43860462174E+01  0.30916419547E+02  0.36602892191E+02  0.51100000000E-03 0.  1.
         23    2    1    0    0    0 -0.24331674350E+02 -0.19099309953E+02 -0.34078459371E+01  0.93880433305E+02  0.88572616120E+02 0.  0.
         11    1    3    3    0    0 -0.43429038500E+02 -0.14713263735E+02 -0.34324265484E+02  0.57277541114E+02  0.51100000000E-03 0. -1.
         22    1    1    0    0    0  0.24331674350E+02  0.19099309953E+02  0.34078459371E+01  0.31119566695E+02  0.00000000000E+00 0. -1.
</event>
<event>
 5    1  0.1282524E-003  0.9118800E+02  0.7818608E-02  0.1130116E+00
         25   -1    0    0    0    0  0.00000000000E+00  0.00000000000E+00  0.99999998245E-14  0.12500000000E+03  0.12500000000E+03 0.  0.
        -11    1    3    3    0    0 -0.15915407876E+02  0.28968742949E+02 -0.45444886842E+02  0.56193647473E+02  0.51100000000E-03 0. -1.
         23    2    1    0    0    0  0.10737113266E+02  0.21027946433E+02 -0.17567597675E+02  0.95570752294E+02  0.90926828128E+02 0.  0.
         11    1    3    3    0    0  0.26652521142E+02 -0.79407965163E+01  0.27877289167E+02  0.39377104821E+02  0.51100000000E-03 0.  1.
         22    1    1    0    0    0 -0.10737113266E+02 -0.21027946433E+02  0.17567597675E+02  0.29429247706E+02  0.00000000000E+00 0. -1.
</event>
<event>
 5    1  0.1282524E-003  0.9118800E+02  0.7818608E-02  0.1130116E+00
         25   -1    0    0    0    0  0.00000000000E+00  0.00000000000E+00  0.99999998245E-14  0.12500000000E+03  0.12500000000E+03 0.  0.
        -11    1    3    3    0    0  0.52817227629E+02  0.80189134422E+01  0.17665087917E+02  0.56267378103E+02  0.51100000000E-03 0. -1.
         23    2    1    0    0    0  0.16995235339E+02  0.21883734737E+02  0.41736712321E+01  0.96979375421E+02  0.92843114205E+02 0.  0.
         11    1    3    3    0    0 -0.35821992290E+02  0.13864821295E+02 -0.13491416685E+02  0.40711997318E+02  0.51100000000E-03 0.  1.
         22    1    1    0    0    0 -0.16995235339E+02 -0.21883734737E+02 -0.41736712321E+01  0.28020624579E+02  0.00000000000E+00 0. -1.
</event>
<event>
 5    1  0.1282524E-003  0.9118800E+02  0.7818608E-02  0.1130116E+00
         25   -1    0    0    0    0  0.00000000000E+00  0.00000000000E+00  0.99999998245E-14  0.12500000000E+03  0.12500000000E+03 0.  0.
        -11    1    3    3    0    0 -0.70583389207E+01 -0.36290210692E+02 -0.13659263847E+02  0.39412878980E+02  0.51100000000E-03 0. -1.
         23    2    1    0    0    0 -0.20563779327E+02  0.17782185480E+02 -0.12295047590E+02  0.95163054179E+02  0.90364614450E+02 0.  0.
         11    1    3    3    0    0 -0.13505440407E+02  0.54072396173E+02  0.13642162570E+01  0.55750175199E+02  0.51100000000E-03 0.  1.
         22    1    1    0    0    0  0.20563779327E+02 -0.17782185480E+02  0.12295047590E+02  0.29836945821E+02  0.00000000000E+00 0.  1.
</event>
<event>
 5    1  0.1282524E-003  0.9118800E+02  0.7818608E-02  0.1130116E+00
         25   -1    0    0    0    0  0.00000000000E+00  0.00000000000E+00  0.99999998245E-14  0.12500000000E+03  0.12500000000E+03 0.  0.
        -11    1    3    3    0    0  0.35908217330E+02 -0.38717487392E+01 -0.12114900977E+01  0.36136660314E+02  0.51100000000E-03 0.  1.
         23    2    1    0    0    0 -0.20114631672E+02  0.16306777263E+02  0.10905480122E+02  0.96903044850E+02  0.92740289047E+02 0.  0.
         11    1    3    3    0    0 -0.56022849002E+02  0.20178526002E+02  0.12116970220E+02  0.60766384536E+02  0.51100000000E-03 0. -1.
         22    1    1    0    0    0  0.20114631672E+02 -0.16306777263E+02 -0.10905480122E+02  0.28096955150E+02  0.00000000000E+00 0. -1.
</event>
<event>
 5    1  0.1282524E-003  0.9118800E+02  0.7818608E-02  0.1130116E+00
         25   -1    0    0    0    0  0.00000000000E+00  0.00000000000E+00  0.99999998245E-14  0.12500000000E+03  0.12500000000E+03 0.  0.
        -11    1    3    3    0    0  0.17715815712E+02 -0.27178892193E+02 -0.25712597045E+02  0.41396617667E+02  0.51100000000E-03 0.  1.
         23    2    1    0    0    0  0.84542024764E+01 -0.86348740940E+01  0.25574521358E+02  0.96714124853E+02  0.92485302688E+02 0.  0.
         11    1    3    3    0    0 -0.92616132357E+01  0.18544018099E+02  0.51287118403E+02  0.55317507186E+02  0.51100000000E-03 0. -1.
         22    1    1    0    0    0 -0.84542024764E+01  0.86348740940E+01 -0.25574521358E+02  0.28285875147E+02  0.00000000000E+00 0. -1.
</event>
<event>
 5    1  0.1282524E-003  0.9118800E+02  0.7818608E-02  0.1130116E+00
         25   -1    0    0    0    0  0.00000000000E+00  0.00000000000E+00  0.99999998245E-14  0.12500000000E+03  0.12500000000E+03 0.  0.
        -11    1    3    3    0    0  0.26551708832E+02 -0.29394323080E+02 -0.54551508022E+01  0.39984723855E+02  0.51100000000E-03 0.  1.
         23    2    1    0    0    0  0.13286357311E+02  0.17488479731E+02  0.20296532649E+02  0.95094758796E+02  0.90270093049E+02 0.  0.
         11    1    3    3    0    0 -0.13265351522E+02  0.46882802811E+02  0.25751683451E+02  0.55110034941E+02  0.51100000000E-03 0. -1.
         22    1    1    0    0    0 -0.13286357311E+02 -0.17488479731E+02 -0.20296532649E+02  0.29905241204E+02  0.00000000000E+00 0. -1.
</event>
<event>
 5    1  0.1282524E-003  0.9118800E+02  0.7818608E-02  0.1130116E+00
         25   -1    0    0    0    0  0.00000000000E+00  0.00000000000E+00  0.99999998245E-14  0.12500000000E+03  0.12500000000E+03 0.  0.
        -11    1    3    3    0    0 -0.40979858819E+01  0.23570994866E+02 -0.23690236642E+02  0.33669163929E+02  0.51100000000E-03 0. -1.
         23    2    1    0    0    0  0.10218229930E+02 -0.29537183397E+01  0.28855715468E+02  0.94246317455E+02  0.89087481521E+02 0.  0.
         11    1    3    3    0    0  0.14316215812E+02 -0.26524713206E+02  0.52545952110E+02  0.60577153526E+02  0.51100000000E-03 0.  1.
         22    1    1    0    0    0 -0.10218229930E+02  0.29537183397E+01 -0.28855715468E+02  0.30753682545E+02  0.00000000000E+00 0.  1.
</event>
<event>
 5    1  0.1282524E-003  0.9118800E+02  0.7818608E-02  0.1130116E+00
         25   -1    0    0    0    0  0.00000000000E+00  0.00000000000E+00  0.99999998245E-14  0.12500000000E+03  0.12500000000E+03 0.  0.
        -11    1    3    3    0    0  0.17897573263E+02 -0.29558512261E+02  0.37715623734E+02  0.51151706225E+02  0.51100000000E-03 0.  1.
         23    2    1    0    0    0 -0.18375371111E+02 -0.17187754169E+02  0.15427448960E+02  0.95485946766E+02  0.90810168437E+02 0.  0.
         11    1    3    3    0    0 -0.36272944374E+02  0.12370758091E+02 -0.22288174775E+02  0.44334240541E+02  0.51100000000E-03 0. -1.
         22    1    1    0    0    0  0.18375371111E+02  0.17187754169E+02 -0.15427448960E+02  0.29514053234E+02  0.00000000000E+00 0.  1.
</event>
<event>
 5    1  0.1282524E-003  0.9118800E+02  0.7818608E-02  0.1130116E+00
         25   -1    0    0    0    0  0.00000000000E+00  0.00000000000E+00  0.99999998245E-14  0.12500000000E+03  0.12500000000E+03 0.  0.
        -11    1    3    3    0    0  0.11558457946E+02  0.12731387549E+02  0.29262412057E+02  0.33940756307E+02  0.51100000000E-03 0.  1.
         23    2    1    0    0    0 -0.35911945796E+01 -0.26891553635E+02 -0.13948704602E+02  0.94493956411E+02  0.89434272529E+02 0.  0.
         11    1    3    3    0    0 -0.15149652525E+02 -0.39622941184E+02 -0.43211116659E+02  0.60553200104E+02  0.51100000000E-03 0. -1.
         22    1    1    0    0    0  0.35911945796E+01  0.26891553635E+02  0.13948704602E+02  0.30506043589E+02  0.00000000000E+00 0. -1.
</event>
<event>
 5    1  0.1282524E-003  0.9118800E+02  0.7818608E-02  0.1130116E+00
         25   -1    0    0    0    0  0.00000000000E+00  0.00000000000E+00  0.99999998245E-14  0.12500000000E+03  0.12500000000E+03 0.  0.
        -11    1    3    3    0    0 -0.14247155320E+02  0.33354637468E+01 -0.26254973051E+02  0.30057118346E+02  0.51100000000E-03 0. -1.
         23    2    1    0    0    0  0.79896275997E+00  0.27017087161E+02  0.24802564724E+02  0.88315826886E+02  0.80336521717E+02 0.  0.
         11    1    3    3    0    0  0.15046118080E+02  0.23681623414E+02  0.51057537775E+02  0.58258708540E+02  0.51100000000E-03 0.  1.
         22    1    1    0    0    0 -0.79896275997E+00 -0.27017087161E+02 -0.24802564724E+02  0.36684173114E+02  0.00000000000E+00 0.  1.
</event>
<event>
 5    1  0.1282524E-003  0.9118800E+02  0.7818608E-02  0.1130116E+00
         25   -1    0    0    0    0  0.00000000000E+00  0.00000000000E+00  0.99999998245E-14  0.12500000000E+03  0.12500000000E+03 0.  0.
        -11    1    3    3    0    0  0.77967432139E+01  0.32463205549E+02 -0.18393613343E+01  0.33436988047E+02  0.51100000000E-03 0. -1.
         23    2    1    0    0    0 -0.57473240069E+01 -0.27960544826E+02  0.59295069912E+01  0.95845534590E+02  0.91303798648E+02 0.  0.
         11    1    3    3    0    0 -0.13544067221E+02 -0.60423750375E+02  0.77688683256E+01  0.62408546543E+02  0.51100000000E-03 0.  1.
         22    1    1    0    0    0  0.57473240069E+01  0.27960544826E+02 -0.59295069912E+01  0.29154465410E+02  0.00000000000E+00 0.  1.
</event>
<event>
 5    1  0.1282524E-003  0.9118800E+02  0.7818608E-02  0.1130116E+00
         25   -1    0    0    0    0  0.00000000000E+00  0.00000000000E+00  0.99999998245E-14  0.12500000000E+03  0.12500000000E+03 0.  0.
        -11    1    3    3    0    0 -0.24639359901E+02  0.23586505966E+02  0.49350107574E+02  0.59990452889E+02  0.51100000000E-03 0.  1.
         23    2    1    0    0    0 -0.20411642421E+02  0.42533732147E+01  0.16209402872E+02  0.98590322389E+02  0.94987265448E+02 0.  0.
         11    1    3    3    0    0  0.42277174793E+01 -0.19333132751E+02 -0.33140704701E+02  0.38599869500E+02  0.51100000000E-03 0. -1.
         22    1    1    0    0    0  0.20411642421E+02 -0.42533732147E+01 -0.16209402872E+02  0.26409677611E+02  0.00000000000E+00 0.  1.
</event>
<event>
 5    1  0.1282524E-003  0.9118800E+02  0.7818608E-02  0.1130116E+00
         25   -1    0    0    0    0  0.00000000000E+00  0.00000000000E+00  0.99999998245E-14  0.12500000000E+03  0.12500000000E+03 0.  0.
        -11    1    3    3    0    0  0.35523383712E+01 -0.34406615329E+02  0.18316028045E+02  0.39139636814E+02  0.51100000000E-03 0.  1.
         23    2    1    0    0    0 -0.21086149220E+02  0.10656982569E+02 -0.11708972331E+02  0.98631515034E+02  0.95041458103E+02 0.  0.
         11    1    3    3    0    0 -0.24638487591E+02  0.45063597898E+02 -0.30025000376E+02  0.59491878220E+02  0.51100000000E-03 0. -1.
         22    1    1    0    0    0  0.21086149220E+02 -0.10656982569E+02  0.11708972331E+02  0.26368484966E+02  0.00000000000E+00 0. -1.
</event>
<event>
 5    1  0.1282524E-003  0.9118800E+02  0.7818608E-02  0.1130116E+00
         25   -1    0    0    0    0  0.00000000000E+00  0.00000000000E+00  0.99999998245E-14  0.12500000000E+03  0.12500000000E+03 0.  0.
        -11    1    3    3    0    0 -0.30017126231E+02 -0.40038379691E+02 -0.48507569822E+01  0.50275536387E+02  0.51100000000E-03 0.  1.
         23    2    1    0    0    0 -0.27947335044E+02  0.46707083830E+01 -0.91146522595E+01  0.95235155994E+02  0.90464296817E+02 0.  0.
         11    1    3    3    0    0  0.20697911862E+01  0.44709088074E+02 -0.42638952773E+01  0.44959619607E+02  0.51100000000E-03 0. -1.
         22    1    1    0    0    0  0.27947335044E+02 -0.46707083830E+01  0.91146522595E+01  0.29764844006E+02  0.00000000000E+00 0.  1.
</event>
<event>
 5    1  0.1282524E-003  0.9118800E+02  0.7818608E-02  0.1130116E+00
         25   -1    0    0    0    0  0.00000000000E+00  0.00000000000E+00  0.99999998245E-14  0.12500000000E+03  0.12500000000E+03 0.  0.
        -11    1    3    3    0    0  0.38876999654E+01  0.24749686527E+02 -0.23545755718E+02  0.34381154821E+02  0.51100000000E-03 0.  1.
         23    2    1    0    0    0 -0.16158466697E+02 -0.24666428872E+02  0.53451772360E+01  0.95031688753E+02  0.90182715574E+02 0.  0.
         11    1    3    3    0    0 -0.20046166663E+02 -0.49416115399E+02  0.28890932954E+02  0.60650533932E+02  0.51100000000E-03 0. -1.
         22    1    1    0    0    0  0.16158466697E+02  0.24666428872E+02 -0.53451772360E+01  0.29968311247E+02  0.00000000000E+00 0. -1.
</event>
<event>
 5    1  0.1282524E-003  0.9118800E+02  0.7818608E-02  0.1130116E+00
         25   -1    0    0    0    0  0.00000000000E+00  0.00000000000E+00  0.99999998245E-14  0.12500000000E+03  0.12500000000E+03 0.  0.
        -11    1    3    3    0    0 -0.28827747274E+00 -0.23941957698E+02 -0.39280530463E+02  0.46002831609E+02  0.51100000000E-03 0.  1.
         23    2    1    0    0    0  0.64049573056E+01 -0.24100410747E+02  0.11723717789E+02  0.97444622393E+02  0.93467403935E+02 0.  0.
         11    1    3    3    0    0  0.66932347783E+01 -0.15845304935E+00  0.51004248251E+02  0.51441790785E+02  0.51100000000E-03 0. -1.
         22    1    1    0    0    0 -0.64049573056E+01  0.24100410747E+02 -0.11723717789E+02  0.27555377607E+02  0.00000000000E+00 0. -1.
</event>
<event>
 5    1  0.1282524E-003  0.9118800E+02  0.7818608E-02  0.1130116E+00
         25   -1    0    0    0    0  0.00000000000E+00  0.00000000000E+00  0.99999998245E-14  0.12500000000E+03  0.12500000000E+03 0.  0.
        -11    1    3    3    0    0  0.24009695254E+02  0.22348012016E+02 -0.24665708337E+02  0.41040178792E+02  0.51100000000E-03 0.  1.
         23    2    1    0    0    0  0.96616789353E+01  0.90315662959E+01  0.26259419316E+02  0.95598055635E+02  0.90964355155E+02 0.  0.
         11    1    3    3    0    0 -0.14348016318E+02 -0.13316445720E+02  0.50925127653E+02  0.54557876843E+02  0.51100000000E-03 0. -1.
         22    1    1    0    0    0 -0.96616789353E+01 -0.90315662959E+01 -0.26259419316E+02  0.29401944365E+02  0.00000000000E+00 0. -1.
</event>
<event>
 5    1  0.1282524E-003  0.9118800E+02  0.7818608E-02  0.1130116E+00
         25   -1    0    0    0    0  0.00000000000E+00  0.00000000000E+00  0.99999998245E-14  0.12500000000E+03  0.12500000000E+03 0.  0.
        -11    1    3    3    0    0  0.53248183322E+01 -0.19231124981E+02 -0.32056815271E+02  0.37760154447E+02  0.51100000000E-03 0. -1.
         23    2    1    0    0    0 -0.63335509757E+01  0.22355323954E+02  0.11478221863E+02  0.99084291362E+02  0.95635102554E+02 0.  0.
         11    1    3    3    0    0 -0.11658369308E+02  0.41586448935E+02  0.43535037134E+02  0.61324136915E+02  0.51100000000E-03 0.  1.
         22    1    1    0    0    0  0.63335509757E+01 -0.22355323954E+02 -0.11478221863E+02  0.25915708638E+02  0.00000000000E+00 0.  1.
</event>
<event>
 5    1  0.1282524E-003  0.9118800E+02  0.7818608E-02  0.1130116E+00
         25   -1    0    0    0    0  0.00000000000E+00  0.00000000000E+00  0.99999998245E-14  0.12500000000E+03  0.12500000000E+03 0.  0.
        -11    1    3    3    0    0 -0.50691192910E+02  0.29335613146E+02 -0.58050880236E+01  0.58854687872E+02  0.51100000000E-03 0. -1.
         23    2    1    0    0    0 -0.23270445336E+02  0.61272529737E+01 -0.15885265532E+02  0.96166018032E+02  0.91741509187E+02 0.  0.
         11    1    3    3    0    0  0.27420747574E+02 -0.23208360172E+02 -0.10080177508E+02  0.37311330159E+02  0.51100000000E-03 0.  1.
         22    1    1    0    0    0  0.23270445336E+02 -0.61272529737E+01  0.15885265532E+02  0.28833981968E+02  0.00000000000E+00 0. -1.
</event>
<event>
 5    1  0.1282524E-003  0.9118800E+02  0.7818608E-02  0.1130116E+00
         25   -1    0    0    0    0  0.00000000000E+00  0.00000000000E+00  0.99999998245E-14  0.12500000000E+03  0.12500000000E+03 0.  0.
        -11    1    3    3    0    0 -0.28952805011E+02 -0.34669494541E+02 -0.14454030000E+02  0.47425286011E+02  0.51100000000E-03 0. -1.
         23    2    1    0    0    0 -0.27622102279E+02  0.10957868298E+02 -0.73591616493E-01  0.95283660594E+02  0.90531293752E+02 0.  0.
         11    1    3    3    0    0  0.13307027319E+01  0.45627362839E+02  0.14380438383E+02  0.47858374583E+02  0.51100000000E-03 0.  1.
         22    1    1    0    0    0  0.27622102279E+02 -0.10957868298E+02  0.73591616493E-01  0.29716339406E+02  0.00000000000E+00 0.  1.
</event>
<event>
 5    1  0.1282524E-003  0.9118800E+02  0.7818608E-02  0.1130116E+00
         25   -1    0    0    0    0  0.00000000000E+00  0.00000000000E+00  0.99999998245E-14  0.12500000000E+03  0.12500000000E+03 0.  0.
        -11    1    3    3    0    0  0.34934072340E+01 -0.14890045157E+02  0.59192328091E+02  0.61136315263E+02  0.51100000000E-03 0. -1.
         23    2    1    0    0    0  0.83097018017E+01 -0.42228549940E+00  0.26798077340E+02  0.96939949783E+02  0.92790018029E+02 0.  0.
         11    1    3    3    0    0  0.48162945677E+01  0.14467759658E+02 -0.32394250751E+02  0.35803634520E+02  0.51100000000E-03 0.  1.
         22    1    1    0    0    0 -0.83097018017E+01  0.42228549940E+00 -0.26798077340E+02  0.28060050217E+02  0.00000000000E+00 0. -1.
</event>
<event>
 5    1  0.1282524E-003  0.9118800E+02  0.7818608E-02  0.1130116E+00
         25   -1    0    0    0    0  0.00000000000E+00  0.00000000000E+00  0.99999998245E-14  0.12500000000E+03  0.12500000000E+03 0.  0.
        -11    1    3    3    0    0  0.34095052099E+02 -0.12185272419E+02 -0.57215672391E+01  0.36656374254E+02  0.51100000000E-03 0. -1.
         23    2    1    0    0    0 -0.12476192159E+02  0.53385642984E+01  0.26003404335E+02  0.95668571863E+02  0.91061204504E+02 0.  0.
         11    1    3    3    0    0 -0.46571244257E+02  0.17523836717E+02  0.31724971574E+02  0.59012197609E+02  0.51100000000E-03 0.  1.
         22    1    1    0    0    0  0.12476192159E+02 -0.53385642984E+01 -0.26003404335E+02  0.29331428137E+02  0.00000000000E+00 0.  1.
</event>
<event>
 5    1  0.1282524E-003  0.9118800E+02  0.7818608E-02  0.1130116E+00
         25   -1    0    0    0    0  0.00000000000E+00  0.00000000000E+00  0.99999998245E-14  0.12500000000E+03  0.12500000000E+03 0.  0.
        -11    1    3    3    0    0  0.24918872284E+02  0.56438243723E+02 -0.80602512311E+01  0.62218913528E+02  0.51100000000E-03 0.  1.
         23    2    1    0    0    0  0.12574088267E+02  0.24696108228E+02 -0.75345322828E+01  0.96281110153E+02  0.91898191158E+02 0.  0.
         11    1    3    3    0    0 -0.12344784017E+02 -0.31742135495E+02  0.52571894830E+00  0.34062196625E+02  0.51100000000E-03 0. -1.
         22    1    1    0    0    0 -0.12574088267E+02 -0.24696108228E+02  0.75345322828E+01  0.28718889847E+02  0.00000000000E+00 0.  1.
</event>
<event>
 5    1  0.1282524E-003  0.9118800E+02  0.7818608E-02  0.1130116E+00
         25   -1    0    0    0    0  0.00000000000E+00  0.00000000000E+00  0.99999998245E-14  0.12500000000E+03  0.12500000000E+03 0.  0.
        -11    1    3    3    0    0  0.40056646050E+02 -0.37925544127E+02  0.17912494462E+02  0.57997752096E+02  0.51100000000E-03 0.  1.
         23    2    1    0    0    0  0.23695168618E+02 -0.40808202681E+01  0.16913433666E+02  0.95603089477E+02  0.90971272220E+02 0.  0.
         11    1    3    3    0    0 -0.16361477432E+02  0.33844723858E+02 -0.99906079589E+00  0.37605337381E+02  0.51100000000E-03 0. -1.
         22    1    1    0    0    0 -0.23695168618E+02  0.40808202681E+01 -0.16913433666E+02  0.29396910523E+02  0.00000000000E+00 0.  1.
</event>
<event>
 5    1  0.1282524E-003  0.9118800E+02  0.7818608E-02  0.1130116E+00
         25   -1    0    0    0    0  0.00000000000E+00  0.00000000000E+00  0.99999998245E-14  0.12500000000E+03  0.12500000000E+03 0.  0.
        -11    1    3    3    0    0 -0.16739557074E+02 -0.41182316444E+02 -0.37354098176E+02  0.58064831090E+02  0.51100000000E-03 0. -1.
         23    2    1    0    0    0 -0.19459587363E+02 -0.89980448396E+01 -0.23441982425E+02  0.93232612772E+02  0.87653597718E+02 0.  0.
         11    1    3    3    0    0 -0.27200302885E+01  0.32184271604E+02  0.13912115751E+02  0.35167781682E+02  0.51100000000E-03 0.  1.
         22    1    1    0    0    0  0.19459587363E+02  0.89980448396E+01  0.23441982425E+02  0.31767387228E+02  0.00000000000E+00 0. -1.
</event>
<event>
 5    1  0.1282524E-003  0.9118800E+02  0.7818608E-02  0.1130116E+00
         25   -1    0    0    0    0  0.00000000000E+00  0.00000000000E+00  0.99999998245E-14  0.12500000000E+03  0.12500000000E+03 0.  0.
        -11    1    3    3    0    0  0.25336051939E+02 -0.14920216844E+02 -0.25931036318E+02  0.39203916173E+02  0.51100000000E-03 0. -1.
         23    2    1    0    0    0 -0.26060476484E+02 -0.14017142802E+02 -0.38149786095E+01  0.95164068831E+02  0.90366017992E+02 0.  0.
         11    1    3    3    0    0 -0.51396528423E+02  0.90307404291E+00  0.22116057708E+02  0.55960152658E+02  0.51100000000E-03 0.  1.
         22    1    1    0    0    0  0.26060476484E+02  0.14017142802E+02  0.38149786095E+01  0.29835931169E+02  0.00000000000E+00 0. -1.
</event>
<event>
 5    1  0.1282524E-003  0.9118800E+02  0.7818608E-02  0.1130116E+00
         25   -1    0    0    0    0  0.00000000000E+00  0.00000000000E+00  0.99999998245E-14  0.12500000000E+03  0.12500000000E+03 0.  0.
        -11    1    3    3    0    0 -0.29683388149E+02  0.76921220471E+01  0.28881956952E+02  0.42124098937E+02  0.51100000000E-03 0.  1.
         23    2    1    0    0    0  0.16502282430E+02 -0.15582118591E+02  0.20299856364E+02  0.94549845426E+02  0.89512353094E+02 0.  0.
         11    1    3    3    0    0  0.46185670580E+02 -0.23274240638E+02 -0.85821005882E+01  0.52425746489E+02  0.51100000000E-03 0. -1.
         22    1    1    0    0    0 -0.16502282430E+02  0.15582118591E+02 -0.20299856364E+02  0.30450154574E+02  0.00000000000E+00 0.  1.
</event>
<event>
 5    1  0.1282524E-003  0.9118800E+02  0.7818608E-02  0.1130116E+00
         25   -1    0    0    0    0  0.00000000000E+00  0.00000000000E+00  0.99999998245E-14  0.12500000000E+03  0.12500000000E+03 0.  0.
        -11    1    3    3    0    0 -0.37421606808E+02  0.20777133309E+02 -0.40667295936E+02  0.59041467492E+02  0.51100000000E-03 0. -1.
         23    2    1    0    0    0 -0.27091606685E+02  0.56036759149E+01 -0.85331998106E+01  0.96048802520E+02  0.91581660991E+02 0.  0.
         11    1    3    3    0    0  0.10330000123E+02 -0.15173457394E+02  0.32134096125E+02  0.37007335028E+02  0.51100000000E-03 0.  1.
         22    1    1    0    0    0  0.27091606685E+02 -0.56036759149E+01  0.85331998106E+01  0.28951197480E+02  0.00000000000E+00 0. -1.
</event>
<event>
 5    1  0.1282524E-003  0.9118800E+02  0.7818608E-02  0.1130116E+00
         25   -1    0    0    0    0  0.00000000000E+00  0.00000000000E+00  0.99999998245E-14  0.12500000000E+03  0.12500000000E+03 0.  0.
        -11    1    3    3    0    0  0.25832819558E+01 -0.24189904646E+01 -0.37294758755E+02  0.37462299601E+02  0.51100000000E-03 0.  1.
         23    2    1    0    0    0  0.16422837643E+02  0.15628018836E+02  0.17220262647E+02  0.96531034184E+02  0.92237511599E+02 0.  0.
         11    1    3    3    0    0  0.13839555688E+02  0.18047009301E+02  0.54515021403E+02  0.59068734582E+02  0.51100000000E-03 0. -1.
         22    1    1    0    0    0 -0.16422837643E+02 -0.15628018836E+02 -0.17220262647E+02  0.28468965816E+02  0.00000000000E+00 0. -1.
</event>
<event>
 5    1  0.1282524E-003  0.9118800E+02  0.7818608E-02  0.1130116E+00
         25   -1    0    0    0    0  0.00000000000E+00  0.00000000000E+00  0.99999998245E-14  0.12500000000E+03  0.12500000000E+03 0.  0.
        -11    1    3    3    0    0  0.18564083825E+02 -0.24441894377E+02 -0.27524136753E+02  0.41226320636E+02  0.51100000000E-03 0.  1.
         23    2    1    0    0    0 -0.93365342674E+01  0.21138652581E+02 -0.18442140293E+02  0.95434377333E+02  0.90739155458E+02 0.  0.
         11    1    3    3    0    0 -0.27900618092E+02  0.45580546958E+02  0.90819964592E+01  0.54208056697E+02  0.51100000000E-03 0. -1.
         22    1    1    0    0    0  0.93365342674E+01 -0.21138652581E+02  0.18442140293E+02  0.29565622667E+02  0.00000000000E+00 0. -1.
</event>
<event>
 5    1  0.1282524E-003  0.9118800E+02  0.7818608E-02  0.1130116E+00
         25   -1    0    0    0    0  0.00000000000E+00  0.00000000000E+00  0.99999998245E-14  0.12500000000E+03  0.12500000000E+03 0.  0.
        -11    1    3    3    0    0 -0.26837171232E+02 -0.18445008875E+02 -0.26653146951E+02  0.42081377767E+02  0.51100000000E-03 0. -1.
         23    2    1    0    0    0  0.44358605411E+01  0.23575384993E+02 -0.17620466255E+02  0.95234979131E+02  0.90464052434E+02 0.  0.
         11    1    3    3    0    0  0.31273031773E+02  0.42020393868E+02  0.90326806961E+01  0.53153601364E+02  0.51100000000E-03 0.  1.
         22    1    1    0    0    0 -0.44358605411E+01 -0.23575384993E+02  0.17620466255E+02  0.29765020869E+02  0.00000000000E+00 0.  1.
</event>
<event>
 5    1  0.1282524E-003  0.9118800E+02  0.7818608E-02  0.1130116E+00
         25   -1    0    0    0    0  0.00000000000E+00  0.00000000000E+00  0.99999998245E-14  0.12500000000E+03  0.12500000000E+03 0.  0.
        -11    1    3    3    0    0  0.63290324152E-01  0.11212681625E+02 -0.44175337050E+02  0.45576184994E+02  0.51100000000E-03 0.  1.
         23    2    1    0    0    0 -0.11777991502E+02  0.29796383357E+02 -0.23217192360E+01  0.92876240488E+02  0.87143904674E+02 0.  0.
         11    1    3    3    0    0 -0.11841281827E+02  0.18583701732E+02  0.41853617814E+02  0.47300055494E+02  0.51100000000E-03 0. -1.
         22    1    1    0    0    0  0.11777991502E+02 -0.29796383357E+02  0.23217192360E+01  0.32123759512E+02  0.00000000000E+00 0.  1.
</event>
<event>
 5    1  0.1282524E-003  0.9118800E+02  0.7818608E-02  0.1130116E+00
         25   -1    0    0    0    0  0.00000000000E+00  0.00000000000E+00  0.99999998245E-14  0.12500000000E+03  0.12500000000E+03 0.  0.
        -11    1    3    3    0    0  0.13163491072E+01  0.20557808753E+02  0.48628280160E+02  0.52811607695E+02  0.51100000000E-03 0.  1.
         23    2    1    0    0    0  0.51225187551E+01  0.11904159247E+02 -0.76985617736E+01  0.10992627919E+03  0.10888787718E+03 0.  0.
         11    1    3    3    0    0  0.38061696479E+01 -0.86536495065E+01 -0.56326841934E+02  0.57114671492E+02  0.51100000000E-03 0. -1.
         22    1    1    0    0    0 -0.51225187551E+01 -0.11904159247E+02  0.76985617736E+01  0.15073720813E+02  0.00000000000E+00 0. -1.
</event>
<event>
 5    1  0.1282524E-003  0.9118800E+02  0.7818608E-02  0.1130116E+00
         25   -1    0    0    0    0  0.00000000000E+00  0.00000000000E+00  0.99999998245E-14  0.12500000000E+03  0.12500000000E+03 0.  0.
        -11    1    3    3    0    0  0.16845206490E+02 -0.10045234311E+01 -0.48407759232E+02  0.51264814475E+02  0.51100000000E-03 0.  1.
         23    2    1    0    0    0  0.17651300185E+02  0.21474487387E+02 -0.10616155392E+02  0.95243912185E+02  0.90476394967E+02 0.  0.
         11    1    3    3    0    0  0.80609369413E+00  0.22479010818E+02  0.37791603839E+02  0.43979097710E+02  0.51100000000E-03 0. -1.
         22    1    1    0    0    0 -0.17651300185E+02 -0.21474487387E+02  0.10616155392E+02  0.29756087815E+02  0.00000000000E+00 0.  1.
</event>
<event>
 5    1  0.1282524E-003  0.9118800E+02  0.7818608E-02  0.1130116E+00
         25   -1    0    0    0    0  0.00000000000E+00  0.00000000000E+00  0.99999998245E-14  0.12500000000E+03  0.12500000000E+03 0.  0.
        -11    1    3    3    0    0 -0.10527937618E+02 -0.86403462084E+01 -0.36900324551E+02  0.39333535378E+02  0.51100000000E-03 0.  1.
         23    2    1    0    0    0 -0.62078654967E+01  0.28592218709E+02  0.47413737651E+01  0.95359939442E+02  0.90636553666E+02 0.  0.
         11    1    3    3    0    0  0.43200721218E+01  0.37232564917E+02  0.41641698316E+02  0.56026404064E+02  0.51100000000E-03 0. -1.
         22    1    1    0    0    0  0.62078654967E+01 -0.28592218709E+02 -0.47413737651E+01  0.29640060558E+02  0.00000000000E+00 0. -1.
</event>
<event>
 5    1  0.1282524E-003  0.9118800E+02  0.7818608E-02  0.1130116E+00
         25   -1    0    0    0    0  0.00000000000E+00  0.00000000000E+00  0.99999998245E-14  0.12500000000E+03  0.12500000000E+03 0.  0.
        -11    1    3    3    0    0 -0.25835986990E+02  0.17690970909E+02 -0.15266689425E+02  0.34835907936E+02  0.51100000000E-03 0.  1.
         23    2    1    0    0    0  0.17636486902E+01 -0.24419527637E+02  0.17497608715E+02  0.94906975934E+02  0.90009688276E+02 0.  0.
         11    1    3    3    0    0  0.27599635681E+02 -0.42110498546E+02  0.32764298140E+02  0.60071067998E+02  0.51100000000E-03 0. -1.
         22    1    1    0    0    0 -0.17636486902E+01  0.24419527637E+02 -0.17497608715E+02  0.30093024066E+02  0.00000000000E+00 0. -1.
</event>
<event>
 5    1  0.1282524E-003  0.9118800E+02  0.7818608E-02  0.1130116E+00
         25   -1    0    0    0    0  0.00000000000E+00  0.00000000000E+00  0.99999998245E-14  0.12500000000E+03  0.12500000000E+03 0.  0.
        -11    1    3    3    0    0  0.42184745261E+02  0.59649716912E+01 -0.36290711763E+02  0.55965608909E+02  0.51100000000E-03 0.  1.
         23    2    1    0    0    0  0.30356797112E+02 -0.96780748527E+01 -0.52124753471E+01  0.92714242103E+02  0.86911222093E+02 0.  0.
         11    1    3    3    0    0 -0.11827948149E+02 -0.15643046544E+02  0.31078236416E+02  0.36748633193E+02  0.51100000000E-03 0. -1.
         22    1    1    0    0    0 -0.30356797112E+02  0.96780748527E+01  0.52124753471E+01  0.32285757897E+02  0.00000000000E+00 0.  1.
</event>
<event>
 5    1  0.1282524E-003  0.9118800E+02  0.7818608E-02  0.1130116E+00
         25   -1    0    0    0    0  0.00000000000E+00  0.00000000000E+00  0.99999998245E-14  0.12500000000E+03  0.12500000000E+03 0.  0.
        -11    1    3    3    0    0  0.52198497709E+02 -0.21079472485E+02  0.24549366604E+01  0.56347617852E+02  0.51100000000E-03 0. -1.
         23    2    1    0    0    0  0.14944154473E+02 -0.19727863021E+02  0.15447454021E+02  0.95825693358E+02  0.91276630851E+02 0.  0.
         11    1    3    3    0    0 -0.37254343235E+02  0.13516094649E+01  0.12992517361E+02  0.39478075506E+02  0.51100000000E-03 0.  1.
         22    1    1    0    0    0 -0.14944154473E+02  0.19727863021E+02 -0.15447454021E+02  0.29174306642E+02  0.00000000000E+00 0. -1.
</event>
<event>
 5    1  0.1282524E-003  0.9118800E+02  0.7818608E-02  0.1130116E+00
         25   -1    0    0    0    0  0.00000000000E+00  0.00000000000E+00  0.99999998245E-14  0.12500000000E+03  0.12500000000E+03 0.  0.
        -11    1    3    3    0    0 -0.63934975419E+01 -0.39960360392E+02  0.13623292084E+02  0.42700132329E+02  0.51100000000E-03 0.  1.
         23    2    1    0    0    0  0.27911313142E+02 -0.19946178808E+01 -0.38152249501E+01  0.96758614708E+02  0.92545414133E+02 0.  0.
         11    1    3    3    0    0  0.34304810684E+02  0.37965742511E+02 -0.17438517034E+02  0.54058482379E+02  0.51100000000E-03 0. -1.
         22    1    1    0    0    0 -0.27911313142E+02  0.19946178808E+01  0.38152249501E+01  0.28241385292E+02  0.00000000000E+00 0. -1.
</event>
<event>
 5    1  0.1282524E-003  0.9118800E+02  0.7818608E-02  0.1130116E+00
         25   -1    0    0    0    0  0.00000000000E+00  0.00000000000E+00  0.99999998245E-14  0.12500000000E+03  0.12500000000E+03 0.  0.
        -11    1    3    3    0    0 -0.11003100971E+02 -0.35052271202E+02  0.24172705814E+02  0.43977831393E+02  0.51100000000E-03 0.  1.
         23    2    1    0    0    0 -0.12385935608E+02  0.13895284166E+02  0.26052394820E+02  0.92980980671E+02  0.87294015647E+02 0.  0.
         11    1    3    3    0    0 -0.13828346367E+01  0.48947555368E+02  0.18796890062E+01  0.49003149278E+02  0.51100000000E-03 0. -1.
         22    1    1    0    0    0  0.12385935608E+02 -0.13895284166E+02 -0.26052394820E+02  0.32019019329E+02  0.00000000000E+00 0. -1.
</event>
<event>
 5    1  0.1282524E-003  0.9118800E+02  0.7818608E-02  0.1130116E+00
         25   -1    0    0    0    0  0.00000000000E+00  0.00000000000E+00  0.99999998245E-14  0.12500000000E+03  0.12500000000E+03 0.  0.
        -11    1    3    3    0    0 -0.28325590799E+02  0.24464942238E+02 -0.44171038110E+02  0.57896054276E+02  0.51100000000E-03 0. -1.
         23    2    1    0    0    0  0.14944063624E+01  0.19674685619E+02 -0.22529645389E+02  0.95051520474E+02  0.90210199636E+02 0.  0.
         11    1    3    3    0    0  0.29819997161E+02 -0.47902566191E+01  0.21641392721E+02  0.37155466197E+02  0.51100000000E-03 0.  1.
         22    1    1    0    0    0 -0.14944063624E+01 -0.19674685619E+02  0.22529645389E+02  0.29948479526E+02  0.00000000000E+00 0. -1.
</event>
<event>
 5    1  0.1282524E-003  0.9118800E+02  0.7818608E-02  0.1130116E+00
         25   -1    0    0    0    0  0.00000000000E+00  0.00000000000E+00  0.99999998245E-14  0.12500000000E+03  0.12500000000E+03 0.  0.
        -11    1    3    3    0    0  0.16331939224E+02  0.41160968510E+02  0.42396272608E+02  0.61305803142E+02  0.51100000000E-03 0.  1.
         23    2    1    0    0    0  0.13192961097E+02  0.14411004374E+02  0.24589080550E+02  0.93593724324E+02  0.88167063470E+02 0.  0.
         11    1    3    3    0    0 -0.31389781271E+01 -0.26749964137E+02 -0.17807192058E+02  0.32287921182E+02  0.51100000000E-03 0. -1.
         22    1    1    0    0    0 -0.13192961097E+02 -0.14411004374E+02 -0.24589080550E+02  0.31406275676E+02  0.00000000000E+00 0.  1.
</event>
<event>
 5    1  0.1282524E-003  0.9118800E+02  0.7818608E-02  0.1130116E+00
         25   -1    0    0    0    0  0.00000000000E+00  0.00000000000E+00  0.99999998245E-14  0.12500000000E+03  0.12500000000E+03 0.  0.
        -11    1    3    3    0    0  0.80071393535E+01 -0.30581304167E+02 -0.15546852043E+02  0.35228327436E+02  0.51100000000E-03 0. -1.
         23    2    1    0    0    0 -0.25606053612E+02  0.16145737753E+02 -0.49553298068E+00  0.94724591132E+02  0.89756045941E+02 0.  0.
         11    1    3    3    0    0 -0.33613192966E+02  0.46727041921E+02  0.15051319063E+02  0.59496263696E+02  0.51100000000E-03 0.  1.
         22    1    1    0    0    0  0.25606053612E+02 -0.16145737753E+02  0.49553298068E+00  0.30275408868E+02  0.00000000000E+00 0.  1.
</event>
<event>
 5    1  0.1282524E-003  0.9118800E+02  0.7818608E-02  0.1130116E+00
         25   -1    0    0    0    0  0.00000000000E+00  0.00000000000E+00  0.99999998245E-14  0.12500000000E+03  0.12500000000E+03 0.  0.
        -11    1    3    3    0    0  0.52053803169E+02  0.17868822409E+02 -0.39077600628E+01  0.55173941563E+02  0.51100000000E-03 0.  1.
         23    2    1    0    0    0  0.30756862686E+02  0.51284509527E+01  0.18612693448E+02  0.88685843410E+02  0.80910202400E+02 0.  0.
         11    1    3    3    0    0 -0.21296940482E+02 -0.12740371457E+02  0.22520453511E+02  0.33511901846E+02  0.51100000000E-03 0. -1.
         22    1    1    0    0    0 -0.30756862686E+02 -0.51284509527E+01 -0.18612693448E+02  0.36314156590E+02  0.00000000000E+00 0.  1.
</event>
<event>
 5    1  0.1282524E-003  0.9118800E+02  0.7818608E-02  0.1130116E+00
         25   -1    0    0    0    0  0.00000000000E+00  0.00000000000E+00  0.99999998245E-14  0.12500000000E+03  0.12500000000E+03 0.  0.
        -11    1    3    3    0    0  0.11155875590E+02  0.33558166500E+02 -0.24289939711E+02  0.42902275819E+02  0.51100000000E-03 0.  1.
         23    2    1    0    0    0  0.26312556853E+01 -0.18459898989E+02 -0.22680154492E+02  0.95638787747E+02  0.91020310573E+02 0.  0.
         11    1    3    3    0    0 -0.85246199047E+01 -0.52018065488E+02  0.16097852188E+01  0.52736511928E+02  0.51100000000E-03 0. -1.
         22    1    1    0    0    0 -0.26312556853E+01  0.18459898989E+02  0.22680154492E+02  0.29361212253E+02  0.00000000000E+00 0. -1.
</event>
<event>
 5    1  0.1282524E-003  0.9118800E+02  0.7818608E-02  0.1130116E+00
         25   -1    0    0    0    0  0.00000000000E+00  0.00000000000E+00  0.99999998245E-14  0.12500000000E+03  0.12500000000E+03 0.  0.
        -11    1    3    3    0    0  0.16670871210E+02  0.14664296139E+02  0.27790190358E+02  0.35570411982E+02  0.51100000000E-03 0. -1.
         23    2    1    0    0    0 -0.28152140850E+02 -0.11761125079E+02  0.14862044803E+00  0.94489523347E+02  0.89428076334E+02 0.  0.
         11    1    3    3    0    0 -0.44823012060E+02 -0.26425421218E+02 -0.27641569910E+02  0.58919111365E+02  0.51100000000E-03 0.  1.
         22    1    1    0    0    0  0.28152140850E+02  0.11761125079E+02 -0.14862044803E+00  0.30510476653E+02  0.00000000000E+00 0.  1.
</event>
<event>
 5    1  0.1282524E-003  0.9118800E+02  0.7818608E-02  0.1130116E+00
         25   -1    0    0    0    0  0.00000000000E+00  0.00000000000E+00  0.99999998245E-14  0.12500000000E+03  0.12500000000E+03 0.  0.
        -11    1    3    3    0    0  0.78729800432E+01  0.32091244982E+02 -0.45842126654E+02  0.56509577911E+02  0.51100000000E-03 0.  1.
         23    2    1    0    0    0 -0.15700458505E+02  0.12075655231E+02 -0.20532416709E+02  0.96470962469E+02  0.92156066633E+02 0.  0.
         11    1    3    3    0    0 -0.23573438548E+02 -0.20015589751E+02  0.25309709945E+02  0.39961384558E+02  0.51100000000E-03 0. -1.
         22    1    1    0    0    0  0.15700458505E+02 -0.12075655231E+02  0.20532416709E+02  0.28529037531E+02  0.00000000000E+00 0.  1.
</event>
<event>
 5    1  0.1282524E-003  0.9118800E+02  0.7818608E-02  0.1130116E+00
         25   -1    0    0    0    0  0.00000000000E+00  0.00000000000E+00  0.99999998245E-14  0.12500000000E+03  0.12500000000E+03 0.  0.
        -11    1    3    3    0    0  0.45080509290E+00 -0.43380902547E+01 -0.45751094317E+02  0.45958512637E+02  0.51100000000E-03 0.  1.
         23    2    1    0    0    0 -0.28713165024E+02 -0.36738526721E+01 -0.57166933263E+01  0.95493668108E+02  0.90820796225E+02 0.  0.
         11    1    3    3    0    0 -0.29163970117E+02  0.66423758255E+00  0.40034400991E+02  0.49535155471E+02  0.51100000000E-03 0. -1.
         22    1    1    0    0    0  0.28713165024E+02  0.36738526721E+01  0.57166933263E+01  0.29506331892E+02  0.00000000000E+00 0. -1.
</event>
<event>
 5    1  0.1282524E-003  0.9118800E+02  0.7818608E-02  0.1130116E+00
         25   -1    0    0    0    0  0.00000000000E+00  0.00000000000E+00  0.99999998245E-14  0.12500000000E+03  0.12500000000E+03 0.  0.
        -11    1    3    3    0    0  0.55762423950E+02  0.14493334893E+02  0.81222355542E+01  0.58184838160E+02  0.51100000000E-03 0.  1.
         23    2    1    0    0    0  0.19822313767E+02  0.21434006357E+02 -0.54061374130E+00  0.95800119609E+02  0.91241601818E+02 0.  0.
         11    1    3    3    0    0 -0.35940110183E+02  0.69406714638E+01 -0.86628492955E+01  0.37615281449E+02  0.51100000000E-03 0. -1.
         22    1    1    0    0    0 -0.19822313767E+02 -0.21434006357E+02  0.54061374130E+00  0.29199880391E+02  0.00000000000E+00 0.  1.
</event>
<event>
 5    1  0.1282524E-003  0.9118800E+02  0.7818608E-02  0.1130116E+00
         25   -1    0    0    0    0  0.00000000000E+00  0.00000000000E+00  0.99999998245E-14  0.12500000000E+03  0.12500000000E+03 0.  0.
        -11    1    3    3    0    0 -0.35215555152E+00 -0.49788590923E+01  0.26688947586E+02  0.27151666154E+02  0.51100000000E-03 0. -1.
         23    2    1    0    0    0  0.77981261458E+01  0.25847655192E+02 -0.25208932631E+02  0.88062182865E+02  0.79940888888E+02 0.  0.
         11    1    3    3    0    0  0.81502816973E+01  0.30826514285E+02 -0.51897880217E+02  0.60910516711E+02  0.51100000000E-03 0.  1.
         22    1    1    0    0    0 -0.77981261458E+01 -0.25847655192E+02  0.25208932631E+02  0.36937817135E+02  0.00000000000E+00 0.  1.
</event>
<event>
 5    1  0.1282524E-003  0.9118800E+02  0.7818608E-02  0.1130116E+00
         25   -1    0    0    0    0  0.00000000000E+00  0.00000000000E+00  0.99999998245E-14  0.12500000000E+03  0.12500000000E+03 0.  0.
        -11    1    3    3    0    0  0.85904104435E+01 -0.32982443684E+02 -0.12985653572E+02  0.36472783578E+02  0.51100000000E-03 0.  1.
         23    2    1    0    0    0  0.13485648802E+02  0.25434785151E+02 -0.17787593154E+01  0.96156369785E+02  0.91728362278E+02 0.  0.
         11    1    3    3    0    0  0.48952383586E+01  0.58417228835E+02  0.11206894256E+02  0.59683586207E+02  0.51100000000E-03 0. -1.
         22    1    1    0    0    0 -0.13485648802E+02 -0.25434785151E+02  0.17787593154E+01  0.28843630215E+02  0.00000000000E+00 0. -1.
</event>
<event>
 5    1  0.1282524E-003  0.9118800E+02  0.7818608E-02  0.1130116E+00
         25   -1    0    0    0    0  0.00000000000E+00  0.00000000000E+00  0.99999998245E-14  0.12500000000E+03  0.12500000000E+03 0.  0.
        -11    1    3    3    0    0  0.17527552842E+02  0.36826444901E+01  0.13185412997E+02  0.22240325879E+02  0.51100000000E-03 0. -1.
         23    2    1    0    0    0 -0.36612144416E+02  0.21495264159E+02 -0.54306863712E+01  0.82198272763E+02  0.70175267658E+02 0.  0.
         11    1    3    3    0    0 -0.54139697257E+02  0.17812619669E+02 -0.18616099368E+02  0.59957946884E+02  0.51100000000E-03 0.  1.
         22    1    1    0    0    0  0.36612144416E+02 -0.21495264159E+02  0.54306863712E+01  0.42801727237E+02  0.00000000000E+00 0.  1.
</event>
<event>
 5    1  0.1282524E-003  0.9118800E+02  0.7818608E-02  0.1130116E+00
         25   -1    0    0    0    0  0.00000000000E+00  0.00000000000E+00  0.99999998245E-14  0.12500000000E+03  0.12500000000E+03 0.  0.
        -11    1    3    3    0    0  0.12019411928E+02  0.48593298024E+02 -0.27031830934E+02  0.56890199155E+02  0.51100000000E-03 0. -1.
         23    2    1    0    0    0  0.60805834656E+00  0.30251009209E+02  0.37665659610E+01  0.94509340574E+02  0.89455771996E+02 0.  0.
         11    1    3    3    0    0 -0.11411353582E+02 -0.18342288815E+02  0.30798396895E+02  0.37619141419E+02  0.51100000000E-03 0.  1.
         22    1    1    0    0    0 -0.60805834656E+00 -0.30251009209E+02 -0.37665659610E+01  0.30490659426E+02  0.00000000000E+00 0. -1.
</event>
<event>
 5    1  0.1282524E-003  0.9118800E+02  0.7818608E-02  0.1130116E+00
         25   -1    0    0    0    0  0.00000000000E+00  0.00000000000E+00  0.99999998245E-14  0.12500000000E+03  0.12500000000E+03 0.  0.
        -11    1    3    3    0    0  0.16585231513E+02 -0.55932130363E+02 -0.17731479955E+02  0.60974408509E+02  0.51100000000E-03 0. -1.
         23    2    1    0    0    0  0.62301003012E+01 -0.31526370652E+02 -0.93910170984E-02  0.92863941056E+02  0.87126260473E+02 0.  0.
         11    1    3    3    0    0 -0.10355131212E+02  0.24405759711E+02  0.17722088938E+02  0.31889532547E+02  0.51100000000E-03 0.  1.
         22    1    1    0    0    0 -0.62301003012E+01  0.31526370652E+02  0.93910170984E-02  0.32136058944E+02  0.00000000000E+00 0. -1.
</event>
<event>
 5    1  0.1282524E-003  0.9118800E+02  0.7818608E-02  0.1130116E+00
         25   -1    0    0    0    0  0.00000000000E+00  0.00000000000E+00  0.99999998245E-14  0.12500000000E+03  0.12500000000E+03 0.  0.
        -11    1    3    3    0    0 -0.37843737699E+02  0.31670456803E+02 -0.27521432834E+02  0.56503058170E+02  0.51100000000E-03 0. -1.
         23    2    1    0    0    0 -0.25304220135E+02 -0.13510627104E+01 -0.30439231895E+01  0.99477570737E+02  0.96147764843E+02 0.  0.
         11    1    3    3    0    0  0.12539517564E+02 -0.33021519514E+02  0.24477509644E+02  0.42974512567E+02  0.51100000000E-03 0.  1.
         22    1    1    0    0    0  0.25304220135E+02  0.13510627104E+01  0.30439231895E+01  0.25522429263E+02  0.00000000000E+00 0. -1.
</event>
<event>
 5    1  0.1282524E-003  0.9118800E+02  0.7818608E-02  0.1130116E+00
         25   -1    0    0    0    0  0.00000000000E+00  0.00000000000E+00  0.99999998245E-14  0.12500000000E+03  0.12500000000E+03 0.  0.
        -11    1    3    3    0    0  0.81911707534E+01 -0.31784336595E+02  0.32235523220E+02  0.46005089812E+02  0.51100000000E-03 0.  1.
         23    2    1    0    0    0  0.28099691396E+02 -0.57641906003E+01 -0.53018825272E+01  0.95829321089E+02  0.91281598760E+02 0.  0.
         11    1    3    3    0    0  0.19908520642E+02  0.26020145995E+02 -0.37537405747E+02  0.49824231276E+02  0.51100000000E-03 0. -1.
         22    1    1    0    0    0 -0.28099691396E+02  0.57641906003E+01  0.53018825272E+01  0.29170678911E+02  0.00000000000E+00 0. -1.
</event>
<event>
 5    1  0.1282524E-003  0.9118800E+02  0.7818608E-02  0.1130116E+00
         25   -1    0    0    0    0  0.00000000000E+00  0.00000000000E+00  0.99999998245E-14  0.12500000000E+03  0.12500000000E+03 0.  0.
        -11    1    3    3    0    0  0.27841586096E+02 -0.19005844659E+02 -0.40039649173E+01  0.33947132174E+02  0.51100000000E-03 0.  1.
         23    2    1    0    0    0 -0.20518021780E+02  0.15014087382E+01 -0.26804788331E+02  0.91210354790E+02  0.84720650950E+02 0.  0.
         11    1    3    3    0    0 -0.48359607875E+02  0.20507253397E+02 -0.22800823414E+02  0.57263222616E+02  0.51100000000E-03 0. -1.
         22    1    1    0    0    0  0.20518021780E+02 -0.15014087382E+01  0.26804788331E+02  0.33789645210E+02  0.00000000000E+00 0. -1.
</event>
<event>
 5    1  0.1282524E-003  0.9118800E+02  0.7818608E-02  0.1130116E+00
         25   -1    0    0    0    0  0.00000000000E+00  0.00000000000E+00  0.99999998245E-14  0.12500000000E+03  0.12500000000E+03 0.  0.
        -11    1    3    3    0    0  0.65480204302E+01  0.53831901450E+02  0.22612334155E+02  0.58754300622E+02  0.51100000000E-03 0.  1.
         23    2    1    0    0    0  0.12721330648E+02  0.17209082230E+02  0.19540206135E+02  0.96020620772E+02  0.91543187583E+02 0.  0.
         11    1    3    3    0    0  0.61733102175E+01 -0.36622819220E+02 -0.30721280201E+01  0.37266320150E+02  0.51100000000E-03 0. -1.
         22    1    1    0    0    0 -0.12721330648E+02 -0.17209082230E+02 -0.19540206135E+02  0.28979379228E+02  0.00000000000E+00 0.  1.
</event>
<event>
 5    1  0.1282524E-003  0.9118800E+02  0.7818608E-02  0.1130116E+00
         25   -1    0    0    0    0  0.00000000000E+00  0.00000000000E+00  0.99999998245E-14  0.12500000000E+03  0.12500000000E+03 0.  0.
        -11    1    3    3    0    0  0.33416430372E+01  0.40058785837E+02  0.16195769325E+02  0.43337926176E+02  0.51100000000E-03 0. -1.
         23    2    1    0    0    0 -0.14157752171E+02 -0.26724658270E+01 -0.18826773349E+02  0.10129279825E+03  0.98479437256E+02 0.  0.
         11    1    3    3    0    0 -0.17499395208E+02 -0.42731251664E+02 -0.35022542674E+02  0.57954872073E+02  0.51100000000E-03 0.  1.
         22    1    1    0    0    0  0.14157752171E+02  0.26724658270E+01  0.18826773349E+02  0.23707201751E+02  0.00000000000E+00 0.  1.
</event>
<event>
 5    1  0.1282524E-003  0.9118800E+02  0.7818608E-02  0.1130116E+00
         25   -1    0    0    0    0  0.00000000000E+00  0.00000000000E+00  0.99999998245E-14  0.12500000000E+03  0.12500000000E+03 0.  0.
        -11    1    3    3    0    0 -0.17611616155E+02  0.23660147592E+02  0.21050236660E+02  0.36236501919E+02  0.51100000000E-03 0. -1.
         23    2    1    0    0    0  0.33595795300E+01 -0.58755175620E+01 -0.27425711795E+02  0.96751492983E+02  0.92535794402E+02 0.  0.
         11    1    3    3    0    0  0.20971195685E+02 -0.29535665154E+02 -0.48475948455E+02  0.60514991063E+02  0.51100000000E-03 0.  1.
         22    1    1    0    0    0 -0.33595795300E+01  0.58755175620E+01  0.27425711795E+02  0.28248507017E+02  0.00000000000E+00 0.  1.
</event>
<event>
 5    1  0.1282524E-003  0.9118800E+02  0.7818608E-02  0.1130116E+00
         25   -1    0    0    0    0  0.00000000000E+00  0.00000000000E+00  0.99999998245E-14  0.12500000000E+03  0.12500000000E+03 0.  0.
        -11    1    3    3    0    0 -0.71050040939E+01 -0.25741487041E+02 -0.15539045233E+01  0.26749202937E+02  0.51100000000E-03 0.  1.
         23    2    1    0    0    0 -0.25150120544E+02  0.27937960649E+02 -0.14272199267E+02  0.84791121870E+02  0.74651058047E+02 0.  0.
         11    1    3    3    0    0 -0.18045116450E+02  0.53679447690E+02 -0.12718294744E+02  0.58041918933E+02  0.51100000000E-03 0. -1.
         22    1    1    0    0    0  0.25150120544E+02 -0.27937960649E+02  0.14272199267E+02  0.40208878130E+02  0.00000000000E+00 0. -1.
</event>
<event>
 5    1  0.1282524E-003  0.9118800E+02  0.7818608E-02  0.1130116E+00
         25   -1    0    0    0    0  0.00000000000E+00  0.00000000000E+00  0.99999998245E-14  0.12500000000E+03  0.12500000000E+03 0.  0.
        -11    1    3    3    0    0 -0.31294078316E+02 -0.68271088468E+01  0.19254029459E+02  0.37371732680E+02  0.51100000000E-03 0.  1.
         23    2    1    0    0    0  0.14030329221E+02  0.24940117651E+02 -0.11493782213E+01  0.96361203293E+02  0.92007069420E+02 0.  0.
         11    1    3    3    0    0  0.45324407537E+02  0.31767226498E+02 -0.20403407681E+02  0.58989470613E+02  0.51100000000E-03 0. -1.
         22    1    1    0    0    0 -0.14030329221E+02 -0.24940117651E+02  0.11493782213E+01  0.28638796707E+02  0.00000000000E+00 0. -1.
</event>
<event>
 5    1  0.1282524E-003  0.9118800E+02  0.7818608E-02  0.1130116E+00
         25   -1    0    0    0    0  0.00000000000E+00  0.00000000000E+00  0.99999998245E-14  0.12500000000E+03  0.12500000000E+03 0.  0.
        -11    1    3    3    0    0 -0.26161782488E+02 -0.23909921475E+02  0.40750007189E+02  0.54006354200E+02  0.51100000000E-03 0.  1.
         23    2    1    0    0    0 -0.27862492058E+01  0.82612888442E+01  0.27856223321E+02  0.95811282047E+02  0.91256892955E+02 0.  0.
         11    1    3    3    0    0  0.23375533282E+02  0.32171210319E+02 -0.12893783868E+02  0.41804927847E+02  0.51100000000E-03 0. -1.
         22    1    1    0    0    0  0.27862492058E+01 -0.82612888442E+01 -0.27856223321E+02  0.29188717953E+02  0.00000000000E+00 0.  1.
</event>
<event>
 5    1  0.1282524E-003  0.9118800E+02  0.7818608E-02  0.1130116E+00
         25   -1    0    0    0    0  0.00000000000E+00  0.00000000000E+00  0.99999998245E-14  0.12500000000E+03  0.12500000000E+03 0.  0.
        -11    1    3    3    0    0  0.14679866576E+02  0.20376384172E+02  0.23243198589E+02  0.34219026805E+02  0.51100000000E-03 0. -1.
         23    2    1    0    0    0  0.26368865891E+01 -0.14581311833E+02 -0.25565263173E+02  0.95450879764E+02  0.90761885948E+02 0.  0.
         11    1    3    3    0    0 -0.12042979987E+02 -0.34957696005E+02 -0.48808461762E+02  0.61231852958E+02  0.51100000000E-03 0.  1.
         22    1    1    0    0    0 -0.26368865891E+01  0.14581311833E+02  0.25565263173E+02  0.29549120236E+02  0.00000000000E+00 0.  1.
</event>
<event>
 5    1  0.1282524E-003  0.9118800E+02  0.7818608E-02  0.1130116E+00
         25   -1    0    0    0    0  0.00000000000E+00  0.00000000000E+00  0.99999998245E-14  0.12500000000E+03  0.12500000000E+03 0.  0.
        -11    1    3    3    0    0 -0.23907376964E+02  0.34086713418E+01 -0.32068171274E+01  0.24361145087E+02  0.51100000000E-03 0. -1.
         23    2    1    0    0    0  0.23743614724E+02  0.24629472721E+02 -0.26732458513E+02  0.81583476592E+02  0.69071478543E+02 0.  0.
         11    1    3    3    0    0  0.47650991688E+02  0.21220801379E+02 -0.23525641386E+02  0.57222331505E+02  0.51100000000E-03 0.  1.
         22    1    1    0    0    0 -0.23743614724E+02 -0.24629472721E+02  0.26732458513E+02  0.43416523408E+02  0.00000000000E+00 0.  1.
</event>
<event>
 5    1  0.1282524E-003  0.9118800E+02  0.7818608E-02  0.1130116E+00
         25   -1    0    0    0    0  0.00000000000E+00  0.00000000000E+00  0.99999998245E-14  0.12500000000E+03  0.12500000000E+03 0.  0.
        -11    1    3    3    0    0 -0.26767551829E+01 -0.31425595742E+02 -0.24369847097E+01  0.31633399767E+02  0.51100000000E-03 0. -1.
         23    2    1    0    0    0  0.58188812898E+01  0.29911578194E+02  0.54094216930E+01  0.94051272521E+02  0.88813389364E+02 0.  0.
         11    1    3    3    0    0  0.84956364727E+01  0.61337173936E+02  0.78464064028E+01  0.62417872755E+02  0.51100000000E-03 0.  1.
         22    1    1    0    0    0 -0.58188812898E+01 -0.29911578194E+02 -0.54094216930E+01  0.30948727479E+02  0.00000000000E+00 0.  1.
</event>
<event>
 5    1  0.1282524E-003  0.9118800E+02  0.7818608E-02  0.1130116E+00
         25   -1    0    0    0    0  0.00000000000E+00  0.00000000000E+00  0.99999998245E-14  0.12500000000E+03  0.12500000000E+03 0.  0.
        -11    1    3    3    0    0 -0.16761490266E+02 -0.11839412927E+01  0.30323288536E+02  0.34667724194E+02  0.51100000000E-03 0. -1.
         23    2    1    0    0    0  0.19181867316E+02  0.45154185620E+01 -0.20099447801E+02  0.96851805734E+02  0.92671200670E+02 0.  0.
         11    1    3    3    0    0  0.35943357581E+02  0.56993598547E+01 -0.50422736337E+02  0.62184081540E+02  0.51100000000E-03 0.  1.
         22    1    1    0    0    0 -0.19181867316E+02 -0.45154185620E+01  0.20099447801E+02  0.28148194266E+02  0.00000000000E+00 0.  1.
</event>
<event>
 5    1  0.1282524E-003  0.9118800E+02  0.7818608E-02  0.1130116E+00
         25   -1    0    0    0    0  0.00000000000E+00  0.00000000000E+00  0.99999998245E-14  0.12500000000E+03  0.12500000000E+03 0.  0.
        -11    1    3    3    0    0 -0.22581318004E+02  0.35712423070E+02  0.16925313165E+02  0.45516582806E+02  0.51100000000E-03 0. -1.
         23    2    1    0    0    0 -0.26739590656E+02 -0.46209656360E+01 -0.12005553953E+02  0.95326908527E+02  0.90590988138E+02 0.  0.
         11    1    3    3    0    0 -0.41582726515E+01 -0.40333388706E+02 -0.28930867118E+02  0.49810325721E+02  0.51100000000E-03 0.  1.
         22    1    1    0    0    0  0.26739590656E+02  0.46209656360E+01  0.12005553953E+02  0.29673091473E+02  0.00000000000E+00 0.  1.
</event>
<event>
 5    1  0.1282524E-003  0.9118800E+02  0.7818608E-02  0.1130116E+00
         25   -1    0    0    0    0  0.00000000000E+00  0.00000000000E+00  0.99999998245E-14  0.12500000000E+03  0.12500000000E+03 0.  0.
        -11    1    3    3    0    0  0.20983195067E+02 -0.27225042006E+00 -0.38032208506E+02  0.43437512355E+02  0.51100000000E-03 0. -1.
         23    2    1    0    0    0  0.22483894347E+02 -0.15653182018E+02  0.11472815134E+02  0.95298601053E+02  0.90551920263E+02 0.  0.
         11    1    3    3    0    0  0.15006992802E+01 -0.15380931598E+02  0.49505023639E+02  0.51861088698E+02  0.51100000000E-03 0.  1.
         22    1    1    0    0    0 -0.22483894347E+02  0.15653182018E+02 -0.11472815134E+02  0.29701398947E+02  0.00000000000E+00 0. -1.
</event>
<event>
 5    1  0.1282524E-003  0.9118800E+02  0.7818608E-02  0.1130116E+00
         25   -1    0    0    0    0  0.00000000000E+00  0.00000000000E+00  0.99999998245E-14  0.12500000000E+03  0.12500000000E+03 0.  0.
        -11    1    3    3    0    0  0.14520837513E+00 -0.47831673959E+02 -0.30852944541E+02  0.56919191019E+02  0.51100000000E-03 0.  1.
         23    2    1    0    0    0  0.17859359941E+02 -0.21894507112E+02 -0.84174406252E+01  0.95518149891E+02  0.90854485154E+02 0.  0.
         11    1    3    3    0    0  0.17714151566E+02  0.25937166847E+02  0.22435503916E+02  0.38598958871E+02  0.51100000000E-03 0. -1.
         22    1    1    0    0    0 -0.17859359941E+02  0.21894507112E+02  0.84174406252E+01  0.29481850109E+02  0.00000000000E+00 0.  1.
</event>
<event>
 5    1  0.1282524E-003  0.9118800E+02  0.7818608E-02  0.1130116E+00
         25   -1    0    0    0    0  0.00000000000E+00  0.00000000000E+00  0.99999998245E-14  0.12500000000E+03  0.12500000000E+03 0.  0.
        -11    1    3    3    0    0 -0.21030629457E+01 -0.29639047839E+02  0.20538893324E+02  0.36121214955E+02  0.51100000000E-03 0.  1.
         23    2    1    0    0    0 -0.53063066657E+01  0.28047867079E+02  0.92820176290E+01  0.94983411430E+02  0.90115774742E+02 0.  0.
         11    1    3    3    0    0 -0.32032437200E+01  0.57686914919E+02 -0.11256875695E+02  0.58862196475E+02  0.51100000000E-03 0. -1.
         22    1    1    0    0    0  0.53063066657E+01 -0.28047867079E+02 -0.92820176290E+01  0.30016588570E+02  0.00000000000E+00 0. -1.
</event>
<event>
 5    1  0.1282524E-003  0.9118800E+02  0.7818608E-02  0.1130116E+00
         25   -1    0    0    0    0  0.00000000000E+00  0.00000000000E+00  0.99999998245E-14  0.12500000000E+03  0.12500000000E+03 0.  0.
        -11    1    3    3    0    0  0.37455741573E+02 -0.62801684000E+00 -0.27206602892E+02  0.46298231317E+02  0.51100000000E-03 0.  1.
         23    2    1    0    0    0 -0.10244488285E+02  0.38327088182E+01 -0.28758452022E+02  0.94231708532E+02  0.89066981161E+02 0.  0.
         11    1    3    3    0    0 -0.47700229858E+02  0.44607256582E+01 -0.15518491302E+01  0.47933477215E+02  0.51100000000E-03 0. -1.
         22    1    1    0    0    0  0.10244488285E+02 -0.38327088182E+01  0.28758452022E+02  0.30768291468E+02  0.00000000000E+00 0. -1.
</event>
<event>
 5    1  0.1282524E-003  0.9118800E+02  0.7818608E-02  0.1130116E+00
         25   -1    0    0    0    0  0.00000000000E+00  0.00000000000E+00  0.99999998245E-14  0.12500000000E+03  0.12500000000E+03 0.  0.
        -11    1    3    3    0    0  0.20820088640E+02 -0.25179787412E+02 -0.52343734530E+02  0.61703843721E+02  0.51100000000E-03 0.  1.
         23    2    1    0    0    0  0.16141175720E+02 -0.11712750574E+02 -0.21548489194E+02  0.95639082675E+02  0.91020715602E+02 0.  0.
         11    1    3    3    0    0 -0.46789129194E+01  0.13467036838E+02  0.30795245336E+02  0.33935238955E+02  0.51100000000E-03 0. -1.
         22    1    1    0    0    0 -0.16141175720E+02  0.11712750574E+02  0.21548489194E+02  0.29360917325E+02  0.00000000000E+00 0.  1.
</event>
<event>
 5    1  0.1282524E-003  0.9118800E+02  0.7818608E-02  0.1130116E+00
         25   -1    0    0    0    0  0.00000000000E+00  0.00000000000E+00  0.99999998245E-14  0.12500000000E+03  0.12500000000E+03 0.  0.
        -11    1    3    3    0    0  0.44118168876E+01 -0.30036717645E+02  0.48526755371E+02  0.57240846624E+02  0.51100000000E-03 0. -1.
         23    2    1    0    0    0 -0.15915795889E+02 -0.14911689413E+02  0.19824426136E+02  0.95526640647E+02  0.90866166210E+02 0.  0.
         11    1    3    3    0    0 -0.20327612777E+02  0.15125028232E+02 -0.28702329234E+02  0.38285794023E+02  0.51100000000E-03 0.  1.
         22    1    1    0    0    0  0.15915795889E+02  0.14911689413E+02 -0.19824426136E+02  0.29473359353E+02  0.00000000000E+00 0. -1.
</event>
<event>
 5    1  0.1282524E-003  0.9118800E+02  0.7818608E-02  0.1130116E+00
         25   -1    0    0    0    0  0.00000000000E+00  0.00000000000E+00  0.99999998245E-14  0.12500000000E+03  0.12500000000E+03 0.  0.
        -11    1    3    3    0    0  0.25965841615E+00  0.48913305219E+02 -0.37303765033E+02  0.61515443068E+02  0.51100000000E-03 0. -1.
         23    2    1    0    0    0 -0.59774459760E+01  0.19051550709E+02 -0.20666012233E+02  0.96263690104E+02  0.91874493338E+02 0.  0.
         11    1    3    3    0    0 -0.62371043922E+01 -0.29861754510E+02  0.16637752800E+02  0.34748247037E+02  0.51100000000E-03 0.  1.
         22    1    1    0    0    0  0.59774459760E+01 -0.19051550709E+02  0.20666012233E+02  0.28736309896E+02  0.00000000000E+00 0. -1.
</event>
<event>
 5    1  0.1282524E-003  0.9118800E+02  0.7818608E-02  0.1130116E+00
         25   -1    0    0    0    0  0.00000000000E+00  0.00000000000E+00  0.99999998245E-14  0.12500000000E+03  0.12500000000E+03 0.  0.
        -11    1    3    3    0    0  0.19532453181E+02  0.27177254409E+02 -0.45751098784E+02  0.56685826489E+02  0.51100000000E-03 0.  1.
         23    2    1    0    0    0 -0.95053489992E+01  0.10505234476E+02 -0.25532614242E+02  0.95800239709E+02  0.91241766353E+02 0.  0.
         11    1    3    3    0    0 -0.29037802180E+02 -0.16672019933E+02  0.20218484542E+02  0.39114413220E+02  0.51100000000E-03 0. -1.
         22    1    1    0    0    0  0.95053489992E+01 -0.10505234476E+02  0.25532614242E+02  0.29199760291E+02  0.00000000000E+00 0.  1.
</event>
<event>
 5    1  0.1282524E-003  0.9118800E+02  0.7818608E-02  0.1130116E+00
         25   -1    0    0    0    0  0.00000000000E+00  0.00000000000E+00  0.99999998245E-14  0.12500000000E+03  0.12500000000E+03 0.  0.
        -11    1    3    3    0    0 -0.36261268608E+02  0.36105977591E+02 -0.33566101778E+02  0.61198075197E+02  0.51100000000E-03 0.  1.
         23    2    1    0    0    0 -0.31105828149E+02  0.20135343868E+02 -0.19319272708E+02  0.83211976411E+02  0.71958280293E+02 0.  0.
         11    1    3    3    0    0  0.51554404592E+01 -0.15970633723E+02  0.14246829071E+02  0.22013901215E+02  0.51100000000E-03 0. -1.
         22    1    1    0    0    0  0.31105828149E+02 -0.20135343868E+02  0.19319272708E+02  0.41788023589E+02  0.00000000000E+00 0.  1.
</event>
<event>
 5    1  0.1282524E-003  0.9118800E+02  0.7818608E-02  0.1130116E+00
         25   -1    0    0    0    0  0.00000000000E+00  0.00000000000E+00  0.99999998245E-14  0.12500000000E+03  0.12500000000E+03 0.  0.
        -11    1    3    3    0    0 -0.17774338623E+02  0.41231691754E+02  0.90278059060E+01  0.45798261955E+02  0.51100000000E-03 0. -1.
         23    2    1    0    0    0 -0.64581201150E+01  0.85051136898E+01  0.34564132498E+02  0.88823715923E+02  0.81122925124E+02 0.  0.
         11    1    3    3    0    0  0.11316218508E+02 -0.32726578064E+02  0.25536326592E+02  0.43025453968E+02  0.51100000000E-03 0.  1.
         22    1    1    0    0    0  0.64581201150E+01 -0.85051136898E+01 -0.34564132498E+02  0.36176284077E+02  0.00000000000E+00 0. -1.
</event>
<event>
 5    1  0.1282524E-003  0.9118800E+02  0.7818608E-02  0.1130116E+00
         25   -1    0    0    0    0  0.00000000000E+00  0.00000000000E+00  0.99999998245E-14  0.12500000000E+03  0.12500000000E+03 0.  0.
        -11    1    3    3    0    0  0.19638666979E+02  0.24233819352E+02  0.16388762503E+02  0.35235589646E+02  0.51100000000E-03 0. -1.
         23    2    1    0    0    0 -0.18386284430E+02 -0.79689984806E+01 -0.19807635698E+02  0.96823718771E+02  0.92633307685E+02 0.  0.
         11    1    3    3    0    0 -0.38024951409E+02 -0.32202817833E+02 -0.36196398201E+02  0.61588129124E+02  0.51100000000E-03 0.  1.
         22    1    1    0    0    0  0.18386284430E+02  0.79689984806E+01  0.19807635698E+02  0.28176281229E+02  0.00000000000E+00 0.  1.
</event>
<event>
 5    1  0.1282524E-003  0.9118800E+02  0.7818608E-02  0.1130116E+00
         25   -1    0    0    0    0  0.00000000000E+00  0.00000000000E+00  0.99999998245E-14  0.12500000000E+03  0.12500000000E+03 0.  0.
        -11    1    3    3    0    0  0.23495023976E+02 -0.24538144373E+02  0.33969952208E+02  0.48042630384E+02  0.51100000000E-03 0. -1.
         23    2    1    0    0    0  0.27739499597E+02 -0.86290719167E+01 -0.94268621101E+01  0.94458119749E+02  0.89384170507E+02 0.  0.
         11    1    3    3    0    0  0.42444756205E+01  0.15909072457E+02 -0.43396814319E+02  0.46415489365E+02  0.51100000000E-03 0.  1.
         22    1    1    0    0    0 -0.27739499597E+02  0.86290719167E+01  0.94268621101E+01  0.30541880251E+02  0.00000000000E+00 0.  1.
</event>
<event>
 5    1  0.1282524E-003  0.9118800E+02  0.7818608E-02  0.1130116E+00
         25   -1    0    0    0    0  0.00000000000E+00  0.00000000000E+00  0.99999998245E-14  0.12500000000E+03  0.12500000000E+03 0.  0.
        -11    1    3    3    0    0  0.37981204744E+02 -0.90933238344E+01  0.47579034052E+02  0.61555056119E+02  0.51100000000E-03 0.  1.
         23    2    1    0    0    0  0.15150675459E+02 -0.11485782439E+02  0.21218254812E+02  0.96509992938E+02  0.92208992157E+02 0.  0.
         11    1    3    3    0    0 -0.22830529285E+02 -0.23924586050E+01 -0.26360779241E+02  0.34954936820E+02  0.51100000000E-03 0. -1.
         22    1    1    0    0    0 -0.15150675459E+02  0.11485782439E+02 -0.21218254812E+02  0.28490007062E+02  0.00000000000E+00 0.  1.
</event>
<event>
 5    1  0.1282524E-003  0.9118800E+02  0.7818608E-02  0.1130116E+00
         25   -1    0    0    0    0  0.00000000000E+00  0.00000000000E+00  0.99999998245E-14  0.12500000000E+03  0.12500000000E+03 0.  0.
        -11    1    3    3    0    0  0.15650841759E+02  0.32575545485E+02 -0.18851652358E+02  0.40761499093E+02  0.51100000000E-03 0.  1.
         23    2    1    0    0    0  0.86477770374E+01 -0.88582856186E+01  0.22247407505E+02  0.99540219709E+02  0.96229179188E+02 0.  0.
         11    1    3    3    0    0 -0.70030647218E+01 -0.41433831104E+02  0.41099059863E+02  0.58778720616E+02  0.51100000000E-03 0. -1.
         22    1    1    0    0    0 -0.86477770374E+01  0.88582856186E+01 -0.22247407505E+02  0.25459780291E+02  0.00000000000E+00 0. -1.
</event>
<event>
 5    1  0.1282524E-003  0.9118800E+02  0.7818608E-02  0.1130116E+00
         25   -1    0    0    0    0  0.00000000000E+00  0.00000000000E+00  0.99999998245E-14  0.12500000000E+03  0.12500000000E+03 0.  0.
        -11    1    3    3    0    0  0.44091248325E+01 -0.52072565374E+02  0.25733644821E+02  0.58251291166E+02  0.51100000000E-03 0.  1.
         23    2    1    0    0    0 -0.35112129220E+01 -0.29234315123E+02 -0.25359791847E+01  0.95446574017E+02  0.90755955751E+02 0.  0.
         11    1    3    3    0    0 -0.79203377545E+01  0.22838250252E+02 -0.28269624006E+02  0.37195282851E+02  0.51100000000E-03 0. -1.
         22    1    1    0    0    0  0.35112129220E+01  0.29234315123E+02  0.25359791847E+01  0.29553425983E+02  0.00000000000E+00 0.  1.
</event>
<event>
 5    1  0.1282524E-003  0.9118800E+02  0.7818608E-02  0.1130116E+00
         25   -1    0    0    0    0  0.00000000000E+00  0.00000000000E+00  0.99999998245E-14  0.12500000000E+03  0.12500000000E+03 0.  0.
        -11    1    3    3    0    0  0.23564579304E+02  0.60893966623E+01  0.37920319520E+02  0.45059081019E+02  0.51100000000E-03 0. -1.
         23    2    1    0    0    0 -0.19613530707E+02 -0.11546447882E+02  0.18848927904E+02  0.95448466561E+02  0.90758562352E+02 0.  0.
         11    1    3    3    0    0 -0.43178110011E+02 -0.17635844544E+02 -0.19071391616E+02  0.50389385542E+02  0.51100000000E-03 0.  1.
         22    1    1    0    0    0  0.19613530707E+02  0.11546447882E+02 -0.18848927904E+02  0.29551533439E+02  0.00000000000E+00 0.  1.
</event>
<event>
 5    1  0.1282524E-003  0.9118800E+02  0.7818608E-02  0.1130116E+00
         25   -1    0    0    0    0  0.00000000000E+00  0.00000000000E+00  0.99999998245E-14  0.12500000000E+03  0.12500000000E+03 0.  0.
        -11    1    3    3    0    0 -0.16669497564E+02  0.80267480610E+01  0.34310856341E+02  0.38981222359E+02  0.51100000000E-03 0. -1.
         23    2    1    0    0    0 -0.11160668932E+02  0.16742332739E+02 -0.21392954734E+02  0.95631228341E+02  0.91009928498E+02 0.  0.
         11    1    3    3    0    0  0.55088286326E+01  0.87155846776E+01 -0.55703811075E+02  0.56650005982E+02  0.51100000000E-03 0.  1.
         22    1    1    0    0    0  0.11160668932E+02 -0.16742332739E+02  0.21392954734E+02  0.29368771659E+02  0.00000000000E+00 0.  1.
</event>
<event>
 5    1  0.1282524E-003  0.9118800E+02  0.7818608E-02  0.1130116E+00
         25   -1    0    0    0    0  0.00000000000E+00  0.00000000000E+00  0.99999998245E-14  0.12500000000E+03  0.12500000000E+03 0.  0.
        -11    1    3    3    0    0  0.39955447142E+02  0.70166827312E+01  0.44624898085E+02  0.60307985559E+02  0.51100000000E-03 0. -1.
         23    2    1    0    0    0  0.10109045629E+02  0.11285094817E+02  0.23183922908E+02  0.97304504880E+02  0.93279827508E+02 0.  0.
         11    1    3    3    0    0 -0.29846401513E+02  0.42684120856E+01 -0.21440975177E+02  0.36996519320E+02  0.51100000000E-03 0.  1.
         22    1    1    0    0    0 -0.10109045629E+02 -0.11285094817E+02 -0.23183922908E+02  0.27695495120E+02  0.00000000000E+00 0. -1.
</event>
<event>
 5    1  0.1282524E-003  0.9118800E+02  0.7818608E-02  0.1130116E+00
         25   -1    0    0    0    0  0.00000000000E+00  0.00000000000E+00  0.99999998245E-14  0.12500000000E+03  0.12500000000E+03 0.  0.
        -11    1    3    3    0    0 -0.36983577052E+02  0.30835770246E+02 -0.26793328186E+02  0.55104556380E+02  0.51100000000E-03 0.  1.
         23    2    1    0    0    0 -0.23042306713E+02 -0.71182421241E+01 -0.95543869980E+01  0.99059614873E+02  0.95602843673E+02 0.  0.
         11    1    3    3    0    0  0.13941270339E+02 -0.37954012370E+02  0.17238941188E+02  0.43955058494E+02  0.51100000000E-03 0. -1.
         22    1    1    0    0    0  0.23042306713E+02  0.71182421241E+01  0.95543869980E+01  0.25940385127E+02  0.00000000000E+00 0. -1.
</event>
<event>
 4    1  0.1282524E-003  0.9118800E+02  0.7818608E-02  0.1130116E+00
         25   -1    0    0    0    0  0.00000000000E+00  0.00000000000E+00  0.99999998245E-14  0.12500000000E+03  0.12500000000E+03 0.  0.
        -11    1    1    0    0    0  0.21948769501E+02  0.22929048302E+02  0.32794660810E+02  0.45639670425E+02  0.51100000000E-03 0.  1.
         11    1    1    0    0    0 -0.14561644437E+01  0.22169034503E+02 -0.14620212510E+02  0.26595810192E+02  0.51100000000E-03 0. -1.
         22    1    1    0    0    0 -0.20492605057E+02 -0.45098082805E+02 -0.18174448300E+02  0.52764519383E+02  0.00000000000E+00 0.  1.
</event>
<event>
 5    1  0.1282524E-003  0.9118800E+02  0.7818608E-02  0.1130116E+00
         25   -1    0    0    0    0  0.00000000000E+00  0.00000000000E+00  0.99999998245E-14  0.12500000000E+03  0.12500000000E+03 0.  0.
        -11    1    3    3    0    0 -0.22976116129E+02  0.10162344653E+02  0.18658842716E+02  0.31294209895E+02  0.51100000000E-03 0. -1.
         23    2    1    0    0    0  0.10731338589E+02 -0.23358963868E+02 -0.19889699148E+02  0.92497646961E+02  0.86599143992E+02 0.  0.
         11    1    3    3    0    0  0.33707454717E+02 -0.33521308522E+02 -0.38548541864E+02  0.61203437065E+02  0.51100000000E-03 0.  1.
         22    1    1    0    0    0 -0.10731338589E+02  0.23358963868E+02  0.19889699148E+02  0.32502353039E+02  0.00000000000E+00 0.  1.
</event>
<event>
 5    1  0.1282524E-003  0.9118800E+02  0.7818608E-02  0.1130116E+00
         25   -1    0    0    0    0  0.00000000000E+00  0.00000000000E+00  0.99999998245E-14  0.12500000000E+03  0.12500000000E+03 0.  0.
        -11    1    3    3    0    0  0.29964337947E+02  0.36427090630E+02  0.73581245316E+01  0.47738207730E+02  0.51100000000E-03 0. -1.
         23    2    1    0    0    0  0.20199706637E+02  0.14241142279E+02 -0.26100479485E+02  0.89054578720E+02  0.81477878471E+02 0.  0.
         11    1    3    3    0    0 -0.97646313099E+01 -0.22185948351E+02 -0.33458604017E+02  0.41316370991E+02  0.51100000000E-03 0.  1.
         22    1    1    0    0    0 -0.20199706637E+02 -0.14241142279E+02  0.26100479485E+02  0.35945421280E+02  0.00000000000E+00 0.  1.
</event>
<event>
 5    1  0.1282524E-003  0.9118800E+02  0.7818608E-02  0.1130116E+00
         25   -1    0    0    0    0  0.00000000000E+00  0.00000000000E+00  0.99999998245E-14  0.12500000000E+03  0.12500000000E+03 0.  0.
        -11    1    3    3    0    0 -0.13738527578E+02 -0.47874413418E+00  0.31721097404E+02  0.34571727708E+02  0.51100000000E-03 0. -1.
         23    2    1    0    0    0  0.18456630271E+02 -0.78021633681E+01 -0.20486028654E+02  0.96343441864E+02  0.91982935732E+02 0.  0.
         11    1    3    3    0    0  0.32195157849E+02 -0.73234192340E+01 -0.52207126058E+02  0.61771714156E+02  0.51100000000E-03 0.  1.
         22    1    1    0    0    0 -0.18456630271E+02  0.78021633681E+01  0.20486028654E+02  0.28656558136E+02  0.00000000000E+00 0.  1.
</event>
<event>
 5    1  0.1282524E-003  0.9118800E+02  0.7818608E-02  0.1130116E+00
         25   -1    0    0    0    0  0.00000000000E+00  0.00000000000E+00  0.99999998245E-14  0.12500000000E+03  0.12500000000E+03 0.  0.
        -11    1    3    3    0    0 -0.10547649535E+02 -0.47203500494E+02 -0.93887026927E+01  0.49270387741E+02  0.51100000000E-03 0.  1.
         23    2    1    0    0    0 -0.14523821838E+02 -0.13606806106E+02  0.21939207841E+02  0.95378801275E+02  0.90662562940E+02 0.  0.
         11    1    3    3    0    0 -0.39761723028E+01  0.33596694388E+02  0.31327910534E+02  0.46108413535E+02  0.51100000000E-03 0. -1.
         22    1    1    0    0    0  0.14523821838E+02  0.13606806106E+02 -0.21939207841E+02  0.29621198725E+02  0.00000000000E+00 0.  1.
</event>
<event>
 5    1  0.1282524E-003  0.9118800E+02  0.7818608E-02  0.1130116E+00
         25   -1    0    0    0    0  0.00000000000E+00  0.00000000000E+00  0.99999998245E-14  0.12500000000E+03  0.12500000000E+03 0.  0.
        -11    1    3    3    0    0  0.28245809765E+02 -0.39777912472E+02 -0.17487939480E+01  0.48817685017E+02  0.51100000000E-03 0. -1.
         23    2    1    0    0    0 -0.77805647293E+01 -0.16878211418E+02 -0.22112582580E+02  0.96114406419E+02  0.91671160158E+02 0.  0.
         11    1    3    3    0    0 -0.36026374494E+02  0.22899701055E+02 -0.20363788632E+02  0.47296721401E+02  0.51100000000E-03 0.  1.
         22    1    1    0    0    0  0.77805647293E+01  0.16878211418E+02  0.22112582580E+02  0.28885593581E+02  0.00000000000E+00 0. -1.
</event>
<event>
 5    1  0.1282524E-003  0.9118800E+02  0.7818608E-02  0.1130116E+00
         25   -1    0    0    0    0  0.00000000000E+00  0.00000000000E+00  0.99999998245E-14  0.12500000000E+03  0.12500000000E+03 0.  0.
        -11    1    3    3    0    0  0.77319488556E+01 -0.26393466967E+02  0.30274560306E+02  0.40901676416E+02  0.51100000000E-03 0.  1.
         23    2    1    0    0    0 -0.18924090205E+02 -0.35663285172E+02 -0.29794330119E+01  0.84517063836E+02  0.74190740387E+02 0.  0.
         11    1    3    3    0    0 -0.26656039060E+02 -0.92698182050E+01 -0.33253993318E+02  0.43615387420E+02  0.51100000000E-03 0. -1.
         22    1    1    0    0    0  0.18924090205E+02  0.35663285172E+02  0.29794330119E+01  0.40482936164E+02  0.00000000000E+00 0. -1.
</event>
<event>
 5    1  0.1282524E-003  0.9118800E+02  0.7818608E-02  0.1130116E+00
         25   -1    0    0    0    0  0.00000000000E+00  0.00000000000E+00  0.99999998245E-14  0.12500000000E+03  0.12500000000E+03 0.  0.
        -11    1    3    3    0    0 -0.21760602825E+02 -0.93205157370E+01  0.27766264332E+02  0.36487823779E+02  0.51100000000E-03 0. -1.
         23    2    1    0    0    0  0.11702759250E+02 -0.18990337872E+02 -0.19615575604E+02  0.95295483292E+02  0.90547616330E+02 0.  0.
         11    1    3    3    0    0  0.33463362075E+02 -0.96698221352E+01 -0.47381839936E+02  0.58807659513E+02  0.51100000000E-03 0.  1.
         22    1    1    0    0    0 -0.11702759250E+02  0.18990337872E+02  0.19615575604E+02  0.29704516708E+02  0.00000000000E+00 0.  1.
</event>
<event>
 5    1  0.1282524E-003  0.9118800E+02  0.7818608E-02  0.1130116E+00
         25   -1    0    0    0    0  0.00000000000E+00  0.00000000000E+00  0.99999998245E-14  0.12500000000E+03  0.12500000000E+03 0.  0.
        -11    1    3    3    0    0 -0.29350115823E+01 -0.27005045464E+02 -0.30207148762E+02  0.40624605969E+02  0.51100000000E-03 0.  1.
         23    2    1    0    0    0  0.97422242281E+01  0.12845276239E+02  0.15542104185E+02  0.10260649520E+03  0.10013303052E+03 0.  0.
         11    1    3    3    0    0  0.12677235810E+02  0.39850321703E+02  0.45749252947E+02  0.61981889235E+02  0.51100000000E-03 0. -1.
         22    1    1    0    0    0 -0.97422242281E+01 -0.12845276239E+02 -0.15542104185E+02  0.22393504796E+02  0.00000000000E+00 0. -1.
</event>
<event>
 5    1  0.1282524E-003  0.9118800E+02  0.7818608E-02  0.1130116E+00
         25   -1    0    0    0    0  0.00000000000E+00  0.00000000000E+00  0.99999998245E-14  0.12500000000E+03  0.12500000000E+03 0.  0.
        -11    1    3    3    0    0  0.33190453608E+02 -0.94913681325E+01  0.14478517638E+02  0.37434205655E+02  0.51100000000E-03 0.  1.
         23    2    1    0    0    0 -0.18747510614E+02 -0.37657641258E+01  0.27706783025E+02  0.91335241583E+02  0.84904713626E+02 0.  0.
         11    1    3    3    0    0 -0.51937964222E+02  0.57256040067E+01  0.13228265387E+02  0.53901035929E+02  0.51100000000E-03 0. -1.
         22    1    1    0    0    0  0.18747510614E+02  0.37657641258E+01 -0.27706783025E+02  0.33664758417E+02  0.00000000000E+00 0. -1.
</event>
<event>
 5    1  0.1282524E-003  0.9118800E+02  0.7818608E-02  0.1130116E+00
         25   -1    0    0    0    0  0.00000000000E+00  0.00000000000E+00  0.99999998245E-14  0.12500000000E+03  0.12500000000E+03 0.  0.
        -11    1    3    3    0    0  0.22570504066E+02  0.28713027801E+02 -0.20706348848E+02  0.41983550376E+02  0.51100000000E-03 0.  1.
         23    2    1    0    0    0 -0.25876731454E+02  0.14609616965E+02 -0.47361922121E+01  0.94908844234E+02  0.90012282821E+02 0.  0.
         11    1    3    3    0    0 -0.48447235520E+02 -0.14103410836E+02  0.15970156636E+02  0.52925293858E+02  0.51100000000E-03 0. -1.
         22    1    1    0    0    0  0.25876731454E+02 -0.14609616965E+02  0.47361922121E+01  0.30091155766E+02  0.00000000000E+00 0. -1.
</event>
<event>
 5    1  0.1282524E-003  0.9118800E+02  0.7818608E-02  0.1130116E+00
         25   -1    0    0    0    0  0.00000000000E+00  0.00000000000E+00  0.99999998245E-14  0.12500000000E+03  0.12500000000E+03 0.  0.
        -11    1    3    3    0    0  0.21518437225E+02  0.16107260105E+02 -0.22328425267E+02  0.34943462104E+02  0.51100000000E-03 0. -1.
         23    2    1    0    0    0 -0.92891539519E+01 -0.24318345415E+02  0.12059631299E+02  0.96310193240E+02  0.91937741489E+02 0.  0.
         11    1    3    3    0    0 -0.30807591177E+02 -0.40425605519E+02  0.34388056565E+02  0.61366731136E+02  0.51100000000E-03 0.  1.
         22    1    1    0    0    0  0.92891539519E+01  0.24318345415E+02 -0.12059631299E+02  0.28689806760E+02  0.00000000000E+00 0.  1.
</event>
<event>
 5    1  0.1282524E-003  0.9118800E+02  0.7818608E-02  0.1130116E+00
         25   -1    0    0    0    0  0.00000000000E+00  0.00000000000E+00  0.99999998245E-14  0.12500000000E+03  0.12500000000E+03 0.  0.
        -11    1    3    3    0    0 -0.23063617738E+02 -0.34036542366E+02  0.34931551388E+02  0.53950254513E+02  0.51100000000E-03 0.  1.
         23    2    1    0    0    0  0.81102828207E+00 -0.89732850009E+00  0.29869035657E+02  0.95106484710E+02  0.90286328852E+02 0.  0.
         11    1    3    3    0    0  0.23874646020E+02  0.33139213866E+02 -0.50625157310E+01  0.41156230197E+02  0.51100000000E-03 0. -1.
         22    1    1    0    0    0 -0.81102828207E+00  0.89732850009E+00 -0.29869035657E+02  0.29893515290E+02  0.00000000000E+00 0.  1.
</event>
<event>
 5    1  0.1282524E-003  0.9118800E+02  0.7818608E-02  0.1130116E+00
         25   -1    0    0    0    0  0.00000000000E+00  0.00000000000E+00  0.99999998245E-14  0.12500000000E+03  0.12500000000E+03 0.  0.
        -11    1    3    3    0    0  0.16686432200E+02  0.36610426571E+02 -0.11626058507E+02  0.41879894818E+02  0.51100000000E-03 0.  1.
         23    2    1    0    0    0 -0.10651955047E+02 -0.12901952697E+02 -0.19856982886E+02  0.99034170550E+02  0.95569569621E+02 0.  0.
         11    1    3    3    0    0 -0.27338387247E+02 -0.49512379268E+02 -0.82309243783E+01  0.57154275732E+02  0.51100000000E-03 0. -1.
         22    1    1    0    0    0  0.10651955047E+02  0.12901952697E+02  0.19856982886E+02  0.25965829450E+02  0.00000000000E+00 0. -1.
</event>
<event>
 5    1  0.1282524E-003  0.9118800E+02  0.7818608E-02  0.1130116E+00
         25   -1    0    0    0    0  0.00000000000E+00  0.00000000000E+00  0.99999998245E-14  0.12500000000E+03  0.12500000000E+03 0.  0.
        -11    1    3    3    0    0 -0.39495617062E+02 -0.21508067768E+02  0.21992046655E+02  0.50061470839E+02  0.51100000000E-03 0. -1.
         23    2    1    0    0    0 -0.25907056622E+02  0.12560839700E+02 -0.52286705002E+01  0.95737579185E+02  0.91155881852E+02 0.  0.
         11    1    3    3    0    0  0.13588560440E+02  0.34068907468E+02 -0.27220717155E+02  0.45676108345E+02  0.51100000000E-03 0.  1.
         22    1    1    0    0    0  0.25907056622E+02 -0.12560839700E+02  0.52286705002E+01  0.29262420815E+02  0.00000000000E+00 0. -1.
</event>
<event>
 5    1  0.1282524E-003  0.9118800E+02  0.7818608E-02  0.1130116E+00
         25   -1    0    0    0    0  0.00000000000E+00  0.00000000000E+00  0.99999998245E-14  0.12500000000E+03  0.12500000000E+03 0.  0.
        -11    1    3    3    0    0  0.29694185714E+02  0.23569031390E+02 -0.67264193584E+01  0.38503098882E+02  0.51100000000E-03 0.  1.
         23    2    1    0    0    0  0.40261248813E+01  0.65943267451E+01  0.34329524055E+02  0.89811776847E+02  0.82631375468E+02 0.  0.
         11    1    3    3    0    0 -0.25668060833E+02 -0.16974704645E+02  0.41055943414E+02  0.51308677965E+02  0.51100000000E-03 0. -1.
         22    1    1    0    0    0 -0.40261248813E+01 -0.65943267451E+01 -0.34329524055E+02  0.35188223153E+02  0.00000000000E+00 0. -1.
</event>
<event>
 5    1  0.1282524E-003  0.9118800E+02  0.7818608E-02  0.1130116E+00
         25   -1    0    0    0    0  0.00000000000E+00  0.00000000000E+00  0.99999998245E-14  0.12500000000E+03  0.12500000000E+03 0.  0.
        -11    1    3    3    0    0 -0.32228558325E+02 -0.14515313496E+02 -0.39197216524E+02  0.52780641158E+02  0.51100000000E-03 0. -1.
         23    2    1    0    0    0 -0.14469062206E+02  0.18038266574E+02 -0.10852149901E+02  0.99455881703E+02  0.96119563179E+02 0.  0.
         11    1    3    3    0    0  0.17759496119E+02  0.32553580070E+02  0.28345066623E+02  0.46675240545E+02  0.51100000000E-03 0.  1.
         22    1    1    0    0    0  0.14469062206E+02 -0.18038266574E+02  0.10852149901E+02  0.25544118297E+02  0.00000000000E+00 0. -1.
</event>
<event>
 5    1  0.1282524E-003  0.9118800E+02  0.7818608E-02  0.1130116E+00
         25   -1    0    0    0    0  0.00000000000E+00  0.00000000000E+00  0.99999998245E-14  0.12500000000E+03  0.12500000000E+03 0.  0.
        -11    1    3    3    0    0  0.11295723202E+02 -0.67883255116E+01 -0.31264417631E+02  0.33928432560E+02  0.51100000000E-03 0. -1.
         23    2    1    0    0    0 -0.20544897475E+02  0.41071240571E+01  0.20511138253E+02  0.95679903262E+02  0.91076757823E+02 0.  0.
         11    1    3    3    0    0 -0.31840620677E+02  0.10895449569E+02  0.51775555885E+02  0.61751470702E+02  0.51100000000E-03 0.  1.
         22    1    1    0    0    0  0.20544897475E+02 -0.41071240571E+01 -0.20511138253E+02  0.29320096738E+02  0.00000000000E+00 0.  1.
</event>
<event>
 5    1  0.1282524E-003  0.9118800E+02  0.7818608E-02  0.1130116E+00
         25   -1    0    0    0    0  0.00000000000E+00  0.00000000000E+00  0.99999998245E-14  0.12500000000E+03  0.12500000000E+03 0.  0.
        -11    1    3    3    0    0  0.42322831614E+02 -0.28298684730E+02  0.21298600529E+02  0.55187571228E+02  0.51100000000E-03 0.  1.
         23    2    1    0    0    0  0.28420093079E+02 -0.34448356161E+01 -0.72044273141E+01  0.95479289373E+02  0.90801004087E+02 0.  0.
         11    1    3    3    0    0 -0.13902738535E+02  0.24853849114E+02 -0.28503027843E+02  0.40291718145E+02  0.51100000000E-03 0. -1.
         22    1    1    0    0    0 -0.28420093079E+02  0.34448356161E+01  0.72044273141E+01  0.29520710627E+02  0.00000000000E+00 0. -1.
</event>
<event>
 5    1  0.1282524E-003  0.9118800E+02  0.7818608E-02  0.1130116E+00
         25   -1    0    0    0    0  0.00000000000E+00  0.00000000000E+00  0.99999998245E-14  0.12500000000E+03  0.12500000000E+03 0.  0.
        -11    1    3    3    0    0  0.31942150877E+02  0.24511294410E+01 -0.12807645817E+02  0.34501374318E+02  0.51100000000E-03 0.  1.
         23    2    1    0    0    0 -0.28196438142E+02 -0.45279419734E-01  0.27496134694E+01  0.96669776768E+02  0.92425343884E+02 0.  0.
         11    1    3    3    0    0 -0.60138589019E+02 -0.24964088608E+01  0.15557259286E+02  0.62168402450E+02  0.51100000000E-03 0. -1.
         22    1    1    0    0    0  0.28196438142E+02  0.45279419734E-01 -0.27496134694E+01  0.28330223232E+02  0.00000000000E+00 0. -1.
</event>
<event>
 5    1  0.1282524E-003  0.9118800E+02  0.7818608E-02  0.1130116E+00
         25   -1    0    0    0    0  0.00000000000E+00  0.00000000000E+00  0.99999998245E-14  0.12500000000E+03  0.12500000000E+03 0.  0.
        -11    1    3    3    0    0  0.18961938993E+02  0.40689875653E+02  0.36336646020E+02  0.57754419357E+02  0.51100000000E-03 0.  1.
         23    2    1    0    0    0  0.23066957664E+02  0.92124802783E+01  0.15838256719E+02  0.95541474839E+02  0.90886570568E+02 0.  0.
         11    1    3    3    0    0  0.41050186718E+01 -0.31477395374E+02 -0.20498389300E+02  0.37787055482E+02  0.51100000000E-03 0. -1.
         22    1    1    0    0    0 -0.23066957664E+02 -0.92124802783E+01 -0.15838256719E+02  0.29458525161E+02  0.00000000000E+00 0.  1.
</event>
<event>
 5    1  0.1282524E-003  0.9118800E+02  0.7818608E-02  0.1130116E+00
         25   -1    0    0    0    0  0.00000000000E+00  0.00000000000E+00  0.99999998245E-14  0.12500000000E+03  0.12500000000E+03 0.  0.
        -11    1    3    3    0    0  0.42623575588E+02 -0.45334457287E+02  0.19071229713E+01  0.62254472383E+02  0.51100000000E-03 0.  1.
         23    2    1    0    0    0  0.18301510720E+02 -0.23347165455E+02 -0.19651244153E+01  0.95269592277E+02  0.90511867008E+02 0.  0.
         11    1    3    3    0    0 -0.24322064868E+02  0.21987291832E+02 -0.38722473866E+01  0.33015119894E+02  0.51100000000E-03 0. -1.
         22    1    1    0    0    0 -0.18301510720E+02  0.23347165455E+02  0.19651244153E+01  0.29730407723E+02  0.00000000000E+00 0.  1.
</event>
<event>
 5    1  0.1282524E-003  0.9118800E+02  0.7818608E-02  0.1130116E+00
         25   -1    0    0    0    0  0.00000000000E+00  0.00000000000E+00  0.99999998245E-14  0.12500000000E+03  0.12500000000E+03 0.  0.
        -11    1    3    3    0    0  0.41295572676E+00  0.48265549715E+02 -0.19917493771E+02  0.52215327061E+02  0.51100000000E-03 0.  1.
         23    2    1    0    0    0  0.16301404406E+02  0.31381227438E+01 -0.18590287213E+02  0.10007646938E+03  0.96923254922E+02 0.  0.
         11    1    3    3    0    0  0.15888448679E+02 -0.45127426971E+02  0.13272065578E+01  0.47861142318E+02  0.51100000000E-03 0. -1.
         22    1    1    0    0    0 -0.16301404406E+02 -0.31381227438E+01  0.18590287213E+02  0.24923530621E+02  0.00000000000E+00 0.  1.
</event>
<event>
 5    1  0.1282524E-003  0.9118800E+02  0.7818608E-02  0.1130116E+00
         25   -1    0    0    0    0  0.00000000000E+00  0.00000000000E+00  0.99999998245E-14  0.12500000000E+03  0.12500000000E+03 0.  0.
        -11    1    3    3    0    0 -0.31217034432E+02  0.89269548896E+01  0.36380031192E+02  0.48761669702E+02  0.51100000000E-03 0.  1.
         23    2    1    0    0    0 -0.12890428288E+02 -0.24122629717E+02  0.24237411173E+02  0.88455280733E+02  0.80553213364E+02 0.  0.
         11    1    3    3    0    0  0.18326606145E+02 -0.33049584607E+02 -0.12142620018E+02  0.39693611031E+02  0.51100000000E-03 0. -1.
         22    1    1    0    0    0  0.12890428288E+02  0.24122629717E+02 -0.24237411173E+02  0.36544719267E+02  0.00000000000E+00 0. -1.
</event>
<event>
 5    1  0.1282524E-003  0.9118800E+02  0.7818608E-02  0.1130116E+00
         25   -1    0    0    0    0  0.00000000000E+00  0.00000000000E+00  0.99999998245E-14  0.12500000000E+03  0.12500000000E+03 0.  0.
        -11    1    3    3    0    0  0.37133398318E+00  0.35475138507E+02  0.35902333065E+02  0.50473764083E+02  0.51100000000E-03 0. -1.
         23    2    1    0    0    0 -0.37006364522E+01  0.28887516953E+02 -0.77943585555E+01  0.94851444958E+02  0.89932537157E+02 0.  0.
         11    1    3    3    0    0 -0.40719704353E+01 -0.65876215541E+01 -0.43696691620E+02  0.44377680874E+02  0.51100000000E-03 0.  1.
         22    1    1    0    0    0  0.37006364522E+01 -0.28887516953E+02  0.77943585555E+01  0.30148555042E+02  0.00000000000E+00 0.  1.
</event>
<event>
 5    1  0.1282524E-003  0.9118800E+02  0.7818608E-02  0.1130116E+00
         25   -1    0    0    0    0  0.00000000000E+00  0.00000000000E+00  0.99999998245E-14  0.12500000000E+03  0.12500000000E+03 0.  0.
        -11    1    3    3    0    0  0.50659309883E+02 -0.25410537932E+02 -0.21608137508E+02  0.60654535878E+02  0.51100000000E-03 0. -1.
         23    2    1    0    0    0  0.21776604715E+02 -0.18628731867E+02 -0.18846715817E+01  0.96280631085E+02  0.91897539528E+02 0.  0.
         11    1    3    3    0    0 -0.28882705167E+02  0.67818060659E+01  0.19723465926E+02  0.35626095207E+02  0.51100000000E-03 0.  1.
         22    1    1    0    0    0 -0.21776604715E+02  0.18628731867E+02  0.18846715817E+01  0.28719368915E+02  0.00000000000E+00 0. -1.
</event>
<event>
 5    1  0.1282524E-003  0.9118800E+02  0.7818608E-02  0.1130116E+00
         25   -1    0    0    0    0  0.00000000000E+00  0.00000000000E+00  0.99999998245E-14  0.12500000000E+03  0.12500000000E+03 0.  0.
        -11    1    3    3    0    0  0.50392860613E+02 -0.23779134647E+01 -0.16515550460E+02  0.53083502904E+02  0.51100000000E-03 0.  1.
         23    2    1    0    0    0  0.22969538289E+02  0.41959785460E-01  0.16976310766E+02  0.96437847121E+02  0.92111138199E+02 0.  0.
         11    1    3    3    0    0 -0.27423322324E+02  0.24198732502E+01  0.33491861227E+02  0.43354344217E+02  0.51100000000E-03 0. -1.
         22    1    1    0    0    0 -0.22969538289E+02 -0.41959785460E-01 -0.16976310766E+02  0.28562152879E+02  0.00000000000E+00 0.  1.
</event>
<event>
 5    1  0.1282524E-003  0.9118800E+02  0.7818608E-02  0.1130116E+00
         25   -1    0    0    0    0  0.00000000000E+00  0.00000000000E+00  0.99999998245E-14  0.12500000000E+03  0.12500000000E+03 0.  0.
        -11    1    3    3    0    0 -0.86146527668E+00 -0.49314755321E+01 -0.45934120659E+02  0.46206114469E+02  0.51100000000E-03 0. -1.
         23    2    1    0    0    0 -0.94932069675E+00  0.29309325881E+02 -0.16545242497E+02  0.91329792952E+02  0.84896691561E+02 0.  0.
         11    1    3    3    0    0 -0.87855420070E-01  0.34240801413E+02  0.29388878162E+02  0.45123678483E+02  0.51100000000E-03 0.  1.
         22    1    1    0    0    0  0.94932069675E+00 -0.29309325881E+02  0.16545242497E+02  0.33670207048E+02  0.00000000000E+00 0. -1.
</event>
<event>
 5    1  0.1282524E-003  0.9118800E+02  0.7818608E-02  0.1130116E+00
         25   -1    0    0    0    0  0.00000000000E+00  0.00000000000E+00  0.99999998245E-14  0.12500000000E+03  0.12500000000E+03 0.  0.
        -11    1    3    3    0    0 -0.46669776602E+01 -0.34702652422E+02  0.25483527041E+02  0.43306638248E+02  0.51100000000E-03 0.  1.
         23    2    1    0    0    0  0.26476000893E+01  0.19839942234E+02  0.16487475620E+02  0.99067974502E+02  0.95613773200E+02 0.  0.
         11    1    3    3    0    0  0.73145777495E+01  0.54542594656E+02 -0.89960514205E+01  0.55761336255E+02  0.51100000000E-03 0. -1.
         22    1    1    0    0    0 -0.26476000893E+01 -0.19839942234E+02 -0.16487475620E+02  0.25932025498E+02  0.00000000000E+00 0. -1.
</event>
<event>
 5    1  0.1282524E-003  0.9118800E+02  0.7818608E-02  0.1130116E+00
         25   -1    0    0    0    0  0.00000000000E+00  0.00000000000E+00  0.99999998245E-14  0.12500000000E+03  0.12500000000E+03 0.  0.
        -11    1    3    3    0    0 -0.20546400950E+02 -0.96337425770E+01 -0.52948163274E+02  0.57606176599E+02  0.51100000000E-03 0. -1.
         23    2    1    0    0    0  0.39570573690E+01 -0.15782509075E+02 -0.23667964894E+02  0.96278606268E+02  0.91894785308E+02 0.  0.
         11    1    3    3    0    0  0.24503458319E+02 -0.61487664976E+01  0.29280198380E+02  0.38672429668E+02  0.51100000000E-03 0.  1.
         22    1    1    0    0    0 -0.39570573690E+01  0.15782509075E+02  0.23667964894E+02  0.28721393732E+02  0.00000000000E+00 0. -1.
</event>
<event>
 5    1  0.1282524E-003  0.9118800E+02  0.7818608E-02  0.1130116E+00
         25   -1    0    0    0    0  0.00000000000E+00  0.00000000000E+00  0.99999998245E-14  0.12500000000E+03  0.12500000000E+03 0.  0.
        -11    1    3    3    0    0  0.15592272445E+02  0.33136804886E+02  0.63359276162E+01  0.37165989521E+02  0.51100000000E-03 0. -1.
         23    2    1    0    0    0  0.16044498956E+02 -0.22671759249E+02  0.14660083787E+02  0.93593747902E+02  0.88167096898E+02 0.  0.
         11    1    3    3    0    0  0.45222651152E+00 -0.55808564136E+02  0.83241561704E+01  0.56427758381E+02  0.51100000000E-03 0.  1.
         22    1    1    0    0    0 -0.16044498956E+02  0.22671759249E+02 -0.14660083787E+02  0.31406252098E+02  0.00000000000E+00 0.  1.
</event>
<event>
 5    1  0.1282524E-003  0.9118800E+02  0.7818608E-02  0.1130116E+00
         25   -1    0    0    0    0  0.00000000000E+00  0.00000000000E+00  0.99999998245E-14  0.12500000000E+03  0.12500000000E+03 0.  0.
        -11    1    3    3    0    0 -0.16605200476E+02  0.47407036934E+02 -0.75115747043E+01  0.50789601185E+02  0.51100000000E-03 0.  1.
         23    2    1    0    0    0  0.11540864292E+02  0.23895711214E+02 -0.22304449593E+02  0.90334671000E+02  0.83418629514E+02 0.  0.
         11    1    3    3    0    0  0.28146064768E+02 -0.23511325720E+02 -0.14792874888E+02  0.39545069816E+02  0.51100000000E-03 0. -1.
         22    1    1    0    0    0 -0.11540864292E+02 -0.23895711214E+02  0.22304449593E+02  0.34665329000E+02  0.00000000000E+00 0.  1.
</event>
<event>
 5    1  0.1282524E-003  0.9118800E+02  0.7818608E-02  0.1130116E+00
         25   -1    0    0    0    0  0.00000000000E+00  0.00000000000E+00  0.99999998245E-14  0.12500000000E+03  0.12500000000E+03 0.  0.
        -11    1    3    3    0    0 -0.57808569154E+02 -0.13361039679E+02 -0.20133212885E+01  0.59366670041E+02  0.51100000000E-03 0. -1.
         23    2    1    0    0    0 -0.28760835674E+02  0.47984727392E+01  0.74465613472E+01  0.94905776548E+02  0.90008022625E+02 0.  0.
         11    1    3    3    0    0  0.29047733479E+02  0.18159512418E+02  0.94598826357E+01  0.35539106507E+02  0.51100000000E-03 0.  1.
         22    1    1    0    0    0  0.28760835674E+02 -0.47984727392E+01 -0.74465613472E+01  0.30094223452E+02  0.00000000000E+00 0. -1.
</event>
<event>
 5    1  0.1282524E-003  0.9118800E+02  0.7818608E-02  0.1130116E+00
         25   -1    0    0    0    0  0.00000000000E+00  0.00000000000E+00  0.99999998245E-14  0.12500000000E+03  0.12500000000E+03 0.  0.
        -11    1    3    3    0    0 -0.30779787968E+02  0.94314230659E+01 -0.31016857332E+02  0.44703383847E+02  0.51100000000E-03 0. -1.
         23    2    1    0    0    0  0.17644070874E+02  0.16613378598E+02 -0.16197240985E+02  0.95850931387E+02  0.91311186866E+02 0.  0.
         11    1    3    3    0    0  0.48423858842E+02  0.71819555326E+01  0.14819616347E+02  0.51147547540E+02  0.51100000000E-03 0.  1.
         22    1    1    0    0    0 -0.17644070874E+02 -0.16613378598E+02  0.16197240985E+02  0.29149068613E+02  0.00000000000E+00 0.  1.
</event>
<event>
 5    1  0.1282524E-003  0.9118800E+02  0.7818608E-02  0.1130116E+00
         25   -1    0    0    0    0  0.00000000000E+00  0.00000000000E+00  0.99999998245E-14  0.12500000000E+03  0.12500000000E+03 0.  0.
        -11    1    3    3    0    0 -0.31666753495E+01  0.33782271873E+02  0.11326129670E+02  0.35770811275E+02  0.51100000000E-03 0. -1.
         23    2    1    0    0    0 -0.70377779707E+01 -0.15500239037E+02 -0.23313089991E+02  0.96133273585E+02  0.91696883242E+02 0.  0.
         11    1    3    3    0    0 -0.38711026212E+01 -0.49282510911E+02 -0.34639219661E+02  0.60362462310E+02  0.51100000000E-03 0.  1.
         22    1    1    0    0    0  0.70377779707E+01  0.15500239037E+02  0.23313089991E+02  0.28866726415E+02  0.00000000000E+00 0.  1.
</event>
<event>
 4    1  0.1282524E-003  0.9118800E+02  0.7818608E-02  0.1130116E+00
         25   -1    0    0    0    0  0.00000000000E+00  0.00000000000E+00  0.99999998245E-14  0.12500000000E+03  0.12500000000E+03 0.  0.
        -11    1    1    0    0    0 -0.11020629670E+02 -0.46582542370E+01 -0.10265876653E+02  0.15765209627E+02  0.51100000000E-03 0.  1.
         11    1    1    0    0    0  0.44426325472E+02 -0.33992637126E+02 -0.43229575680E+01  0.56106022280E+02  0.51100000000E-03 0. -1.
         22    1    1    0    0    0 -0.33405695802E+02  0.38650891363E+02  0.14588834221E+02  0.53128768093E+02  0.00000000000E+00 0. -1.
</event>
<event>
 5    1  0.1282524E-003  0.9118800E+02  0.7818608E-02  0.1130116E+00
         25   -1    0    0    0    0  0.00000000000E+00  0.00000000000E+00  0.99999998245E-14  0.12500000000E+03  0.12500000000E+03 0.  0.
        -11    1    3    3    0    0 -0.80987315048E+01  0.38501453079E+02 -0.98595449771E+01  0.40560596256E+02  0.51100000000E-03 0.  1.
         23    2    1    0    0    0  0.71658035478E+01 -0.14224287173E+02 -0.23020054299E+02  0.97007108295E+02  0.92880445056E+02 0.  0.
         11    1    3    3    0    0  0.15264535053E+02 -0.52725740252E+02 -0.13160509322E+02  0.56446512039E+02  0.51100000000E-03 0. -1.
         22    1    1    0    0    0 -0.71658035478E+01  0.14224287173E+02  0.23020054299E+02  0.27992891705E+02  0.00000000000E+00 0. -1.
</event>
<event>
 5    1  0.1282524E-003  0.9118800E+02  0.7818608E-02  0.1130116E+00
         25   -1    0    0    0    0  0.00000000000E+00  0.00000000000E+00  0.99999998245E-14  0.12500000000E+03  0.12500000000E+03 0.  0.
        -11    1    3    3    0    0 -0.11954024012E+00  0.12160728949E+02 -0.36288270892E+02  0.38271872479E+02  0.51100000000E-03 0. -1.
         23    2    1    0    0    0  0.11254052214E+02 -0.31285114355E+02 -0.10135767001E+02  0.90241607572E+02  0.83279060352E+02 0.  0.
         11    1    3    3    0    0  0.11373592454E+02 -0.43445843304E+02  0.26152503891E+02  0.51969735094E+02  0.51100000000E-03 0.  1.
         22    1    1    0    0    0 -0.11254052214E+02  0.31285114355E+02  0.10135767001E+02  0.34758392428E+02  0.00000000000E+00 0.  1.
</event>
<event>
 5    1  0.1282524E-003  0.9118800E+02  0.7818608E-02  0.1130116E+00
         25   -1    0    0    0    0  0.00000000000E+00  0.00000000000E+00  0.99999998245E-14  0.12500000000E+03  0.12500000000E+03 0.  0.
        -11    1    3    3    0    0 -0.10972868364E+02 -0.14154662221E+02  0.35227427895E+02  0.39518729472E+02  0.51100000000E-03 0. -1.
         23    2    1    0    0    0  0.10379467216E+02  0.28001333132E+02  0.19550505219E+02  0.89306439640E+02  0.81863361219E+02 0.  0.
         11    1    3    3    0    0  0.21352335580E+02  0.42155995353E+02 -0.15676922676E+02  0.49787710168E+02  0.51100000000E-03 0.  1.
         22    1    1    0    0    0 -0.10379467216E+02 -0.28001333132E+02 -0.19550505219E+02  0.35693560360E+02  0.00000000000E+00 0. -1.
</event>
<event>
 5    1  0.1282524E-003  0.9118800E+02  0.7818608E-02  0.1130116E+00
         25   -1    0    0    0    0  0.00000000000E+00  0.00000000000E+00  0.99999998245E-14  0.12500000000E+03  0.12500000000E+03 0.  0.
        -11    1    3    3    0    0 -0.10713160078E+02  0.52581081473E+02  0.18849279347E+02  0.56875629754E+02  0.51100000000E-03 0.  1.
         23    2    1    0    0    0 -0.35770142073E+01  0.14443782406E+02  0.24750310105E+02  0.96121015753E+02  0.91680172002E+02 0.  0.
         11    1    3    3    0    0  0.71361458706E+01 -0.38137299066E+02  0.59010307581E+01  0.39245385999E+02  0.51100000000E-03 0. -1.
         22    1    1    0    0    0  0.35770142073E+01 -0.14443782406E+02 -0.24750310105E+02  0.28878984247E+02  0.00000000000E+00 0.  1.
</event>
<event>
 5    1  0.1282524E-003  0.9118800E+02  0.7818608E-02  0.1130116E+00
         25   -1    0    0    0    0  0.00000000000E+00  0.00000000000E+00  0.99999998245E-14  0.12500000000E+03  0.12500000000E+03 0.  0.
        -11    1    3    3    0    0  0.50375572693E+02  0.30548717980E+02  0.18515839491E+02  0.61755637853E+02  0.51100000000E-03 0.  1.
         23    2    1    0    0    0  0.25696441598E+02  0.14096819347E+02  0.21972093899E+01  0.95608587043E+02  0.90978825892E+02 0.  0.
         11    1    3    3    0    0 -0.24679131094E+02 -0.16451898633E+02 -0.16318630101E+02  0.33852949189E+02  0.51100000000E-03 0. -1.
         22    1    1    0    0    0 -0.25696441598E+02 -0.14096819347E+02 -0.21972093899E+01  0.29391412957E+02  0.00000000000E+00 0.  1.
</event>
<event>
 5    1  0.1282524E-003  0.9118800E+02  0.7818608E-02  0.1130116E+00
         25   -1    0    0    0    0  0.00000000000E+00  0.00000000000E+00  0.99999998245E-14  0.12500000000E+03  0.12500000000E+03 0.  0.
        -11    1    3    3    0    0  0.10699731394E+02  0.39042390029E+02  0.15759715527E+02  0.43441467572E+02  0.51100000000E-03 0. -1.
         23    2    1    0    0    0 -0.15531834222E+02 -0.72308373457E+01  0.22130468535E+02  0.97012850795E+02  0.92888173083E+02 0.  0.
         11    1    3    3    0    0 -0.26231565616E+02 -0.46273227374E+02  0.63707530085E+01  0.53571383223E+02  0.51100000000E-03 0.  1.
         22    1    1    0    0    0  0.15531834222E+02  0.72308373457E+01 -0.22130468535E+02  0.27987149205E+02  0.00000000000E+00 0.  1.
</event>
<event>
 5    1  0.1282524E-003  0.9118800E+02  0.7818608E-02  0.1130116E+00
         25   -1    0    0    0    0  0.00000000000E+00  0.00000000000E+00  0.99999998245E-14  0.12500000000E+03  0.12500000000E+03 0.  0.
        -11    1    3    3    0    0  0.54977926249E+02  0.83359794812E+01 -0.16315739796E+02  0.57950533163E+02  0.51100000000E-03 0.  1.
         23    2    1    0    0    0  0.18392404688E+02  0.21216191260E+01 -0.22807638454E+02  0.95623645737E+02  0.90999513374E+02 0.  0.
         11    1    3    3    0    0 -0.36585521561E+02 -0.62143603552E+01 -0.64918986582E+01  0.37673112574E+02  0.51100000000E-03 0. -1.
         22    1    1    0    0    0 -0.18392404688E+02 -0.21216191260E+01  0.22807638454E+02  0.29376354263E+02  0.00000000000E+00 0.  1.
</event>
<event>
 5    1  0.1282524E-003  0.9118800E+02  0.7818608E-02  0.1130116E+00
         25   -1    0    0    0    0  0.00000000000E+00  0.00000000000E+00  0.99999998245E-14  0.12500000000E+03  0.12500000000E+03 0.  0.
        -11    1    3    3    0    0  0.50492417798E+02  0.35929773675E+02 -0.40594797366E+01  0.62104043889E+02  0.51100000000E-03 0.  1.
         23    2    1    0    0    0  0.21336254909E+02  0.18881859148E+02  0.20831716745E+01  0.96432536293E+02  0.92103930824E+02 0.  0.
         11    1    3    3    0    0 -0.29156162888E+02 -0.17047914528E+02  0.61426514111E+01  0.34328492404E+02  0.51100000000E-03 0. -1.
         22    1    1    0    0    0 -0.21336254909E+02 -0.18881859148E+02 -0.20831716745E+01  0.28567463707E+02  0.00000000000E+00 0.  1.
</event>
<event>
 5    1  0.1282524E-003  0.9118800E+02  0.7818608E-02  0.1130116E+00
         25   -1    0    0    0    0  0.00000000000E+00  0.00000000000E+00  0.99999998245E-14  0.12500000000E+03  0.12500000000E+03 0.  0.
        -11    1    3    3    0    0  0.27528267079E+02  0.17012858235E+02 -0.17725883005E+02  0.36897828693E+02  0.51100000000E-03 0.  1.
         23    2    1    0    0    0 -0.22075946402E+02  0.15393387437E+02  0.12835155740E+02  0.95183142197E+02  0.90392397630E+02 0.  0.
         11    1    3    3    0    0 -0.49604213481E+02 -0.16194707973E+01  0.30561038746E+02  0.58285313504E+02  0.51100000000E-03 0. -1.
         22    1    1    0    0    0  0.22075946402E+02 -0.15393387437E+02 -0.12835155740E+02  0.29816857803E+02  0.00000000000E+00 0. -1.
</event>
<event>
 5    1  0.1282524E-003  0.9118800E+02  0.7818608E-02  0.1130116E+00
         25   -1    0    0    0    0  0.00000000000E+00  0.00000000000E+00  0.99999998245E-14  0.12500000000E+03  0.12500000000E+03 0.  0.
        -11    1    3    3    0    0  0.20060801113E+02  0.22194821265E+02 -0.52124232808E+02  0.60099762715E+02  0.51100000000E-03 0.  1.
         23    2    1    0    0    0  0.11264778106E+02  0.20148653976E+02 -0.17092299135E+02  0.96277009686E+02  0.91892613531E+02 0.  0.
         11    1    3    3    0    0 -0.87960230069E+01 -0.20461672892E+01  0.35031933673E+02  0.36177246971E+02  0.51100000000E-03 0. -1.
         22    1    1    0    0    0 -0.11264778106E+02 -0.20148653976E+02  0.17092299135E+02  0.28722990314E+02  0.00000000000E+00 0.  1.
</event>
<event>
 5    1  0.1282524E-003  0.9118800E+02  0.7818608E-02  0.1130116E+00
         25   -1    0    0    0    0  0.00000000000E+00  0.00000000000E+00  0.99999998245E-14  0.12500000000E+03  0.12500000000E+03 0.  0.
        -11    1    3    3    0    0 -0.33588317338E+01 -0.14417368921E+02  0.48507069887E+02  0.50715659382E+02  0.51100000000E-03 0.  1.
         23    2    1    0    0    0  0.51390284652E+01  0.20069462421E+02  0.18943788391E+02  0.96927592657E+02  0.92773369909E+02 0.  0.
         11    1    3    3    0    0  0.84978601990E+01  0.34486831342E+02 -0.29563281496E+02  0.46211933275E+02  0.51100000000E-03 0. -1.
         22    1    1    0    0    0 -0.51390284652E+01 -0.20069462421E+02 -0.18943788391E+02  0.28072407343E+02  0.00000000000E+00 0.  1.
</event>
<event>
 5    1  0.1282524E-003  0.9118800E+02  0.7818608E-02  0.1130116E+00
         25   -1    0    0    0    0  0.00000000000E+00  0.00000000000E+00  0.99999998245E-14  0.12500000000E+03  0.12500000000E+03 0.  0.
        -11    1    3    3    0    0 -0.14062483309E+02 -0.14772785763E+02 -0.36144386420E+02  0.41501871114E+02  0.51100000000E-03 0. -1.
         23    2    1    0    0    0 -0.22381857658E+01 -0.24574056355E+02  0.15820064736E+02  0.95688429426E+02  0.91088458965E+02 0.  0.
         11    1    3    3    0    0  0.11824297543E+02 -0.98012705915E+01  0.51964451156E+02  0.54186558313E+02  0.51100000000E-03 0.  1.
         22    1    1    0    0    0  0.22381857658E+01  0.24574056355E+02 -0.15820064736E+02  0.29311570574E+02  0.00000000000E+00 0.  1.
</event>
<event>
 5    1  0.1282524E-003  0.9118800E+02  0.7818608E-02  0.1130116E+00
         25   -1    0    0    0    0  0.00000000000E+00  0.00000000000E+00  0.99999998245E-14  0.12500000000E+03  0.12500000000E+03 0.  0.
        -11    1    3    3    0    0  0.90527151648E+01  0.15444010009E+01  0.58943002467E+02  0.59654122795E+02  0.51100000000E-03 0.  1.
         23    2    1    0    0    0 -0.39780804788E+01  0.11250108339E+02  0.26435352330E+02  0.95996243092E+02  0.91509894400E+02 0.  0.
         11    1    3    3    0    0 -0.13030795644E+02  0.97057073382E+01 -0.32507650137E+02  0.36342120298E+02  0.51100000000E-03 0. -1.
         22    1    1    0    0    0  0.39780804788E+01 -0.11250108339E+02 -0.26435352330E+02  0.29003756908E+02  0.00000000000E+00 0.  1.
</event>
<event>
 5    1  0.1282524E-003  0.9118800E+02  0.7818608E-02  0.1130116E+00
         25   -1    0    0    0    0  0.00000000000E+00  0.00000000000E+00  0.99999998245E-14  0.12500000000E+03  0.12500000000E+03 0.  0.
        -11    1    3    3    0    0 -0.59710419125E+02 -0.70750681063E+00 -0.99540642145E+01  0.60538567150E+02  0.51100000000E-03 0.  1.
         23    2    1    0    0    0 -0.27768733712E+02 -0.71593464533E+01  0.41089170653E+01  0.96030325976E+02  0.91556438845E+02 0.  0.
         11    1    3    3    0    0  0.31941685413E+02 -0.64518396427E+01  0.14062981280E+02  0.35491758825E+02  0.51100000000E-03 0. -1.
         22    1    1    0    0    0  0.27768733712E+02  0.71593464533E+01 -0.41089170653E+01  0.28969674024E+02  0.00000000000E+00 0.  1.
</event>
<event>
 5    1  0.1282524E-003  0.9118800E+02  0.7818608E-02  0.1130116E+00
         25   -1    0    0    0    0  0.00000000000E+00  0.00000000000E+00  0.99999998245E-14  0.12500000000E+03  0.12500000000E+03 0.  0.
        -11    1    3    3    0    0  0.27159846632E+02  0.33430653936E+02  0.12122133995E+02  0.44746083901E+02  0.51100000000E-03 0. -1.
         23    2    1    0    0    0  0.21291261232E+02 -0.17764049448E+02  0.25860313035E+01  0.97150999739E+02  0.93073895023E+02 0.  0.
         11    1    3    3    0    0 -0.58685853994E+01 -0.51194703384E+02 -0.95361026914E+01  0.52404915837E+02  0.51100000000E-03 0.  1.
         22    1    1    0    0    0 -0.21291261232E+02  0.17764049448E+02 -0.25860313035E+01  0.27849000261E+02  0.00000000000E+00 0.  1.
</event>
<event>
 5    1  0.1282524E-003  0.9118800E+02  0.7818608E-02  0.1130116E+00
         25   -1    0    0    0    0  0.00000000000E+00  0.00000000000E+00  0.99999998245E-14  0.12500000000E+03  0.12500000000E+03 0.  0.
        -11    1    3    3    0    0  0.83110201131E+01  0.14377356178E+02  0.37017762874E+02  0.40572111042E+02  0.51100000000E-03 0.  1.
         23    2    1    0    0    0  0.21710320414E+02 -0.19457111769E+02 -0.41885439906E+01  0.95547307226E+02  0.90894591735E+02 0.  0.
         11    1    3    3    0    0  0.13399300301E+02 -0.33834467947E+02 -0.41206306864E+02  0.54975196184E+02  0.51100000000E-03 0. -1.
         22    1    1    0    0    0 -0.21710320414E+02  0.19457111769E+02  0.41885439906E+01  0.29452692774E+02  0.00000000000E+00 0. -1.
</event>
<event>
 5    1  0.1282524E-003  0.9118800E+02  0.7818608E-02  0.1130116E+00
         25   -1    0    0    0    0  0.00000000000E+00  0.00000000000E+00  0.99999998245E-14  0.12500000000E+03  0.12500000000E+03 0.  0.
        -11    1    3    3    0    0  0.75573139873E+01  0.57000999883E+01  0.30357089355E+02  0.31798695083E+02  0.51100000000E-03 0.  1.
         23    2    1    0    0    0  0.11460831492E+02  0.12695117913E+01 -0.30215812675E+02  0.92658731406E+02  0.86831347171E+02 0.  0.
         11    1    3    3    0    0  0.39035175045E+01 -0.44305881970E+01 -0.60572902030E+02  0.60860036323E+02  0.51100000000E-03 0. -1.
         22    1    1    0    0    0 -0.11460831492E+02 -0.12695117913E+01  0.30215812675E+02  0.32341268594E+02  0.00000000000E+00 0. -1.
</event>
<event>
 5    1  0.1282524E-003  0.9118800E+02  0.7818608E-02  0.1130116E+00
         25   -1    0    0    0    0  0.00000000000E+00  0.00000000000E+00  0.99999998245E-14  0.12500000000E+03  0.12500000000E+03 0.  0.
        -11    1    3    3    0    0 -0.18218644732E+02 -0.33210336253E+02 -0.42616584134E+02  0.57017705088E+02  0.51100000000E-03 0. -1.
         23    2    1    0    0    0 -0.53371553703E+01  0.71209175449E+00 -0.28569290209E+02  0.95927734090E+02  0.91416265087E+02 0.  0.
         11    1    3    3    0    0  0.12881489362E+02  0.33922428007E+02  0.14047293926E+02  0.38910029003E+02  0.51100000000E-03 0.  1.
         22    1    1    0    0    0  0.53371553703E+01 -0.71209175449E+00  0.28569290209E+02  0.29072265910E+02  0.00000000000E+00 0. -1.
</event>
