<event>
 5    1  0.8943334E-005  0.9118800E+02  0.7818608E-02  0.1130116E+00
         25   -1    0    0    0    0  0.00000000000E+00  0.00000000000E+00  0.99999998245E-14  0.12500000000E+03  0.12500000000E+03 0.  0.
        -13    1    3    3    0    0  0.13586745710E+02 -0.53367490648E+02  0.27042111791E+02  0.61351248490E+02  0.10566000000E+00 0. -1.
         23    2    1    0    0    0  0.14051359041E+02 -0.23531335893E+02  0.16556923987E+02  0.92979753409E+02  0.87292258261E+02 0.  0.
         13    1    3    3    0    0  0.46461333137E+00  0.29836154755E+02 -0.10485187804E+02  0.31628504920E+02  0.10566000000E+00 0.  1.
         22    1    1    0    0    0 -0.14051359041E+02  0.23531335893E+02 -0.16556923987E+02  0.32020246591E+02  0.00000000000E+00 0. -1.
</event>
<event>
 5    1  0.8943334E-005  0.9118800E+02  0.7818608E-02  0.1130116E+00
         25   -1    0    0    0    0  0.00000000000E+00  0.00000000000E+00  0.99999998245E-14  0.12500000000E+03  0.12500000000E+03 0.  0.
        -13    1    3    3    0    0  0.27726016940E+02  0.18280207755E+02  0.25619332159E+01  0.33308747751E+02  0.10566000000E+00 0. -1.
         23    2    1    0    0    0  0.29724780863E+02  0.12809069889E+02 -0.38454506588E+02  0.74736853006E+02  0.55310155049E+02 0.  0.
         13    1    3    3    0    0  0.19987639225E+01 -0.54711378658E+01 -0.41016439804E+02  0.41428105255E+02  0.10566000000E+00 0.  1.
         22    1    1    0    0    0 -0.29724780863E+02 -0.12809069889E+02  0.38454506588E+02  0.50263146994E+02  0.00000000000E+00 0.  1.
</event>
<event>
 5    1  0.8943334E-005  0.9118800E+02  0.7818608E-02  0.1130116E+00
         25   -1    0    0    0    0  0.00000000000E+00  0.00000000000E+00  0.99999998245E-14  0.12500000000E+03  0.12500000000E+03 0.  0.
        -13    1    3    3    0    0  0.25405520578E+02 -0.12162526515E+01  0.41601839156E+02  0.48761090344E+02  0.10566000000E+00 0.  1.
         23    2    1    0    0    0 -0.15520111812E+02  0.11325906900E+02  0.21853259620E+02  0.95901632455E+02  0.91380567484E+02 0.  0.
         13    1    3    3    0    0 -0.40925632390E+02  0.12542159552E+02 -0.19748579536E+02  0.47140542111E+02  0.10566000000E+00 0. -1.
         22    1    1    0    0    0  0.15520111812E+02 -0.11325906900E+02 -0.21853259620E+02  0.29098367545E+02  0.00000000000E+00 0.  1.
</event>
<event>
 5    1  0.8943334E-005  0.9118800E+02  0.7818608E-02  0.1130116E+00
         25   -1    0    0    0    0  0.00000000000E+00  0.00000000000E+00  0.99999998245E-14  0.12500000000E+03  0.12500000000E+03 0.  0.
        -13    1    3    3    0    0 -0.11452439881E+02 -0.26450433491E+02 -0.48268361624E+02  0.56219478021E+02  0.10566000000E+00 0.  1.
         23    2    1    0    0    0  0.82861668603E+01 -0.24247702049E+02 -0.14070275611E+02  0.95766726634E+02  0.91195842332E+02 0.  0.
         13    1    3    3    0    0  0.19738606741E+02  0.22027314414E+01  0.34198086013E+02  0.39547248613E+02  0.10566000000E+00 0. -1.
         22    1    1    0    0    0 -0.82861668603E+01  0.24247702049E+02  0.14070275611E+02  0.29233273366E+02  0.00000000000E+00 0.  1.
</event>
<event>
 5    1  0.8943334E-005  0.9118800E+02  0.7818608E-02  0.1130116E+00
         25   -1    0    0    0    0  0.00000000000E+00  0.00000000000E+00  0.99999998245E-14  0.12500000000E+03  0.12500000000E+03 0.  0.
        -13    1    3    3    0    0  0.54963945013E+02  0.25315065259E+02  0.21744169644E+01  0.60552679822E+02  0.10566000000E+00 0.  1.
         23    2    1    0    0    0  0.20427584138E+02  0.21080841700E+02 -0.18917849508E+01  0.95584580051E+02  0.90945835599E+02 0.  0.
         13    1    3    3    0    0 -0.34536360875E+02 -0.42342235592E+01 -0.40662019152E+01  0.35031900230E+02  0.10566000000E+00 0. -1.
         22    1    1    0    0    0 -0.20427584138E+02 -0.21080841700E+02  0.18917849508E+01  0.29415419949E+02  0.00000000000E+00 0.  1.
</event>
<event>
 5    1  0.8943334E-005  0.9118800E+02  0.7818608E-02  0.1130116E+00
         25   -1    0    0    0    0  0.00000000000E+00  0.00000000000E+00  0.99999998245E-14  0.12500000000E+03  0.12500000000E+03 0.  0.
        -13    1    3    3    0    0 -0.82636053027E+01  0.38823897515E+02  0.39690548947E+02  0.56133172284E+02  0.10566000000E+00 0.  1.
         23    2    1    0    0    0  0.10867241702E+01  0.17677423306E+01  0.29147773744E+02  0.95778456636E+02  0.91211918952E+02 0.  0.
         13    1    3    3    0    0  0.93503294729E+01 -0.37056155184E+02 -0.10542775203E+02  0.39645284352E+02  0.10566000000E+00 0. -1.
         22    1    1    0    0    0 -0.10867241702E+01 -0.17677423306E+01 -0.29147773744E+02  0.29221543364E+02  0.00000000000E+00 0.  1.
</event>
<event>
 5    1  0.8943334E-005  0.9118800E+02  0.7818608E-02  0.1130116E+00
         25   -1    0    0    0    0  0.00000000000E+00  0.00000000000E+00  0.99999998245E-14  0.12500000000E+03  0.12500000000E+03 0.  0.
        -13    1    3    3    0    0 -0.12621966250E+02 -0.32583286664E+02 -0.24816095168E+02  0.42858305441E+02  0.10566000000E+00 0. -1.
         23    2    1    0    0    0  0.15415422719E+02 -0.19784066282E+02  0.16923247066E+02  0.94743747299E+02  0.89782720079E+02 0.  0.
         13    1    3    3    0    0  0.28037388969E+02  0.12799220382E+02  0.41739342234E+02  0.51885441858E+02  0.10566000000E+00 0.  1.
         22    1    1    0    0    0 -0.15415422719E+02  0.19784066282E+02 -0.16923247066E+02  0.30256252701E+02  0.00000000000E+00 0.  1.
</event>
<event>
 5    1  0.8943334E-005  0.9118800E+02  0.7818608E-02  0.1130116E+00
         25   -1    0    0    0    0  0.00000000000E+00  0.00000000000E+00  0.99999998245E-14  0.12500000000E+03  0.12500000000E+03 0.  0.
        -13    1    3    3    0    0 -0.35600488564E+02  0.85678553740E+01 -0.59847362403E+01  0.37102980522E+02  0.10566000000E+00 0.  1.
         23    2    1    0    0    0  0.70044515949E+01 -0.24473781757E+02  0.15560501133E+02  0.95164492109E+02  0.90366603495E+02 0.  0.
         13    1    3    3    0    0  0.42604940159E+02 -0.33041637131E+02  0.21545237374E+02  0.58061511587E+02  0.10566000000E+00 0. -1.
         22    1    1    0    0    0 -0.70044515949E+01  0.24473781757E+02 -0.15560501133E+02  0.29835507891E+02  0.00000000000E+00 0. -1.
</event>
<event>
 5    1  0.8943334E-005  0.9118800E+02  0.7818608E-02  0.1130116E+00
         25   -1    0    0    0    0  0.00000000000E+00  0.00000000000E+00  0.99999998245E-14  0.12500000000E+03  0.12500000000E+03 0.  0.
        -13    1    3    3    0    0  0.10743668901E+02 -0.16659032243E+02  0.37302646807E+02  0.42242731914E+02  0.10566000000E+00 0. -1.
         23    2    1    0    0    0  0.29056636683E+02  0.41073139870E+01 -0.73180323627E+01  0.94755797891E+02  0.89799495950E+02 0.  0.
         13    1    3    3    0    0  0.18312967782E+02  0.20766346230E+02 -0.44620679170E+02  0.52513065977E+02  0.10566000000E+00 0.  1.
         22    1    1    0    0    0 -0.29056636683E+02 -0.41073139870E+01  0.73180323627E+01  0.30244202109E+02  0.00000000000E+00 0.  1.
</event>
<event>
 5    1  0.8943334E-005  0.9118800E+02  0.7818608E-02  0.1130116E+00
         25   -1    0    0    0    0  0.00000000000E+00  0.00000000000E+00  0.99999998245E-14  0.12500000000E+03  0.12500000000E+03 0.  0.
        -13    1    3    3    0    0  0.23549715327E+02 -0.37311085484E+02 -0.14222889840E+01  0.44144538303E+02  0.10566000000E+00 0.  1.
         23    2    1    0    0    0 -0.14295217060E+02 -0.12903922018E+02  0.22700387181E+02  0.95231358573E+02  0.90459049537E+02 0.  0.
         13    1    3    3    0    0 -0.37844932387E+02  0.24407163467E+02  0.24122676165E+02  0.51086820270E+02  0.10566000000E+00 0. -1.
         22    1    1    0    0    0  0.14295217060E+02  0.12903922018E+02 -0.22700387181E+02  0.29768641427E+02  0.00000000000E+00 0. -1.
</event>
<event>
 5    1  0.8943334E-005  0.9118800E+02  0.7818608E-02  0.1130116E+00
         25   -1    0    0    0    0  0.00000000000E+00  0.00000000000E+00  0.99999998245E-14  0.12500000000E+03  0.12500000000E+03 0.  0.
        -13    1    3    3    0    0 -0.24194804992E+02 -0.52431446880E+02 -0.46725778258E+01  0.57933490816E+02  0.10566000000E+00 0.  1.
         23    2    1    0    0    0 -0.67595946297E+01 -0.22618737535E+02 -0.18370100466E+02  0.95087460851E+02  0.90259986775E+02 0.  0.
         13    1    3    3    0    0  0.17435210362E+02  0.29812709345E+02 -0.13697522640E+02  0.37153970035E+02  0.10566000000E+00 0. -1.
         22    1    1    0    0    0  0.67595946297E+01  0.22618737535E+02  0.18370100466E+02  0.29912539149E+02  0.00000000000E+00 0.  1.
</event>
<event>
 5    1  0.8943334E-005  0.9118800E+02  0.7818608E-02  0.1130116E+00
         25   -1    0    0    0    0  0.00000000000E+00  0.00000000000E+00  0.99999998245E-14  0.12500000000E+03  0.12500000000E+03 0.  0.
        -13    1    3    3    0    0  0.33725405082E+02 -0.40275947226E+02 -0.61089652623E+01  0.52885588713E+02  0.10566000000E+00 0.  1.
         23    2    1    0    0    0 -0.39757608700E+01 -0.22937864813E+02 -0.17451984613E+02  0.95904913068E+02  0.91385054943E+02 0.  0.
         13    1    3    3    0    0 -0.37701165951E+02  0.17338082414E+02 -0.11343019351E+02  0.43019324355E+02  0.10566000000E+00 0. -1.
         22    1    1    0    0    0  0.39757608700E+01  0.22937864813E+02  0.17451984613E+02  0.29095086932E+02  0.00000000000E+00 0.  1.
</event>
<event>
 5    1  0.8943334E-005  0.9118800E+02  0.7818608E-02  0.1130116E+00
         25   -1    0    0    0    0  0.00000000000E+00  0.00000000000E+00  0.99999998245E-14  0.12500000000E+03  0.12500000000E+03 0.  0.
        -13    1    3    3    0    0 -0.15988093755E+02 -0.47059435092E+02  0.13240693392E+02  0.51434781021E+02  0.10566000000E+00 0.  1.
         23    2    1    0    0    0 -0.25626806687E+02 -0.38107210969E+01 -0.36110269875E+01  0.98840979909E+02  0.95316551433E+02 0.  0.
         13    1    3    3    0    0 -0.96387129319E+01  0.43248713995E+02 -0.16851720379E+02  0.47406198888E+02  0.10566000000E+00 0. -1.
         22    1    1    0    0    0  0.25626806687E+02  0.38107210969E+01  0.36110269875E+01  0.26159020091E+02  0.00000000000E+00 0.  1.
</event>
<event>
 5    1  0.8943334E-005  0.9118800E+02  0.7818608E-02  0.1130116E+00
         25   -1    0    0    0    0  0.00000000000E+00  0.00000000000E+00  0.99999998245E-14  0.12500000000E+03  0.12500000000E+03 0.  0.
        -13    1    3    3    0    0 -0.43742175853E+02 -0.37568381013E+02 -0.21346962101E+02  0.61485487355E+02  0.10566000000E+00 0. -1.
         23    2    1    0    0    0 -0.22563511014E+02 -0.21884830252E+02 -0.33706409956E+01  0.93386410436E+02  0.87872649948E+02 0.  0.
         13    1    3    3    0    0  0.21178664839E+02  0.15683550762E+02  0.17976321106E+02  0.31900923081E+02  0.10566000000E+00 0.  1.
         22    1    1    0    0    0  0.22563511014E+02  0.21884830252E+02  0.33706409956E+01  0.31613589564E+02  0.00000000000E+00 0. -1.
</event>
<event>
 5    1  0.8943334E-005  0.9118800E+02  0.7818608E-02  0.1130116E+00
         25   -1    0    0    0    0  0.00000000000E+00  0.00000000000E+00  0.99999998245E-14  0.12500000000E+03  0.12500000000E+03 0.  0.
        -13    1    3    3    0    0  0.48039380177E+02  0.84769833379E+01  0.40273948158E+01  0.48947649252E+02  0.10566000000E+00 0.  1.
         23    2    1    0    0    0  0.13055193890E+02 -0.93037608612E+01  0.26394976474E+02  0.94118082366E+02  0.88907370851E+02 0.  0.
         13    1    3    3    0    0 -0.34984186287E+02 -0.17780744199E+02  0.22367581658E+02  0.45170433114E+02  0.10566000000E+00 0. -1.
         22    1    1    0    0    0 -0.13055193890E+02  0.93037608612E+01 -0.26394976474E+02  0.30881917634E+02  0.00000000000E+00 0.  1.
</event>
<event>
 5    1  0.8943334E-005  0.9118800E+02  0.7818608E-02  0.1130116E+00
         25   -1    0    0    0    0  0.00000000000E+00  0.00000000000E+00  0.99999998245E-14  0.12500000000E+03  0.12500000000E+03 0.  0.
        -13    1    3    3    0    0  0.21761872937E+02 -0.19183880550E+02  0.14127811317E+02  0.32267733161E+02  0.10566000000E+00 0.  1.
         23    2    1    0    0    0 -0.17399881428E+02 -0.41697616413E+02  0.14832258985E+02  0.77445368314E+02  0.61125625383E+02 0.  0.
         13    1    3    3    0    0 -0.39161754365E+02 -0.22513735863E+02  0.70444766869E+00  0.45177635153E+02  0.10566000000E+00 0. -1.
         22    1    1    0    0    0  0.17399881428E+02  0.41697616413E+02 -0.14832258985E+02  0.47554631686E+02  0.00000000000E+00 0. -1.
</event>
<event>
 5    1  0.8943334E-005  0.9118800E+02  0.7818608E-02  0.1130116E+00
         25   -1    0    0    0    0  0.00000000000E+00  0.00000000000E+00  0.99999998245E-14  0.12500000000E+03  0.12500000000E+03 0.  0.
        -13    1    3    3    0    0  0.34777868370E+02 -0.46915594690E+02  0.67962741705E+01  0.58794333571E+02  0.10566000000E+00 0. -1.
         23    2    1    0    0    0  0.54188302955E+01 -0.25944618482E+02  0.13123178136E+02  0.95424592069E+02  0.90725674520E+02 0.  0.
         13    1    3    3    0    0 -0.29359038074E+02  0.20970976208E+02  0.63269039654E+01  0.36630258497E+02  0.10566000000E+00 0.  1.
         22    1    1    0    0    0 -0.54188302955E+01  0.25944618482E+02 -0.13123178136E+02  0.29575407931E+02  0.00000000000E+00 0. -1.
</event>
<event>
 5    1  0.8943334E-005  0.9118800E+02  0.7818608E-02  0.1130116E+00
         25   -1    0    0    0    0  0.00000000000E+00  0.00000000000E+00  0.99999998245E-14  0.12500000000E+03  0.12500000000E+03 0.  0.
        -13    1    3    3    0    0  0.30731804188E+02  0.14526268134E+02  0.13922033918E+02  0.36732689079E+02  0.10566000000E+00 0.  1.
         23    2    1    0    0    0 -0.26407267786E+02  0.14214356549E+02  0.36469481706E+01  0.94789207972E+02  0.89845990411E+02 0.  0.
         13    1    3    3    0    0 -0.57139071973E+02 -0.31191158537E+00 -0.10275085747E+02  0.58056518893E+02  0.10566000000E+00 0. -1.
         22    1    1    0    0    0  0.26407267786E+02 -0.14214356549E+02 -0.36469481706E+01  0.30210792028E+02  0.00000000000E+00 0. -1.
</event>
<event>
 5    1  0.8943334E-005  0.9118800E+02  0.7818608E-02  0.1130116E+00
         25   -1    0    0    0    0  0.00000000000E+00  0.00000000000E+00  0.99999998245E-14  0.12500000000E+03  0.12500000000E+03 0.  0.
        -13    1    3    3    0    0 -0.61515472959E+02 -0.21782176063E+01 -0.17894629715E+01  0.61580121688E+02  0.10566000000E+00 0.  1.
         23    2    1    0    0    0 -0.28328796490E+02 -0.77479772012E+01 -0.42680351087E+01  0.95322264491E+02  0.90584579939E+02 0.  0.
         13    1    3    3    0    0  0.33186676470E+02 -0.55697595949E+01 -0.24785721372E+01  0.33742142803E+02  0.10566000000E+00 0. -1.
         22    1    1    0    0    0  0.28328796490E+02  0.77479772012E+01  0.42680351087E+01  0.29677735509E+02  0.00000000000E+00 0.  1.
</event>
<event>
 5    1  0.8943334E-005  0.9118800E+02  0.7818608E-02  0.1130116E+00
         25   -1    0    0    0    0  0.00000000000E+00  0.00000000000E+00  0.99999998245E-14  0.12500000000E+03  0.12500000000E+03 0.  0.
        -13    1    3    3    0    0  0.27749668925E+02 -0.38036866627E+02  0.76806703222E+01  0.47705882330E+02  0.10566000000E+00 0.  1.
         23    2    1    0    0    0 -0.41863035081E+01 -0.25177911649E+02 -0.20552817630E+02  0.92230033802E+02  0.86211997138E+02 0.  0.
         13    1    3    3    0    0 -0.31935972433E+02  0.12858954978E+02 -0.28233487952E+02  0.44524151472E+02  0.10566000000E+00 0. -1.
         22    1    1    0    0    0  0.41863035081E+01  0.25177911649E+02  0.20552817630E+02  0.32769966198E+02  0.00000000000E+00 0. -1.
</event>
<event>
 5    1  0.8943334E-005  0.9118800E+02  0.7818608E-02  0.1130116E+00
         25   -1    0    0    0    0  0.00000000000E+00  0.00000000000E+00  0.99999998245E-14  0.12500000000E+03  0.12500000000E+03 0.  0.
        -13    1    3    3    0    0  0.56647537898E+01 -0.31852332552E+02 -0.15200313964E+02  0.35745226718E+02  0.10566000000E+00 0. -1.
         23    2    1    0    0    0  0.97448376894E+01  0.26845501256E+02 -0.96864599637E+01  0.94842574614E+02  0.89920207148E+02 0.  0.
         13    1    3    3    0    0  0.40800838996E+01  0.58697833808E+02  0.55138540006E+01  0.59097347896E+02  0.10566000000E+00 0.  1.
         22    1    1    0    0    0 -0.97448376894E+01 -0.26845501256E+02  0.96864599637E+01  0.30157425386E+02  0.00000000000E+00 0.  1.
</event>
<event>
 5    1  0.8943334E-005  0.9118800E+02  0.7818608E-02  0.1130116E+00
         25   -1    0    0    0    0  0.00000000000E+00  0.00000000000E+00  0.99999998245E-14  0.12500000000E+03  0.12500000000E+03 0.  0.
        -13    1    3    3    0    0 -0.23498887224E+02  0.37208279748E+02 -0.78772895624E+01  0.44707008818E+02  0.10566000000E+00 0.  1.
         23    2    1    0    0    0 -0.22665512746E+02 -0.12615921271E+02 -0.14985155571E+02  0.95042666590E+02  0.90197930395E+02 0.  0.
         13    1    3    3    0    0  0.83337447822E+00 -0.49824201018E+02 -0.71078660085E+01  0.50335657772E+02  0.10566000000E+00 0. -1.
         22    1    1    0    0    0  0.22665512746E+02  0.12615921271E+02  0.14985155571E+02  0.29957333410E+02  0.00000000000E+00 0.  1.
</event>
<event>
 5    1  0.8943334E-005  0.9118800E+02  0.7818608E-02  0.1130116E+00
         25   -1    0    0    0    0  0.00000000000E+00  0.00000000000E+00  0.99999998245E-14  0.12500000000E+03  0.12500000000E+03 0.  0.
        -13    1    3    3    0    0  0.10147082150E+02 -0.22961988367E+02  0.20346212190E+02  0.32314017089E+02  0.10566000000E+00 0.  1.
         23    2    1    0    0    0 -0.32739614588E+02 -0.12533385450E+02 -0.12978165257E+02  0.87618174367E+02  0.79243571296E+02 0.  0.
         13    1    3    3    0    0 -0.42886696739E+02  0.10428602917E+02 -0.33324377447E+02  0.55304157278E+02  0.10566000000E+00 0. -1.
         22    1    1    0    0    0  0.32739614588E+02  0.12533385450E+02  0.12978165257E+02  0.37381825633E+02  0.00000000000E+00 0. -1.
</event>
<event>
 5    1  0.8943334E-005  0.9118800E+02  0.7818608E-02  0.1130116E+00
         25   -1    0    0    0    0  0.00000000000E+00  0.00000000000E+00  0.99999998245E-14  0.12500000000E+03  0.12500000000E+03 0.  0.
        -13    1    3    3    0    0  0.37423853605E+02 -0.33862792623E+02  0.56226151804E+01  0.50782462607E+02  0.10566000000E+00 0. -1.
         23    2    1    0    0    0  0.29992020173E+02  0.83275389076E+01  0.11992252036E+01  0.93850243671E+02  0.88530000100E+02 0.  0.
         13    1    3    3    0    0 -0.74318334320E+01  0.42190331531E+02 -0.44233899769E+01  0.43067781064E+02  0.10566000000E+00 0.  1.
         22    1    1    0    0    0 -0.29992020173E+02 -0.83275389076E+01 -0.11992252036E+01  0.31149756329E+02  0.00000000000E+00 0.  1.
</event>
<event>
 5    1  0.8943334E-005  0.9118800E+02  0.7818608E-02  0.1130116E+00
         25   -1    0    0    0    0  0.00000000000E+00  0.00000000000E+00  0.99999998245E-14  0.12500000000E+03  0.12500000000E+03 0.  0.
        -13    1    3    3    0    0  0.26763889732E+02 -0.46376936041E+02  0.99658312347E+01  0.54465171865E+02  0.10566000000E+00 0.  1.
         23    2    1    0    0    0  0.23402506095E+02 -0.49898627686E+01  0.15697013728E+02  0.96382308585E+02  0.92035738419E+02 0.  0.
         13    1    3    3    0    0 -0.33613836370E+01  0.41387073272E+02  0.57311824929E+01  0.41917136720E+02  0.10566000000E+00 0. -1.
         22    1    1    0    0    0 -0.23402506095E+02  0.49898627686E+01 -0.15697013728E+02  0.28617691415E+02  0.00000000000E+00 0.  1.
</event>
<event>
 5    1  0.8943334E-005  0.9118800E+02  0.7818608E-02  0.1130116E+00
         25   -1    0    0    0    0  0.00000000000E+00  0.00000000000E+00  0.99999998245E-14  0.12500000000E+03  0.12500000000E+03 0.  0.
        -13    1    3    3    0    0 -0.35435796997E+02  0.81925713290E+01  0.15197996681E+02  0.39418323163E+02  0.10566000000E+00 0.  1.
         23    2    1    0    0    0  0.51701641635E+00 -0.22703660314E+02 -0.16921252179E+02  0.96679472587E+02  0.92438455996E+02 0.  0.
         13    1    3    3    0    0  0.35952813413E+02 -0.30896231643E+02 -0.32119248860E+02  0.57261149425E+02  0.10566000000E+00 0. -1.
         22    1    1    0    0    0 -0.51701641635E+00  0.22703660314E+02  0.16921252179E+02  0.28320527413E+02  0.00000000000E+00 0. -1.
</event>
<event>
 5    1  0.8943334E-005  0.9118800E+02  0.7818608E-02  0.1130116E+00
         25   -1    0    0    0    0  0.00000000000E+00  0.00000000000E+00  0.99999998245E-14  0.12500000000E+03  0.12500000000E+03 0.  0.
        -13    1    3    3    0    0 -0.92403245143E+01 -0.32740984416E+02 -0.23211555408E+02  0.41184258232E+02  0.10566000000E+00 0. -1.
         23    2    1    0    0    0  0.24633418123E+02  0.94719641424E+01 -0.66877671954E+01  0.97774100140E+02  0.93907002055E+02 0.  0.
         13    1    3    3    0    0  0.33873742637E+02  0.42212948558E+02  0.16523788212E+02  0.56589841908E+02  0.10566000000E+00 0.  1.
         22    1    1    0    0    0 -0.24633418123E+02 -0.94719641424E+01  0.66877671954E+01  0.27225899860E+02  0.00000000000E+00 0.  1.
</event>
<event>
 5    1  0.8943334E-005  0.9118800E+02  0.7818608E-02  0.1130116E+00
         25   -1    0    0    0    0  0.00000000000E+00  0.00000000000E+00  0.99999998245E-14  0.12500000000E+03  0.12500000000E+03 0.  0.
        -13    1    3    3    0    0  0.19184415663E+02  0.29088750899E+02  0.19966449006E+02  0.40160521450E+02  0.10566000000E+00 0. -1.
         23    2    1    0    0    0  0.21042255684E+01 -0.23596619971E+02  0.17402609286E+02  0.95604778462E+02  0.90973592956E+02 0.  0.
         13    1    3    3    0    0 -0.17080190095E+02 -0.52685370870E+02 -0.25638397198E+01  0.55444257012E+02  0.10566000000E+00 0.  1.
         22    1    1    0    0    0 -0.21042255684E+01  0.23596619971E+02 -0.17402609286E+02  0.29395221538E+02  0.00000000000E+00 0.  1.
</event>
<event>
 5    1  0.8943334E-005  0.9118800E+02  0.7818608E-02  0.1130116E+00
         25   -1    0    0    0    0  0.00000000000E+00  0.00000000000E+00  0.99999998245E-14  0.12500000000E+03  0.12500000000E+03 0.  0.
        -13    1    3    3    0    0  0.58572920467E+02 -0.23776712920E+01  0.19393002848E+02  0.61745769542E+02  0.10566000000E+00 0.  1.
         23    2    1    0    0    0  0.27966237826E+02  0.45300862124E+01  0.51453614070E+01  0.96205783858E+02  0.91795675086E+02 0.  0.
         13    1    3    3    0    0 -0.30606682641E+02  0.69077575044E+01 -0.14247641441E+02  0.34460014316E+02  0.10566000000E+00 0. -1.
         22    1    1    0    0    0 -0.27966237826E+02 -0.45300862124E+01 -0.51453614070E+01  0.28794216142E+02  0.00000000000E+00 0.  1.
</event>
<event>
 5    1  0.8943334E-005  0.9118800E+02  0.7818608E-02  0.1130116E+00
         25   -1    0    0    0    0  0.00000000000E+00  0.00000000000E+00  0.99999998245E-14  0.12500000000E+03  0.12500000000E+03 0.  0.
        -13    1    3    3    0    0 -0.26401528603E+01  0.41210606631E+02 -0.12304078780E+02  0.43089279696E+02  0.10566000000E+00 0.  1.
         23    2    1    0    0    0 -0.16469321558E+02  0.15452931555E+02  0.25537681170E+02  0.90908874971E+02  0.84274662520E+02 0.  0.
         13    1    3    3    0    0 -0.13829168698E+02 -0.25757675077E+02  0.37841759949E+02  0.47819595275E+02  0.10566000000E+00 0. -1.
         22    1    1    0    0    0  0.16469321558E+02 -0.15452931555E+02 -0.25537681170E+02  0.34091125029E+02  0.00000000000E+00 0.  1.
</event>
<event>
 5    1  0.8943334E-005  0.9118800E+02  0.7818608E-02  0.1130116E+00
         25   -1    0    0    0    0  0.00000000000E+00  0.00000000000E+00  0.99999998245E-14  0.12500000000E+03  0.12500000000E+03 0.  0.
        -13    1    3    3    0    0 -0.40499288413E+02  0.15038882052E+02 -0.28277700582E+02  0.51633321117E+02  0.10566000000E+00 0.  1.
         23    2    1    0    0    0 -0.23236436161E+02  0.15857207586E+02  0.11194269946E+02  0.94723033879E+02  0.89753877185E+02 0.  0.
         13    1    3    3    0    0  0.17262852253E+02  0.81832553362E+00  0.39471970527E+02  0.43089712762E+02  0.10566000000E+00 0. -1.
         22    1    1    0    0    0  0.23236436161E+02 -0.15857207586E+02 -0.11194269946E+02  0.30276966121E+02  0.00000000000E+00 0.  1.
</event>
<event>
 5    1  0.8943334E-005  0.9118800E+02  0.7818608E-02  0.1130116E+00
         25   -1    0    0    0    0  0.00000000000E+00  0.00000000000E+00  0.99999998245E-14  0.12500000000E+03  0.12500000000E+03 0.  0.
        -13    1    3    3    0    0  0.32479618381E+02 -0.16637115581E+02  0.46733216995E+01  0.36790900027E+02  0.10566000000E+00 0.  1.
         23    2    1    0    0    0 -0.13942136080E+02  0.11930145098E+02  0.24146357849E+02  0.94672485794E+02  0.89683451364E+02 0.  0.
         13    1    3    3    0    0 -0.46421754462E+02  0.28567260679E+02  0.19473036149E+02  0.57881585767E+02  0.10566000000E+00 0. -1.
         22    1    1    0    0    0  0.13942136080E+02 -0.11930145098E+02 -0.24146357849E+02  0.30327514206E+02  0.00000000000E+00 0.  1.
</event>
<event>
 5    1  0.8943334E-005  0.9118800E+02  0.7818608E-02  0.1130116E+00
         25   -1    0    0    0    0  0.00000000000E+00  0.00000000000E+00  0.99999998245E-14  0.12500000000E+03  0.12500000000E+03 0.  0.
        -13    1    3    3    0    0  0.31184807301E+02 -0.20140912821E+01  0.51149309651E+02  0.59940068501E+02  0.10566000000E+00 0.  1.
         23    2    1    0    0    0  0.23362799171E+02  0.81424146180E+01  0.21575936924E+02  0.92172567035E+02  0.86128634952E+02 0.  0.
         13    1    3    3    0    0 -0.78220081298E+01  0.10156505900E+02 -0.29573372727E+02  0.32232498534E+02  0.10566000000E+00 0. -1.
         22    1    1    0    0    0 -0.23362799171E+02 -0.81424146180E+01 -0.21575936924E+02  0.32827432965E+02  0.00000000000E+00 0.  1.
</event>
<event>
 5    1  0.8943334E-005  0.9118800E+02  0.7818608E-02  0.1130116E+00
         25   -1    0    0    0    0  0.00000000000E+00  0.00000000000E+00  0.99999998245E-14  0.12500000000E+03  0.12500000000E+03 0.  0.
        -13    1    3    3    0    0 -0.29514191713E+02 -0.76517087520E+01  0.51915723843E+02  0.60207056941E+02  0.10566000000E+00 0. -1.
         23    2    1    0    0    0 -0.63392324679E+01 -0.12829902294E+02  0.25740708632E+02  0.95548746342E+02  0.90896570813E+02 0.  0.
         13    1    3    3    0    0  0.23174959245E+02 -0.51781935416E+01 -0.26175015211E+02  0.35341689401E+02  0.10566000000E+00 0.  1.
         22    1    1    0    0    0  0.63392324679E+01  0.12829902294E+02 -0.25740708632E+02  0.29451253658E+02  0.00000000000E+00 0. -1.
</event>
<event>
 5    1  0.8943334E-005  0.9118800E+02  0.7818608E-02  0.1130116E+00
         25   -1    0    0    0    0  0.00000000000E+00  0.00000000000E+00  0.99999998245E-14  0.12500000000E+03  0.12500000000E+03 0.  0.
        -13    1    3    3    0    0 -0.33346184227E+01  0.18327498296E+02  0.29562365535E+02  0.34942259427E+02  0.10566000000E+00 0.  1.
         23    2    1    0    0    0 -0.12015633480E+01 -0.26374360814E+02 -0.11982736842E+02  0.96006265417E+02  0.91523583596E+02 0.  0.
         13    1    3    3    0    0  0.21330550748E+01 -0.44701859110E+02 -0.41545102378E+02  0.61064005989E+02  0.10566000000E+00 0. -1.
         22    1    1    0    0    0  0.12015633480E+01  0.26374360814E+02  0.11982736842E+02  0.28993734583E+02  0.00000000000E+00 0. -1.
</event>
<event>
 5    1  0.8943334E-005  0.9118800E+02  0.7818608E-02  0.1130116E+00
         25   -1    0    0    0    0  0.00000000000E+00  0.00000000000E+00  0.99999998245E-14  0.12500000000E+03  0.12500000000E+03 0.  0.
        -13    1    3    3    0    0  0.46391712816E+02 -0.81006080788E+01 -0.70239029194E+01  0.47614674687E+02  0.10566000000E+00 0.  1.
         23    2    1    0    0    0  0.89049368644E+01  0.14237785652E+02 -0.25060401036E+02  0.94833194719E+02  0.89907167009E+02 0.  0.
         13    1    3    3    0    0 -0.37486775952E+02  0.22338393730E+02 -0.18036498116E+02  0.47218520032E+02  0.10566000000E+00 0. -1.
         22    1    1    0    0    0 -0.89049368644E+01 -0.14237785652E+02  0.25060401036E+02  0.30166805281E+02  0.00000000000E+00 0. -1.
</event>
<event>
 5    1  0.8943334E-005  0.9118800E+02  0.7818608E-02  0.1130116E+00
         25   -1    0    0    0    0  0.00000000000E+00  0.00000000000E+00  0.99999998245E-14  0.12500000000E+03  0.12500000000E+03 0.  0.
        -13    1    3    3    0    0 -0.23002881285E+01 -0.40952528113E+02 -0.54545902725E+01  0.41378310785E+02  0.10566000000E+00 0. -1.
         23    2    1    0    0    0 -0.12638877268E+02  0.93149188998E+01 -0.24317097283E+02  0.96054704131E+02  0.91589715758E+02 0.  0.
         13    1    3    3    0    0 -0.10338589139E+02  0.50267447013E+02 -0.18862507010E+02  0.54676393346E+02  0.10566000000E+00 0.  1.
         22    1    1    0    0    0  0.12638877268E+02 -0.93149188998E+01  0.24317097283E+02  0.28945295869E+02  0.00000000000E+00 0.  1.
</event>
<event>
 5    1  0.8943334E-005  0.9118800E+02  0.7818608E-02  0.1130116E+00
         25   -1    0    0    0    0  0.00000000000E+00  0.00000000000E+00  0.99999998245E-14  0.12500000000E+03  0.12500000000E+03 0.  0.
        -13    1    3    3    0    0  0.32805893316E+02 -0.28292537747E+02  0.88345693662E+01  0.44212612548E+02  0.10566000000E+00 0.  1.
         23    2    1    0    0    0  0.21068143307E+02  0.20885314862E+02  0.49841974274E+01  0.94918356706E+02  0.90025491814E+02 0.  0.
         13    1    3    3    0    0 -0.11737750008E+02  0.49177852609E+02 -0.38503719387E+01  0.50705744158E+02  0.10566000000E+00 0. -1.
         22    1    1    0    0    0 -0.21068143307E+02 -0.20885314862E+02 -0.49841974274E+01  0.30081643294E+02  0.00000000000E+00 0. -1.
</event>
<event>
 5    1  0.8943334E-005  0.9118800E+02  0.7818608E-02  0.1130116E+00
         25   -1    0    0    0    0  0.00000000000E+00  0.00000000000E+00  0.99999998245E-14  0.12500000000E+03  0.12500000000E+03 0.  0.
        -13    1    3    3    0    0  0.71101200245E+01 -0.51611100407E+02 -0.14420318222E+01  0.52118615790E+02  0.10566000000E+00 0.  1.
         23    2    1    0    0    0  0.76561265417E+01 -0.92830287190E+01 -0.22564552043E+02  0.99427555754E+02  0.96082719250E+02 0.  0.
         13    1    3    3    0    0  0.54600651714E+00  0.42328071688E+02 -0.21122520221E+02  0.47308939964E+02  0.10566000000E+00 0. -1.
         22    1    1    0    0    0 -0.76561265417E+01  0.92830287190E+01  0.22564552043E+02  0.25572444246E+02  0.00000000000E+00 0.  1.
</event>
<event>
 5    1  0.8943334E-005  0.9118800E+02  0.7818608E-02  0.1130116E+00
         25   -1    0    0    0    0  0.00000000000E+00  0.00000000000E+00  0.99999998245E-14  0.12500000000E+03  0.12500000000E+03 0.  0.
        -13    1    3    3    0    0 -0.25783005439E+02 -0.11233880990E+02  0.34648829756E+02  0.44626404953E+02  0.10566000000E+00 0. -1.
         23    2    1    0    0    0  0.21188702487E+02  0.23034199524E+01  0.20284316826E+02  0.95576873626E+02  0.90935242928E+02 0.  0.
         13    1    3    3    0    0  0.46971707925E+02  0.13537300942E+02 -0.14364512930E+02  0.50950468673E+02  0.10566000000E+00 0.  1.
         22    1    1    0    0    0 -0.21188702487E+02 -0.23034199524E+01 -0.20284316826E+02  0.29423126374E+02  0.00000000000E+00 0.  1.
</event>
<event>
 5    1  0.8943334E-005  0.9118800E+02  0.7818608E-02  0.1130116E+00
         25   -1    0    0    0    0  0.00000000000E+00  0.00000000000E+00  0.99999998245E-14  0.12500000000E+03  0.12500000000E+03 0.  0.
        -13    1    3    3    0    0 -0.23918607977E+02 -0.25111312875E+02  0.43586306395E+02  0.55699686813E+02  0.10566000000E+00 0.  1.
         23    2    1    0    0    0 -0.10968572932E+02  0.75584531063E+01  0.27693853431E+02  0.94269081963E+02  0.89119417025E+02 0.  0.
         13    1    3    3    0    0  0.12950035045E+02  0.32669765982E+02 -0.15892452964E+02  0.38569395150E+02  0.10566000000E+00 0. -1.
         22    1    1    0    0    0  0.10968572932E+02 -0.75584531063E+01 -0.27693853431E+02  0.30730918037E+02  0.00000000000E+00 0.  1.
</event>
<event>
 5    1  0.8943334E-005  0.9118800E+02  0.7818608E-02  0.1130116E+00
         25   -1    0    0    0    0  0.00000000000E+00  0.00000000000E+00  0.99999998245E-14  0.12500000000E+03  0.12500000000E+03 0.  0.
        -13    1    3    3    0    0 -0.12974285816E+01 -0.40854483040E+02  0.23163156699E+02  0.46982072088E+02  0.10566000000E+00 0. -1.
         23    2    1    0    0    0  0.73604053933E+00  0.80020680854E+01  0.27763485570E+02  0.96096955518E+02  0.91647361552E+02 0.  0.
         13    1    3    3    0    0  0.20334691210E+01  0.48856551126E+02  0.46003288718E+01  0.49114883430E+02  0.10566000000E+00 0.  1.
         22    1    1    0    0    0 -0.73604053933E+00 -0.80020680854E+01 -0.27763485570E+02  0.28903044482E+02  0.00000000000E+00 0.  1.
</event>
<event>
 5    1  0.8943334E-005  0.9118800E+02  0.7818608E-02  0.1130116E+00
         25   -1    0    0    0    0  0.00000000000E+00  0.00000000000E+00  0.99999998245E-14  0.12500000000E+03  0.12500000000E+03 0.  0.
        -13    1    3    3    0    0 -0.11060504992E+02  0.35314533394E+02 -0.22171916218E+02  0.43139959114E+02  0.10566000000E+00 0. -1.
         23    2    1    0    0    0  0.19050314517E+02 -0.81599164095E+01 -0.20198773418E+02  0.96060594916E+02  0.91597755044E+02 0.  0.
         13    1    3    3    0    0  0.30110819509E+02 -0.43474449804E+02  0.19731428000E+01  0.52920635803E+02  0.10566000000E+00 0.  1.
         22    1    1    0    0    0 -0.19050314517E+02  0.81599164095E+01  0.20198773418E+02  0.28939405084E+02  0.00000000000E+00 0. -1.
</event>
<event>
 5    1  0.8943334E-005  0.9118800E+02  0.7818608E-02  0.1130116E+00
         25   -1    0    0    0    0  0.00000000000E+00  0.00000000000E+00  0.99999998245E-14  0.12500000000E+03  0.12500000000E+03 0.  0.
        -13    1    3    3    0    0 -0.24514473871E+02 -0.97566173180E+01 -0.47482748283E+02  0.54321023179E+02  0.10566000000E+00 0. -1.
         23    2    1    0    0    0  0.91498372895E+01 -0.12006154778E+02 -0.27757094573E+02  0.93403741137E+02  0.87897299642E+02 0.  0.
         13    1    3    3    0    0  0.33664311160E+02 -0.22495374602E+01  0.19725653710E+02  0.39082717958E+02  0.10566000000E+00 0.  1.
         22    1    1    0    0    0 -0.91498372895E+01  0.12006154778E+02  0.27757094573E+02  0.31596258863E+02  0.00000000000E+00 0. -1.
</event>
<event>
 5    1  0.8943334E-005  0.9118800E+02  0.7818608E-02  0.1130116E+00
         25   -1    0    0    0    0  0.00000000000E+00  0.00000000000E+00  0.99999998245E-14  0.12500000000E+03  0.12500000000E+03 0.  0.
        -13    1    3    3    0    0 -0.25222764510E+02  0.39106432393E+02  0.22597785713E+02  0.51731730951E+02  0.10566000000E+00 0. -1.
         23    2    1    0    0    0  0.13232517570E+02  0.20279653647E+02 -0.12704788722E+01  0.10075174254E+03  0.97790263498E+02 0.  0.
         13    1    3    3    0    0  0.38455282080E+02 -0.18826778746E+02 -0.23868264585E+02  0.49020011589E+02  0.10566000000E+00 0.  1.
         22    1    1    0    0    0 -0.13232517570E+02 -0.20279653647E+02  0.12704788722E+01  0.24248257460E+02  0.00000000000E+00 0.  1.
</event>
<event>
 5    1  0.8943334E-005  0.9118800E+02  0.7818608E-02  0.1130116E+00
         25   -1    0    0    0    0  0.00000000000E+00  0.00000000000E+00  0.99999998245E-14  0.12500000000E+03  0.12500000000E+03 0.  0.
        -13    1    3    3    0    0 -0.30247638781E+02 -0.46027222212E+02 -0.10613956492E+02  0.56090035415E+02  0.10566000000E+00 0. -1.
         23    2    1    0    0    0  0.33238328643E+01 -0.29525408853E+02  0.10354629037E+01  0.95270051863E+02  0.90512501709E+02 0.  0.
         13    1    3    3    0    0  0.33571471646E+02  0.16501813359E+02  0.11649419396E+02  0.39180016448E+02  0.10566000000E+00 0.  1.
         22    1    1    0    0    0 -0.33238328643E+01  0.29525408853E+02 -0.10354629037E+01  0.29729948137E+02  0.00000000000E+00 0. -1.
</event>
<event>
 5    1  0.8943334E-005  0.9118800E+02  0.7818608E-02  0.1130116E+00
         25   -1    0    0    0    0  0.00000000000E+00  0.00000000000E+00  0.99999998245E-14  0.12500000000E+03  0.12500000000E+03 0.  0.
        -13    1    3    3    0    0 -0.24987570500E-01 -0.39454441999E+02 -0.12411607725E+02  0.41360763873E+02  0.10566000000E+00 0.  1.
         23    2    1    0    0    0  0.32211921852E+02 -0.13373834523E+01 -0.17533165254E+00  0.92759850417E+02  0.86976793481E+02 0.  0.
         13    1    3    3    0    0  0.32236909423E+02  0.38117058547E+02  0.12236276072E+02  0.51399086544E+02  0.10566000000E+00 0. -1.
         22    1    1    0    0    0 -0.32211921852E+02  0.13373834523E+01  0.17533165254E+00  0.32240149583E+02  0.00000000000E+00 0. -1.
</event>
<event>
 5    1  0.8943334E-005  0.9118800E+02  0.7818608E-02  0.1130116E+00
         25   -1    0    0    0    0  0.00000000000E+00  0.00000000000E+00  0.99999998245E-14  0.12500000000E+03  0.12500000000E+03 0.  0.
        -13    1    3    3    0    0 -0.56478941706E+01  0.11461410866E+02  0.38080697904E+02  0.40167317118E+02  0.10566000000E+00 0. -1.
         23    2    1    0    0    0 -0.61689141282E+01  0.22837816956E+02 -0.16650866571E+02  0.96071247134E+02  0.91612290570E+02 0.  0.
         13    1    3    3    0    0 -0.52101995755E+00  0.11376406090E+02 -0.54731564474E+02  0.55903930015E+02  0.10566000000E+00 0.  1.
         22    1    1    0    0    0  0.61689141282E+01 -0.22837816956E+02  0.16650866571E+02  0.28928752866E+02  0.00000000000E+00 0.  1.
</event>
<event>
 5    1  0.8943334E-005  0.9118800E+02  0.7818608E-02  0.1130116E+00
         25   -1    0    0    0    0  0.00000000000E+00  0.00000000000E+00  0.99999998245E-14  0.12500000000E+03  0.12500000000E+03 0.  0.
        -13    1    3    3    0    0 -0.98491755559E+01 -0.26776282310E+02 -0.19920863462E+02  0.34796946973E+02  0.10566000000E+00 0.  1.
         23    2    1    0    0    0  0.16663988217E+02  0.19834922029E+02  0.11176858501E+02  0.96785911301E+02  0.92582275978E+02 0.  0.
         13    1    3    3    0    0  0.26513163773E+02  0.46611204339E+02  0.31097721963E+02  0.61988964328E+02  0.10566000000E+00 0. -1.
         22    1    1    0    0    0 -0.16663988217E+02 -0.19834922029E+02 -0.11176858501E+02  0.28214088699E+02  0.00000000000E+00 0. -1.
</event>
<event>
 5    1  0.8943334E-005  0.9118800E+02  0.7818608E-02  0.1130116E+00
         25   -1    0    0    0    0  0.00000000000E+00  0.00000000000E+00  0.99999998245E-14  0.12500000000E+03  0.12500000000E+03 0.  0.
        -13    1    3    3    0    0 -0.37870908960E+02  0.21263669527E+02  0.44211684327E+02  0.61976072660E+02  0.10566000000E+00 0.  1.
         23    2    1    0    0    0 -0.23495105977E+02  0.93346048103E+01  0.18900794498E+02  0.93434276747E+02  0.87940714045E+02 0.  0.
         13    1    3    3    0    0  0.14375802984E+02 -0.11929064717E+02 -0.25310889829E+02  0.31458204088E+02  0.10566000000E+00 0. -1.
         22    1    1    0    0    0  0.23495105977E+02 -0.93346048103E+01 -0.18900794498E+02  0.31565723253E+02  0.00000000000E+00 0.  1.
</event>
<event>
 5    1  0.8943334E-005  0.9118800E+02  0.7818608E-02  0.1130116E+00
         25   -1    0    0    0    0  0.00000000000E+00  0.00000000000E+00  0.99999998245E-14  0.12500000000E+03  0.12500000000E+03 0.  0.
        -13    1    3    3    0    0 -0.19724382028E+02  0.11386383050E+02 -0.57976833008E+02  0.62289849053E+02  0.10566000000E+00 0. -1.
         23    2    1    0    0    0 -0.63264152336E+01  0.48468918670E+01 -0.29612024497E+02  0.94334255507E+02  0.89210783411E+02 0.  0.
         13    1    3    3    0    0  0.13397966795E+02 -0.65394911830E+01  0.28364808511E+02  0.32044406455E+02  0.10566000000E+00 0.  1.
         22    1    1    0    0    0  0.63264152336E+01 -0.48468918670E+01  0.29612024497E+02  0.30665744493E+02  0.00000000000E+00 0. -1.
</event>
<event>
 5    1  0.8943334E-005  0.9118800E+02  0.7818608E-02  0.1130116E+00
         25   -1    0    0    0    0  0.00000000000E+00  0.00000000000E+00  0.99999998245E-14  0.12500000000E+03  0.12500000000E+03 0.  0.
        -13    1    3    3    0    0 -0.37814423849E+01  0.39811416089E+02  0.47132217085E+02  0.61811853304E+02  0.10566000000E+00 0.  1.
         23    2    1    0    0    0 -0.59169825472E+00  0.23479521392E+02  0.17821150729E+02  0.95517268700E+02  0.90853272780E+02 0.  0.
         13    1    3    3    0    0  0.31897441302E+01 -0.16331894697E+02 -0.29311066356E+02  0.33705415395E+02  0.10566000000E+00 0. -1.
         22    1    1    0    0    0  0.59169825472E+00 -0.23479521392E+02 -0.17821150729E+02  0.29482731300E+02  0.00000000000E+00 0.  1.
</event>
<event>
 5    1  0.8943334E-005  0.9118800E+02  0.7818608E-02  0.1130116E+00
         25   -1    0    0    0    0  0.00000000000E+00  0.00000000000E+00  0.99999998245E-14  0.12500000000E+03  0.12500000000E+03 0.  0.
        -13    1    3    3    0    0  0.48109114670E+02  0.38755545093E+02 -0.68353616672E+01  0.62154746585E+02  0.10566000000E+00 0. -1.
         23    2    1    0    0    0  0.23070916384E+02  0.19972134335E+02  0.11691180994E+01  0.94462806779E+02  0.89390724882E+02 0.  0.
         13    1    3    3    0    0 -0.25038198287E+02 -0.18783410759E+02  0.80044797666E+01  0.32308060195E+02  0.10566000000E+00 0.  1.
         22    1    1    0    0    0 -0.23070916384E+02 -0.19972134335E+02 -0.11691180994E+01  0.30537193221E+02  0.00000000000E+00 0. -1.
</event>
<event>
 5    1  0.8943334E-005  0.9118800E+02  0.7818608E-02  0.1130116E+00
         25   -1    0    0    0    0  0.00000000000E+00  0.00000000000E+00  0.99999998245E-14  0.12500000000E+03  0.12500000000E+03 0.  0.
        -13    1    3    3    0    0  0.26354943019E+02  0.23270574219E+02 -0.12797913704E+01  0.35181695184E+02  0.10566000000E+00 0.  1.
         23    2    1    0    0    0 -0.18039456897E+01 -0.28546895400E+02  0.89326331048E+01  0.95033829220E+02  0.90185682373E+02 0.  0.
         13    1    3    3    0    0 -0.28158888709E+02 -0.51817469619E+02  0.10212424475E+02  0.59852134036E+02  0.10566000000E+00 0. -1.
         22    1    1    0    0    0  0.18039456897E+01  0.28546895400E+02 -0.89326331048E+01  0.29966170780E+02  0.00000000000E+00 0. -1.
</event>
<event>
 5    1  0.8943334E-005  0.9118800E+02  0.7818608E-02  0.1130116E+00
         25   -1    0    0    0    0  0.00000000000E+00  0.00000000000E+00  0.99999998245E-14  0.12500000000E+03  0.12500000000E+03 0.  0.
        -13    1    3    3    0    0  0.36418006402E+02 -0.16072693547E+02 -0.18794637559E+01  0.39851552244E+02  0.10566000000E+00 0.  1.
         23    2    1    0    0    0 -0.10656319723E+02  0.85076445024E+01 -0.24013442374E+02  0.97385102215E+02  0.93387769830E+02 0.  0.
         13    1    3    3    0    0 -0.47074326126E+02  0.24580338050E+02 -0.22133978618E+02  0.57533549971E+02  0.10566000000E+00 0. -1.
         22    1    1    0    0    0  0.10656319723E+02 -0.85076445024E+01  0.24013442374E+02  0.27614897785E+02  0.00000000000E+00 0. -1.
</event>
<event>
 5    1  0.8943334E-005  0.9118800E+02  0.7818608E-02  0.1130116E+00
         25   -1    0    0    0    0  0.00000000000E+00  0.00000000000E+00  0.99999998245E-14  0.12500000000E+03  0.12500000000E+03 0.  0.
        -13    1    3    3    0    0  0.33919104332E+02 -0.25530564312E+02  0.28807437189E+02  0.51304921345E+02  0.10566000000E+00 0. -1.
         23    2    1    0    0    0 -0.71677593777E+01 -0.10030330866E+02  0.27072427688E+02  0.95252720247E+02  0.90488563154E+02 0.  0.
         13    1    3    3    0    0 -0.41086863710E+02  0.15500233446E+02 -0.17350095007E+01  0.43947798902E+02  0.10566000000E+00 0.  1.
         22    1    1    0    0    0  0.71677593777E+01  0.10030330866E+02 -0.27072427688E+02  0.29747279753E+02  0.00000000000E+00 0. -1.
</event>
<event>
 5    1  0.8943334E-005  0.9118800E+02  0.7818608E-02  0.1130116E+00
         25   -1    0    0    0    0  0.00000000000E+00  0.00000000000E+00  0.99999998245E-14  0.12500000000E+03  0.12500000000E+03 0.  0.
        -13    1    3    3    0    0 -0.12271280552E+02  0.85747409354E+01 -0.40520992583E+02  0.43198061443E+02  0.10566000000E+00 0.  1.
         23    2    1    0    0    0  0.77578987236E+01  0.16265455519E+02  0.14252839730E+02  0.10202406746E+03  0.99403304091E+02 0.  0.
         13    1    3    3    0    0  0.20029179276E+02  0.76907145840E+01  0.54773832313E+02  0.58826006014E+02  0.10566000000E+00 0. -1.
         22    1    1    0    0    0 -0.77578987236E+01 -0.16265455519E+02 -0.14252839730E+02  0.22975932543E+02  0.00000000000E+00 0. -1.
</event>
<event>
 5    1  0.8943334E-005  0.9118800E+02  0.7818608E-02  0.1130116E+00
         25   -1    0    0    0    0  0.00000000000E+00  0.00000000000E+00  0.99999998245E-14  0.12500000000E+03  0.12500000000E+03 0.  0.
        -13    1    3    3    0    0  0.78568295203E+01 -0.40980264344E+02 -0.38788353182E+01  0.41906662517E+02  0.10566000000E+00 0.  1.
         23    2    1    0    0    0  0.23059872514E+02  0.93501053323E+01 -0.15408068885E+02  0.95732427897E+02  0.91148817733E+02 0.  0.
         13    1    3    3    0    0  0.15203042993E+02  0.50330369677E+02 -0.11529233566E+02  0.53825765380E+02  0.10566000000E+00 0. -1.
         22    1    1    0    0    0 -0.23059872514E+02 -0.93501053323E+01  0.15408068885E+02  0.29267572103E+02  0.00000000000E+00 0. -1.
</event>
<event>
 5    1  0.8943334E-005  0.9118800E+02  0.7818608E-02  0.1130116E+00
         25   -1    0    0    0    0  0.00000000000E+00  0.00000000000E+00  0.99999998245E-14  0.12500000000E+03  0.12500000000E+03 0.  0.
        -13    1    3    3    0    0  0.19332117082E+02 -0.27493092539E+02  0.12831297824E+02  0.35975745386E+02  0.10566000000E+00 0. -1.
         23    2    1    0    0    0 -0.16406381071E+02  0.21739641291E+02  0.30443323549E+01  0.97594721260E+02  0.93667925754E+02 0.  0.
         13    1    3    3    0    0 -0.35738498153E+02  0.49232733831E+02 -0.97869654686E+01  0.61618975874E+02  0.10566000000E+00 0.  1.
         22    1    1    0    0    0  0.16406381071E+02 -0.21739641291E+02 -0.30443323549E+01  0.27405278740E+02  0.00000000000E+00 0.  1.
</event>
<event>
 5    1  0.8943334E-005  0.9118800E+02  0.7818608E-02  0.1130116E+00
         25   -1    0    0    0    0  0.00000000000E+00  0.00000000000E+00  0.99999998245E-14  0.12500000000E+03  0.12500000000E+03 0.  0.
        -13    1    3    3    0    0  0.56850607097E+01  0.42687351139E+02  0.21809121022E+02  0.48271925446E+02  0.10566000000E+00 0.  1.
         23    2    1    0    0    0  0.32809606413E+01 -0.36724877974E+01  0.29295071416E+02  0.95293888194E+02  0.90545414288E+02 0.  0.
         13    1    3    3    0    0 -0.24041000683E+01 -0.46359838936E+02  0.74859503938E+01  0.47021962748E+02  0.10566000000E+00 0. -1.
         22    1    1    0    0    0 -0.32809606413E+01  0.36724877974E+01 -0.29295071416E+02  0.29706111806E+02  0.00000000000E+00 0. -1.
</event>
<event>
 5    1  0.8943334E-005  0.9118800E+02  0.7818608E-02  0.1130116E+00
         25   -1    0    0    0    0  0.00000000000E+00  0.00000000000E+00  0.99999998245E-14  0.12500000000E+03  0.12500000000E+03 0.  0.
        -13    1    3    3    0    0  0.68173029823E+01  0.37293939045E+02  0.56791723927E+01  0.38335071052E+02  0.10566000000E+00 0. -1.
         23    2    1    0    0    0  0.22686479232E+02 -0.17867677338E+02 -0.88772957522E+00  0.96108508221E+02  0.91663117203E+02 0.  0.
         13    1    3    3    0    0  0.15869176250E+02 -0.55161616383E+02 -0.65669019679E+01  0.57773437169E+02  0.10566000000E+00 0.  1.
         22    1    1    0    0    0 -0.22686479232E+02  0.17867677338E+02  0.88772957522E+00  0.28891491779E+02  0.00000000000E+00 0.  1.
</event>
<event>
 5    1  0.8943334E-005  0.9118800E+02  0.7818608E-02  0.1130116E+00
         25   -1    0    0    0    0  0.00000000000E+00  0.00000000000E+00  0.99999998245E-14  0.12500000000E+03  0.12500000000E+03 0.  0.
        -13    1    3    3    0    0 -0.30176344047E+02  0.25881489401E+02  0.40481860447E+02  0.56738482734E+02  0.10566000000E+00 0.  1.
         23    2    1    0    0    0 -0.73072988255E+01  0.31170548095E+00  0.32133721279E+02  0.92044426577E+02  0.85942461241E+02 0.  0.
         13    1    3    3    0    0  0.22869045221E+02 -0.25569783920E+02 -0.83481391682E+01  0.35305943843E+02  0.10566000000E+00 0. -1.
         22    1    1    0    0    0  0.73072988255E+01 -0.31170548095E+00 -0.32133721279E+02  0.32955573423E+02  0.00000000000E+00 0.  1.
</event>
<event>
 5    1  0.8943334E-005  0.9118800E+02  0.7818608E-02  0.1130116E+00
         25   -1    0    0    0    0  0.00000000000E+00  0.00000000000E+00  0.99999998245E-14  0.12500000000E+03  0.12500000000E+03 0.  0.
        -13    1    3    3    0    0 -0.38385812244E+02  0.14420584393E+02  0.19229636656E+02  0.45290329275E+02  0.10566000000E+00 0. -1.
         23    2    1    0    0    0  0.12573124564E+02  0.22432335532E+02  0.78144854075E+01  0.98123256877E+02  0.94370621590E+02 0.  0.
         13    1    3    3    0    0  0.50958936808E+02  0.80117511391E+01 -0.11415151248E+02  0.52832927602E+02  0.10566000000E+00 0.  1.
         22    1    1    0    0    0 -0.12573124564E+02 -0.22432335532E+02 -0.78144854075E+01  0.26876743123E+02  0.00000000000E+00 0. -1.
</event>
<event>
 5    1  0.8943334E-005  0.9118800E+02  0.7818608E-02  0.1130116E+00
         25   -1    0    0    0    0  0.00000000000E+00  0.00000000000E+00  0.99999998245E-14  0.12500000000E+03  0.12500000000E+03 0.  0.
        -13    1    3    3    0    0  0.37573480518E+02  0.86841392573E+01 -0.41971619229E+02  0.56998321884E+02  0.10566000000E+00 0. -1.
         23    2    1    0    0    0  0.16811654223E+02  0.20907334776E+02 -0.11585038306E+02  0.95777380718E+02  0.91210444465E+02 0.  0.
         13    1    3    3    0    0 -0.20761826295E+02  0.12223195519E+02  0.30386580923E+02  0.38779058834E+02  0.10566000000E+00 0.  1.
         22    1    1    0    0    0 -0.16811654223E+02 -0.20907334776E+02  0.11585038306E+02  0.29222619282E+02  0.00000000000E+00 0. -1.
</event>
<event>
 5    1  0.8943334E-005  0.9118800E+02  0.7818608E-02  0.1130116E+00
         25   -1    0    0    0    0  0.00000000000E+00  0.00000000000E+00  0.99999998245E-14  0.12500000000E+03  0.12500000000E+03 0.  0.
        -13    1    3    3    0    0  0.65705846832E+01 -0.26836934719E+02 -0.12851273540E+02  0.30472283207E+02  0.10566000000E+00 0. -1.
         23    2    1    0    0    0 -0.35989801466E+02  0.65121690880E+01  0.64056642221E+01  0.87869060207E+02  0.79638339082E+02 0.  0.
         13    1    3    3    0    0 -0.42560386149E+02  0.33349103807E+02  0.19256937762E+02  0.57396777000E+02  0.10566000000E+00 0.  1.
         22    1    1    0    0    0  0.35989801466E+02 -0.65121690880E+01 -0.64056642221E+01  0.37130939793E+02  0.00000000000E+00 0.  1.
</event>
<event>
 5    1  0.8943334E-005  0.9118800E+02  0.7818608E-02  0.1130116E+00
         25   -1    0    0    0    0  0.00000000000E+00  0.00000000000E+00  0.99999998245E-14  0.12500000000E+03  0.12500000000E+03 0.  0.
        -13    1    3    3    0    0 -0.35281795056E+02  0.12894048577E+02 -0.81981494565E+01  0.38448437804E+02  0.10566000000E+00 0. -1.
         23    2    1    0    0    0  0.20352702469E+02 -0.13662180076E+02 -0.25770941447E+01  0.10035189507E+03  0.97277817453E+02 0.  0.
         13    1    3    3    0    0  0.55634497525E+02 -0.26556228653E+02  0.56210553118E+01  0.61903457270E+02  0.10566000000E+00 0.  1.
         22    1    1    0    0    0 -0.20352702469E+02  0.13662180076E+02  0.25770941447E+01  0.24648104926E+02  0.00000000000E+00 0.  1.
</event>
<event>
 5    1  0.8943334E-005  0.9118800E+02  0.7818608E-02  0.1130116E+00
         25   -1    0    0    0    0  0.00000000000E+00  0.00000000000E+00  0.99999998245E-14  0.12500000000E+03  0.12500000000E+03 0.  0.
        -13    1    3    3    0    0  0.10749562805E+02 -0.51139613525E+02 -0.94576758597E+01  0.53106232861E+02  0.10566000000E+00 0. -1.
         23    2    1    0    0    0 -0.14825948888E+02 -0.17775521705E+02 -0.17594131599E+02  0.95925416615E+02  0.91413096183E+02 0.  0.
         13    1    3    3    0    0 -0.25575511692E+02  0.33364091820E+02 -0.81364557390E+01  0.42819183754E+02  0.10566000000E+00 0.  1.
         22    1    1    0    0    0  0.14825948888E+02  0.17775521705E+02  0.17594131599E+02  0.29074583385E+02  0.00000000000E+00 0. -1.
</event>
<event>
 5    1  0.8943334E-005  0.9118800E+02  0.7818608E-02  0.1130116E+00
         25   -1    0    0    0    0  0.00000000000E+00  0.00000000000E+00  0.99999998245E-14  0.12500000000E+03  0.12500000000E+03 0.  0.
        -13    1    3    3    0    0 -0.24354224690E+02  0.31669889903E+01 -0.30522538434E+02  0.39176454612E+02  0.10566000000E+00 0. -1.
         23    2    1    0    0    0  0.19463375274E+02  0.21845192093E+02 -0.13806642211E-01  0.95741914190E+02  0.91161826153E+02 0.  0.
         13    1    3    3    0    0  0.43817599964E+02  0.18678203103E+02  0.30508731791E+02  0.56565459578E+02  0.10566000000E+00 0.  1.
         22    1    1    0    0    0 -0.19463375274E+02 -0.21845192093E+02  0.13806642211E-01  0.29258085810E+02  0.00000000000E+00 0.  1.
</event>
<event>
 5    1  0.8943334E-005  0.9118800E+02  0.7818608E-02  0.1130116E+00
         25   -1    0    0    0    0  0.00000000000E+00  0.00000000000E+00  0.99999998245E-14  0.12500000000E+03  0.12500000000E+03 0.  0.
        -13    1    3    3    0    0 -0.96905104020E+01  0.35352406605E+02 -0.44665123727E+02  0.57781338564E+02  0.10566000000E+00 0.  1.
         23    2    1    0    0    0 -0.66952517309E+01  0.29207007864E+02 -0.95581624244E+01  0.93547906698E+02  0.88102080989E+02 0.  0.
         13    1    3    3    0    0  0.29952586711E+01 -0.61453987402E+01  0.35106961303E+02  0.35766568135E+02  0.10566000000E+00 0. -1.
         22    1    1    0    0    0  0.66952517309E+01 -0.29207007864E+02  0.95581624244E+01  0.31452093302E+02  0.00000000000E+00 0.  1.
</event>
<event>
 5    1  0.8943334E-005  0.9118800E+02  0.7818608E-02  0.1130116E+00
         25   -1    0    0    0    0  0.00000000000E+00  0.00000000000E+00  0.99999998245E-14  0.12500000000E+03  0.12500000000E+03 0.  0.
        -13    1    3    3    0    0  0.10049240919E+02 -0.49833240017E+02 -0.17505867553E+02  0.53766212591E+02  0.10566000000E+00 0.  1.
         23    2    1    0    0    0 -0.27980556385E+01 -0.25147534294E+02  0.14225953701E+02  0.95972334659E+02  0.91477230308E+02 0.  0.
         13    1    3    3    0    0 -0.12847296557E+02  0.24685705723E+02  0.31731821254E+02  0.42206122068E+02  0.10566000000E+00 0. -1.
         22    1    1    0    0    0  0.27980556385E+01  0.25147534294E+02 -0.14225953701E+02  0.29027665341E+02  0.00000000000E+00 0.  1.
</event>
<event>
 5    1  0.8943334E-005  0.9118800E+02  0.7818608E-02  0.1130116E+00
         25   -1    0    0    0    0  0.00000000000E+00  0.00000000000E+00  0.99999998245E-14  0.12500000000E+03  0.12500000000E+03 0.  0.
        -13    1    3    3    0    0  0.36577004248E+02 -0.13563903798E+01 -0.76051301091E+01  0.37384036736E+02  0.10566000000E+00 0.  1.
         23    2    1    0    0    0 -0.11316619699E+02 -0.66045131724E+01  0.25835076222E+02  0.96032144728E+02  0.91558921914E+02 0.  0.
         13    1    3    3    0    0 -0.47893623947E+02 -0.52481227926E+01  0.33440206331E+02  0.58648107993E+02  0.10566000000E+00 0. -1.
         22    1    1    0    0    0  0.11316619699E+02  0.66045131724E+01 -0.25835076222E+02  0.28967855272E+02  0.00000000000E+00 0. -1.
</event>
<event>
 5    1  0.8943334E-005  0.9118800E+02  0.7818608E-02  0.1130116E+00
         25   -1    0    0    0    0  0.00000000000E+00  0.00000000000E+00  0.99999998245E-14  0.12500000000E+03  0.12500000000E+03 0.  0.
        -13    1    3    3    0    0  0.57136268731E+02  0.16242610464E+02 -0.84154676041E+01  0.59993390121E+02  0.10566000000E+00 0.  1.
         23    2    1    0    0    0  0.20427073064E+02  0.13866921171E+02 -0.13056270298E+02  0.97071107956E+02  0.92966536931E+02 0.  0.
         13    1    3    3    0    0 -0.36709195667E+02 -0.23756892927E+01 -0.46408026935E+01  0.37077717835E+02  0.10566000000E+00 0. -1.
         22    1    1    0    0    0 -0.20427073064E+02 -0.13866921171E+02  0.13056270298E+02  0.27928892044E+02  0.00000000000E+00 0.  1.
</event>
<event>
 5    1  0.8943334E-005  0.9118800E+02  0.7818608E-02  0.1130116E+00
         25   -1    0    0    0    0  0.00000000000E+00  0.00000000000E+00  0.99999998245E-14  0.12500000000E+03  0.12500000000E+03 0.  0.
        -13    1    3    3    0    0 -0.54660145456E+02  0.15453754326E+02  0.84788742766E+00  0.56809155083E+02  0.10566000000E+00 0. -1.
         23    2    1    0    0    0 -0.26590570809E+02 -0.11616074850E+02 -0.20354624539E+01  0.95911604405E+02  0.91394207154E+02 0.  0.
         13    1    3    3    0    0  0.28069574647E+02 -0.27069829176E+02 -0.28833498815E+01  0.39102449323E+02  0.10566000000E+00 0.  1.
         22    1    1    0    0    0  0.26590570809E+02  0.11616074850E+02  0.20354624539E+01  0.29088395595E+02  0.00000000000E+00 0. -1.
</event>
<event>
 5    1  0.8943334E-005  0.9118800E+02  0.7818608E-02  0.1130116E+00
         25   -1    0    0    0    0  0.00000000000E+00  0.00000000000E+00  0.99999998245E-14  0.12500000000E+03  0.12500000000E+03 0.  0.
        -13    1    3    3    0    0  0.28448218914E+02  0.28841522319E+02  0.43200265732E+02  0.59223379610E+02  0.10566000000E+00 0. -1.
         23    2    1    0    0    0  0.18878483577E+01  0.21887209068E+02  0.16459857364E+02  0.97549302438E+02  0.93607294638E+02 0.  0.
         13    1    3    3    0    0 -0.26560370557E+02 -0.69543132509E+01 -0.26740408368E+02  0.38325922828E+02  0.10566000000E+00 0.  1.
         22    1    1    0    0    0 -0.18878483577E+01 -0.21887209068E+02 -0.16459857364E+02  0.27450697562E+02  0.00000000000E+00 0. -1.
</event>
<event>
 5    1  0.8943334E-005  0.9118800E+02  0.7818608E-02  0.1130116E+00
         25   -1    0    0    0    0  0.00000000000E+00  0.00000000000E+00  0.99999998245E-14  0.12500000000E+03  0.12500000000E+03 0.  0.
        -13    1    3    3    0    0  0.23442289683E+01  0.42497463820E+02 -0.39738133255E+01  0.42747306313E+02  0.10566000000E+00 0. -1.
         23    2    1    0    0    0 -0.28474107760E+02 -0.20044555238E+00 -0.75942685870E+01  0.95529881125E+02  0.90870623863E+02 0.  0.
         13    1    3    3    0    0 -0.30818336728E+02 -0.42697909373E+02 -0.36204552615E+01  0.52782574812E+02  0.10566000000E+00 0.  1.
         22    1    1    0    0    0  0.28474107760E+02  0.20044555238E+00  0.75942685870E+01  0.29470118875E+02  0.00000000000E+00 0.  1.
</event>
<event>
 5    1  0.8943334E-005  0.9118800E+02  0.7818608E-02  0.1130116E+00
         25   -1    0    0    0    0  0.00000000000E+00  0.00000000000E+00  0.99999998245E-14  0.12500000000E+03  0.12500000000E+03 0.  0.
        -13    1    3    3    0    0 -0.42030935040E+02 -0.37333135652E+02 -0.79212488108E+01  0.56772527377E+02  0.10566000000E+00 0. -1.
         23    2    1    0    0    0 -0.20285779807E+02 -0.62393147452E+01 -0.19224878618E+02  0.96363696664E+02  0.92010456830E+02 0.  0.
         13    1    3    3    0    0  0.21745155234E+02  0.31093820907E+02 -0.11303629807E+02  0.39591169288E+02  0.10566000000E+00 0.  1.
         22    1    1    0    0    0  0.20285779807E+02  0.62393147452E+01  0.19224878618E+02  0.28636303336E+02  0.00000000000E+00 0. -1.
</event>
<event>
 5    1  0.8943334E-005  0.9118800E+02  0.7818608E-02  0.1130116E+00
         25   -1    0    0    0    0  0.00000000000E+00  0.00000000000E+00  0.99999998245E-14  0.12500000000E+03  0.12500000000E+03 0.  0.
        -13    1    3    3    0    0 -0.49905924288E+02  0.15709740137E+02 -0.63312436799E+01  0.52701926196E+02  0.10566000000E+00 0.  1.
         23    2    1    0    0    0 -0.87358881478E+01  0.21230284769E+02 -0.17976306070E+02  0.95842011163E+02  0.91298974752E+02 0.  0.
         13    1    3    3    0    0  0.41170036140E+02  0.55205446317E+01 -0.11645062390E+02  0.43140084967E+02  0.10566000000E+00 0. -1.
         22    1    1    0    0    0  0.87358881478E+01 -0.21230284769E+02  0.17976306070E+02  0.29157988837E+02  0.00000000000E+00 0.  1.
</event>
<event>
 5    1  0.8943334E-005  0.9118800E+02  0.7818608E-02  0.1130116E+00
         25   -1    0    0    0    0  0.00000000000E+00  0.00000000000E+00  0.99999998245E-14  0.12500000000E+03  0.12500000000E+03 0.  0.
        -13    1    3    3    0    0 -0.40145248178E+02  0.16408829975E+02 -0.10906720240E+02  0.44719775971E+02  0.10566000000E+00 0. -1.
         23    2    1    0    0    0 -0.54519095537E-01 -0.22802326066E+02 -0.78600757967E+01  0.10088092378E+03  0.97955249702E+02 0.  0.
         13    1    3    3    0    0  0.40090729082E+02 -0.39211156041E+02  0.30466444437E+01  0.56161147806E+02  0.10566000000E+00 0.  1.
         22    1    1    0    0    0  0.54519095537E-01  0.22802326066E+02  0.78600757967E+01  0.24119076223E+02  0.00000000000E+00 0. -1.
</event>
<event>
 5    1  0.8943334E-005  0.9118800E+02  0.7818608E-02  0.1130116E+00
         25   -1    0    0    0    0  0.00000000000E+00  0.00000000000E+00  0.99999998245E-14  0.12500000000E+03  0.12500000000E+03 0.  0.
        -13    1    3    3    0    0  0.37292949557E+02 -0.40384492191E+01 -0.12734418880E+01  0.37532732075E+02  0.10566000000E+00 0.  1.
         23    2    1    0    0    0 -0.21699987460E+02 -0.88900690562E+01 -0.13452625611E+02  0.97964913179E+02  0.94160651521E+02 0.  0.
         13    1    3    3    0    0 -0.58992937016E+02 -0.48516198372E+01 -0.12179183723E+02  0.60432181104E+02  0.10566000000E+00 0. -1.
         22    1    1    0    0    0  0.21699987460E+02  0.88900690562E+01  0.13452625611E+02  0.27035086821E+02  0.00000000000E+00 0. -1.
</event>
<event>
 5    1  0.8943334E-005  0.9118800E+02  0.7818608E-02  0.1130116E+00
         25   -1    0    0    0    0  0.00000000000E+00  0.00000000000E+00  0.99999998245E-14  0.12500000000E+03  0.12500000000E+03 0.  0.
        -13    1    3    3    0    0 -0.13824453498E+02  0.50285871015E+02  0.26505578334E+02  0.58500779355E+02  0.10566000000E+00 0.  1.
         23    2    1    0    0    0 -0.66635760410E+01  0.31285907472E+02 -0.13646819209E+01  0.92983229258E+02  0.87297235434E+02 0.  0.
         13    1    3    3    0    0  0.71608774566E+01 -0.18999963543E+02 -0.27870260255E+02  0.34482449903E+02  0.10566000000E+00 0. -1.
         22    1    1    0    0    0  0.66635760410E+01 -0.31285907472E+02  0.13646819209E+01  0.32016770742E+02  0.00000000000E+00 0.  1.
</event>
<event>
 5    1  0.8943334E-005  0.9118800E+02  0.7818608E-02  0.1130116E+00
         25   -1    0    0    0    0  0.00000000000E+00  0.00000000000E+00  0.99999998245E-14  0.12500000000E+03  0.12500000000E+03 0.  0.
        -13    1    3    3    0    0 -0.32219679686E+02 -0.16522372269E+02  0.50456413356E+02  0.62104406907E+02  0.10566000000E+00 0.  1.
         23    2    1    0    0    0 -0.11351350691E+02 -0.50915247956E+01  0.25730800856E+02  0.96419396438E+02  0.92086096179E+02 0.  0.
         13    1    3    3    0    0  0.20868328995E+02  0.11430847474E+02 -0.24725612499E+02  0.34314989531E+02  0.10566000000E+00 0. -1.
         22    1    1    0    0    0  0.11351350691E+02  0.50915247956E+01 -0.25730800856E+02  0.28580603562E+02  0.00000000000E+00 0.  1.
</event>
<event>
 5    1  0.8943334E-005  0.9118800E+02  0.7818608E-02  0.1130116E+00
         25   -1    0    0    0    0  0.00000000000E+00  0.00000000000E+00  0.99999998245E-14  0.12500000000E+03  0.12500000000E+03 0.  0.
        -13    1    3    3    0    0  0.30078489995E+02  0.30476916338E+02 -0.28010183835E+01  0.42911710032E+02  0.10566000000E+00 0.  1.
         23    2    1    0    0    0 -0.58402312970E+01  0.17676987045E+02  0.27620259532E+02  0.91691398870E+02  0.85427452951E+02 0.  0.
         13    1    3    3    0    0 -0.35918721292E+02 -0.12799929293E+02  0.30421277915E+02  0.48779688839E+02  0.10566000000E+00 0. -1.
         22    1    1    0    0    0  0.58402312970E+01 -0.17676987045E+02 -0.27620259532E+02  0.33308601130E+02  0.00000000000E+00 0.  1.
</event>
<event>
 5    1  0.8943334E-005  0.9118800E+02  0.7818608E-02  0.1130116E+00
         25   -1    0    0    0    0  0.00000000000E+00  0.00000000000E+00  0.99999998245E-14  0.12500000000E+03  0.12500000000E+03 0.  0.
        -13    1    3    3    0    0  0.17737660521E+02 -0.12312211611E+02  0.54450297445E+02  0.58575261087E+02  0.10566000000E+00 0.  1.
         23    2    1    0    0    0  0.26558834412E+02 -0.61353187677E+01  0.39920750353E+02  0.76660780618E+02  0.59499539112E+02 0.  0.
         13    1    3    3    0    0  0.88211738908E+01  0.61768928430E+01 -0.14529547092E+02  0.18085519532E+02  0.10566000000E+00 0. -1.
         22    1    1    0    0    0 -0.26558834412E+02  0.61353187677E+01 -0.39920750353E+02  0.48339219382E+02  0.00000000000E+00 0.  1.
</event>
<event>
 5    1  0.8943334E-005  0.9118800E+02  0.7818608E-02  0.1130116E+00
         25   -1    0    0    0    0  0.00000000000E+00  0.00000000000E+00  0.99999998245E-14  0.12500000000E+03  0.12500000000E+03 0.  0.
        -13    1    3    3    0    0 -0.10033381320E+02  0.64285958784E+01  0.42553023450E+02  0.44190118289E+02  0.10566000000E+00 0.  1.
         23    2    1    0    0    0 -0.12627567717E+02 -0.26153114511E+02  0.25528001632E+01  0.95845966767E+02  0.91304390321E+02 0.  0.
         13    1    3    3    0    0 -0.25941863968E+01 -0.32581710389E+02 -0.40000223287E+02  0.51655848478E+02  0.10566000000E+00 0. -1.
         22    1    1    0    0    0  0.12627567717E+02  0.26153114511E+02 -0.25528001632E+01  0.29154033233E+02  0.00000000000E+00 0. -1.
</event>
<event>
 5    1  0.8943334E-005  0.9118800E+02  0.7818608E-02  0.1130116E+00
         25   -1    0    0    0    0  0.00000000000E+00  0.00000000000E+00  0.99999998245E-14  0.12500000000E+03  0.12500000000E+03 0.  0.
        -13    1    3    3    0    0  0.24435970883E+02 -0.40849740140E+01 -0.40161648535E+02  0.47188694226E+02  0.10566000000E+00 0. -1.
         23    2    1    0    0    0  0.83496573080E+01  0.28788318574E+02 -0.19894228202E+02  0.89024113920E+02  0.81431127218E+02 0.  0.
         13    1    3    3    0    0 -0.16086313575E+02  0.32873292588E+02  0.20267420333E+02  0.41835419694E+02  0.10566000000E+00 0.  1.
         22    1    1    0    0    0 -0.83496573080E+01 -0.28788318574E+02  0.19894228202E+02  0.35975886080E+02  0.00000000000E+00 0. -1.
</event>
<event>
 5    1  0.8943334E-005  0.9118800E+02  0.7818608E-02  0.1130116E+00
         25   -1    0    0    0    0  0.00000000000E+00  0.00000000000E+00  0.99999998245E-14  0.12500000000E+03  0.12500000000E+03 0.  0.
        -13    1    3    3    0    0  0.50933436598E+02 -0.29295636313E+02 -0.10136410741E+02  0.59625558760E+02  0.10566000000E+00 0.  1.
         23    2    1    0    0    0  0.24580481185E+02 -0.76983577362E+01 -0.16669633509E+02  0.94318711754E+02  0.89189001220E+02 0.  0.
         13    1    3    3    0    0 -0.26352955413E+02  0.21597278577E+02 -0.65332227681E+01  0.34693152995E+02  0.10566000000E+00 0. -1.
         22    1    1    0    0    0 -0.24580481185E+02  0.76983577362E+01  0.16669633509E+02  0.30681288246E+02  0.00000000000E+00 0. -1.
</event>
<event>
 5    1  0.8943334E-005  0.9118800E+02  0.7818608E-02  0.1130116E+00
         25   -1    0    0    0    0  0.00000000000E+00  0.00000000000E+00  0.99999998245E-14  0.12500000000E+03  0.12500000000E+03 0.  0.
        -13    1    3    3    0    0 -0.30217763352E+02 -0.20466263542E+02 -0.17969398983E+02  0.40680359256E+02  0.10566000000E+00 0.  1.
         23    2    1    0    0    0 -0.14260260441E+02  0.20719361413E+01  0.27542710249E+02  0.93915456653E+02  0.88622029785E+02 0.  0.
         13    1    3    3    0    0  0.15957502911E+02  0.22538199683E+02  0.45512109232E+02  0.53235097397E+02  0.10566000000E+00 0. -1.
         22    1    1    0    0    0  0.14260260441E+02 -0.20719361413E+01 -0.27542710249E+02  0.31084543347E+02  0.00000000000E+00 0. -1.
</event>
<event>
 5    1  0.8943334E-005  0.9118800E+02  0.7818608E-02  0.1130116E+00
         25   -1    0    0    0    0  0.00000000000E+00  0.00000000000E+00  0.99999998245E-14  0.12500000000E+03  0.12500000000E+03 0.  0.
        -13    1    3    3    0    0  0.31533371980E+02 -0.23261979465E+02 -0.11355308811E+01  0.39201706997E+02  0.10566000000E+00 0. -1.
         23    2    1    0    0    0 -0.19341298513E+02 -0.86676915459E+01 -0.20455350930E+02  0.95544336936E+02  0.90890506842E+02 0.  0.
         13    1    3    3    0    0 -0.50874670493E+02  0.14594287919E+02 -0.19319820049E+02  0.56342629938E+02  0.10566000000E+00 0.  1.
         22    1    1    0    0    0  0.19341298513E+02  0.86676915459E+01  0.20455350930E+02  0.29455663064E+02  0.00000000000E+00 0.  1.
</event>
<event>
 5    1  0.8943334E-005  0.9118800E+02  0.7818608E-02  0.1130116E+00
         25   -1    0    0    0    0  0.00000000000E+00  0.00000000000E+00  0.99999998245E-14  0.12500000000E+03  0.12500000000E+03 0.  0.
        -13    1    3    3    0    0  0.97842685786E+01 -0.22515158122E+02 -0.31669234584E+02  0.40070136511E+02  0.10566000000E+00 0. -1.
         23    2    1    0    0    0 -0.22530485810E+02  0.16115312345E+02 -0.57649255758E+01  0.96705823043E+02  0.92474081562E+02 0.  0.
         13    1    3    3    0    0 -0.32314754388E+02  0.38630470467E+02  0.25904309008E+02  0.56635686531E+02  0.10566000000E+00 0.  1.
         22    1    1    0    0    0  0.22530485810E+02 -0.16115312345E+02  0.57649255758E+01  0.28294176957E+02  0.00000000000E+00 0. -1.
</event>
<event>
 5    1  0.8943334E-005  0.9118800E+02  0.7818608E-02  0.1130116E+00
         25   -1    0    0    0    0  0.00000000000E+00  0.00000000000E+00  0.99999998245E-14  0.12500000000E+03  0.12500000000E+03 0.  0.
        -13    1    3    3    0    0 -0.23963694510E+01 -0.27132529897E+02 -0.42341953672E+02  0.50346489152E+02  0.10566000000E+00 0.  1.
         23    2    1    0    0    0  0.19347983522E+02  0.55981693701E+01 -0.23871895115E+02  0.93766182701E+02  0.88411230482E+02 0.  0.
         13    1    3    3    0    0  0.21744352973E+02  0.32730699267E+02  0.18470058558E+02  0.43419693549E+02  0.10566000000E+00 0. -1.
         22    1    1    0    0    0 -0.19347983522E+02 -0.55981693701E+01  0.23871895115E+02  0.31233817299E+02  0.00000000000E+00 0.  1.
</event>
<event>
 5    1  0.8943334E-005  0.9118800E+02  0.7818608E-02  0.1130116E+00
         25   -1    0    0    0    0  0.00000000000E+00  0.00000000000E+00  0.99999998245E-14  0.12500000000E+03  0.12500000000E+03 0.  0.
        -13    1    3    3    0    0 -0.35167173642E+02  0.20665080917E+02  0.16084880806E+02  0.43846439147E+02  0.10566000000E+00 0. -1.
         23    2    1    0    0    0  0.32055566789E+00  0.15146574794E+02 -0.23338105460E+02  0.97175754271E+02  0.93107134892E+02 0.  0.
         13    1    3    3    0    0  0.35487729310E+02 -0.55185061235E+01 -0.39422986266E+02  0.53329315124E+02  0.10566000000E+00 0.  1.
         22    1    1    0    0    0 -0.32055566789E+00 -0.15146574794E+02  0.23338105460E+02  0.27824245729E+02  0.00000000000E+00 0.  1.
</event>
<event>
 5    1  0.8943334E-005  0.9118800E+02  0.7818608E-02  0.1130116E+00
         25   -1    0    0    0    0  0.00000000000E+00  0.00000000000E+00  0.99999998245E-14  0.12500000000E+03  0.12500000000E+03 0.  0.
        -13    1    3    3    0    0  0.36194046205E+01  0.22602597106E+02 -0.30619327919E+02  0.38229986816E+02  0.10566000000E+00 0.  1.
         23    2    1    0    0    0  0.17193479844E+02  0.10217603790E+02  0.22770237662E+02  0.94693253234E+02  0.89712392168E+02 0.  0.
         13    1    3    3    0    0  0.13574075223E+02 -0.12384993316E+02  0.53389565581E+02  0.56463266418E+02  0.10566000000E+00 0. -1.
         22    1    1    0    0    0 -0.17193479844E+02 -0.10217603790E+02 -0.22770237662E+02  0.30306746766E+02  0.00000000000E+00 0. -1.
</event>
<event>
 5    1  0.8943334E-005  0.9118800E+02  0.7818608E-02  0.1130116E+00
         25   -1    0    0    0    0  0.00000000000E+00  0.00000000000E+00  0.99999998245E-14  0.12500000000E+03  0.12500000000E+03 0.  0.
        -13    1    3    3    0    0 -0.21000551599E+02 -0.21915005495E+02 -0.41669719765E+02  0.51552568730E+02  0.10566000000E+00 0.  1.
         23    2    1    0    0    0 -0.18046838872E+02  0.14988058278E+02 -0.16479978990E+02  0.96330852965E+02  0.91965826486E+02 0.  0.
         13    1    3    3    0    0  0.29537127262E+01  0.36903063773E+02  0.25189740775E+02  0.44778284235E+02  0.10566000000E+00 0. -1.
         22    1    1    0    0    0  0.18046838872E+02 -0.14988058278E+02  0.16479978990E+02  0.28669147035E+02  0.00000000000E+00 0.  1.
</event>
<event>
 5    1  0.8943334E-005  0.9118800E+02  0.7818608E-02  0.1130116E+00
         25   -1    0    0    0    0  0.00000000000E+00  0.00000000000E+00  0.99999998245E-14  0.12500000000E+03  0.12500000000E+03 0.  0.
        -13    1    3    3    0    0 -0.91309602607E+01 -0.29116368168E+02 -0.47435654839E+02  0.56402924079E+02  0.10566000000E+00 0.  1.
         23    2    1    0    0    0 -0.63867241413E+01  0.52385722098E+01 -0.27648844390E+02  0.96143605905E+02  0.91710967045E+02 0.  0.
         13    1    3    3    0    0  0.27442361194E+01  0.34354940378E+02  0.19786810449E+02  0.39740681826E+02  0.10566000000E+00 0. -1.
         22    1    1    0    0    0  0.63867241413E+01 -0.52385722098E+01  0.27648844390E+02  0.28856394095E+02  0.00000000000E+00 0.  1.
</event>
<event>
 5    1  0.8943334E-005  0.9118800E+02  0.7818608E-02  0.1130116E+00
         25   -1    0    0    0    0  0.00000000000E+00  0.00000000000E+00  0.99999998245E-14  0.12500000000E+03  0.12500000000E+03 0.  0.
        -13    1    3    3    0    0 -0.19443985153E+02  0.11241562746E+02 -0.33602421771E+02  0.40417511112E+02  0.10566000000E+00 0.  1.
         23    2    1    0    0    0  0.25767971524E+02  0.12979185232E+02 -0.11004315014E+01  0.96126854081E+02  0.91688131840E+02 0.  0.
         13    1    3    3    0    0  0.45211956677E+02  0.17376224863E+01  0.32501990270E+02  0.55709342969E+02  0.10566000000E+00 0. -1.
         22    1    1    0    0    0 -0.25767971524E+02 -0.12979185232E+02  0.11004315014E+01  0.28873145919E+02  0.00000000000E+00 0. -1.
</event>
<event>
 5    1  0.8943334E-005  0.9118800E+02  0.7818608E-02  0.1130116E+00
         25   -1    0    0    0    0  0.00000000000E+00  0.00000000000E+00  0.99999998245E-14  0.12500000000E+03  0.12500000000E+03 0.  0.
        -13    1    3    3    0    0 -0.49803694058E+01  0.31743520394E+02  0.40969059704E+02  0.52066593738E+02  0.10566000000E+00 0.  1.
         23    2    1    0    0    0  0.16007441290E+02  0.24668288861E+02  0.37804241058E+01  0.95351150808E+02  0.90624432147E+02 0.  0.
         13    1    3    3    0    0  0.20987810695E+02 -0.70752315330E+01 -0.37188635598E+02  0.43284557070E+02  0.10566000000E+00 0. -1.
         22    1    1    0    0    0 -0.16007441290E+02 -0.24668288861E+02 -0.37804241058E+01  0.29648849192E+02  0.00000000000E+00 0.  1.
</event>
<event>
 5    1  0.8943334E-005  0.9118800E+02  0.7818608E-02  0.1130116E+00
         25   -1    0    0    0    0  0.00000000000E+00  0.00000000000E+00  0.99999998245E-14  0.12500000000E+03  0.12500000000E+03 0.  0.
        -13    1    3    3    0    0  0.51591358334E+02  0.22503342526E+02 -0.80718856087E+01  0.56861543955E+02  0.10566000000E+00 0.  1.
         23    2    1    0    0    0  0.26551135537E+02 -0.77691178013E+01 -0.81908923400E+01  0.96148436662E+02  0.91717551023E+02 0.  0.
         13    1    3    3    0    0 -0.25040222797E+02 -0.30272460327E+02 -0.11900673127E+00  0.39286892708E+02  0.10566000000E+00 0. -1.
         22    1    1    0    0    0 -0.26551135537E+02  0.77691178013E+01  0.81908923400E+01  0.28851563338E+02  0.00000000000E+00 0.  1.
</event>
<event>
 5    1  0.8943334E-005  0.9118800E+02  0.7818608E-02  0.1130116E+00
         25   -1    0    0    0    0  0.00000000000E+00  0.00000000000E+00  0.99999998245E-14  0.12500000000E+03  0.12500000000E+03 0.  0.
        -13    1    3    3    0    0  0.24753771022E+02 -0.18823751377E+02  0.20067529776E+02  0.37010805329E+02  0.10566000000E+00 0.  1.
         23    2    1    0    0    0  0.22132776762E+02  0.20800417219E+02 -0.16012576353E+02  0.90664598952E+02  0.83911559025E+02 0.  0.
         13    1    3    3    0    0 -0.26209942600E+01  0.39624168596E+02 -0.36080106129E+02  0.53653793623E+02  0.10566000000E+00 0. -1.
         22    1    1    0    0    0 -0.22132776762E+02 -0.20800417219E+02  0.16012576353E+02  0.34335401048E+02  0.00000000000E+00 0.  1.
</event>
<event>
 5    1  0.8943334E-005  0.9118800E+02  0.7818608E-02  0.1130116E+00
         25   -1    0    0    0    0  0.00000000000E+00  0.00000000000E+00  0.99999998245E-14  0.12500000000E+03  0.12500000000E+03 0.  0.
        -13    1    3    3    0    0  0.11293799229E+02 -0.48690541018E+02  0.32614931829E+02  0.59683026296E+02  0.10566000000E+00 0.  1.
         23    2    1    0    0    0 -0.65105345531E+01 -0.27270367399E+02  0.21483275881E+02  0.89678743782E+02  0.82429885026E+02 0.  0.
         13    1    3    3    0    0 -0.17804333782E+02  0.21420173619E+02 -0.11131655948E+02  0.29995717485E+02  0.10566000000E+00 0. -1.
         22    1    1    0    0    0  0.65105345531E+01  0.27270367399E+02 -0.21483275881E+02  0.35321256218E+02  0.00000000000E+00 0.  1.
</event>
<event>
 5    1  0.8943334E-005  0.9118800E+02  0.7818608E-02  0.1130116E+00
         25   -1    0    0    0    0  0.00000000000E+00  0.00000000000E+00  0.99999998245E-14  0.12500000000E+03  0.12500000000E+03 0.  0.
        -13    1    3    3    0    0  0.36312241874E+02 -0.15690318851E+02  0.37124670197E+02  0.54249583564E+02  0.10566000000E+00 0. -1.
         23    2    1    0    0    0  0.17937288051E+02 -0.24880364095E+02  0.28690328702E+01  0.94193991337E+02  0.89014031670E+02 0.  0.
         13    1    3    3    0    0 -0.18374953823E+02 -0.91900452444E+01 -0.34255637327E+02  0.39944407773E+02  0.10566000000E+00 0.  1.
         22    1    1    0    0    0 -0.17937288051E+02  0.24880364095E+02 -0.28690328702E+01  0.30806008663E+02  0.00000000000E+00 0.  1.
</event>
<event>
 5    1  0.8943334E-005  0.9118800E+02  0.7818608E-02  0.1130116E+00
         25   -1    0    0    0    0  0.00000000000E+00  0.00000000000E+00  0.99999998245E-14  0.12500000000E+03  0.12500000000E+03 0.  0.
        -13    1    3    3    0    0 -0.26675402878E+02 -0.37777986251E+02 -0.12956212275E+02  0.48027366828E+02  0.10566000000E+00 0.  1.
         23    2    1    0    0    0 -0.19551014972E+02 -0.48324876288E+01  0.21021483234E+02  0.95888183147E+02  0.91362168247E+02 0.  0.
         13    1    3    3    0    0  0.71243879064E+01  0.32945498622E+02  0.33977695509E+02  0.47860816319E+02  0.10566000000E+00 0. -1.
         22    1    1    0    0    0  0.19551014972E+02  0.48324876288E+01 -0.21021483234E+02  0.29111816853E+02  0.00000000000E+00 0. -1.
</event>
<event>
 5    1  0.8943334E-005  0.9118800E+02  0.7818608E-02  0.1130116E+00
         25   -1    0    0    0    0  0.00000000000E+00  0.00000000000E+00  0.99999998245E-14  0.12500000000E+03  0.12500000000E+03 0.  0.
        -13    1    3    3    0    0  0.13646498276E+02 -0.45489696835E+02  0.37643951029E+01  0.47641591786E+02  0.10566000000E+00 0.  1.
         23    2    1    0    0    0  0.25709885518E+02 -0.34537077246E+01 -0.14780391425E+02  0.95143907137E+02  0.90338124754E+02 0.  0.
         13    1    3    3    0    0  0.12063387242E+02  0.42035989111E+02 -0.18544786528E+02  0.47502315351E+02  0.10566000000E+00 0. -1.
         22    1    1    0    0    0 -0.25709885518E+02  0.34537077246E+01  0.14780391425E+02  0.29856092863E+02  0.00000000000E+00 0.  1.
</event>
<event>
 5    1  0.8943334E-005  0.9118800E+02  0.7818608E-02  0.1130116E+00
         25   -1    0    0    0    0  0.00000000000E+00  0.00000000000E+00  0.99999998245E-14  0.12500000000E+03  0.12500000000E+03 0.  0.
        -13    1    3    3    0    0 -0.83973392216E+01  0.21496310323E+02  0.32883112579E+02  0.40173584859E+02  0.10566000000E+00 0. -1.
         23    2    1    0    0    0 -0.24648238136E+02 -0.18623386043E+02  0.72373086047E+00  0.94098706543E+02  0.88880125089E+02 0.  0.
         13    1    3    3    0    0 -0.16250898915E+02 -0.40119696366E+02 -0.32159381719E+02  0.53925121684E+02  0.10566000000E+00 0.  1.
         22    1    1    0    0    0  0.24648238136E+02  0.18623386043E+02 -0.72373086047E+00  0.30901293457E+02  0.00000000000E+00 0. -1.
</event>
<event>
 5    1  0.8943334E-005  0.9118800E+02  0.7818608E-02  0.1130116E+00
         25   -1    0    0    0    0  0.00000000000E+00  0.00000000000E+00  0.99999998245E-14  0.12500000000E+03  0.12500000000E+03 0.  0.
        -13    1    3    3    0    0 -0.30192472031E+02 -0.21483643868E+02 -0.13757030584E+02  0.39527197924E+02  0.10566000000E+00 0.  1.
         23    2    1    0    0    0  0.90938679255E+01  0.18821406070E+02 -0.19891613260E+02  0.96144843816E+02  0.91712654274E+02 0.  0.
         13    1    3    3    0    0  0.39286339957E+02  0.40305049938E+02 -0.61345826759E+01  0.56617645892E+02  0.10566000000E+00 0. -1.
         22    1    1    0    0    0 -0.90938679255E+01 -0.18821406070E+02  0.19891613260E+02  0.28855156184E+02  0.00000000000E+00 0. -1.
</event>
<event>
 5    1  0.8943334E-005  0.9118800E+02  0.7818608E-02  0.1130116E+00
         25   -1    0    0    0    0  0.00000000000E+00  0.00000000000E+00  0.99999998245E-14  0.12500000000E+03  0.12500000000E+03 0.  0.
        -13    1    3    3    0    0  0.49713280930E+02 -0.26988017149E+01 -0.24737547975E+02  0.55593626212E+02  0.10566000000E+00 0.  1.
         23    2    1    0    0    0  0.13218491364E+02  0.15059208229E+02 -0.20390602016E+02  0.96411804587E+02  0.92075790231E+02 0.  0.
         13    1    3    3    0    0 -0.36494789566E+02  0.17758009944E+02  0.43469459594E+01  0.40818178375E+02  0.10566000000E+00 0. -1.
         22    1    1    0    0    0 -0.13218491364E+02 -0.15059208229E+02  0.20390602016E+02  0.28588195413E+02  0.00000000000E+00 0.  1.
</event>
<event>
 5    1  0.8943334E-005  0.9118800E+02  0.7818608E-02  0.1130116E+00
         25   -1    0    0    0    0  0.00000000000E+00  0.00000000000E+00  0.99999998245E-14  0.12500000000E+03  0.12500000000E+03 0.  0.
        -13    1    3    3    0    0 -0.45668310874E+01 -0.20704586869E+02  0.23245861208E+02  0.31462947906E+02  0.10566000000E+00 0.  1.
         23    2    1    0    0    0 -0.50261029081E+01  0.29134429412E+02 -0.12606638328E+02  0.92859620140E+02  0.87120061037E+02 0.  0.
         13    1    3    3    0    0 -0.45927182079E+00  0.49839016281E+02 -0.35852499536E+02  0.61396672234E+02  0.10566000000E+00 0. -1.
         22    1    1    0    0    0  0.50261029081E+01 -0.29134429412E+02  0.12606638328E+02  0.32140379860E+02  0.00000000000E+00 0. -1.
</event>
<event>
 5    1  0.8943334E-005  0.9118800E+02  0.7818608E-02  0.1130116E+00
         25   -1    0    0    0    0  0.00000000000E+00  0.00000000000E+00  0.99999998245E-14  0.12500000000E+03  0.12500000000E+03 0.  0.
        -13    1    3    3    0    0 -0.36320102407E+01  0.27928744478E+02  0.28297617708E+02  0.39924586392E+02  0.10566000000E+00 0.  1.
         23    2    1    0    0    0  0.50674652076E+01  0.10112426643E+02 -0.25415984162E+02  0.97180714834E+02  0.93113794405E+02 0.  0.
         13    1    3    3    0    0  0.86994754484E+01 -0.17816317836E+02 -0.53713601870E+02  0.57256128442E+02  0.10566000000E+00 0. -1.
         22    1    1    0    0    0 -0.50674652076E+01 -0.10112426643E+02  0.25415984162E+02  0.27819285166E+02  0.00000000000E+00 0. -1.
</event>
<event>
 5    1  0.8943334E-005  0.9118800E+02  0.7818608E-02  0.1130116E+00
         25   -1    0    0    0    0  0.00000000000E+00  0.00000000000E+00  0.99999998245E-14  0.12500000000E+03  0.12500000000E+03 0.  0.
        -13    1    3    3    0    0  0.26805156655E+02  0.20842590990E+02  0.23321889641E+01  0.34034986292E+02  0.10566000000E+00 0. -1.
         23    2    1    0    0    0 -0.24419887657E+02 -0.11636819891E+02 -0.10413766189E+02  0.96013916846E+02  0.91534033079E+02 0.  0.
         13    1    3    3    0    0 -0.51225044312E+02 -0.32479410881E+02 -0.12745955153E+02  0.61978930555E+02  0.10566000000E+00 0.  1.
         22    1    1    0    0    0  0.24419887657E+02  0.11636819891E+02  0.10413766189E+02  0.28986083154E+02  0.00000000000E+00 0.  1.
</event>
<event>
 5    1  0.8943334E-005  0.9118800E+02  0.7818608E-02  0.1130116E+00
         25   -1    0    0    0    0  0.00000000000E+00  0.00000000000E+00  0.99999998245E-14  0.12500000000E+03  0.12500000000E+03 0.  0.
        -13    1    3    3    0    0  0.55620083276E+02  0.44493632765E+01 -0.16291184622E+02  0.58127483668E+02  0.10566000000E+00 0.  1.
         23    2    1    0    0    0  0.23018222198E+02  0.16877535978E+02 -0.43026364649E+00  0.96453986256E+02  0.92133037310E+02 0.  0.
         13    1    3    3    0    0 -0.32601861077E+02  0.12428172702E+02  0.15860920975E+02  0.38326502588E+02  0.10566000000E+00 0. -1.
         22    1    1    0    0    0 -0.23018222198E+02 -0.16877535978E+02  0.43026364649E+00  0.28546013744E+02  0.00000000000E+00 0.  1.
</event>
<event>
 5    1  0.8943334E-005  0.9118800E+02  0.7818608E-02  0.1130116E+00
         25   -1    0    0    0    0  0.00000000000E+00  0.00000000000E+00  0.99999998245E-14  0.12500000000E+03  0.12500000000E+03 0.  0.
        -13    1    3    3    0    0  0.37256548492E+02  0.76435878900E+01 -0.27024049486E+02  0.46656031293E+02  0.10566000000E+00 0.  1.
         23    2    1    0    0    0  0.27326623107E+02  0.28971064947E+01  0.17434127221E+02  0.92456393125E+02  0.86539576387E+02 0.  0.
         13    1    3    3    0    0 -0.99299253850E+01 -0.47464813952E+01  0.44458176707E+02  0.45800361832E+02  0.10566000000E+00 0. -1.
         22    1    1    0    0    0 -0.27326623107E+02 -0.28971064947E+01 -0.17434127221E+02  0.32543606875E+02  0.00000000000E+00 0. -1.
</event>
<event>
 5    1  0.8943334E-005  0.9118800E+02  0.7818608E-02  0.1130116E+00
         25   -1    0    0    0    0  0.00000000000E+00  0.00000000000E+00  0.99999998245E-14  0.12500000000E+03  0.12500000000E+03 0.  0.
        -13    1    3    3    0    0 -0.31888595045E+02 -0.51847060921E+02  0.21582864870E+01  0.60907056937E+02  0.10566000000E+00 0.  1.
         23    2    1    0    0    0 -0.14860103211E+02 -0.24224010545E+02 -0.89490091563E+01  0.95205535427E+02  0.90423359021E+02 0.  0.
         13    1    3    3    0    0  0.17028491834E+02  0.27623050375E+02 -0.11107295643E+02  0.34298478490E+02  0.10566000000E+00 0. -1.
         22    1    1    0    0    0  0.14860103211E+02  0.24224010545E+02  0.89490091563E+01  0.29794464573E+02  0.00000000000E+00 0.  1.
</event>
<event>
 5    1  0.8943334E-005  0.9118800E+02  0.7818608E-02  0.1130116E+00
         25   -1    0    0    0    0  0.00000000000E+00  0.00000000000E+00  0.99999998245E-14  0.12500000000E+03  0.12500000000E+03 0.  0.
        -13    1    3    3    0    0 -0.11980445407E+02  0.33434212689E+01 -0.38418374101E+02  0.40381829708E+02  0.10566000000E+00 0. -1.
         23    2    1    0    0    0 -0.23259012977E+02 -0.12139399391E+02  0.13336985798E+02  0.95568352196E+02  0.90923528578E+02 0.  0.
         13    1    3    3    0    0 -0.11278567570E+02 -0.15482820660E+02  0.51755359899E+02  0.55186522488E+02  0.10566000000E+00 0.  1.
         22    1    1    0    0    0  0.23259012977E+02  0.12139399391E+02 -0.13336985798E+02  0.29431647804E+02  0.00000000000E+00 0.  1.
</event>
<event>
 5    1  0.8943334E-005  0.9118800E+02  0.7818608E-02  0.1130116E+00
         25   -1    0    0    0    0  0.00000000000E+00  0.00000000000E+00  0.99999998245E-14  0.12500000000E+03  0.12500000000E+03 0.  0.
        -13    1    3    3    0    0 -0.15955383477E+02 -0.13363907252E+02 -0.35352032469E+02  0.41023720488E+02  0.10566000000E+00 0.  1.
         23    2    1    0    0    0  0.27627624849E+02 -0.18910306687E+01 -0.17257150672E+01  0.97254013907E+02  0.93212142324E+02 0.  0.
         13    1    3    3    0    0  0.43583008326E+02  0.11472876584E+02  0.33626317402E+02  0.56230293418E+02  0.10566000000E+00 0. -1.
         22    1    1    0    0    0 -0.27627624849E+02  0.18910306687E+01  0.17257150672E+01  0.27745986093E+02  0.00000000000E+00 0. -1.
</event>
<event>
 5    1  0.8943334E-005  0.9118800E+02  0.7818608E-02  0.1130116E+00
         25   -1    0    0    0    0  0.00000000000E+00  0.00000000000E+00  0.99999998245E-14  0.12500000000E+03  0.12500000000E+03 0.  0.
        -13    1    3    3    0    0 -0.44408240325E+01  0.33530950561E+02  0.28897981236E+01  0.33947130378E+02  0.10566000000E+00 0.  1.
         23    2    1    0    0    0  0.52820448125E+01 -0.24598516852E+02 -0.15209538574E+02  0.95600729731E+02  0.90968029729E+02 0.  0.
         13    1    3    3    0    0  0.97228688450E+01 -0.58129467413E+02 -0.18099336698E+02  0.61653599354E+02  0.10566000000E+00 0. -1.
         22    1    1    0    0    0 -0.52820448125E+01  0.24598516852E+02  0.15209538574E+02  0.29399270269E+02  0.00000000000E+00 0. -1.
</event>
<event>
 5    1  0.8943334E-005  0.9118800E+02  0.7818608E-02  0.1130116E+00
         25   -1    0    0    0    0  0.00000000000E+00  0.00000000000E+00  0.99999998245E-14  0.12500000000E+03  0.12500000000E+03 0.  0.
        -13    1    3    3    0    0  0.43247116450E+01  0.16122876769E+02  0.47549331341E+02  0.50394447721E+02  0.10566000000E+00 0. -1.
         23    2    1    0    0    0 -0.56844974475E+01  0.28971310336E+02  0.62050056934E+01  0.94831267353E+02  0.89904487309E+02 0.  0.
         13    1    3    3    0    0 -0.10009209093E+02  0.12848433567E+02 -0.41344325647E+02  0.44436819632E+02  0.10566000000E+00 0.  1.
         22    1    1    0    0    0  0.56844974475E+01 -0.28971310336E+02 -0.62050056934E+01  0.30168732647E+02  0.00000000000E+00 0. -1.
</event>
<event>
 5    1  0.8943334E-005  0.9118800E+02  0.7818608E-02  0.1130116E+00
         25   -1    0    0    0    0  0.00000000000E+00  0.00000000000E+00  0.99999998245E-14  0.12500000000E+03  0.12500000000E+03 0.  0.
        -13    1    3    3    0    0  0.26219549790E+02 -0.44466261717E+02  0.23776486727E+02  0.56833491072E+02  0.10566000000E+00 0. -1.
         23    2    1    0    0    0  0.14900993942E+01 -0.13578118745E+02  0.25100158841E+02  0.96423721748E+02  0.92091967278E+02 0.  0.
         13    1    3    3    0    0 -0.24729450396E+02  0.30888142972E+02  0.13236721145E+01  0.39590230677E+02  0.10566000000E+00 0.  1.
         22    1    1    0    0    0 -0.14900993942E+01  0.13578118745E+02 -0.25100158841E+02  0.28576278252E+02  0.00000000000E+00 0. -1.
</event>
<event>
 5    1  0.8943334E-005  0.9118800E+02  0.7818608E-02  0.1130116E+00
         25   -1    0    0    0    0  0.00000000000E+00  0.00000000000E+00  0.99999998245E-14  0.12500000000E+03  0.12500000000E+03 0.  0.
        -13    1    3    3    0    0  0.17410355653E+02 -0.31067596376E+02  0.52832021763E+01  0.36003325094E+02  0.10566000000E+00 0.  1.
         23    2    1    0    0    0 -0.28756486382E+02  0.52864584373E+01 -0.39825671255E+01  0.95491645374E+02  0.90818012219E+02 0.  0.
         13    1    3    3    0    0 -0.46166842035E+02  0.36354054813E+02 -0.92657693018E+01  0.59488320279E+02  0.10566000000E+00 0. -1.
         22    1    1    0    0    0  0.28756486382E+02 -0.52864584373E+01  0.39825671255E+01  0.29508354626E+02  0.00000000000E+00 0. -1.
</event>
<event>
 5    1  0.8943334E-005  0.9118800E+02  0.7818608E-02  0.1130116E+00
         25   -1    0    0    0    0  0.00000000000E+00  0.00000000000E+00  0.99999998245E-14  0.12500000000E+03  0.12500000000E+03 0.  0.
        -13    1    3    3    0    0 -0.29445739472E+02  0.36451830763E+01  0.18690553724E+02  0.35066891725E+02  0.10566000000E+00 0.  1.
         23    2    1    0    0    0  0.16103464058E+02  0.16810377498E+02 -0.18450611994E+02  0.95295868482E+02  0.90548148079E+02 0.  0.
         13    1    3    3    0    0  0.45549203530E+02  0.13165194421E+02 -0.37141165717E+02  0.60228976757E+02  0.10566000000E+00 0. -1.
         22    1    1    0    0    0 -0.16103464058E+02 -0.16810377498E+02  0.18450611994E+02  0.29704131518E+02  0.00000000000E+00 0. -1.
</event>
<event>
 5    1  0.8943334E-005  0.9118800E+02  0.7818608E-02  0.1130116E+00
         25   -1    0    0    0    0  0.00000000000E+00  0.00000000000E+00  0.99999998245E-14  0.12500000000E+03  0.12500000000E+03 0.  0.
        -13    1    3    3    0    0  0.41782703692E+02  0.40899357653E+02 -0.21988223844E+02  0.62466350430E+02  0.10566000000E+00 0. -1.
         23    2    1    0    0    0  0.19263000174E+02  0.19865766003E+02 -0.90643166887E+01  0.95881729591E+02  0.91353338186E+02 0.  0.
         13    1    3    3    0    0 -0.22519703518E+02 -0.21033591650E+02  0.12923907155E+02  0.33415379160E+02  0.10566000000E+00 0.  1.
         22    1    1    0    0    0 -0.19263000174E+02 -0.19865766003E+02  0.90643166887E+01  0.29118270409E+02  0.00000000000E+00 0. -1.
</event>
<event>
 5    1  0.8943334E-005  0.9118800E+02  0.7818608E-02  0.1130116E+00
         25   -1    0    0    0    0  0.00000000000E+00  0.00000000000E+00  0.99999998245E-14  0.12500000000E+03  0.12500000000E+03 0.  0.
        -13    1    3    3    0    0 -0.42356333059E+02  0.32544477583E+01 -0.23331077792E+02  0.48466490851E+02  0.10566000000E+00 0. -1.
         23    2    1    0    0    0 -0.10177369010E+02  0.27654380180E+02  0.81983167691E+00  0.95520927642E+02  0.90858306777E+02 0.  0.
         13    1    3    3    0    0  0.32178964049E+02  0.24399932422E+02  0.24150909469E+02  0.47054436791E+02  0.10566000000E+00 0.  1.
         22    1    1    0    0    0  0.10177369010E+02 -0.27654380180E+02 -0.81983167691E+00  0.29479072358E+02  0.00000000000E+00 0. -1.
</event>
<event>
 5    1  0.8943334E-005  0.9118800E+02  0.7818608E-02  0.1130116E+00
         25   -1    0    0    0    0  0.00000000000E+00  0.00000000000E+00  0.99999998245E-14  0.12500000000E+03  0.12500000000E+03 0.  0.
        -13    1    3    3    0    0 -0.13238905139E+02 -0.95271157291E+01 -0.59160687398E+02  0.61368009915E+02  0.10566000000E+00 0. -1.
         23    2    1    0    0    0 -0.92050917921E+01 -0.11766928666E+02 -0.24722381867E+02  0.96114181848E+02  0.91670853940E+02 0.  0.
         13    1    3    3    0    0  0.40338133470E+01 -0.22398129369E+01  0.34438305531E+02  0.34746171933E+02  0.10566000000E+00 0.  1.
         22    1    1    0    0    0  0.92050917921E+01  0.11766928666E+02  0.24722381867E+02  0.28885818152E+02  0.00000000000E+00 0. -1.
</event>
<event>
 5    1  0.8943334E-005  0.9118800E+02  0.7818608E-02  0.1130116E+00
         25   -1    0    0    0    0  0.00000000000E+00  0.00000000000E+00  0.99999998245E-14  0.12500000000E+03  0.12500000000E+03 0.  0.
        -13    1    3    3    0    0 -0.10661309088E+02 -0.47045306365E+02 -0.37440088315E+02  0.61063047250E+02  0.10566000000E+00 0.  1.
         23    2    1    0    0    0  0.11750337111E+01 -0.18707824017E+02 -0.23900850798E+02  0.94625437410E+02  0.89617851752E+02 0.  0.
         13    1    3    3    0    0  0.11836342799E+02  0.28337482348E+02  0.13539237517E+02  0.33562390160E+02  0.10566000000E+00 0. -1.
         22    1    1    0    0    0 -0.11750337111E+01  0.18707824017E+02  0.23900850798E+02  0.30374562590E+02  0.00000000000E+00 0.  1.
</event>
<event>
 5    1  0.8943334E-005  0.9118800E+02  0.7818608E-02  0.1130116E+00
         25   -1    0    0    0    0  0.00000000000E+00  0.00000000000E+00  0.99999998245E-14  0.12500000000E+03  0.12500000000E+03 0.  0.
        -13    1    3    3    0    0  0.51088860786E+01 -0.30542396672E+02  0.30759484057E+02  0.43647402385E+02  0.10566000000E+00 0.  1.
         23    2    1    0    0    0 -0.14512638344E+02 -0.19782186759E+02 -0.16153839308E+02  0.95624872612E+02  0.91001198635E+02 0.  0.
         13    1    3    3    0    0 -0.19621524422E+02  0.10760209913E+02 -0.46913323365E+02  0.51977470227E+02  0.10566000000E+00 0. -1.
         22    1    1    0    0    0  0.14512638344E+02  0.19782186759E+02  0.16153839308E+02  0.29375127388E+02  0.00000000000E+00 0.  1.
</event>
<event>
 5    1  0.8943334E-005  0.9118800E+02  0.7818608E-02  0.1130116E+00
         25   -1    0    0    0    0  0.00000000000E+00  0.00000000000E+00  0.99999998245E-14  0.12500000000E+03  0.12500000000E+03 0.  0.
        -13    1    3    3    0    0 -0.27294081774E+02  0.55750353651E+02 -0.27951278506E+01  0.62136082399E+02  0.10566000000E+00 0. -1.
         23    2    1    0    0    0 -0.92036179158E+01  0.26566971527E+02 -0.45571977118E+01  0.96517047031E+02  0.92218554303E+02 0.  0.
         13    1    3    3    0    0  0.18090463859E+02 -0.29183382124E+02 -0.17620698612E+01  0.34380964633E+02  0.10566000000E+00 0.  1.
         22    1    1    0    0    0  0.92036179158E+01 -0.26566971527E+02  0.45571977118E+01  0.28482952969E+02  0.00000000000E+00 0. -1.
</event>
<event>
 5    1  0.8943334E-005  0.9118800E+02  0.7818608E-02  0.1130116E+00
         25   -1    0    0    0    0  0.00000000000E+00  0.00000000000E+00  0.99999998245E-14  0.12500000000E+03  0.12500000000E+03 0.  0.
        -13    1    3    3    0    0  0.34952786423E+02  0.36985453988E+02 -0.23338876616E+02  0.55985135627E+02  0.10566000000E+00 0. -1.
         23    2    1    0    0    0  0.13577155048E+01  0.29646214504E+02 -0.51757641410E+01  0.94874762071E+02  0.89964940493E+02 0.  0.
         13    1    3    3    0    0 -0.33595070918E+02 -0.73392394836E+01  0.18163112475E+02  0.38889626445E+02  0.10566000000E+00 0.  1.
         22    1    1    0    0    0 -0.13577155048E+01 -0.29646214504E+02  0.51757641410E+01  0.30125237929E+02  0.00000000000E+00 0. -1.
</event>
<event>
 5    1  0.8943334E-005  0.9118800E+02  0.7818608E-02  0.1130116E+00
         25   -1    0    0    0    0  0.00000000000E+00  0.00000000000E+00  0.99999998245E-14  0.12500000000E+03  0.12500000000E+03 0.  0.
        -13    1    3    3    0    0 -0.13005303947E+02 -0.32762891083E+02  0.11072548489E+02  0.36948037254E+02  0.10566000000E+00 0. -1.
         23    2    1    0    0    0  0.27252360142E+02  0.89927999023E+01  0.87557350807E+01  0.94996258897E+02  0.90133593761E+02 0.  0.
         13    1    3    3    0    0  0.40257664089E+02  0.41755690985E+02 -0.23168134086E+01  0.58048221643E+02  0.10566000000E+00 0.  1.
         22    1    1    0    0    0 -0.27252360142E+02 -0.89927999023E+01 -0.87557350807E+01  0.30003741103E+02  0.00000000000E+00 0.  1.
</event>
<event>
 5    1  0.8943334E-005  0.9118800E+02  0.7818608E-02  0.1130116E+00
         25   -1    0    0    0    0  0.00000000000E+00  0.00000000000E+00  0.99999998245E-14  0.12500000000E+03  0.12500000000E+03 0.  0.
        -13    1    3    3    0    0  0.61630214151E+01  0.55165272654E+00  0.58483976928E+02  0.58810491199E+02  0.10566000000E+00 0. -1.
         23    2    1    0    0    0 -0.12317404054E+02 -0.35330411820E+00  0.26829178217E+02  0.95476313404E+02  0.90796907166E+02 0.  0.
         13    1    3    3    0    0 -0.18480425470E+02 -0.90495684474E+00 -0.31654798712E+02  0.36665822205E+02  0.10566000000E+00 0.  1.
         22    1    1    0    0    0  0.12317404054E+02  0.35330411820E+00 -0.26829178217E+02  0.29523686596E+02  0.00000000000E+00 0. -1.
</event>
<event>
 5    1  0.8943334E-005  0.9118800E+02  0.7818608E-02  0.1130116E+00
         25   -1    0    0    0    0  0.00000000000E+00  0.00000000000E+00  0.99999998245E-14  0.12500000000E+03  0.12500000000E+03 0.  0.
        -13    1    3    3    0    0  0.19149733240E+02  0.27337123257E+01 -0.46854348546E+02  0.50690498202E+02  0.10566000000E+00 0.  1.
         23    2    1    0    0    0 -0.18508466153E+01  0.25919040478E+02 -0.16892963543E+02  0.94006540855E+02  0.88750409654E+02 0.  0.
         13    1    3    3    0    0 -0.21000579855E+02  0.23185328152E+02  0.29961385003E+02  0.43316042653E+02  0.10566000000E+00 0. -1.
         22    1    1    0    0    0  0.18508466153E+01 -0.25919040478E+02  0.16892963543E+02  0.30993459145E+02  0.00000000000E+00 0. -1.
</event>
<event>
 5    1  0.8943334E-005  0.9118800E+02  0.7818608E-02  0.1130116E+00
         25   -1    0    0    0    0  0.00000000000E+00  0.00000000000E+00  0.99999998245E-14  0.12500000000E+03  0.12500000000E+03 0.  0.
        -13    1    3    3    0    0  0.27340218042E+02 -0.66353771804E+01 -0.23810308765E+02  0.36857261434E+02  0.10566000000E+00 0.  1.
         23    2    1    0    0    0 -0.53906170874E+01  0.25785135610E+02  0.12809521762E+02  0.95708092947E+02  0.91115439069E+02 0.  0.
         13    1    3    3    0    0 -0.32730835130E+02  0.32420512791E+02  0.36619830527E+02  0.58850831513E+02  0.10566000000E+00 0. -1.
         22    1    1    0    0    0  0.53906170874E+01 -0.25785135610E+02 -0.12809521762E+02  0.29291907053E+02  0.00000000000E+00 0. -1.
</event>
<event>
 5    1  0.8943334E-005  0.9118800E+02  0.7818608E-02  0.1130116E+00
         25   -1    0    0    0    0  0.00000000000E+00  0.00000000000E+00  0.99999998245E-14  0.12500000000E+03  0.12500000000E+03 0.  0.
        -13    1    3    3    0    0 -0.41555296042E+02  0.96016734864E+01 -0.15317093395E+02  0.45317317628E+02  0.10566000000E+00 0.  1.
         23    2    1    0    0    0  0.74945991200E+01  0.22441254995E+02 -0.16702317845E+02  0.96038881874E+02  0.91568119280E+02 0.  0.
         13    1    3    3    0    0  0.49049895162E+02  0.12839581509E+02 -0.13852244503E+01  0.50721564246E+02  0.10566000000E+00 0. -1.
         22    1    1    0    0    0 -0.74945991200E+01 -0.22441254995E+02  0.16702317845E+02  0.28961118126E+02  0.00000000000E+00 0. -1.
</event>
<event>
 5    1  0.8943334E-005  0.9118800E+02  0.7818608E-02  0.1130116E+00
         25   -1    0    0    0    0  0.00000000000E+00  0.00000000000E+00  0.99999998245E-14  0.12500000000E+03  0.12500000000E+03 0.  0.
        -13    1    3    3    0    0  0.27977296088E+02 -0.77401685763E+01  0.21218268087E+02  0.35956437124E+02  0.10566000000E+00 0.  1.
         23    2    1    0    0    0 -0.15814013240E+02  0.12224428139E+01 -0.21831289790E+02  0.98015141373E+02  0.94227306782E+02 0.  0.
         13    1    3    3    0    0 -0.43791309328E+02  0.89626113902E+01 -0.43049557877E+02  0.62058704249E+02  0.10566000000E+00 0. -1.
         22    1    1    0    0    0  0.15814013240E+02 -0.12224428139E+01  0.21831289790E+02  0.26984858627E+02  0.00000000000E+00 0. -1.
</event>
<event>
 5    1  0.8943334E-005  0.9118800E+02  0.7818608E-02  0.1130116E+00
         25   -1    0    0    0    0  0.00000000000E+00  0.00000000000E+00  0.99999998245E-14  0.12500000000E+03  0.12500000000E+03 0.  0.
        -13    1    3    3    0    0 -0.25453167006E+02  0.27583795355E+02 -0.13268001036E+02  0.39809301581E+02  0.10566000000E+00 0.  1.
         23    2    1    0    0    0 -0.92050162952E+01 -0.26254090221E+02 -0.62881797322E+01  0.96477188380E+02  0.92164511039E+02 0.  0.
         13    1    3    3    0    0  0.16248150711E+02 -0.53837885576E+02  0.69798213041E+01  0.56667886800E+02  0.10566000000E+00 0. -1.
         22    1    1    0    0    0  0.92050162952E+01  0.26254090221E+02  0.62881797322E+01  0.28522811620E+02  0.00000000000E+00 0. -1.
</event>
<event>
 5    1  0.8943334E-005  0.9118800E+02  0.7818608E-02  0.1130116E+00
         25   -1    0    0    0    0  0.00000000000E+00  0.00000000000E+00  0.99999998245E-14  0.12500000000E+03  0.12500000000E+03 0.  0.
        -13    1    3    3    0    0  0.48768183873E+02 -0.27334678523E+02 -0.12740339024E+02  0.57339757679E+02  0.10566000000E+00 0. -1.
         23    2    1    0    0    0  0.22279741589E+02 -0.13070852232E+02  0.12213863661E+02  0.96427066498E+02  0.92096507125E+02 0.  0.
         13    1    3    3    0    0 -0.26488442284E+02  0.14263826291E+02  0.24954202685E+02  0.39087308820E+02  0.10566000000E+00 0.  1.
         22    1    1    0    0    0 -0.22279741589E+02  0.13070852232E+02 -0.12213863661E+02  0.28572933502E+02  0.00000000000E+00 0.  1.
</event>
<event>
 5    1  0.8943334E-005  0.9118800E+02  0.7818608E-02  0.1130116E+00
         25   -1    0    0    0    0  0.00000000000E+00  0.00000000000E+00  0.99999998245E-14  0.12500000000E+03  0.12500000000E+03 0.  0.
        -13    1    3    3    0    0 -0.17778431048E+02 -0.10988438243E+02  0.30375884412E+02  0.36871722273E+02  0.10566000000E+00 0.  1.
         23    2    1    0    0    0  0.93884894103E+01 -0.18264550305E+02 -0.21116497606E+02  0.95544202567E+02  0.90890322047E+02 0.  0.
         13    1    3    3    0    0  0.27166920458E+02 -0.72761120628E+01 -0.51492382018E+02  0.58672480294E+02  0.10566000000E+00 0. -1.
         22    1    1    0    0    0 -0.93884894103E+01  0.18264550305E+02  0.21116497606E+02  0.29455797433E+02  0.00000000000E+00 0. -1.
</event>
<event>
 5    1  0.8943334E-005  0.9118800E+02  0.7818608E-02  0.1130116E+00
         25   -1    0    0    0    0  0.00000000000E+00  0.00000000000E+00  0.99999998245E-14  0.12500000000E+03  0.12500000000E+03 0.  0.
        -13    1    3    3    0    0 -0.19627987737E+02  0.40655161030E+02 -0.25420108002E+02  0.51810163827E+02  0.10566000000E+00 0. -1.
         23    2    1    0    0    0  0.16777267618E+02  0.17899803644E+02 -0.15838189442E+02  0.95798494490E+02  0.91239375395E+02 0.  0.
         13    1    3    3    0    0  0.36405255355E+02 -0.22755357386E+02  0.95819185596E+01  0.43988330663E+02  0.10566000000E+00 0.  1.
         22    1    1    0    0    0 -0.16777267618E+02 -0.17899803644E+02  0.15838189442E+02  0.29201505510E+02  0.00000000000E+00 0. -1.
</event>
<event>
 5    1  0.8943334E-005  0.9118800E+02  0.7818608E-02  0.1130116E+00
         25   -1    0    0    0    0  0.00000000000E+00  0.00000000000E+00  0.99999998245E-14  0.12500000000E+03  0.12500000000E+03 0.  0.
        -13    1    3    3    0    0  0.17767540132E+02  0.29339331485E+02  0.80394373145E+01  0.35229612129E+02  0.10566000000E+00 0.  1.
         23    2    1    0    0    0  0.60781860665E+01 -0.27188710988E+02 -0.95088200153E+01  0.95562133075E+02  0.90914978241E+02 0.  0.
         13    1    3    3    0    0 -0.11689354066E+02 -0.56528042473E+02 -0.17548257330E+02  0.60332520946E+02  0.10566000000E+00 0. -1.
         22    1    1    0    0    0 -0.60781860665E+01  0.27188710988E+02  0.95088200153E+01  0.29437866925E+02  0.00000000000E+00 0. -1.
</event>
<event>
 5    1  0.8943334E-005  0.9118800E+02  0.7818608E-02  0.1130116E+00
         25   -1    0    0    0    0  0.00000000000E+00  0.00000000000E+00  0.99999998245E-14  0.12500000000E+03  0.12500000000E+03 0.  0.
        -13    1    3    3    0    0 -0.57208389182E+01 -0.59040254261E+02  0.17474923834E+02  0.61837397650E+02  0.10566000000E+00 0. -1.
         23    2    1    0    0    0  0.16477370122E+01 -0.26239623348E+02  0.12730236752E+02  0.95788841200E+02  0.91226149211E+02 0.  0.
         13    1    3    3    0    0  0.73685759304E+01  0.32800630913E+02 -0.47446870822E+01  0.33951443549E+02  0.10566000000E+00 0.  1.
         22    1    1    0    0    0 -0.16477370122E+01  0.26239623348E+02 -0.12730236752E+02  0.29211158800E+02  0.00000000000E+00 0. -1.
</event>
<event>
 5    1  0.8943334E-005  0.9118800E+02  0.7818608E-02  0.1130116E+00
         25   -1    0    0    0    0  0.00000000000E+00  0.00000000000E+00  0.99999998245E-14  0.12500000000E+03  0.12500000000E+03 0.  0.
        -13    1    3    3    0    0 -0.70455308195E+01  0.29602194409E+02  0.12815403784E+02  0.33017800601E+02  0.10566000000E+00 0.  1.
         23    2    1    0    0    0  0.12256173383E+02 -0.22101270934E+02 -0.15811245415E+02  0.95189340087E+02  0.90400968035E+02 0.  0.
         13    1    3    3    0    0  0.19301704203E+02 -0.51703465343E+02 -0.28626649199E+02  0.62171539485E+02  0.10566000000E+00 0. -1.
         22    1    1    0    0    0 -0.12256173383E+02  0.22101270934E+02  0.15811245415E+02  0.29810659913E+02  0.00000000000E+00 0. -1.
</event>
<event>
 5    1  0.8943334E-005  0.9118800E+02  0.7818608E-02  0.1130116E+00
         25   -1    0    0    0    0  0.00000000000E+00  0.00000000000E+00  0.99999998245E-14  0.12500000000E+03  0.12500000000E+03 0.  0.
        -13    1    3    3    0    0  0.12466646443E+02  0.19735949251E+02  0.32331684873E+02  0.39878239394E+02  0.10566000000E+00 0. -1.
         23    2    1    0    0    0  0.13835536252E+02 -0.21893939717E+02 -0.80363766074E+01  0.97882662212E+02  0.94051398464E+02 0.  0.
         13    1    3    3    0    0  0.13688898090E+01 -0.41629888968E+02 -0.40368061480E+02  0.58004422819E+02  0.10566000000E+00 0.  1.
         22    1    1    0    0    0 -0.13835536252E+02  0.21893939717E+02  0.80363766074E+01  0.27117337788E+02  0.00000000000E+00 0.  1.
</event>
<event>
 5    1  0.8943334E-005  0.9118800E+02  0.7818608E-02  0.1130116E+00
         25   -1    0    0    0    0  0.00000000000E+00  0.00000000000E+00  0.99999998245E-14  0.12500000000E+03  0.12500000000E+03 0.  0.
        -13    1    3    3    0    0  0.19478305096E+02  0.11844138216E+02  0.43760472177E+02  0.49342457060E+02  0.10566000000E+00 0. -1.
         23    2    1    0    0    0 -0.93923368916E+01 -0.16679091182E+02  0.23462033548E+02  0.94720054604E+02  0.89749727861E+02 0.  0.
         13    1    3    3    0    0 -0.28870641988E+02 -0.28523229398E+02 -0.20298438629E+02  0.45377597544E+02  0.10566000000E+00 0.  1.
         22    1    1    0    0    0  0.93923368916E+01  0.16679091182E+02 -0.23462033548E+02  0.30279945396E+02  0.00000000000E+00 0. -1.
</event>
<event>
 5    1  0.8943334E-005  0.9118800E+02  0.7818608E-02  0.1130116E+00
         25   -1    0    0    0    0  0.00000000000E+00  0.00000000000E+00  0.99999998245E-14  0.12500000000E+03  0.12500000000E+03 0.  0.
        -13    1    3    3    0    0 -0.93954531465E+01 -0.25174746942E+02  0.52089715428E+02  0.58612217505E+02  0.10566000000E+00 0. -1.
         23    2    1    0    0    0 -0.59440868759E+01  0.25645811325E+01  0.30192927569E+02  0.94120846508E+02  0.88911257032E+02 0.  0.
         13    1    3    3    0    0  0.34513662707E+01  0.27739328074E+02 -0.21896787859E+02  0.35508629004E+02  0.10566000000E+00 0.  1.
         22    1    1    0    0    0  0.59440868759E+01 -0.25645811325E+01 -0.30192927569E+02  0.30879153492E+02  0.00000000000E+00 0. -1.
</event>
<event>
 5    1  0.8943334E-005  0.9118800E+02  0.7818608E-02  0.1130116E+00
         25   -1    0    0    0    0  0.00000000000E+00  0.00000000000E+00  0.99999998245E-14  0.12500000000E+03  0.12500000000E+03 0.  0.
        -13    1    3    3    0    0 -0.80855252062E+01  0.97320839345E+01 -0.41576294609E+02  0.43459045238E+02  0.10566000000E+00 0. -1.
         23    2    1    0    0    0  0.15468393137E+02  0.25100963772E+02  0.21368544047E+01  0.95438272796E+02  0.90744521593E+02 0.  0.
         13    1    3    3    0    0  0.23553918343E+02  0.15368879837E+02  0.43713149014E+02  0.51979227558E+02  0.10566000000E+00 0.  1.
         22    1    1    0    0    0 -0.15468393137E+02 -0.25100963772E+02 -0.21368544047E+01  0.29561727204E+02  0.00000000000E+00 0.  1.
</event>
<event>
 5    1  0.8943334E-005  0.9118800E+02  0.7818608E-02  0.1130116E+00
         25   -1    0    0    0    0  0.00000000000E+00  0.00000000000E+00  0.99999998245E-14  0.12500000000E+03  0.12500000000E+03 0.  0.
        -13    1    3    3    0    0 -0.76454481498E+01  0.45443807401E+02 -0.31853807485E+02  0.56020252801E+02  0.10566000000E+00 0.  1.
         23    2    1    0    0    0 -0.12923458684E+02  0.81689842717E+01 -0.26990784719E+02  0.93979836426E+02  0.88712789983E+02 0.  0.
         13    1    3    3    0    0 -0.52780105344E+01 -0.37274823130E+02  0.48630227659E+01  0.37959583625E+02  0.10566000000E+00 0. -1.
         22    1    1    0    0    0  0.12923458684E+02 -0.81689842717E+01  0.26990784719E+02  0.31020163574E+02  0.00000000000E+00 0.  1.
</event>
<event>
 5    1  0.8943334E-005  0.9118800E+02  0.7818608E-02  0.1130116E+00
         25   -1    0    0    0    0  0.00000000000E+00  0.00000000000E+00  0.99999998245E-14  0.12500000000E+03  0.12500000000E+03 0.  0.
        -13    1    3    3    0    0 -0.22200764975E+02  0.26983327785E+02  0.12506469823E+02  0.37113298092E+02  0.10566000000E+00 0. -1.
         23    2    1    0    0    0  0.15752974835E+02  0.94167123674E+01 -0.25471112938E+02  0.93605601101E+02  0.88183900317E+02 0.  0.
         13    1    3    3    0    0  0.37953739810E+02 -0.17566615418E+02 -0.37977582760E+02  0.56492303008E+02  0.10566000000E+00 0.  1.
         22    1    1    0    0    0 -0.15752974835E+02 -0.94167123674E+01  0.25471112938E+02  0.31394398899E+02  0.00000000000E+00 0.  1.
</event>
<event>
 5    1  0.8943334E-005  0.9118800E+02  0.7818608E-02  0.1130116E+00
         25   -1    0    0    0    0  0.00000000000E+00  0.00000000000E+00  0.99999998245E-14  0.12500000000E+03  0.12500000000E+03 0.  0.
        -13    1    3    3    0    0  0.95791204911E+01  0.33048578562E+02 -0.12367674470E+01  0.34431219149E+02  0.10566000000E+00 0. -1.
         23    2    1    0    0    0  0.74567705023E+00 -0.26530735829E+02 -0.12428612196E+02  0.95692895418E+02  0.91094587405E+02 0.  0.
         13    1    3    3    0    0 -0.88334434409E+01 -0.59579314391E+02 -0.11191844749E+02  0.61261676268E+02  0.10566000000E+00 0.  1.
         22    1    1    0    0    0 -0.74567705023E+00  0.26530735829E+02  0.12428612196E+02  0.29307104582E+02  0.00000000000E+00 0.  1.
</event>
<event>
 5    1  0.8943334E-005  0.9118800E+02  0.7818608E-02  0.1130116E+00
         25   -1    0    0    0    0  0.00000000000E+00  0.00000000000E+00  0.99999998245E-14  0.12500000000E+03  0.12500000000E+03 0.  0.
        -13    1    3    3    0    0 -0.58743865979E+02 -0.18626339396E+02 -0.49985057365E+01  0.61828622280E+02  0.10566000000E+00 0.  1.
         23    2    1    0    0    0 -0.25021628526E+02 -0.14452981750E+02 -0.54395803031E+00  0.96099023098E+02  0.91650181530E+02 0.  0.
         13    1    3    3    0    0  0.33722237453E+02  0.41733576453E+01  0.44545477062E+01  0.34270400818E+02  0.10566000000E+00 0. -1.
         22    1    1    0    0    0  0.25021628526E+02  0.14452981750E+02  0.54395803031E+00  0.28900976902E+02  0.00000000000E+00 0.  1.
</event>
<event>
 5    1  0.8943334E-005  0.9118800E+02  0.7818608E-02  0.1130116E+00
         25   -1    0    0    0    0  0.00000000000E+00  0.00000000000E+00  0.99999998245E-14  0.12500000000E+03  0.12500000000E+03 0.  0.
        -13    1    3    3    0    0  0.79735782990E+00  0.29540045478E+02  0.46578464114E+02  0.55161712715E+02  0.10566000000E+00 0. -1.
         23    2    1    0    0    0 -0.97405158043E+01  0.26264470407E+02  0.71724581618E+01  0.96083841715E+02  0.91629473581E+02 0.  0.
         13    1    3    3    0    0 -0.10537873634E+02 -0.32755750715E+01 -0.39406005952E+02  0.40922129000E+02  0.10566000000E+00 0.  1.
         22    1    1    0    0    0  0.97405158043E+01 -0.26264470407E+02 -0.71724581618E+01  0.28916158285E+02  0.00000000000E+00 0. -1.
</event>
<event>
 5    1  0.8943334E-005  0.9118800E+02  0.7818608E-02  0.1130116E+00
         25   -1    0    0    0    0  0.00000000000E+00  0.00000000000E+00  0.99999998245E-14  0.12500000000E+03  0.12500000000E+03 0.  0.
        -13    1    3    3    0    0  0.21815012528E+02 -0.39944447576E+01  0.46218636311E+02  0.51264255257E+02  0.10566000000E+00 0.  1.
         23    2    1    0    0    0  0.18480285167E+02 -0.21536273955E+02  0.49999007880E+01  0.96184534645E+02  0.91766735048E+02 0.  0.
         13    1    3    3    0    0 -0.33347273610E+01 -0.17541829198E+02 -0.41218735523E+02  0.44920279388E+02  0.10566000000E+00 0. -1.
         22    1    1    0    0    0 -0.18480285167E+02  0.21536273955E+02 -0.49999007880E+01  0.28815465355E+02  0.00000000000E+00 0.  1.
</event>
<event>
 5    1  0.8943334E-005  0.9118800E+02  0.7818608E-02  0.1130116E+00
         25   -1    0    0    0    0  0.00000000000E+00  0.00000000000E+00  0.99999998245E-14  0.12500000000E+03  0.12500000000E+03 0.  0.
        -13    1    3    3    0    0 -0.29767360412E+01  0.51672143783E+02  0.86897231676E+01  0.52482319436E+02  0.10566000000E+00 0.  1.
         23    2    1    0    0    0  0.17805218598E+02  0.14065415277E+02  0.17502005899E+02  0.96343727969E+02  0.91983324534E+02 0.  0.
         13    1    3    3    0    0  0.20781954639E+02 -0.37606728506E+02  0.88122827313E+01  0.43861408533E+02  0.10566000000E+00 0. -1.
         22    1    1    0    0    0 -0.17805218598E+02 -0.14065415277E+02 -0.17502005899E+02  0.28656272031E+02  0.00000000000E+00 0. -1.
</event>
<event>
 5    1  0.8943334E-005  0.9118800E+02  0.7818608E-02  0.1130116E+00
         25   -1    0    0    0    0  0.00000000000E+00  0.00000000000E+00  0.99999998245E-14  0.12500000000E+03  0.12500000000E+03 0.  0.
        -13    1    3    3    0    0  0.28159716458E+02 -0.24394063352E+02  0.80118972429E+01  0.38108288065E+02  0.10566000000E+00 0. -1.
         23    2    1    0    0    0 -0.21981103779E+02 -0.87867943636E+01  0.22244099269E+02  0.92516517570E+02  0.86626378156E+02 0.  0.
         13    1    3    3    0    0 -0.50140820237E+02  0.15607268988E+02  0.14232202026E+02  0.54408229505E+02  0.10566000000E+00 0.  1.
         22    1    1    0    0    0  0.21981103779E+02  0.87867943636E+01 -0.22244099269E+02  0.32483482430E+02  0.00000000000E+00 0.  1.
</event>
<event>
 5    1  0.8943334E-005  0.9118800E+02  0.7818608E-02  0.1130116E+00
         25   -1    0    0    0    0  0.00000000000E+00  0.00000000000E+00  0.99999998245E-14  0.12500000000E+03  0.12500000000E+03 0.  0.
        -13    1    3    3    0    0  0.14746365569E+02  0.33177763220E+02 -0.34137766131E+02  0.49835905834E+02  0.10566000000E+00 0.  1.
         23    2    1    0    0    0  0.28222210652E+02  0.69636062966E+00 -0.33570504683E+01  0.96570299333E+02  0.92290708271E+02 0.  0.
         13    1    3    3    0    0  0.13475845083E+02 -0.32481402591E+02  0.30780715663E+02  0.46734393499E+02  0.10566000000E+00 0. -1.
         22    1    1    0    0    0 -0.28222210652E+02 -0.69636062966E+00  0.33570504683E+01  0.28429700667E+02  0.00000000000E+00 0. -1.
</event>
<event>
 5    1  0.8943334E-005  0.9118800E+02  0.7818608E-02  0.1130116E+00
         25   -1    0    0    0    0  0.00000000000E+00  0.00000000000E+00  0.99999998245E-14  0.12500000000E+03  0.12500000000E+03 0.  0.
        -13    1    3    3    0    0  0.49172080468E+02  0.53909573554E+01 -0.25455555212E+02  0.55632296141E+02  0.10566000000E+00 0.  1.
         23    2    1    0    0    0  0.20369088843E+02  0.22288583920E+02 -0.62137010595E+01  0.94173212391E+02  0.88984847574E+02 0.  0.
         13    1    3    3    0    0 -0.28802991626E+02  0.16897626564E+02  0.19241854152E+02  0.38540916249E+02  0.10566000000E+00 0. -1.
         22    1    1    0    0    0 -0.20369088843E+02 -0.22288583920E+02  0.62137010595E+01  0.30826787609E+02  0.00000000000E+00 0.  1.
</event>
<event>
 5    1  0.8943334E-005  0.9118800E+02  0.7818608E-02  0.1130116E+00
         25   -1    0    0    0    0  0.00000000000E+00  0.00000000000E+00  0.99999998245E-14  0.12500000000E+03  0.12500000000E+03 0.  0.
        -13    1    3    3    0    0 -0.13936152910E+01 -0.30348423385E+02 -0.38369485092E+02  0.48940755161E+02  0.10566000000E+00 0. -1.
         23    2    1    0    0    0  0.26508190953E+02 -0.42161147821E+01 -0.10829293395E+02  0.96056375367E+02  0.91591996603E+02 0.  0.
         13    1    3    3    0    0  0.27901806244E+02  0.26132308603E+02  0.27540191697E+02  0.47115620205E+02  0.10566000000E+00 0.  1.
         22    1    1    0    0    0 -0.26508190953E+02  0.42161147821E+01  0.10829293395E+02  0.28943624633E+02  0.00000000000E+00 0.  1.
</event>
<event>
 5    1  0.8943334E-005  0.9118800E+02  0.7818608E-02  0.1130116E+00
         25   -1    0    0    0    0  0.00000000000E+00  0.00000000000E+00  0.99999998245E-14  0.12500000000E+03  0.12500000000E+03 0.  0.
        -13    1    3    3    0    0  0.23540155035E+02  0.48069512379E+02  0.25960193243E+02  0.59487475293E+02  0.10566000000E+00 0. -1.
         23    2    1    0    0    0  0.77709739475E+01  0.15357715458E+02  0.23480842446E+02  0.95886473553E+02  0.91359829183E+02 0.  0.
         13    1    3    3    0    0 -0.15769181087E+02 -0.32711796921E+02 -0.24793507969E+01  0.36398998261E+02  0.10566000000E+00 0.  1.
         22    1    1    0    0    0 -0.77709739475E+01 -0.15357715458E+02 -0.23480842446E+02  0.29113526447E+02  0.00000000000E+00 0. -1.
</event>
<event>
 5    1  0.8943334E-005  0.9118800E+02  0.7818608E-02  0.1130116E+00
         25   -1    0    0    0    0  0.00000000000E+00  0.00000000000E+00  0.99999998245E-14  0.12500000000E+03  0.12500000000E+03 0.  0.
        -13    1    3    3    0    0 -0.28244437594E+02 -0.63287186322E+01 -0.55026982977E+02  0.62175404736E+02  0.10566000000E+00 0.  1.
         23    2    1    0    0    0 -0.12457629259E+02  0.71339295209E+00 -0.29108165449E+02  0.93330033911E+02  0.87792416972E+02 0.  0.
         13    1    3    3    0    0  0.15786808335E+02  0.70421115842E+01  0.25918817527E+02  0.31154629175E+02  0.10566000000E+00 0. -1.
         22    1    1    0    0    0  0.12457629259E+02 -0.71339295209E+00  0.29108165449E+02  0.31669966089E+02  0.00000000000E+00 0.  1.
</event>
<event>
 5    1  0.8943334E-005  0.9118800E+02  0.7818608E-02  0.1130116E+00
         25   -1    0    0    0    0  0.00000000000E+00  0.00000000000E+00  0.99999998245E-14  0.12500000000E+03  0.12500000000E+03 0.  0.
        -13    1    3    3    0    0  0.36247841432E+01 -0.20581855451E+02  0.27388536426E+02  0.34451341418E+02  0.10566000000E+00 0.  1.
         23    2    1    0    0    0  0.12251173197E+02  0.17896417194E+02 -0.19581598668E+02  0.95779938407E+02  0.91213949600E+02 0.  0.
         13    1    3    3    0    0  0.86263890541E+01  0.38478272646E+02 -0.46970135094E+02  0.61328596989E+02  0.10566000000E+00 0. -1.
         22    1    1    0    0    0 -0.12251173197E+02 -0.17896417194E+02  0.19581598668E+02  0.29220061593E+02  0.00000000000E+00 0. -1.
</event>
<event>
 5    1  0.8943334E-005  0.9118800E+02  0.7818608E-02  0.1130116E+00
         25   -1    0    0    0    0  0.00000000000E+00  0.00000000000E+00  0.99999998245E-14  0.12500000000E+03  0.12500000000E+03 0.  0.
        -13    1    3    3    0    0 -0.14458214758E+02 -0.32946774161E+02  0.22987239540E+02  0.42696068289E+02  0.10566000000E+00 0. -1.
         23    2    1    0    0    0  0.27047070105E+02 -0.18004712903E+01  0.89592939632E+01  0.96450838078E+02  0.92128765972E+02 0.  0.
         13    1    3    3    0    0  0.41505284862E+02  0.31146302871E+02 -0.14027945576E+02  0.53754769790E+02  0.10566000000E+00 0.  1.
         22    1    1    0    0    0 -0.27047070105E+02  0.18004712903E+01 -0.89592939632E+01  0.28549161922E+02  0.00000000000E+00 0.  1.
</event>
<event>
 5    1  0.8943334E-005  0.9118800E+02  0.7818608E-02  0.1130116E+00
         25   -1    0    0    0    0  0.00000000000E+00  0.00000000000E+00  0.99999998245E-14  0.12500000000E+03  0.12500000000E+03 0.  0.
        -13    1    3    3    0    0 -0.30860322854E+02 -0.11755889314E+02 -0.97330369084E+01  0.34428238871E+02  0.10566000000E+00 0.  1.
         23    2    1    0    0    0  0.15131241429E+02  0.76965803828E+00  0.26616592114E+02  0.94373380591E+02  0.89265587701E+02 0.  0.
         13    1    3    3    0    0  0.45991564283E+02  0.12525547353E+02  0.36349629022E+02  0.59945141720E+02  0.10566000000E+00 0. -1.
         22    1    1    0    0    0 -0.15131241429E+02 -0.76965803828E+00 -0.26616592114E+02  0.30626619409E+02  0.00000000000E+00 0. -1.
</event>
<event>
 5    1  0.8943334E-005  0.9118800E+02  0.7818608E-02  0.1130116E+00
         25   -1    0    0    0    0  0.00000000000E+00  0.00000000000E+00  0.99999998245E-14  0.12500000000E+03  0.12500000000E+03 0.  0.
        -13    1    3    3    0    0  0.24919066407E+02  0.24234365400E+02  0.13926614125E+02  0.37446309324E+02  0.10566000000E+00 0.  1.
         23    2    1    0    0    0 -0.27891043747E+02 -0.10012983025E+01  0.44881715403E+01  0.96732410726E+02  0.92510013953E+02 0.  0.
         13    1    3    3    0    0 -0.52810110154E+02 -0.25235663702E+02 -0.94384425847E+01  0.59286101402E+02  0.10566000000E+00 0. -1.
         22    1    1    0    0    0  0.27891043747E+02  0.10012983025E+01 -0.44881715403E+01  0.28267589274E+02  0.00000000000E+00 0. -1.
</event>
<event>
 5    1  0.8943334E-005  0.9118800E+02  0.7818608E-02  0.1130116E+00
         25   -1    0    0    0    0  0.00000000000E+00  0.00000000000E+00  0.99999998245E-14  0.12500000000E+03  0.12500000000E+03 0.  0.
        -13    1    3    3    0    0  0.28771588823E+02  0.24688803525E+02  0.44002193723E+02  0.58082231013E+02  0.10566000000E+00 0. -1.
         23    2    1    0    0    0 -0.21951740590E+01  0.16690707940E+02  0.23572557319E+02  0.96033398901E+02  0.91560634146E+02 0.  0.
         13    1    3    3    0    0 -0.30966762882E+02 -0.79980955848E+01 -0.20429636404E+02  0.37951167888E+02  0.10566000000E+00 0.  1.
         22    1    1    0    0    0  0.21951740590E+01 -0.16690707940E+02 -0.23572557319E+02  0.28966601099E+02  0.00000000000E+00 0. -1.
</event>
<event>
 5    1  0.8943334E-005  0.9118800E+02  0.7818608E-02  0.1130116E+00
         25   -1    0    0    0    0  0.00000000000E+00  0.00000000000E+00  0.99999998245E-14  0.12500000000E+03  0.12500000000E+03 0.  0.
        -13    1    3    3    0    0  0.22525527937E+01  0.28863272050E+02  0.27245869173E+02  0.39755641343E+02  0.10566000000E+00 0.  1.
         23    2    1    0    0    0 -0.26328740030E+02  0.35377323141E+01 -0.13161723173E+02  0.95352924961E+02  0.90626879237E+02 0.  0.
         13    1    3    3    0    0 -0.28581292824E+02 -0.25325539736E+02 -0.40407592346E+02  0.55597283618E+02  0.10566000000E+00 0. -1.
         22    1    1    0    0    0  0.26328740030E+02 -0.35377323141E+01  0.13161723173E+02  0.29647075039E+02  0.00000000000E+00 0. -1.
</event>
<event>
 5    1  0.8943334E-005  0.9118800E+02  0.7818608E-02  0.1130116E+00
         25   -1    0    0    0    0  0.00000000000E+00  0.00000000000E+00  0.99999998245E-14  0.12500000000E+03  0.12500000000E+03 0.  0.
        -13    1    3    3    0    0 -0.27606491297E+02 -0.42306623814E+02  0.72769013696E+01  0.51038546589E+02  0.10566000000E+00 0. -1.
         23    2    1    0    0    0 -0.24897765799E+02 -0.31217912813E+00 -0.12039966744E+02  0.97342144031E+02  0.93330252371E+02 0.  0.
         13    1    3    3    0    0  0.27087254981E+01  0.41994444686E+02 -0.19316868114E+02  0.46303597442E+02  0.10566000000E+00 0.  1.
         22    1    1    0    0    0  0.24897765799E+02  0.31217912813E+00  0.12039966744E+02  0.27657855969E+02  0.00000000000E+00 0.  1.
</event>
<event>
 5    1  0.8943334E-005  0.9118800E+02  0.7818608E-02  0.1130116E+00
         25   -1    0    0    0    0  0.00000000000E+00  0.00000000000E+00  0.99999998245E-14  0.12500000000E+03  0.12500000000E+03 0.  0.
        -13    1    3    3    0    0 -0.14710545004E+02 -0.44993342203E+02  0.47490727348E+01  0.47574844538E+02  0.10566000000E+00 0.  1.
         23    2    1    0    0    0 -0.19025899555E+02  0.82430655110E+00  0.21251035101E+02  0.96464568901E+02  0.92147394023E+02 0.  0.
         13    1    3    3    0    0 -0.43153545515E+01  0.45817648754E+02  0.16501962366E+02  0.48889724363E+02  0.10566000000E+00 0. -1.
         22    1    1    0    0    0  0.19025899555E+02 -0.82430655110E+00 -0.21251035101E+02  0.28535431099E+02  0.00000000000E+00 0.  1.
</event>
<event>
 5    1  0.8943334E-005  0.9118800E+02  0.7818608E-02  0.1130116E+00
         25   -1    0    0    0    0  0.00000000000E+00  0.00000000000E+00  0.99999998245E-14  0.12500000000E+03  0.12500000000E+03 0.  0.
        -13    1    3    3    0    0  0.33270076472E+01 -0.30667281587E+02 -0.28633500515E+02  0.42088474141E+02  0.10566000000E+00 0. -1.
         23    2    1    0    0    0 -0.18800241921E+02  0.16378721236E+02 -0.15244993382E+02  0.95774644077E+02  0.91206693939E+02 0.  0.
         13    1    3    3    0    0 -0.22127249568E+02  0.47046002823E+02  0.13388507132E+02  0.53686169935E+02  0.10566000000E+00 0.  1.
         22    1    1    0    0    0  0.18800241921E+02 -0.16378721236E+02  0.15244993382E+02  0.29225355923E+02  0.00000000000E+00 0.  1.
</event>
<event>
 5    1  0.8943334E-005  0.9118800E+02  0.7818608E-02  0.1130116E+00
         25   -1    0    0    0    0  0.00000000000E+00  0.00000000000E+00  0.99999998245E-14  0.12500000000E+03  0.12500000000E+03 0.  0.
        -13    1    3    3    0    0  0.20932643441E+02  0.43095260066E+02 -0.25349232501E+02  0.54203060375E+02  0.10566000000E+00 0. -1.
         23    2    1    0    0    0 -0.11835172075E+02  0.26599320585E+02 -0.78622689072E+01  0.94843567420E+02  0.89921587257E+02 0.  0.
         13    1    3    3    0    0 -0.32767815516E+02 -0.16495939481E+02  0.17486963594E+02  0.40640507045E+02  0.10566000000E+00 0.  1.
         22    1    1    0    0    0  0.11835172075E+02 -0.26599320585E+02  0.78622689072E+01  0.30156432580E+02  0.00000000000E+00 0. -1.
</event>
<event>
 5    1  0.8943334E-005  0.9118800E+02  0.7818608E-02  0.1130116E+00
         25   -1    0    0    0    0  0.00000000000E+00  0.00000000000E+00  0.99999998245E-14  0.12500000000E+03  0.12500000000E+03 0.  0.
        -13    1    3    3    0    0 -0.44355124427E+02  0.20762100849E+02  0.40046177757E+01  0.49137460478E+02  0.10566000000E+00 0.  1.
         23    2    1    0    0    0 -0.75552915724E+01  0.18382169832E+02 -0.22820171227E+02  0.94738691150E+02  0.89775680380E+02 0.  0.
         13    1    3    3    0    0  0.36799832855E+02 -0.23799310172E+01 -0.26824789003E+02  0.45601230673E+02  0.10566000000E+00 0. -1.
         22    1    1    0    0    0  0.75552915724E+01 -0.18382169832E+02  0.22820171227E+02  0.30261308850E+02  0.00000000000E+00 0. -1.
</event>
<event>
 5    1  0.8943334E-005  0.9118800E+02  0.7818608E-02  0.1130116E+00
         25   -1    0    0    0    0  0.00000000000E+00  0.00000000000E+00  0.99999998245E-14  0.12500000000E+03  0.12500000000E+03 0.  0.
        -13    1    3    3    0    0  0.18920596139E+02 -0.20069280425E+02 -0.22162378162E+02  0.35382865130E+02  0.10566000000E+00 0. -1.
         23    2    1    0    0    0  0.14161060758E+02 -0.34541208679E+01  0.30708796652E+02  0.91007401033E+02  0.84420674353E+02 0.  0.
         13    1    3    3    0    0 -0.47595353806E+01  0.16615159557E+02  0.52871174814E+02  0.55624535902E+02  0.10566000000E+00 0.  1.
         22    1    1    0    0    0 -0.14161060758E+02  0.34541208679E+01 -0.30708796652E+02  0.33992598967E+02  0.00000000000E+00 0.  1.
</event>
<event>
 5    1  0.8943334E-005  0.9118800E+02  0.7818608E-02  0.1130116E+00
         25   -1    0    0    0    0  0.00000000000E+00  0.00000000000E+00  0.99999998245E-14  0.12500000000E+03  0.12500000000E+03 0.  0.
        -13    1    3    3    0    0  0.31069431090E+02  0.36237374627E+02  0.27970101993E+02  0.55324448824E+02  0.10566000000E+00 0.  1.
         23    2    1    0    0    0  0.46690192501E+01  0.33619771069E+02  0.44727164089E+01  0.90764142488E+02  0.84059714620E+02 0.  0.
         13    1    3    3    0    0 -0.26400411840E+02 -0.26176035579E+01 -0.23497385584E+02  0.35439693664E+02  0.10566000000E+00 0. -1.
         22    1    1    0    0    0 -0.46690192501E+01 -0.33619771069E+02 -0.44727164089E+01  0.34235857512E+02  0.00000000000E+00 0.  1.
</event>
<event>
 5    1  0.8943334E-005  0.9118800E+02  0.7818608E-02  0.1130116E+00
         25   -1    0    0    0    0  0.00000000000E+00  0.00000000000E+00  0.99999998245E-14  0.12500000000E+03  0.12500000000E+03 0.  0.
        -13    1    3    3    0    0  0.26455184442E+01  0.21196766064E+02 -0.44453746604E+02  0.49319858177E+02  0.10566000000E+00 0.  1.
         23    2    1    0    0    0 -0.22626354092E+02 -0.66962705867E+01 -0.17882911543E+02  0.95392729533E+02  0.90681764337E+02 0.  0.
         13    1    3    3    0    0 -0.25271872536E+02 -0.27893036651E+02  0.26570835061E+02  0.46072871356E+02  0.10566000000E+00 0. -1.
         22    1    1    0    0    0  0.22626354092E+02  0.66962705867E+01  0.17882911543E+02  0.29607270467E+02  0.00000000000E+00 0.  1.
</event>
<event>
 5    1  0.8943334E-005  0.9118800E+02  0.7818608E-02  0.1130116E+00
         25   -1    0    0    0    0  0.00000000000E+00  0.00000000000E+00  0.99999998245E-14  0.12500000000E+03  0.12500000000E+03 0.  0.
        -13    1    3    3    0    0  0.20282931307E+02  0.27015810404E+02  0.33006199809E+02  0.47229987339E+02  0.10566000000E+00 0. -1.
         23    2    1    0    0    0  0.40558488712E+00  0.27554715985E+02 -0.10849707609E+02  0.95383399464E+02  0.90668902420E+02 0.  0.
         13    1    3    3    0    0 -0.19877346420E+02  0.53890558083E+00 -0.43855907417E+02  0.48153412126E+02  0.10566000000E+00 0.  1.
         22    1    1    0    0    0 -0.40558488712E+00 -0.27554715985E+02  0.10849707609E+02  0.29616600536E+02  0.00000000000E+00 0. -1.
</event>
<event>
 5    1  0.8943334E-005  0.9118800E+02  0.7818608E-02  0.1130116E+00
         25   -1    0    0    0    0  0.00000000000E+00  0.00000000000E+00  0.99999998245E-14  0.12500000000E+03  0.12500000000E+03 0.  0.
        -13    1    3    3    0    0 -0.16645033387E+02  0.45288582287E+02 -0.30884400363E+02  0.57288482017E+02  0.10566000000E+00 0.  1.
         23    2    1    0    0    0 -0.20300970504E+02  0.18509325418E+02 -0.11033472675E+01  0.97505602280E+02  0.93548920731E+02 0.  0.
         13    1    3    3    0    0 -0.36559371168E+01 -0.26779256870E+02  0.29781053095E+02  0.40217120262E+02  0.10566000000E+00 0. -1.
         22    1    1    0    0    0  0.20300970504E+02 -0.18509325418E+02  0.11033472675E+01  0.27494397720E+02  0.00000000000E+00 0.  1.
</event>
<event>
 5    1  0.8943334E-005  0.9118800E+02  0.7818608E-02  0.1130116E+00
         25   -1    0    0    0    0  0.00000000000E+00  0.00000000000E+00  0.99999998245E-14  0.12500000000E+03  0.12500000000E+03 0.  0.
        -13    1    3    3    0    0 -0.19059217294E+02 -0.52599262304E+02  0.15226079935E+02  0.57980866094E+02  0.10566000000E+00 0.  1.
         23    2    1    0    0    0 -0.33075274000E+01 -0.36042657509E+02  0.22996056647E+02  0.82118401159E+02  0.70032851504E+02 0.  0.
         13    1    3    3    0    0  0.15751689894E+02  0.16556604795E+02  0.77699767121E+01  0.24137535065E+02  0.10566000000E+00 0. -1.
         22    1    1    0    0    0  0.33075274000E+01  0.36042657509E+02 -0.22996056647E+02  0.42881598841E+02  0.00000000000E+00 0.  1.
</event>
<event>
 5    1  0.8943334E-005  0.9118800E+02  0.7818608E-02  0.1130116E+00
         25   -1    0    0    0    0  0.00000000000E+00  0.00000000000E+00  0.99999998245E-14  0.12500000000E+03  0.12500000000E+03 0.  0.
        -13    1    3    3    0    0  0.40238521816E+01  0.45989443460E+02  0.39158178916E+02  0.60535893783E+02  0.10566000000E+00 0.  1.
         23    2    1    0    0    0  0.82819511569E+01  0.15314746217E+02  0.24868126484E+02  0.94642861112E+02  0.89642151235E+02 0.  0.
         13    1    3    3    0    0  0.42580989753E+01 -0.30674697242E+02 -0.14290052432E+02  0.34106967328E+02  0.10566000000E+00 0. -1.
         22    1    1    0    0    0 -0.82819511569E+01 -0.15314746217E+02 -0.24868126484E+02  0.30357138888E+02  0.00000000000E+00 0.  1.
</event>
<event>
 5    1  0.8943334E-005  0.9118800E+02  0.7818608E-02  0.1130116E+00
         25   -1    0    0    0    0  0.00000000000E+00  0.00000000000E+00  0.99999998245E-14  0.12500000000E+03  0.12500000000E+03 0.  0.
        -13    1    3    3    0    0  0.14837504617E+01 -0.36401070196E+02  0.41203852277E+02  0.55000073031E+02  0.10566000000E+00 0.  1.
         23    2    1    0    0    0  0.15405962841E+02 -0.17972848761E+01  0.24803786464E+02  0.95745910594E+02  0.91167305810E+02 0.  0.
         13    1    3    3    0    0  0.13922212379E+02  0.34603785320E+02 -0.16400065813E+02  0.40745837563E+02  0.10566000000E+00 0. -1.
         22    1    1    0    0    0 -0.15405962841E+02  0.17972848761E+01 -0.24803786464E+02  0.29254089406E+02  0.00000000000E+00 0.  1.
</event>
<event>
 5    1  0.8943334E-005  0.9118800E+02  0.7818608E-02  0.1130116E+00
         25   -1    0    0    0    0  0.00000000000E+00  0.00000000000E+00  0.99999998245E-14  0.12500000000E+03  0.12500000000E+03 0.  0.
        -13    1    3    3    0    0  0.46917335882E+02 -0.49536475670E+00 -0.10696500817E+02  0.48123882701E+02  0.10566000000E+00 0. -1.
         23    2    1    0    0    0  0.52640100219E+01  0.15174220379E+02 -0.25360859813E+02  0.94981006411E+02  0.90112438668E+02 0.  0.
         13    1    3    3    0    0 -0.41653325860E+02  0.15669585136E+02 -0.14664358996E+02  0.46857123710E+02  0.10566000000E+00 0.  1.
         22    1    1    0    0    0 -0.52640100219E+01 -0.15174220379E+02  0.25360859813E+02  0.30018993589E+02  0.00000000000E+00 0.  1.
</event>
<event>
 5    1  0.8943334E-005  0.9118800E+02  0.7818608E-02  0.1130116E+00
         25   -1    0    0    0    0  0.00000000000E+00  0.00000000000E+00  0.99999998245E-14  0.12500000000E+03  0.12500000000E+03 0.  0.
        -13    1    3    3    0    0  0.48310574285E+02 -0.16822178495E+02  0.11361256060E+02  0.52402161981E+02  0.10566000000E+00 0. -1.
         23    2    1    0    0    0  0.26613041036E+02 -0.19683342915E+02 -0.16648163483E+02  0.87948019097E+02  0.79762176338E+02 0.  0.
         13    1    3    3    0    0 -0.21697533248E+02 -0.28611644193E+01 -0.28009419543E+02  0.35545857115E+02  0.10566000000E+00 0.  1.
         22    1    1    0    0    0 -0.26613041036E+02  0.19683342915E+02  0.16648163483E+02  0.37051980903E+02  0.00000000000E+00 0. -1.
</event>
<event>
 5    1  0.8943334E-005  0.9118800E+02  0.7818608E-02  0.1130116E+00
         25   -1    0    0    0    0  0.00000000000E+00  0.00000000000E+00  0.99999998245E-14  0.12500000000E+03  0.12500000000E+03 0.  0.
        -13    1    3    3    0    0 -0.16509272940E+02  0.21159171672E+02  0.29985983477E+02  0.40242229163E+02  0.10566000000E+00 0.  1.
         23    2    1    0    0    0 -0.26588675325E+02 -0.10763125375E+02 -0.11971260347E+02  0.93917632045E+02  0.88625098089E+02 0.  0.
         13    1    3    3    0    0 -0.10079402385E+02 -0.31922297048E+02 -0.41957243824E+02  0.53675402882E+02  0.10566000000E+00 0. -1.
         22    1    1    0    0    0  0.26588675325E+02  0.10763125375E+02  0.11971260347E+02  0.31082367955E+02  0.00000000000E+00 0. -1.
</event>
<event>
 5    1  0.8943334E-005  0.9118800E+02  0.7818608E-02  0.1130116E+00
         25   -1    0    0    0    0  0.00000000000E+00  0.00000000000E+00  0.99999998245E-14  0.12500000000E+03  0.12500000000E+03 0.  0.
        -13    1    3    3    0    0  0.13053726692E+02  0.35895911802E+02  0.12621769540E+02  0.40227310312E+02  0.10566000000E+00 0.  1.
         23    2    1    0    0    0  0.16979277472E+02 -0.81428181757E+00 -0.26178997333E+02  0.93786239898E+02  0.88439583754E+02 0.  0.
         13    1    3    3    0    0  0.39255507801E+01 -0.36710193619E+02 -0.38800766872E+02  0.53558929586E+02  0.10566000000E+00 0. -1.
         22    1    1    0    0    0 -0.16979277472E+02  0.81428181757E+00  0.26178997333E+02  0.31213760102E+02  0.00000000000E+00 0.  1.
</event>
<event>
 5    1  0.8943334E-005  0.9118800E+02  0.7818608E-02  0.1130116E+00
         25   -1    0    0    0    0  0.00000000000E+00  0.00000000000E+00  0.99999998245E-14  0.12500000000E+03  0.12500000000E+03 0.  0.
        -13    1    3    3    0    0 -0.27527863162E+02 -0.73953976980E+00 -0.50235108661E+02  0.57287934817E+02  0.10566000000E+00 0. -1.
         23    2    1    0    0    0 -0.94385309986E+01  0.16764929483E+02 -0.28880540729E+02  0.90297919936E+02  0.83363541095E+02 0.  0.
         13    1    3    3    0    0  0.18089332164E+02  0.17504469252E+02  0.21354567932E+02  0.33009985119E+02  0.10566000000E+00 0.  1.
         22    1    1    0    0    0  0.94385309986E+01 -0.16764929483E+02  0.28880540729E+02  0.34702080064E+02  0.00000000000E+00 0. -1.
</event>
<event>
 5    1  0.8943334E-005  0.9118800E+02  0.7818608E-02  0.1130116E+00
         25   -1    0    0    0    0  0.00000000000E+00  0.00000000000E+00  0.99999998245E-14  0.12500000000E+03  0.12500000000E+03 0.  0.
        -13    1    3    3    0    0  0.38280100870E+02  0.15856359669E+02  0.10556427507E+02  0.42757918451E+02  0.10566000000E+00 0. -1.
         23    2    1    0    0    0  0.87722848801E+01 -0.26935892090E+02  0.10644536152E+02  0.94737789000E+02  0.89774424253E+02 0.  0.
         13    1    3    3    0    0 -0.29507815990E+02 -0.42792251759E+02  0.88108645068E-01  0.51979870549E+02  0.10566000000E+00 0.  1.
         22    1    1    0    0    0 -0.87722848801E+01  0.26935892090E+02 -0.10644536152E+02  0.30262211000E+02  0.00000000000E+00 0.  1.
</event>
<event>
 5    1  0.8943334E-005  0.9118800E+02  0.7818608E-02  0.1130116E+00
         25   -1    0    0    0    0  0.00000000000E+00  0.00000000000E+00  0.99999998245E-14  0.12500000000E+03  0.12500000000E+03 0.  0.
        -13    1    3    3    0    0  0.24524886188E+02 -0.15223843416E+02  0.51104458018E+02  0.58693374790E+02  0.10566000000E+00 0. -1.
         23    2    1    0    0    0  0.10823945586E+02  0.89762779080E+01  0.13133793045E+02  0.10575869332E+03  0.10399362158E+03 0.  0.
         13    1    3    3    0    0 -0.13700940602E+02  0.24200121324E+02 -0.37970664973E+02  0.47065318527E+02  0.10566000000E+00 0.  1.
         22    1    1    0    0    0 -0.10823945586E+02 -0.89762779080E+01 -0.13133793045E+02  0.19241306683E+02  0.00000000000E+00 0. -1.
</event>
<event>
 5    1  0.8943334E-005  0.9118800E+02  0.7818608E-02  0.1130116E+00
         25   -1    0    0    0    0  0.00000000000E+00  0.00000000000E+00  0.99999998245E-14  0.12500000000E+03  0.12500000000E+03 0.  0.
        -13    1    3    3    0    0  0.23395671805E+02  0.17154180313E+02  0.19196679609E+02  0.34787167655E+02  0.10566000000E+00 0. -1.
         23    2    1    0    0    0 -0.85140724011E+01 -0.22328461147E+01 -0.28391930648E+02  0.95274980967E+02  0.90519308668E+02 0.  0.
         13    1    3    3    0    0 -0.31909744206E+02 -0.19387026428E+02 -0.47588610257E+02  0.60487813312E+02  0.10566000000E+00 0.  1.
         22    1    1    0    0    0  0.85140724011E+01  0.22328461147E+01  0.28391930648E+02  0.29725019033E+02  0.00000000000E+00 0.  1.
</event>
<event>
 5    1  0.8943334E-005  0.9118800E+02  0.7818608E-02  0.1130116E+00
         25   -1    0    0    0    0  0.00000000000E+00  0.00000000000E+00  0.99999998245E-14  0.12500000000E+03  0.12500000000E+03 0.  0.
        -13    1    3    3    0    0  0.18528946564E+02  0.52515135794E+02 -0.13565741747E+02  0.57316680481E+02  0.10566000000E+00 0.  1.
         23    2    1    0    0    0  0.25147178311E+02  0.24676571845E+02  0.16574211358E+01  0.89728753639E+02  0.82505687136E+02 0.  0.
         13    1    3    3    0    0  0.66182317467E+01 -0.27838563949E+02  0.15223162883E+02  0.32412073158E+02  0.10566000000E+00 0. -1.
         22    1    1    0    0    0 -0.25147178311E+02 -0.24676571845E+02 -0.16574211358E+01  0.35271246361E+02  0.00000000000E+00 0.  1.
</event>
<event>
 5    1  0.8943334E-005  0.9118800E+02  0.7818608E-02  0.1130116E+00
         25   -1    0    0    0    0  0.00000000000E+00  0.00000000000E+00  0.99999998245E-14  0.12500000000E+03  0.12500000000E+03 0.  0.
        -13    1    3    3    0    0  0.26870300469E+02  0.31141806255E+02 -0.81536032024E+00  0.41140018481E+02  0.10566000000E+00 0. -1.
         23    2    1    0    0    0 -0.18594929714E+02  0.28607352266E+02 -0.13337150334E+02  0.88366250618E+02  0.80414940493E+02 0.  0.
         13    1    3    3    0    0 -0.45465230183E+02 -0.25344539892E+01 -0.12521790014E+02  0.47226232137E+02  0.10566000000E+00 0.  1.
         22    1    1    0    0    0  0.18594929714E+02 -0.28607352266E+02  0.13337150334E+02  0.36633749382E+02  0.00000000000E+00 0.  1.
</event>
<event>
 5    1  0.8943334E-005  0.9118800E+02  0.7818608E-02  0.1130116E+00
         25   -1    0    0    0    0  0.00000000000E+00  0.00000000000E+00  0.99999998245E-14  0.12500000000E+03  0.12500000000E+03 0.  0.
        -13    1    3    3    0    0 -0.19385029883E+02  0.40987632130E+02  0.30006831290E+02  0.54370823604E+02  0.10566000000E+00 0.  1.
         23    2    1    0    0    0  0.24065535533E+01  0.66878026138E+01  0.29128079683E+02  0.95017284482E+02  0.90162747965E+02 0.  0.
         13    1    3    3    0    0  0.21791583436E+02 -0.34299829517E+02 -0.87875160753E+00  0.40646460878E+02  0.10566000000E+00 0. -1.
         22    1    1    0    0    0 -0.24065535533E+01 -0.66878026138E+01 -0.29128079683E+02  0.29982715518E+02  0.00000000000E+00 0.  1.
</event>
<event>
 5    1  0.8943334E-005  0.9118800E+02  0.7818608E-02  0.1130116E+00
         25   -1    0    0    0    0  0.00000000000E+00  0.00000000000E+00  0.99999998245E-14  0.12500000000E+03  0.12500000000E+03 0.  0.
        -13    1    3    3    0    0 -0.30576307554E+02 -0.34504889606E+01  0.20199398108E+02  0.36808196175E+02  0.10566000000E+00 0.  1.
         23    2    1    0    0    0  0.27505243036E+02 -0.36496779040E+01  0.56614392766E+01  0.96681976800E+02  0.92441842257E+02 0.  0.
         13    1    3    3    0    0  0.58081550591E+02 -0.19918894348E+00 -0.14537958831E+02  0.59873780624E+02  0.10566000000E+00 0. -1.
         22    1    1    0    0    0 -0.27505243036E+02  0.36496779040E+01 -0.56614392766E+01  0.28318023200E+02  0.00000000000E+00 0. -1.
</event>
<event>
 5    1  0.8943334E-005  0.9118800E+02  0.7818608E-02  0.1130116E+00
         25   -1    0    0    0    0  0.00000000000E+00  0.00000000000E+00  0.99999998245E-14  0.12500000000E+03  0.12500000000E+03 0.  0.
        -13    1    3    3    0    0  0.17001075095E+02  0.12065438349E+02 -0.50409124858E+02  0.54549998992E+02  0.10566000000E+00 0. -1.
         23    2    1    0    0    0 -0.12333803018E+02  0.15354180426E+02 -0.19884960511E+02  0.97012767054E+02  0.92888060392E+02 0.  0.
         13    1    3    3    0    0 -0.29334878114E+02  0.32887420770E+01  0.30524164347E+02  0.42462768062E+02  0.10566000000E+00 0.  1.
         22    1    1    0    0    0  0.12333803018E+02 -0.15354180426E+02  0.19884960511E+02  0.27987232946E+02  0.00000000000E+00 0. -1.
</event>
<event>
 5    1  0.8943334E-005  0.9118800E+02  0.7818608E-02  0.1130116E+00
         25   -1    0    0    0    0  0.00000000000E+00  0.00000000000E+00  0.99999998245E-14  0.12500000000E+03  0.12500000000E+03 0.  0.
        -13    1    3    3    0    0  0.20229833603E+02 -0.25341568960E+02 -0.46888667739E+02  0.57008767846E+02  0.10566000000E+00 0. -1.
         23    2    1    0    0    0  0.80909423718E+01  0.35413967098E+01 -0.32198601033E+02  0.91612056852E+02  0.85311278346E+02 0.  0.
         13    1    3    3    0    0 -0.12138891231E+02  0.28882965670E+02  0.14690066705E+02  0.34603289006E+02  0.10566000000E+00 0.  1.
         22    1    1    0    0    0 -0.80909423718E+01 -0.35413967098E+01  0.32198601033E+02  0.33387943148E+02  0.00000000000E+00 0. -1.
</event>
<event>
 5    1  0.8943334E-005  0.9118800E+02  0.7818608E-02  0.1130116E+00
         25   -1    0    0    0    0  0.00000000000E+00  0.00000000000E+00  0.99999998245E-14  0.12500000000E+03  0.12500000000E+03 0.  0.
        -13    1    3    3    0    0  0.29128900304E+02  0.20429631209E+02 -0.13321880819E+02  0.37991398195E+02  0.10566000000E+00 0.  1.
         23    2    1    0    0    0  0.37484215464E+01 -0.12189131272E+02  0.26629659369E+02  0.95474344319E+02  0.90794196290E+02 0.  0.
         13    1    3    3    0    0 -0.25380478757E+02 -0.32618762481E+02  0.39951540188E+02  0.57482946124E+02  0.10566000000E+00 0. -1.
         22    1    1    0    0    0 -0.37484215464E+01  0.12189131272E+02 -0.26629659369E+02  0.29525655681E+02  0.00000000000E+00 0. -1.
</event>
<event>
 4    1  0.8943334E-005  0.9118800E+02  0.7818608E-02  0.1130116E+00
         25   -1    0    0    0    0  0.00000000000E+00  0.00000000000E+00  0.99999998245E-14  0.12500000000E+03  0.12500000000E+03 0.  0.
        -13    1    1    0    0    0 -0.15287250153E+01 -0.39761177337E+02  0.23820613945E+02  0.46375866958E+02  0.10566000000E+00 0.  1.
         13    1    1    0    0    0  0.68980123789E+01 -0.12251302335E+02 -0.22239585361E+02  0.26311353153E+02  0.10566000000E+00 0. -1.
         22    1    1    0    0    0 -0.53692873636E+01  0.52012479671E+02 -0.15810285840E+01  0.52312779889E+02  0.00000000000E+00 0.  1.
</event>
<event>
 5    1  0.8943334E-005  0.9118800E+02  0.7818608E-02  0.1130116E+00
         25   -1    0    0    0    0  0.00000000000E+00  0.00000000000E+00  0.99999998245E-14  0.12500000000E+03  0.12500000000E+03 0.  0.
        -13    1    3    3    0    0  0.29540946600E+02  0.39701146315E+02  0.30698656591E+02  0.58234587878E+02  0.10566000000E+00 0. -1.
         23    2    1    0    0    0  0.17624524140E+01  0.15537044449E+02  0.25031191770E+02  0.95486163412E+02  0.90810466649E+02 0.  0.
         13    1    3    3    0    0 -0.27778494186E+02 -0.24164101866E+02 -0.56674648205E+01  0.37251575534E+02  0.10566000000E+00 0.  1.
         22    1    1    0    0    0 -0.17624524140E+01 -0.15537044449E+02 -0.25031191770E+02  0.29513836588E+02  0.00000000000E+00 0. -1.
</event>
<event>
 5    1  0.8943334E-005  0.9118800E+02  0.7818608E-02  0.1130116E+00
         25   -1    0    0    0    0  0.00000000000E+00  0.00000000000E+00  0.99999998245E-14  0.12500000000E+03  0.12500000000E+03 0.  0.
        -13    1    3    3    0    0 -0.10434000665E+02  0.35362052071E+02 -0.56128966786E+01  0.37294220326E+02  0.10566000000E+00 0.  1.
         23    2    1    0    0    0  0.55164059819E+01 -0.18938011392E+02 -0.21247032841E+02  0.96008356118E+02  0.91526438964E+02 0.  0.
         13    1    3    3    0    0  0.15950406647E+02 -0.54300063463E+02 -0.15634136162E+02  0.58714135792E+02  0.10566000000E+00 0. -1.
         22    1    1    0    0    0 -0.55164059819E+01  0.18938011392E+02  0.21247032841E+02  0.28991643882E+02  0.00000000000E+00 0. -1.
</event>
<event>
 5    1  0.8943334E-005  0.9118800E+02  0.7818608E-02  0.1130116E+00
         25   -1    0    0    0    0  0.00000000000E+00  0.00000000000E+00  0.99999998245E-14  0.12500000000E+03  0.12500000000E+03 0.  0.
        -13    1    3    3    0    0  0.86883045160E+01  0.18576891082E+02  0.18295402857E+02  0.27483093847E+02  0.10566000000E+00 0.  1.
         23    2    1    0    0    0 -0.86869373371E+01  0.15672844641E+02 -0.36120147789E+02  0.84679211122E+02  0.74463432505E+02 0.  0.
         13    1    3    3    0    0 -0.17375241853E+02 -0.29040464416E+01 -0.54415550646E+02  0.57196117275E+02  0.10566000000E+00 0. -1.
         22    1    1    0    0    0  0.86869373371E+01 -0.15672844641E+02  0.36120147789E+02  0.40320788878E+02  0.00000000000E+00 0. -1.
</event>
<event>
 5    1  0.8943334E-005  0.9118800E+02  0.7818608E-02  0.1130116E+00
         25   -1    0    0    0    0  0.00000000000E+00  0.00000000000E+00  0.99999998245E-14  0.12500000000E+03  0.12500000000E+03 0.  0.
        -13    1    3    3    0    0 -0.22323320393E+02 -0.13410772600E+02  0.38849446168E+02  0.46770397547E+02  0.10566000000E+00 0.  1.
         23    2    1    0    0    0 -0.12914848288E+02  0.24517036457E+02  0.92720154828E+01  0.95779311198E+02  0.91213090067E+02 0.  0.
         13    1    3    3    0    0  0.94084721052E+01  0.37927809057E+02 -0.29577430685E+02  0.49008913651E+02  0.10566000000E+00 0. -1.
         22    1    1    0    0    0  0.12914848288E+02 -0.24517036457E+02 -0.92720154828E+01  0.29220688802E+02  0.00000000000E+00 0.  1.
</event>
<event>
 5    1  0.8943334E-005  0.9118800E+02  0.7818608E-02  0.1130116E+00
         25   -1    0    0    0    0  0.00000000000E+00  0.00000000000E+00  0.99999998245E-14  0.12500000000E+03  0.12500000000E+03 0.  0.
        -13    1    3    3    0    0 -0.13369257878E+02 -0.37812075752E+02 -0.45272223103E+02  0.60482026070E+02  0.10566000000E+00 0.  1.
         23    2    1    0    0    0 -0.13943465126E+02 -0.25579449257E+02 -0.17055501507E+02  0.91241762847E+02  0.84766978900E+02 0.  0.
         13    1    3    3    0    0 -0.57420724884E+00  0.12232626495E+02  0.28216721596E+02  0.30759736777E+02  0.10566000000E+00 0. -1.
         22    1    1    0    0    0  0.13943465126E+02  0.25579449257E+02  0.17055501507E+02  0.33758237153E+02  0.00000000000E+00 0.  1.
</event>
<event>
 5    1  0.8943334E-005  0.9118800E+02  0.7818608E-02  0.1130116E+00
         25   -1    0    0    0    0  0.00000000000E+00  0.00000000000E+00  0.99999998245E-14  0.12500000000E+03  0.12500000000E+03 0.  0.
        -13    1    3    3    0    0  0.29210718266E+02  0.45643566521E+02 -0.29225089667E+02  0.61568809120E+02  0.10566000000E+00 0.  1.
         23    2    1    0    0    0  0.62954149549E+01  0.23283067605E+02 -0.14941199529E+02  0.96627955133E+02  0.92368765193E+02 0.  0.
         13    1    3    3    0    0 -0.22915303311E+02 -0.22360498916E+02  0.14283890138E+02  0.35059146013E+02  0.10566000000E+00 0. -1.
         22    1    1    0    0    0 -0.62954149549E+01 -0.23283067605E+02  0.14941199529E+02  0.28372044867E+02  0.00000000000E+00 0.  1.
</event>
<event>
 5    1  0.8943334E-005  0.9118800E+02  0.7818608E-02  0.1130116E+00
         25   -1    0    0    0    0  0.00000000000E+00  0.00000000000E+00  0.99999998245E-14  0.12500000000E+03  0.12500000000E+03 0.  0.
        -13    1    3    3    0    0  0.33577888273E+02  0.33728544637E+01 -0.39917071058E+02  0.52270780116E+02  0.10566000000E+00 0.  1.
         23    2    1    0    0    0  0.22473926669E+02  0.20000571139E+02 -0.23550101275E+01  0.94823083350E+02  0.89893107841E+02 0.  0.
         13    1    3    3    0    0 -0.11103961603E+02  0.16627716675E+02  0.37562060930E+02  0.42552303234E+02  0.10566000000E+00 0. -1.
         22    1    1    0    0    0 -0.22473926669E+02 -0.20000571139E+02  0.23550101275E+01  0.30176916650E+02  0.00000000000E+00 0.  1.
</event>
<event>
 5    1  0.8943334E-005  0.9118800E+02  0.7818608E-02  0.1130116E+00
         25   -1    0    0    0    0  0.00000000000E+00  0.00000000000E+00  0.99999998245E-14  0.12500000000E+03  0.12500000000E+03 0.  0.
        -13    1    3    3    0    0 -0.39303456491E+02 -0.91402105240E+01 -0.44837803751E+02  0.60322010492E+02  0.10566000000E+00 0. -1.
         23    2    1    0    0    0 -0.12241361459E+02  0.39371881318E+01 -0.26537092016E+02  0.95511533892E+02  0.90845382232E+02 0.  0.
         13    1    3    3    0    0  0.27062095031E+02  0.13077398656E+02  0.18300711735E+02  0.35189523400E+02  0.10566000000E+00 0.  1.
         22    1    1    0    0    0  0.12241361459E+02 -0.39371881318E+01  0.26537092016E+02  0.29488466108E+02  0.00000000000E+00 0. -1.
</event>
<event>
 5    1  0.8943334E-005  0.9118800E+02  0.7818608E-02  0.1130116E+00
         25   -1    0    0    0    0  0.00000000000E+00  0.00000000000E+00  0.99999998245E-14  0.12500000000E+03  0.12500000000E+03 0.  0.
        -13    1    3    3    0    0 -0.72099173059E+01 -0.95786442818E+01 -0.33195251364E+02  0.35294039312E+02  0.10566000000E+00 0.  1.
         23    2    1    0    0    0  0.22629026516E+02 -0.36295506933E+01  0.18679584367E+02  0.95433577297E+02  0.90738053342E+02 0.  0.
         13    1    3    3    0    0  0.29838943822E+02  0.59490935885E+01  0.51874835731E+02  0.60139537985E+02  0.10566000000E+00 0. -1.
         22    1    1    0    0    0 -0.22629026516E+02  0.36295506933E+01 -0.18679584367E+02  0.29566422703E+02  0.00000000000E+00 0. -1.
</event>
<event>
 5    1  0.8943334E-005  0.9118800E+02  0.7818608E-02  0.1130116E+00
         25   -1    0    0    0    0  0.00000000000E+00  0.00000000000E+00  0.99999998245E-14  0.12500000000E+03  0.12500000000E+03 0.  0.
        -13    1    3    3    0    0 -0.25615615900E+02 -0.28592441856E+02 -0.79125233696E+01  0.39195748486E+02  0.10566000000E+00 0. -1.
         23    2    1    0    0    0  0.25008734230E+02 -0.10902971571E+02  0.10312232921E+02  0.95834031395E+02  0.91288048773E+02 0.  0.
         13    1    3    3    0    0  0.50624350130E+02  0.17689470285E+02  0.18224756290E+02  0.56638282909E+02  0.10566000000E+00 0.  1.
         22    1    1    0    0    0 -0.25008734230E+02  0.10902971571E+02 -0.10312232921E+02  0.29165968605E+02  0.00000000000E+00 0.  1.
</event>
<event>
 5    1  0.8943334E-005  0.9118800E+02  0.7818608E-02  0.1130116E+00
         25   -1    0    0    0    0  0.00000000000E+00  0.00000000000E+00  0.99999998245E-14  0.12500000000E+03  0.12500000000E+03 0.  0.
        -13    1    3    3    0    0  0.12260603120E+02 -0.21461181031E+02 -0.22565624233E+02  0.33468242278E+02  0.10566000000E+00 0.  1.
         23    2    1    0    0    0 -0.14067472661E+02  0.85548008707E+01  0.24684342191E+02  0.95328546473E+02  0.90593248193E+02 0.  0.
         13    1    3    3    0    0 -0.26328075782E+02  0.30015981902E+02  0.47249966424E+02  0.61860304194E+02  0.10566000000E+00 0. -1.
         22    1    1    0    0    0  0.14067472661E+02 -0.85548008707E+01 -0.24684342191E+02  0.29671453527E+02  0.00000000000E+00 0. -1.
</event>
<event>
 5    1  0.8943334E-005  0.9118800E+02  0.7818608E-02  0.1130116E+00
         25   -1    0    0    0    0  0.00000000000E+00  0.00000000000E+00  0.99999998245E-14  0.12500000000E+03  0.12500000000E+03 0.  0.
        -13    1    3    3    0    0  0.25225999193E+02  0.10128879852E+02 -0.34642470142E+02  0.44034726568E+02  0.10566000000E+00 0.  1.
         23    2    1    0    0    0  0.23892632483E+02 -0.11510759039E+02  0.12317700594E+02  0.95758228361E+02  0.91184193204E+02 0.  0.
         13    1    3    3    0    0 -0.13333667093E+01 -0.21639638891E+02  0.46960170736E+02  0.51723501793E+02  0.10566000000E+00 0. -1.
         22    1    1    0    0    0 -0.23892632483E+02  0.11510759039E+02 -0.12317700594E+02  0.29241771639E+02  0.00000000000E+00 0. -1.
</event>
<event>
 5    1  0.8943334E-005  0.9118800E+02  0.7818608E-02  0.1130116E+00
         25   -1    0    0    0    0  0.00000000000E+00  0.00000000000E+00  0.99999998245E-14  0.12500000000E+03  0.12500000000E+03 0.  0.
        -13    1    3    3    0    0 -0.28817853881E+02 -0.26526448230E+02  0.13659330062E+02  0.41481437050E+02  0.10566000000E+00 0. -1.
         23    2    1    0    0    0 -0.54480055836E+01  0.21819824955E+01 -0.27524434912E+02  0.96856859989E+02  0.92678017875E+02 0.  0.
         13    1    3    3    0    0  0.23369848297E+02  0.28708430725E+02 -0.41183764974E+02  0.55375422939E+02  0.10566000000E+00 0.  1.
         22    1    1    0    0    0  0.54480055836E+01 -0.21819824955E+01  0.27524434912E+02  0.28143140011E+02  0.00000000000E+00 0.  1.
</event>
<event>
 5    1  0.8943334E-005  0.9118800E+02  0.7818608E-02  0.1130116E+00
         25   -1    0    0    0    0  0.00000000000E+00  0.00000000000E+00  0.99999998245E-14  0.12500000000E+03  0.12500000000E+03 0.  0.
        -13    1    3    3    0    0  0.93288056133E+01 -0.40594601236E+02 -0.79417553774E+01  0.42403194528E+02  0.10566000000E+00 0.  1.
         23    2    1    0    0    0 -0.28376852437E+02 -0.24712526596E+01 -0.47893941694E+01  0.96115901599E+02  0.91673198917E+02 0.  0.
         13    1    3    3    0    0 -0.37705658050E+02  0.38123348576E+02  0.31523612080E+01  0.53712707071E+02  0.10566000000E+00 0. -1.
         22    1    1    0    0    0  0.28376852437E+02  0.24712526596E+01  0.47893941694E+01  0.28884098401E+02  0.00000000000E+00 0. -1.
</event>
<event>
 5    1  0.8943334E-005  0.9118800E+02  0.7818608E-02  0.1130116E+00
         25   -1    0    0    0    0  0.00000000000E+00  0.00000000000E+00  0.99999998245E-14  0.12500000000E+03  0.12500000000E+03 0.  0.
        -13    1    3    3    0    0  0.23500286222E+02  0.82577094602E-01  0.45186539682E+02  0.50932355178E+02  0.10566000000E+00 0. -1.
         23    2    1    0    0    0  0.61007050864E+01  0.25680089695E+02  0.13031249965E+02  0.95563643484E+02  0.90917054896E+02 0.  0.
         13    1    3    3    0    0 -0.17399581135E+02  0.25597512600E+02 -0.32155289718E+02  0.44631288306E+02  0.10566000000E+00 0.  1.
         22    1    1    0    0    0 -0.61007050864E+01 -0.25680089695E+02 -0.13031249965E+02  0.29436356516E+02  0.00000000000E+00 0. -1.
</event>
<event>
 5    1  0.8943334E-005  0.9118800E+02  0.7818608E-02  0.1130116E+00
         25   -1    0    0    0    0  0.00000000000E+00  0.00000000000E+00  0.99999998245E-14  0.12500000000E+03  0.12500000000E+03 0.  0.
        -13    1    3    3    0    0 -0.16514250624E+02 -0.59243104646E+02  0.11040167705E+02  0.62484897285E+02  0.10566000000E+00 0.  1.
         23    2    1    0    0    0 -0.81747272469E+01 -0.27431320125E+02  0.59743987308E+01  0.95759669469E+02  0.91186168728E+02 0.  0.
         13    1    3    3    0    0  0.83395233774E+01  0.31811784521E+02 -0.50657689738E+01  0.33274772184E+02  0.10566000000E+00 0. -1.
         22    1    1    0    0    0  0.81747272469E+01  0.27431320125E+02 -0.59743987308E+01  0.29240330531E+02  0.00000000000E+00 0.  1.
</event>
<event>
 5    1  0.8943334E-005  0.9118800E+02  0.7818608E-02  0.1130116E+00
         25   -1    0    0    0    0  0.00000000000E+00  0.00000000000E+00  0.99999998245E-14  0.12500000000E+03  0.12500000000E+03 0.  0.
        -13    1    3    3    0    0 -0.27431706294E+02  0.14817227763E+02 -0.19915263115E+02  0.36995643226E+02  0.10566000000E+00 0.  1.
         23    2    1    0    0    0  0.28437824406E+02  0.28138726897E+01 -0.67104114567E+01  0.95645999278E+02  0.91030213773E+02 0.  0.
         13    1    3    3    0    0  0.55869530700E+02 -0.12003355074E+02  0.13204851658E+02  0.58650356052E+02  0.10566000000E+00 0. -1.
         22    1    1    0    0    0 -0.28437824406E+02 -0.28138726897E+01  0.67104114567E+01  0.29354000722E+02  0.00000000000E+00 0. -1.
</event>
<event>
 5    1  0.8943334E-005  0.9118800E+02  0.7818608E-02  0.1130116E+00
         25   -1    0    0    0    0  0.00000000000E+00  0.00000000000E+00  0.99999998245E-14  0.12500000000E+03  0.12500000000E+03 0.  0.
        -13    1    3    3    0    0  0.11804699146E+02  0.38634066403E+02 -0.18540701409E+02  0.44448968284E+02  0.10566000000E+00 0.  1.
         23    2    1    0    0    0  0.22877223686E+02  0.37900352960E+01  0.17623304635E+02  0.95874193618E+02  0.91343026032E+02 0.  0.
         13    1    3    3    0    0  0.11072524540E+02 -0.34844031107E+02  0.36164006044E+02  0.51425225334E+02  0.10566000000E+00 0. -1.
         22    1    1    0    0    0 -0.22877223686E+02 -0.37900352960E+01 -0.17623304635E+02  0.29125806382E+02  0.00000000000E+00 0. -1.
</event>
<event>
 5    1  0.8943334E-005  0.9118800E+02  0.7818608E-02  0.1130116E+00
         25   -1    0    0    0    0  0.00000000000E+00  0.00000000000E+00  0.99999998245E-14  0.12500000000E+03  0.12500000000E+03 0.  0.
        -13    1    3    3    0    0 -0.28665807309E+02 -0.35726504322E+01 -0.15812187248E+02  0.32932184401E+02  0.10566000000E+00 0. -1.
         23    2    1    0    0    0  0.21188878843E+02 -0.20362233439E+02  0.12948469921E+02  0.92886887249E+02  0.87159175147E+02 0.  0.
         13    1    3    3    0    0  0.49854686152E+02 -0.16789583007E+02  0.28760657169E+02  0.59954702849E+02  0.10566000000E+00 0.  1.
         22    1    1    0    0    0 -0.21188878843E+02  0.20362233439E+02 -0.12948469921E+02  0.32113112751E+02  0.00000000000E+00 0.  1.
</event>
<event>
 5    1  0.8943334E-005  0.9118800E+02  0.7818608E-02  0.1130116E+00
         25   -1    0    0    0    0  0.00000000000E+00  0.00000000000E+00  0.99999998245E-14  0.12500000000E+03  0.12500000000E+03 0.  0.
        -13    1    3    3    0    0 -0.20789237194E+02  0.18097046747E+02 -0.53249438851E+02  0.59960064927E+02  0.10566000000E+00 0. -1.
         23    2    1    0    0    0 -0.34084518159E-01  0.16362339387E+02 -0.20512189510E+02  0.98761150359E+02  0.95211803837E+02 0.  0.
         13    1    3    3    0    0  0.20755152676E+02 -0.17347073597E+01  0.32737249341E+02  0.38801085432E+02  0.10566000000E+00 0.  1.
         22    1    1    0    0    0  0.34084518159E-01 -0.16362339387E+02  0.20512189510E+02  0.26238849641E+02  0.00000000000E+00 0. -1.
</event>
<event>
 5    1  0.8943334E-005  0.9118800E+02  0.7818608E-02  0.1130116E+00
         25   -1    0    0    0    0  0.00000000000E+00  0.00000000000E+00  0.99999998245E-14  0.12500000000E+03  0.12500000000E+03 0.  0.
        -13    1    3    3    0    0  0.50814848518E+02  0.12185425931E+02  0.30827762855E+02  0.60671208672E+02  0.10566000000E+00 0.  1.
         23    2    1    0    0    0  0.29397123956E+02  0.40062364827E+01  0.55156734869E+01  0.94822798644E+02  0.89892711946E+02 0.  0.
         13    1    3    3    0    0 -0.21417724562E+02 -0.81791894483E+01 -0.25312089368E+02  0.34151589972E+02  0.10566000000E+00 0. -1.
         22    1    1    0    0    0 -0.29397123956E+02 -0.40062364827E+01 -0.55156734869E+01  0.30177201356E+02  0.00000000000E+00 0.  1.
</event>
<event>
 5    1  0.8943334E-005  0.9118800E+02  0.7818608E-02  0.1130116E+00
         25   -1    0    0    0    0  0.00000000000E+00  0.00000000000E+00  0.99999998245E-14  0.12500000000E+03  0.12500000000E+03 0.  0.
        -13    1    3    3    0    0 -0.14477746154E+02 -0.28626453042E+02  0.49101329878E+02  0.58651774972E+02  0.10566000000E+00 0.  1.
         23    2    1    0    0    0  0.24718592224E+01 -0.30927200170E+01  0.29946584741E+02  0.94792832924E+02  0.89851033556E+02 0.  0.
         13    1    3    3    0    0  0.16949605376E+02  0.25533733025E+02 -0.19154745138E+02  0.36141057953E+02  0.10566000000E+00 0. -1.
         22    1    1    0    0    0 -0.24718592224E+01  0.30927200170E+01 -0.29946584741E+02  0.30207167076E+02  0.00000000000E+00 0.  1.
</event>
<event>
 5    1  0.8943334E-005  0.9118800E+02  0.7818608E-02  0.1130116E+00
         25   -1    0    0    0    0  0.00000000000E+00  0.00000000000E+00  0.99999998245E-14  0.12500000000E+03  0.12500000000E+03 0.  0.
        -13    1    3    3    0    0 -0.24398796528E+02 -0.33287879540E+02  0.25210652377E+02  0.48362923336E+02  0.10566000000E+00 0. -1.
         23    2    1    0    0    0 -0.22711784644E+02  0.12608127757E+02  0.13334464132E+02  0.95800719513E+02  0.91242423676E+02 0.  0.
         13    1    3    3    0    0  0.16870118840E+01  0.45896007297E+02 -0.11876188245E+02  0.47437796177E+02  0.10566000000E+00 0.  1.
         22    1    1    0    0    0  0.22711784644E+02 -0.12608127757E+02 -0.13334464132E+02  0.29199280487E+02  0.00000000000E+00 0. -1.
</event>
<event>
 5    1  0.8943334E-005  0.9118800E+02  0.7818608E-02  0.1130116E+00
         25   -1    0    0    0    0  0.00000000000E+00  0.00000000000E+00  0.99999998245E-14  0.12500000000E+03  0.12500000000E+03 0.  0.
        -13    1    3    3    0    0  0.18650189752E+02 -0.42449293276E+02 -0.25066567630E+02  0.52707836744E+02  0.10566000000E+00 0.  1.
         23    2    1    0    0    0  0.21920351257E+02 -0.10227690324E+01 -0.21274615667E+02  0.94436015843E+02  0.89353253779E+02 0.  0.
         13    1    3    3    0    0  0.32701615056E+01  0.41426524244E+02  0.37919519631E+01  0.41728179099E+02  0.10566000000E+00 0. -1.
         22    1    1    0    0    0 -0.21920351257E+02  0.10227690324E+01  0.21274615667E+02  0.30563984157E+02  0.00000000000E+00 0.  1.
</event>
<event>
 5    1  0.8943334E-005  0.9118800E+02  0.7818608E-02  0.1130116E+00
         25   -1    0    0    0    0  0.00000000000E+00  0.00000000000E+00  0.99999998245E-14  0.12500000000E+03  0.12500000000E+03 0.  0.
        -13    1    3    3    0    0 -0.24529961384E+02  0.27702395018E+02  0.30095407281E+01  0.37124253456E+02  0.10566000000E+00 0. -1.
         23    2    1    0    0    0  0.26046883169E+02  0.26616233118E+01  0.15006740221E+02  0.94821752643E+02  0.89891257421E+02 0.  0.
         13    1    3    3    0    0  0.50576844554E+02 -0.25040771706E+02  0.11997199492E+02  0.57697499187E+02  0.10566000000E+00 0.  1.
         22    1    1    0    0    0 -0.26046883169E+02 -0.26616233118E+01 -0.15006740221E+02  0.30178247357E+02  0.00000000000E+00 0.  1.
</event>
<event>
 5    1  0.8943334E-005  0.9118800E+02  0.7818608E-02  0.1130116E+00
         25   -1    0    0    0    0  0.00000000000E+00  0.00000000000E+00  0.99999998245E-14  0.12500000000E+03  0.12500000000E+03 0.  0.
        -13    1    3    3    0    0  0.10962615034E+02  0.13388404847E+02 -0.40338189575E+02  0.43893154534E+02  0.10566000000E+00 0. -1.
         23    2    1    0    0    0  0.12348794744E+02  0.23781017098E+02  0.10810456012E+02  0.96105442293E+02  0.91658936135E+02 0.  0.
         13    1    3    3    0    0  0.13861797105E+01  0.10392612251E+02  0.51148645587E+02  0.52212287759E+02  0.10566000000E+00 0.  1.
         22    1    1    0    0    0 -0.12348794744E+02 -0.23781017098E+02 -0.10810456012E+02  0.28894557707E+02  0.00000000000E+00 0.  1.
</event>
<event>
 5    1  0.8943334E-005  0.9118800E+02  0.7818608E-02  0.1130116E+00
         25   -1    0    0    0    0  0.00000000000E+00  0.00000000000E+00  0.99999998245E-14  0.12500000000E+03  0.12500000000E+03 0.  0.
        -13    1    3    3    0    0 -0.12428844171E+02 -0.33685008798E+02  0.25631449413E+02  0.44115058066E+02  0.10566000000E+00 0. -1.
         23    2    1    0    0    0  0.90335914200E+01  0.83240491793E+01 -0.14461806817E+02  0.10602529513E+03  0.10431358388E+03 0.  0.
         13    1    3    3    0    0  0.21462435591E+02  0.42009057977E+02 -0.40093256229E+02  0.61910237059E+02  0.10566000000E+00 0.  1.
         22    1    1    0    0    0 -0.90335914200E+01 -0.83240491793E+01  0.14461806817E+02  0.18974704875E+02  0.00000000000E+00 0.  1.
</event>
<event>
 5    1  0.8943334E-005  0.9118800E+02  0.7818608E-02  0.1130116E+00
         25   -1    0    0    0    0  0.00000000000E+00  0.00000000000E+00  0.99999998245E-14  0.12500000000E+03  0.12500000000E+03 0.  0.
        -13    1    3    3    0    0  0.12423642790E+02  0.44175801329E+02 -0.27313357752E+02  0.53402986798E+02  0.10566000000E+00 0. -1.
         23    2    1    0    0    0  0.18145984953E+02  0.20979041501E+02  0.80829299567E+01  0.96108293424E+02  0.91662824285E+02 0.  0.
         13    1    3    3    0    0  0.57223421631E+01 -0.23196759828E+02  0.35396287709E+02  0.42705306625E+02  0.10566000000E+00 0.  1.
         22    1    1    0    0    0 -0.18145984953E+02 -0.20979041501E+02 -0.80829299567E+01  0.28891706576E+02  0.00000000000E+00 0.  1.
</event>
<event>
 5    1  0.8943334E-005  0.9118800E+02  0.7818608E-02  0.1130116E+00
         25   -1    0    0    0    0  0.00000000000E+00  0.00000000000E+00  0.99999998245E-14  0.12500000000E+03  0.12500000000E+03 0.  0.
        -13    1    3    3    0    0  0.37369586930E+02 -0.12811026997E+02  0.31198055565E+02  0.50338238697E+02  0.10566000000E+00 0. -1.
         23    2    1    0    0    0  0.11606121431E+01 -0.27551036989E+02  0.62171601256E+01  0.96732355249E+02  0.92509938992E+02 0.  0.
         13    1    3    3    0    0 -0.36208974787E+02 -0.14740009992E+02 -0.24980895439E+02  0.46394116552E+02  0.10566000000E+00 0.  1.
         22    1    1    0    0    0 -0.11606121431E+01  0.27551036989E+02 -0.62171601256E+01  0.28267644751E+02  0.00000000000E+00 0.  1.
</event>
<event>
 5    1  0.8943334E-005  0.9118800E+02  0.7818608E-02  0.1130116E+00
         25   -1    0    0    0    0  0.00000000000E+00  0.00000000000E+00  0.99999998245E-14  0.12500000000E+03  0.12500000000E+03 0.  0.
        -13    1    3    3    0    0 -0.12583863988E+02  0.40692937275E+02  0.41424549403E+02  0.59416102482E+02  0.10566000000E+00 0. -1.
         23    2    1    0    0    0 -0.11308783203E+02  0.77820893958E+01  0.25589780029E+02  0.95960607189E+02  0.91461203782E+02 0.  0.
         13    1    3    3    0    0  0.12750807852E+01 -0.32910847879E+02 -0.15834769374E+02  0.36544504707E+02  0.10566000000E+00 0.  1.
         22    1    1    0    0    0  0.11308783203E+02 -0.77820893958E+01 -0.25589780029E+02  0.29039392811E+02  0.00000000000E+00 0. -1.
</event>
<event>
 5    1  0.8943334E-005  0.9118800E+02  0.7818608E-02  0.1130116E+00
         25   -1    0    0    0    0  0.00000000000E+00  0.00000000000E+00  0.99999998245E-14  0.12500000000E+03  0.12500000000E+03 0.  0.
        -13    1    3    3    0    0 -0.35897760196E+02 -0.94223633588E+01  0.40027300650E+00  0.37116054489E+02  0.10566000000E+00 0.  1.
         23    2    1    0    0    0  0.15476970794E+02  0.21336454045E+02  0.79488091405E+01  0.97468845594E+02  0.93499793574E+02 0.  0.
         13    1    3    3    0    0  0.51374730989E+02  0.30758817404E+02  0.75485361340E+01  0.60352791105E+02  0.10566000000E+00 0. -1.
         22    1    1    0    0    0 -0.15476970794E+02 -0.21336454045E+02 -0.79488091405E+01  0.27531154406E+02  0.00000000000E+00 0. -1.
</event>
<event>
 5    1  0.8943334E-005  0.9118800E+02  0.7818608E-02  0.1130116E+00
         25   -1    0    0    0    0  0.00000000000E+00  0.00000000000E+00  0.99999998245E-14  0.12500000000E+03  0.12500000000E+03 0.  0.
        -13    1    3    3    0    0  0.16388284758E+02 -0.28622701527E+02  0.24964062114E+02  0.41364845960E+02  0.10566000000E+00 0.  1.
         23    2    1    0    0    0 -0.19896158854E+01  0.22718176360E+02  0.17178012107E+02  0.96449024388E+02  0.92126305130E+02 0.  0.
         13    1    3    3    0    0 -0.18377900644E+02  0.51340877887E+02 -0.77860500071E+01  0.55084178427E+02  0.10566000000E+00 0. -1.
         22    1    1    0    0    0  0.19896158854E+01 -0.22718176360E+02 -0.17178012107E+02  0.28550975612E+02  0.00000000000E+00 0. -1.
</event>
<event>
 5    1  0.8943334E-005  0.9118800E+02  0.7818608E-02  0.1130116E+00
         25   -1    0    0    0    0  0.00000000000E+00  0.00000000000E+00  0.99999998245E-14  0.12500000000E+03  0.12500000000E+03 0.  0.
        -13    1    3    3    0    0 -0.35710965804E+02  0.31886023633E+02  0.10704621540E+02  0.49057024656E+02  0.10566000000E+00 0. -1.
         23    2    1    0    0    0  0.90462542412E+01  0.28737589258E+02  0.16670359045E+01  0.94826124530E+02  0.89897336627E+02 0.  0.
         13    1    3    3    0    0  0.44757220045E+02 -0.31484343751E+01 -0.90375856358E+01  0.45769099874E+02  0.10566000000E+00 0.  1.
         22    1    1    0    0    0 -0.90462542412E+01 -0.28737589258E+02 -0.16670359045E+01  0.30173875470E+02  0.00000000000E+00 0.  1.
</event>
<event>
 5    1  0.8943334E-005  0.9118800E+02  0.7818608E-02  0.1130116E+00
         25   -1    0    0    0    0  0.00000000000E+00  0.00000000000E+00  0.99999998245E-14  0.12500000000E+03  0.12500000000E+03 0.  0.
        -13    1    3    3    0    0  0.14259527204E+02 -0.27356891420E+02 -0.32228017205E+02  0.44613785776E+02  0.10566000000E+00 0. -1.
         23    2    1    0    0    0  0.62605457204E+01  0.21409772629E+02 -0.18809932087E+02  0.95821474646E+02  0.91270853297E+02 0.  0.
         13    1    3    3    0    0 -0.79989814833E+01  0.48766664048E+02  0.13418085119E+02  0.51207688870E+02  0.10566000000E+00 0.  1.
         22    1    1    0    0    0 -0.62605457204E+01 -0.21409772629E+02  0.18809932087E+02  0.29178525354E+02  0.00000000000E+00 0.  1.
</event>
<event>
 5    1  0.8943334E-005  0.9118800E+02  0.7818608E-02  0.1130116E+00
         25   -1    0    0    0    0  0.00000000000E+00  0.00000000000E+00  0.99999998245E-14  0.12500000000E+03  0.12500000000E+03 0.  0.
        -13    1    3    3    0    0  0.18693639877E+02 -0.52201499794E+02 -0.25717092432E+02  0.61121426356E+02  0.10566000000E+00 0.  1.
         23    2    1    0    0    0  0.56273807770E-01 -0.27021064974E+02 -0.13990200462E+02  0.94571940120E+02  0.89543202031E+02 0.  0.
         13    1    3    3    0    0 -0.18637366069E+02  0.25180434820E+02  0.11726891970E+02  0.33450513763E+02  0.10566000000E+00 0. -1.
         22    1    1    0    0    0 -0.56273807770E-01  0.27021064974E+02  0.13990200462E+02  0.30428059880E+02  0.00000000000E+00 0.  1.
</event>
<event>
 5    1  0.8943334E-005  0.9118800E+02  0.7818608E-02  0.1130116E+00
         25   -1    0    0    0    0  0.00000000000E+00  0.00000000000E+00  0.99999998245E-14  0.12500000000E+03  0.12500000000E+03 0.  0.
        -13    1    3    3    0    0  0.45703554321E+02  0.51039119194E+01 -0.21513195442E+02  0.50770991094E+02  0.10566000000E+00 0.  1.
         23    2    1    0    0    0  0.26248020335E+01 -0.17668743076E+01 -0.29679651413E+02  0.95152166937E+02  0.90349553038E+02 0.  0.
         13    1    3    3    0    0 -0.43078752288E+02 -0.68707862270E+01 -0.81664559712E+01  0.44381175843E+02  0.10566000000E+00 0. -1.
         22    1    1    0    0    0 -0.26248020335E+01  0.17668743076E+01  0.29679651413E+02  0.29847833063E+02  0.00000000000E+00 0. -1.
</event>
<event>
 5    1  0.8943334E-005  0.9118800E+02  0.7818608E-02  0.1130116E+00
         25   -1    0    0    0    0  0.00000000000E+00  0.00000000000E+00  0.99999998245E-14  0.12500000000E+03  0.12500000000E+03 0.  0.
        -13    1    3    3    0    0 -0.67899328875E+01 -0.43977801204E+02 -0.78463855783E+00  0.44505921056E+02  0.10566000000E+00 0.  1.
         23    2    1    0    0    0  0.23417433980E+02 -0.53536217113E+01  0.15776321038E+02  0.96261005844E+02  0.91870841190E+02 0.  0.
         13    1    3    3    0    0  0.30207366867E+02  0.38624179493E+02  0.16560959596E+02  0.51755084787E+02  0.10566000000E+00 0. -1.
         22    1    1    0    0    0 -0.23417433980E+02  0.53536217113E+01 -0.15776321038E+02  0.28738994156E+02  0.00000000000E+00 0. -1.
</event>
<event>
 5    1  0.8943334E-005  0.9118800E+02  0.7818608E-02  0.1130116E+00
         25   -1    0    0    0    0  0.00000000000E+00  0.00000000000E+00  0.99999998245E-14  0.12500000000E+03  0.12500000000E+03 0.  0.
        -13    1    3    3    0    0  0.47660895398E+02 -0.30836659251E+02  0.18085899823E+02  0.59578279938E+02  0.10566000000E+00 0. -1.
         23    2    1    0    0    0  0.25357097687E+02 -0.96288439547E+00  0.46811633133E+01  0.99196456844E+02  0.95781596410E+02 0.  0.
         13    1    3    3    0    0 -0.22303797711E+02  0.29873774855E+02 -0.13404736510E+02  0.39618176906E+02  0.10566000000E+00 0.  1.
         22    1    1    0    0    0 -0.25357097687E+02  0.96288439547E+00 -0.46811633133E+01  0.25803543156E+02  0.00000000000E+00 0. -1.
</event>
<event>
 5    1  0.8943334E-005  0.9118800E+02  0.7818608E-02  0.1130116E+00
         25   -1    0    0    0    0  0.00000000000E+00  0.00000000000E+00  0.99999998245E-14  0.12500000000E+03  0.12500000000E+03 0.  0.
        -13    1    3    3    0    0 -0.19670345289E+02 -0.68119114742E+01 -0.36699572323E+02  0.42192349952E+02  0.10566000000E+00 0. -1.
         23    2    1    0    0    0  0.29941437916E+01  0.26315626485E+02  0.26255336268E+01  0.98384769000E+02  0.94716377940E+02 0.  0.
         13    1    3    3    0    0  0.22664489081E+02  0.33127537959E+02  0.39325105950E+02  0.56192419049E+02  0.10566000000E+00 0.  1.
         22    1    1    0    0    0 -0.29941437916E+01 -0.26315626485E+02 -0.26255336268E+01  0.26615231000E+02  0.00000000000E+00 0.  1.
</event>
<event>
 5    1  0.8943334E-005  0.9118800E+02  0.7818608E-02  0.1130116E+00
         25   -1    0    0    0    0  0.00000000000E+00  0.00000000000E+00  0.99999998245E-14  0.12500000000E+03  0.12500000000E+03 0.  0.
        -13    1    3    3    0    0 -0.55427948319E+02  0.19094231792E+02  0.26521374837E+01  0.58684684031E+02  0.10566000000E+00 0.  1.
         23    2    1    0    0    0 -0.21597895537E+02  0.17905707163E+02  0.12996263853E+02  0.94080971639E+02  0.88855179421E+02 0.  0.
         13    1    3    3    0    0  0.33830052782E+02 -0.11885246290E+01  0.10344126369E+02  0.35396287608E+02  0.10566000000E+00 0. -1.
         22    1    1    0    0    0  0.21597895537E+02 -0.17905707163E+02 -0.12996263853E+02  0.30919028361E+02  0.00000000000E+00 0.  1.
</event>
<event>
 5    1  0.8943334E-005  0.9118800E+02  0.7818608E-02  0.1130116E+00
         25   -1    0    0    0    0  0.00000000000E+00  0.00000000000E+00  0.99999998245E-14  0.12500000000E+03  0.12500000000E+03 0.  0.
        -13    1    3    3    0    0 -0.92410922447E+01 -0.43980392925E+02  0.21882991455E+02  0.49985490162E+02  0.10566000000E+00 0. -1.
         23    2    1    0    0    0 -0.23699275849E+02 -0.94725507161E+01 -0.84119739752E+01  0.98127221971E+02  0.94375873467E+02 0.  0.
         13    1    3    3    0    0 -0.14458183605E+02  0.34507842209E+02 -0.30294965431E+02  0.48141731808E+02  0.10566000000E+00 0.  1.
         22    1    1    0    0    0  0.23699275849E+02  0.94725507161E+01  0.84119739752E+01  0.26872778029E+02  0.00000000000E+00 0. -1.
</event>
<event>
 5    1  0.8943334E-005  0.9118800E+02  0.7818608E-02  0.1130116E+00
         25   -1    0    0    0    0  0.00000000000E+00  0.00000000000E+00  0.99999998245E-14  0.12500000000E+03  0.12500000000E+03 0.  0.
        -13    1    3    3    0    0 -0.96301950847E+01  0.48461227659E+02  0.44090033947E+00  0.49410897591E+02  0.10566000000E+00 0. -1.
         23    2    1    0    0    0 -0.24889830623E+02  0.10510557984E+02  0.16486274076E+02  0.93349206479E+02  0.87819710885E+02 0.  0.
         13    1    3    3    0    0 -0.15259635538E+02 -0.37950669675E+02  0.16045373736E+02  0.43938308888E+02  0.10566000000E+00 0.  1.
         22    1    1    0    0    0  0.24889830623E+02 -0.10510557984E+02 -0.16486274076E+02  0.31650793521E+02  0.00000000000E+00 0.  1.
</event>
<event>
 5    1  0.8943334E-005  0.9118800E+02  0.7818608E-02  0.1130116E+00
         25   -1    0    0    0    0  0.00000000000E+00  0.00000000000E+00  0.99999998245E-14  0.12500000000E+03  0.12500000000E+03 0.  0.
        -13    1    3    3    0    0 -0.40351455940E+02 -0.34594654897E+02 -0.28234298044E+02  0.60184856019E+02  0.10566000000E+00 0.  1.
         23    2    1    0    0    0 -0.11642104251E+02 -0.24839808734E+02 -0.88410899799E+01  0.96177793954E+02  0.91757552759E+02 0.  0.
         13    1    3    3    0    0  0.28709351689E+02  0.97548461628E+01  0.19393208065E+02  0.35992937934E+02  0.10566000000E+00 0. -1.
         22    1    1    0    0    0  0.11642104251E+02  0.24839808734E+02  0.88410899799E+01  0.28822206046E+02  0.00000000000E+00 0.  1.
</event>
<event>
 5    1  0.8943334E-005  0.9118800E+02  0.7818608E-02  0.1130116E+00
         25   -1    0    0    0    0  0.00000000000E+00  0.00000000000E+00  0.99999998245E-14  0.12500000000E+03  0.12500000000E+03 0.  0.
        -13    1    3    3    0    0 -0.20665835223E+01  0.12581793237E+02  0.40489700383E+02  0.42449962187E+02  0.10566000000E+00 0. -1.
         23    2    1    0    0    0  0.26138177294E+02  0.13086977813E+02 -0.43716793299E+01  0.95443530646E+02  0.90751763957E+02 0.  0.
         13    1    3    3    0    0  0.28204760816E+02  0.50518457576E+00 -0.44861379713E+02  0.52993568459E+02  0.10566000000E+00 0.  1.
         22    1    1    0    0    0 -0.26138177294E+02 -0.13086977813E+02  0.43716793299E+01  0.29556469354E+02  0.00000000000E+00 0.  1.
</event>
<event>
 5    1  0.8943334E-005  0.9118800E+02  0.7818608E-02  0.1130116E+00
         25   -1    0    0    0    0  0.00000000000E+00  0.00000000000E+00  0.99999998245E-14  0.12500000000E+03  0.12500000000E+03 0.  0.
        -13    1    3    3    0    0  0.25233251837E+02  0.18885738475E+02  0.22869360196E+02  0.38941069783E+02  0.10566000000E+00 0.  1.
         23    2    1    0    0    0  0.71963684814E+01 -0.40742927875E+01 -0.27018056291E+02  0.96744682858E+02  0.92526594634E+02 0.  0.
         13    1    3    3    0    0 -0.18036883355E+02 -0.22960031262E+02 -0.49887416488E+02  0.57803613075E+02  0.10566000000E+00 0. -1.
         22    1    1    0    0    0 -0.71963684814E+01  0.40742927875E+01  0.27018056291E+02  0.28255317142E+02  0.00000000000E+00 0. -1.
</event>
<event>
 5    1  0.8943334E-005  0.9118800E+02  0.7818608E-02  0.1130116E+00
         25   -1    0    0    0    0  0.00000000000E+00  0.00000000000E+00  0.99999998245E-14  0.12500000000E+03  0.12500000000E+03 0.  0.
        -13    1    3    3    0    0  0.12211116978E+02 -0.21458027092E+02  0.28092910444E+02  0.37400281895E+02  0.10566000000E+00 0. -1.
         23    2    1    0    0    0  0.24488896077E+02  0.98535976794E+01 -0.16961265897E+02  0.93623512639E+02  0.88209286131E+02 0.  0.
         13    1    3    3    0    0  0.12277779099E+02  0.31311624772E+02 -0.45054176342E+02  0.56223230744E+02  0.10566000000E+00 0.  1.
         22    1    1    0    0    0 -0.24488896077E+02 -0.98535976794E+01  0.16961265897E+02  0.31376487361E+02  0.00000000000E+00 0.  1.
</event>
<event>
 5    1  0.8943334E-005  0.9118800E+02  0.7818608E-02  0.1130116E+00
         25   -1    0    0    0    0  0.00000000000E+00  0.00000000000E+00  0.99999998245E-14  0.12500000000E+03  0.12500000000E+03 0.  0.
        -13    1    3    3    0    0  0.43813579037E+02 -0.14524000968E+02 -0.26789070216E+02  0.53368921286E+02  0.10566000000E+00 0.  1.
         23    2    1    0    0    0  0.66162010905E+01 -0.26226086823E+02 -0.71853352871E+01  0.97014096582E+02  0.92889849529E+02 0.  0.
         13    1    3    3    0    0 -0.37197377947E+02 -0.11702085855E+02  0.19603734929E+02  0.43645175296E+02  0.10566000000E+00 0. -1.
         22    1    1    0    0    0 -0.66162010905E+01  0.26226086823E+02  0.71853352871E+01  0.27985903418E+02  0.00000000000E+00 0.  1.
</event>
<event>
 5    1  0.8943334E-005  0.9118800E+02  0.7818608E-02  0.1130116E+00
         25   -1    0    0    0    0  0.00000000000E+00  0.00000000000E+00  0.99999998245E-14  0.12500000000E+03  0.12500000000E+03 0.  0.
        -13    1    3    3    0    0 -0.31914552787E+02  0.80267827544E+01 -0.21846544576E+02  0.39500007531E+02  0.10566000000E+00 0.  1.
         23    2    1    0    0    0  0.56852589724E+01  0.23548178388E+02  0.16729060269E+02  0.95560225333E+02  0.90912355228E+02 0.  0.
         13    1    3    3    0    0  0.37599811759E+02  0.15521395633E+02  0.38575604846E+02  0.56060217802E+02  0.10566000000E+00 0. -1.
         22    1    1    0    0    0 -0.56852589724E+01 -0.23548178388E+02 -0.16729060269E+02  0.29439774667E+02  0.00000000000E+00 0. -1.
</event>
<event>
 5    1  0.8943334E-005  0.9118800E+02  0.7818608E-02  0.1130116E+00
         25   -1    0    0    0    0  0.00000000000E+00  0.00000000000E+00  0.99999998245E-14  0.12500000000E+03  0.12500000000E+03 0.  0.
        -13    1    3    3    0    0 -0.14316492240E+02 -0.62578134059E+01  0.55117181421E+02  0.57289065541E+02  0.10566000000E+00 0.  1.
         23    2    1    0    0    0 -0.23056532037E+02  0.15821023785E+00  0.18618433740E+02  0.95364298979E+02  0.90642565855E+02 0.  0.
         13    1    3    3    0    0 -0.87400397978E+01  0.64160236437E+01 -0.36498747681E+02  0.38075233439E+02  0.10566000000E+00 0. -1.
         22    1    1    0    0    0  0.23056532037E+02 -0.15821023785E+00 -0.18618433740E+02  0.29635701021E+02  0.00000000000E+00 0.  1.
</event>
<event>
 5    1  0.8943334E-005  0.9118800E+02  0.7818608E-02  0.1130116E+00
         25   -1    0    0    0    0  0.00000000000E+00  0.00000000000E+00  0.99999998245E-14  0.12500000000E+03  0.12500000000E+03 0.  0.
        -13    1    3    3    0    0 -0.10496379494E+02 -0.13555184756E+02 -0.38361604926E+02  0.42018340195E+02  0.10566000000E+00 0.  1.
         23    2    1    0    0    0  0.28359516433E+02 -0.44947888139E+01 -0.16459943979E+01  0.96239356816E+02  0.91841380673E+02 0.  0.
         13    1    3    3    0    0  0.38855895927E+02  0.90603959424E+01  0.36715610528E+02  0.54221016621E+02  0.10566000000E+00 0. -1.
         22    1    1    0    0    0 -0.28359516433E+02  0.44947888139E+01  0.16459943979E+01  0.28760643184E+02  0.00000000000E+00 0.  1.
</event>
<event>
 5    1  0.8943334E-005  0.9118800E+02  0.7818608E-02  0.1130116E+00
         25   -1    0    0    0    0  0.00000000000E+00  0.00000000000E+00  0.99999998245E-14  0.12500000000E+03  0.12500000000E+03 0.  0.
        -13    1    3    3    0    0  0.97180279227E+01  0.54337374067E+02  0.15110544354E+02  0.57230498878E+02  0.10566000000E+00 0.  1.
         23    2    1    0    0    0  0.21362098999E+02  0.18094428044E+02  0.65004886784E+01  0.96259715503E+02  0.91869085528E+02 0.  0.
         13    1    3    3    0    0  0.11644071076E+02 -0.36242946022E+02 -0.86100556751E+01  0.39029216625E+02  0.10566000000E+00 0. -1.
         22    1    1    0    0    0 -0.21362098999E+02 -0.18094428044E+02 -0.65004886784E+01  0.28740284497E+02  0.00000000000E+00 0.  1.
</event>
<event>
 5    1  0.8943334E-005  0.9118800E+02  0.7818608E-02  0.1130116E+00
         25   -1    0    0    0    0  0.00000000000E+00  0.00000000000E+00  0.99999998245E-14  0.12500000000E+03  0.12500000000E+03 0.  0.
        -13    1    3    3    0    0 -0.50123694240E+02 -0.11104583630E+02  0.31905225434E+02  0.60445438834E+02  0.10566000000E+00 0.  1.
         23    2    1    0    0    0 -0.22479681853E+02  0.62918969741E+01  0.15327096290E+02  0.97074313895E+02  0.92970847440E+02 0.  0.
         13    1    3    3    0    0  0.27644012387E+02  0.17396480604E+02 -0.16578129144E+02  0.36628875061E+02  0.10566000000E+00 0. -1.
         22    1    1    0    0    0  0.22479681853E+02 -0.62918969741E+01 -0.15327096290E+02  0.27925686105E+02  0.00000000000E+00 0.  1.
</event>
<event>
 5    1  0.8943334E-005  0.9118800E+02  0.7818608E-02  0.1130116E+00
         25   -1    0    0    0    0  0.00000000000E+00  0.00000000000E+00  0.99999998245E-14  0.12500000000E+03  0.12500000000E+03 0.  0.
        -13    1    3    3    0    0 -0.25833768680E+02 -0.23642776669E+02 -0.43820122483E+02  0.56094373972E+02  0.10566000000E+00 0. -1.
         23    2    1    0    0    0 -0.15765087235E+02  0.83263036928E+01 -0.24232088744E+02  0.94915794284E+02  0.90021933832E+02 0.  0.
         13    1    3    3    0    0  0.10068681445E+02  0.31969080362E+02  0.19588033739E+02  0.38821420312E+02  0.10566000000E+00 0.  1.
         22    1    1    0    0    0  0.15765087235E+02 -0.83263036928E+01  0.24232088744E+02  0.30084205716E+02  0.00000000000E+00 0. -1.
</event>
<event>
 5    1  0.8943334E-005  0.9118800E+02  0.7818608E-02  0.1130116E+00
         25   -1    0    0    0    0  0.00000000000E+00  0.00000000000E+00  0.99999998245E-14  0.12500000000E+03  0.12500000000E+03 0.  0.
        -13    1    3    3    0    0  0.10653084517E+02  0.57881023385E+02 -0.12385203927E+02  0.60142377058E+02  0.10566000000E+00 0. -1.
         23    2    1    0    0    0 -0.61807025505E+01  0.27536274449E+02 -0.10478131067E+02  0.94896200818E+02  0.89994723203E+02 0.  0.
         13    1    3    3    0    0 -0.16833787067E+02 -0.30344748936E+02  0.19070728600E+01  0.34753823760E+02  0.10566000000E+00 0.  1.
         22    1    1    0    0    0  0.61807025505E+01 -0.27536274449E+02  0.10478131067E+02  0.30103799182E+02  0.00000000000E+00 0. -1.
</event>
<event>
 5    1  0.8943334E-005  0.9118800E+02  0.7818608E-02  0.1130116E+00
         25   -1    0    0    0    0  0.00000000000E+00  0.00000000000E+00  0.99999998245E-14  0.12500000000E+03  0.12500000000E+03 0.  0.
        -13    1    3    3    0    0 -0.24609903872E+02  0.26904820145E+02 -0.48093884107E+02  0.60353538158E+02  0.10566000000E+00 0.  1.
         23    2    1    0    0    0 -0.20099418676E+02  0.15404955104E+02 -0.15261685699E+02  0.95432816786E+02  0.90737005661E+02 0.  0.
         13    1    3    3    0    0  0.45104851961E+01 -0.11499865042E+02  0.32832198408E+02  0.35079278627E+02  0.10566000000E+00 0. -1.
         22    1    1    0    0    0  0.20099418676E+02 -0.15404955104E+02  0.15261685699E+02  0.29567183214E+02  0.00000000000E+00 0.  1.
</event>
<event>
 5    1  0.8943334E-005  0.9118800E+02  0.7818608E-02  0.1130116E+00
         25   -1    0    0    0    0  0.00000000000E+00  0.00000000000E+00  0.99999998245E-14  0.12500000000E+03  0.12500000000E+03 0.  0.
        -13    1    3    3    0    0  0.22548574016E+01  0.42160460304E+02 -0.31547037606E+02  0.52704985919E+02  0.10566000000E+00 0.  1.
         23    2    1    0    0    0  0.10087401916E+02 -0.78057715138E+00 -0.26486333516E+02  0.96647031174E+02  0.92394576646E+02 0.  0.
         13    1    3    3    0    0  0.78325445145E+01 -0.42941037455E+02  0.50607040897E+01  0.43942045255E+02  0.10566000000E+00 0. -1.
         22    1    1    0    0    0 -0.10087401916E+02  0.78057715138E+00  0.26486333516E+02  0.28352968826E+02  0.00000000000E+00 0.  1.
</event>
<event>
 5    1  0.8943334E-005  0.9118800E+02  0.7818608E-02  0.1130116E+00
         25   -1    0    0    0    0  0.00000000000E+00  0.00000000000E+00  0.99999998245E-14  0.12500000000E+03  0.12500000000E+03 0.  0.
        -13    1    3    3    0    0  0.25448883376E+01 -0.56196451193E+01 -0.48645411111E+02  0.49035130816E+02  0.10566000000E+00 0.  1.
         23    2    1    0    0    0  0.26157167692E+02 -0.52838602732E+01 -0.62058752129E+01  0.97602381706E+02  0.93678148074E+02 0.  0.
         13    1    3    3    0    0  0.23612279354E+02  0.33578484609E+00  0.42439535898E+02  0.48567250890E+02  0.10566000000E+00 0. -1.
         22    1    1    0    0    0 -0.26157167692E+02  0.52838602732E+01  0.62058752129E+01  0.27397618294E+02  0.00000000000E+00 0. -1.
</event>
<event>
 5    1  0.8943334E-005  0.9118800E+02  0.7818608E-02  0.1130116E+00
         25   -1    0    0    0    0  0.00000000000E+00  0.00000000000E+00  0.99999998245E-14  0.12500000000E+03  0.12500000000E+03 0.  0.
        -13    1    3    3    0    0 -0.22173567792E+02 -0.94909352053E+01  0.28014299562E+02  0.36966973148E+02  0.10566000000E+00 0. -1.
         23    2    1    0    0    0  0.17772770985E+02  0.25000682647E+02  0.98039526824E+01  0.92797158363E+02  0.87030394638E+02 0.  0.
         13    1    3    3    0    0  0.39946338777E+02  0.34491617852E+02 -0.18210346880E+02  0.55830185216E+02  0.10566000000E+00 0.  1.
         22    1    1    0    0    0 -0.17772770985E+02 -0.25000682647E+02 -0.98039526824E+01  0.32202841637E+02  0.00000000000E+00 0.  1.
</event>
<event>
 5    1  0.8943334E-005  0.9118800E+02  0.7818608E-02  0.1130116E+00
         25   -1    0    0    0    0  0.00000000000E+00  0.00000000000E+00  0.99999998245E-14  0.12500000000E+03  0.12500000000E+03 0.  0.
        -13    1    3    3    0    0 -0.20907687426E+02  0.23368839784E+02 -0.25124940905E+02  0.40180939336E+02  0.10566000000E+00 0.  1.
         23    2    1    0    0    0  0.81177005927E+01 -0.23075031407E+02 -0.16173076882E+02  0.95675563890E+02  0.91070801975E+02 0.  0.
         13    1    3    3    0    0  0.29025388019E+02 -0.46443871191E+02  0.89518640232E+01  0.55494624554E+02  0.10566000000E+00 0. -1.
         22    1    1    0    0    0 -0.81177005927E+01  0.23075031407E+02  0.16173076882E+02  0.29324436110E+02  0.00000000000E+00 0. -1.
</event>
<event>
 4    1  0.8943334E-005  0.9118800E+02  0.7818608E-02  0.1130116E+00
         25   -1    0    0    0    0  0.00000000000E+00  0.00000000000E+00  0.99999998245E-14  0.12500000000E+03  0.12500000000E+03 0.  0.
        -13    1    1    0    0    0  0.34807186196E+02 -0.12344422427E+02 -0.20404504211E+02  0.42193363602E+02  0.10566000000E+00 0.  1.
         13    1    1    0    0    0  0.81349021481E+01 -0.23148549305E+02  0.58039390377E+01  0.25213663761E+02  0.10566000000E+00 0. -1.
         22    1    1    0    0    0 -0.42942088344E+02  0.35492971732E+02  0.14600565174E+02  0.57592972636E+02  0.00000000000E+00 0. -1.
</event>
<event>
 5    1  0.8943334E-005  0.9118800E+02  0.7818608E-02  0.1130116E+00
         25   -1    0    0    0    0  0.00000000000E+00  0.00000000000E+00  0.99999998245E-14  0.12500000000E+03  0.12500000000E+03 0.  0.
        -13    1    3    3    0    0  0.36241936003E+01 -0.46992225040E+02 -0.34562699686E+02  0.58446517151E+02  0.10566000000E+00 0.  1.
         23    2    1    0    0    0 -0.85639774533E+00 -0.29702768737E+02 -0.24601559340E+01  0.95183221922E+02  0.90392507878E+02 0.  0.
         13    1    3    3    0    0 -0.44805913457E+01  0.17289456303E+02  0.32102543752E+02  0.36736704771E+02  0.10566000000E+00 0. -1.
         22    1    1    0    0    0  0.85639774533E+00  0.29702768737E+02  0.24601559340E+01  0.29816778078E+02  0.00000000000E+00 0.  1.
</event>
<event>
 5    1  0.8943334E-005  0.9118800E+02  0.7818608E-02  0.1130116E+00
         25   -1    0    0    0    0  0.00000000000E+00  0.00000000000E+00  0.99999998245E-14  0.12500000000E+03  0.12500000000E+03 0.  0.
        -13    1    3    3    0    0  0.17709182077E+02  0.52434327608E+02 -0.40667741222E+01  0.55493455987E+02  0.10566000000E+00 0. -1.
         23    2    1    0    0    0  0.49649768591E+01  0.35897769273E+02  0.16839380074E+02  0.85039199767E+02  0.75065304514E+02 0.  0.
         13    1    3    3    0    0 -0.12744205218E+02 -0.16536558335E+02  0.20906154196E+02  0.29545743780E+02  0.10566000000E+00 0.  1.
         22    1    1    0    0    0 -0.49649768591E+01 -0.35897769273E+02 -0.16839380074E+02  0.39960800233E+02  0.00000000000E+00 0. -1.
</event>
<event>
 5    1  0.8943334E-005  0.9118800E+02  0.7818608E-02  0.1130116E+00
         25   -1    0    0    0    0  0.00000000000E+00  0.00000000000E+00  0.99999998245E-14  0.12500000000E+03  0.12500000000E+03 0.  0.
        -13    1    3    3    0    0 -0.24834326852E+02 -0.29516473521E+02  0.39088834205E+02  0.54917339000E+02  0.10566000000E+00 0. -1.
         23    2    1    0    0    0 -0.18712698909E+02  0.67584011296E+01  0.21542904631E+02  0.95675303476E+02  0.91070444541E+02 0.  0.
         13    1    3    3    0    0  0.61216279432E+01  0.36274874650E+02 -0.17545929574E+02  0.40757964476E+02  0.10566000000E+00 0.  1.
         22    1    1    0    0    0  0.18712698909E+02 -0.67584011296E+01 -0.21542904631E+02  0.29324696524E+02  0.00000000000E+00 0. -1.
</event>
<event>
 5    1  0.8943334E-005  0.9118800E+02  0.7818608E-02  0.1130116E+00
         25   -1    0    0    0    0  0.00000000000E+00  0.00000000000E+00  0.99999998245E-14  0.12500000000E+03  0.12500000000E+03 0.  0.
        -13    1    3    3    0    0 -0.43589696865E+01  0.46069728791E+02 -0.17275486499E+02  0.49395081996E+02  0.10566000000E+00 0.  1.
         23    2    1    0    0    0  0.23243631210E+01  0.15844501733E+01 -0.28985057640E+02  0.95878758394E+02  0.91349272567E+02 0.  0.
         13    1    3    3    0    0  0.66833328075E+01 -0.44485278618E+02 -0.11709571141E+02  0.46483676398E+02  0.10566000000E+00 0. -1.
         22    1    1    0    0    0 -0.23243631210E+01 -0.15844501733E+01  0.28985057640E+02  0.29121241606E+02  0.00000000000E+00 0. -1.
</event>
<event>
 5    1  0.8943334E-005  0.9118800E+02  0.7818608E-02  0.1130116E+00
         25   -1    0    0    0    0  0.00000000000E+00  0.00000000000E+00  0.99999998245E-14  0.12500000000E+03  0.12500000000E+03 0.  0.
        -13    1    3    3    0    0 -0.38196293990E+01  0.46144293151E+02 -0.40475340430E+02  0.61499184597E+02  0.10566000000E+00 0.  1.
         23    2    1    0    0    0 -0.41493707026E+01  0.25861499862E+02 -0.12706777717E+02  0.95888204242E+02  0.91362197108E+02 0.  0.
         13    1    3    3    0    0 -0.32974130357E+00 -0.20282793289E+02  0.27768562713E+02  0.34389019645E+02  0.10566000000E+00 0. -1.
         22    1    1    0    0    0  0.41493707026E+01 -0.25861499862E+02  0.12706777717E+02  0.29111795758E+02  0.00000000000E+00 0.  1.
</event>
<event>
 5    1  0.8943334E-005  0.9118800E+02  0.7818608E-02  0.1130116E+00
         25   -1    0    0    0    0  0.00000000000E+00  0.00000000000E+00  0.99999998245E-14  0.12500000000E+03  0.12500000000E+03 0.  0.
        -13    1    3    3    0    0  0.34769057240E+02  0.33118783190E+02 -0.21153172802E+02  0.52471030340E+02  0.10566000000E+00 0.  1.
         23    2    1    0    0    0  0.10217647916E+02  0.40248277001E+02 -0.21912377644E+02  0.78048147805E+02  0.62346106144E+02 0.  0.
         13    1    3    3    0    0 -0.24551409324E+02  0.71294938110E+01 -0.75920484197E+00  0.25577117465E+02  0.10566000000E+00 0. -1.
         22    1    1    0    0    0 -0.10217647916E+02 -0.40248277001E+02  0.21912377644E+02  0.46951852195E+02  0.00000000000E+00 0.  1.
</event>
<event>
 5    1  0.8943334E-005  0.9118800E+02  0.7818608E-02  0.1130116E+00
         25   -1    0    0    0    0  0.00000000000E+00  0.00000000000E+00  0.99999998245E-14  0.12500000000E+03  0.12500000000E+03 0.  0.
        -13    1    3    3    0    0 -0.19100560140E+02  0.72449459689E+01 -0.26990240952E+02  0.33849740183E+02  0.10566000000E+00 0.  1.
         23    2    1    0    0    0  0.38860067979E+01 -0.15673774155E+02  0.25057391297E+02  0.95189916074E+02  0.90401764466E+02 0.  0.
         13    1    3    3    0    0  0.22986566938E+02 -0.22918720124E+02  0.52047632249E+02  0.61340175891E+02  0.10566000000E+00 0. -1.
         22    1    1    0    0    0 -0.38860067979E+01  0.15673774155E+02 -0.25057391297E+02  0.29810083926E+02  0.00000000000E+00 0. -1.
</event>
<event>
 5    1  0.8943334E-005  0.9118800E+02  0.7818608E-02  0.1130116E+00
         25   -1    0    0    0    0  0.00000000000E+00  0.00000000000E+00  0.99999998245E-14  0.12500000000E+03  0.12500000000E+03 0.  0.
        -13    1    3    3    0    0 -0.16186300199E+02  0.55269970854E+02  0.17037671437E+02  0.60058799558E+02  0.10566000000E+00 0.  1.
         23    2    1    0    0    0 -0.11732305362E+02  0.27963835867E+02 -0.34405176029E+01  0.94480166008E+02  0.89414995957E+02 0.  0.
         13    1    3    3    0    0  0.44539948365E+01 -0.27306134987E+02 -0.20478189040E+02  0.34421366450E+02  0.10566000000E+00 0. -1.
         22    1    1    0    0    0  0.11732305362E+02 -0.27963835867E+02  0.34405176029E+01  0.30519833992E+02  0.00000000000E+00 0.  1.
</event>
<event>
 5    1  0.8943334E-005  0.9118800E+02  0.7818608E-02  0.1130116E+00
         25   -1    0    0    0    0  0.00000000000E+00  0.00000000000E+00  0.99999998245E-14  0.12500000000E+03  0.12500000000E+03 0.  0.
        -13    1    3    3    0    0  0.23366996105E+02 -0.40822992418E+02 -0.21956980878E+02  0.51910050956E+02  0.10566000000E+00 0.  1.
         23    2    1    0    0    0  0.23960391601E+02 -0.11278762052E+02  0.11131786468E+02  0.96273226615E+02  0.91887467338E+02 0.  0.
         13    1    3    3    0    0  0.59339549639E+00  0.29544230366E+02  0.33088767346E+02  0.44363175660E+02  0.10566000000E+00 0. -1.
         22    1    1    0    0    0 -0.23960391601E+02  0.11278762052E+02 -0.11131786468E+02  0.28726773385E+02  0.00000000000E+00 0.  1.
</event>
<event>
 5    1  0.8943334E-005  0.9118800E+02  0.7818608E-02  0.1130116E+00
         25   -1    0    0    0    0  0.00000000000E+00  0.00000000000E+00  0.99999998245E-14  0.12500000000E+03  0.12500000000E+03 0.  0.
        -13    1    3    3    0    0  0.23147420738E+02  0.56945731625E+01  0.51846885069E+02  0.57064366339E+02  0.10566000000E+00 0.  1.
         23    2    1    0    0    0  0.41380752025E+00 -0.12648594078E+02  0.26061563947E+02  0.96028232982E+02  0.91553581282E+02 0.  0.
         13    1    3    3    0    0 -0.22733613217E+02 -0.18343167240E+02 -0.25785321122E+02  0.38963866643E+02  0.10566000000E+00 0. -1.
         22    1    1    0    0    0 -0.41380752025E+00  0.12648594078E+02 -0.26061563947E+02  0.28971767018E+02  0.00000000000E+00 0.  1.
</event>
<event>
 5    1  0.8943334E-005  0.9118800E+02  0.7818608E-02  0.1130116E+00
         25   -1    0    0    0    0  0.00000000000E+00  0.00000000000E+00  0.99999998245E-14  0.12500000000E+03  0.12500000000E+03 0.  0.
        -13    1    3    3    0    0  0.29290124344E+02 -0.71367980972E+01 -0.15945890333E+02  0.34104660294E+02  0.10566000000E+00 0. -1.
         23    2    1    0    0    0 -0.14972175892E+02  0.89284788303E+01  0.23644395439E+02  0.95624138807E+02  0.91000190668E+02 0.  0.
         13    1    3    3    0    0 -0.44262300237E+02  0.16065276927E+02  0.39590285772E+02  0.61519478513E+02  0.10566000000E+00 0.  1.
         22    1    1    0    0    0  0.14972175892E+02 -0.89284788303E+01 -0.23644395439E+02  0.29375861193E+02  0.00000000000E+00 0.  1.
</event>
<event>
 5    1  0.8943334E-005  0.9118800E+02  0.7818608E-02  0.1130116E+00
         25   -1    0    0    0    0  0.00000000000E+00  0.00000000000E+00  0.99999998245E-14  0.12500000000E+03  0.12500000000E+03 0.  0.
        -13    1    3    3    0    0  0.24761539858E+02 -0.24232840453E+02 -0.39050027532E+02  0.52204216562E+02  0.10566000000E+00 0.  1.
         23    2    1    0    0    0  0.25302797881E+02 -0.14109930661E+02  0.33835572015E+01  0.95832034984E+02  0.91285315062E+02 0.  0.
         13    1    3    3    0    0  0.54125802280E+00  0.10122909792E+02  0.42433584733E+02  0.43627818422E+02  0.10566000000E+00 0. -1.
         22    1    1    0    0    0 -0.25302797881E+02  0.14109930661E+02 -0.33835572015E+01  0.29167965016E+02  0.00000000000E+00 0.  1.
</event>
<event>
 5    1  0.8943334E-005  0.9118800E+02  0.7818608E-02  0.1130116E+00
         25   -1    0    0    0    0  0.00000000000E+00  0.00000000000E+00  0.99999998245E-14  0.12500000000E+03  0.12500000000E+03 0.  0.
        -13    1    3    3    0    0 -0.34030675378E+02  0.10428120348E+02 -0.33953832315E+02  0.49190511824E+02  0.10566000000E+00 0.  1.
         23    2    1    0    0    0  0.36691446875E+01 -0.15920697489E+02 -0.23533398696E+02  0.96351228901E+02  0.91993517300E+02 0.  0.
         13    1    3    3    0    0  0.37699820065E+02 -0.26348817837E+02  0.10420433619E+02  0.47160717077E+02  0.10566000000E+00 0. -1.
         22    1    1    0    0    0 -0.36691446875E+01  0.15920697489E+02  0.23533398696E+02  0.28648771099E+02  0.00000000000E+00 0. -1.
</event>
<event>
 5    1  0.8943334E-005  0.9118800E+02  0.7818608E-02  0.1130116E+00
         25   -1    0    0    0    0  0.00000000000E+00  0.00000000000E+00  0.99999998245E-14  0.12500000000E+03  0.12500000000E+03 0.  0.
        -13    1    3    3    0    0 -0.40384419749E+02  0.23445296035E+02  0.26178045630E+02  0.53533956529E+02  0.10566000000E+00 0.  1.
         23    2    1    0    0    0 -0.88839588972E+01 -0.10624896944E+01  0.30062810925E+02  0.93633995939E+02  0.88224140601E+02 0.  0.
         13    1    3    3    0    0  0.31500460852E+02 -0.24507785730E+02  0.38847652949E+01  0.40100039410E+02  0.10566000000E+00 0. -1.
         22    1    1    0    0    0  0.88839588972E+01  0.10624896944E+01 -0.30062810925E+02  0.31366004061E+02  0.00000000000E+00 0. -1.
</event>
<event>
 5    1  0.8943334E-005  0.9118800E+02  0.7818608E-02  0.1130116E+00
         25   -1    0    0    0    0  0.00000000000E+00  0.00000000000E+00  0.99999998245E-14  0.12500000000E+03  0.12500000000E+03 0.  0.
        -13    1    3    3    0    0  0.36717141849E+02  0.25307724348E+02  0.11153613565E+02  0.45967854821E+02  0.10566000000E+00 0.  1.
         23    2    1    0    0    0  0.38423211365E+01 -0.20995105720E+02  0.49279037680E+01  0.10309470084E+03  0.10074063336E+03 0.  0.
         13    1    3    3    0    0 -0.32874820713E+02 -0.46302830068E+02 -0.62257097970E+01  0.57126846016E+02  0.10566000000E+00 0. -1.
         22    1    1    0    0    0 -0.38423211365E+01  0.20995105720E+02 -0.49279037680E+01  0.21905299163E+02  0.00000000000E+00 0. -1.
</event>
<event>
 5    1  0.8943334E-005  0.9118800E+02  0.7818608E-02  0.1130116E+00
         25   -1    0    0    0    0  0.00000000000E+00  0.00000000000E+00  0.99999998245E-14  0.12500000000E+03  0.12500000000E+03 0.  0.
        -13    1    3    3    0    0  0.17895762289E+02 -0.28280745270E+02  0.10759318835E+02  0.35154416035E+02  0.10566000000E+00 0.  1.
         23    2    1    0    0    0 -0.92375097731E+01  0.26500822184E+02  0.31559831601E+01  0.96758445635E+02  0.92545185768E+02 0.  0.
         13    1    3    3    0    0 -0.27133272062E+02  0.54781567454E+02 -0.76033356754E+01  0.61604029600E+02  0.10566000000E+00 0. -1.
         22    1    1    0    0    0  0.92375097731E+01 -0.26500822184E+02 -0.31559831601E+01  0.28241554365E+02  0.00000000000E+00 0. -1.
</event>
<event>
 5    1  0.8943334E-005  0.9118800E+02  0.7818608E-02  0.1130116E+00
         25   -1    0    0    0    0  0.00000000000E+00  0.00000000000E+00  0.99999998245E-14  0.12500000000E+03  0.12500000000E+03 0.  0.
        -13    1    3    3    0    0 -0.49796921139E+02 -0.23202226152E+02 -0.27562607558E+02  0.61463689710E+02  0.10566000000E+00 0.  1.
         23    2    1    0    0    0 -0.19857881185E+02 -0.18047371601E+02 -0.11849165576E+02  0.95666643701E+02  0.91058557672E+02 0.  0.
         13    1    3    3    0    0  0.29939039954E+02  0.51548545508E+01  0.15713441981E+02  0.34202953991E+02  0.10566000000E+00 0. -1.
         22    1    1    0    0    0  0.19857881185E+02  0.18047371601E+02  0.11849165576E+02  0.29333356299E+02  0.00000000000E+00 0.  1.
</event>
<event>
 5    1  0.8943334E-005  0.9118800E+02  0.7818608E-02  0.1130116E+00
         25   -1    0    0    0    0  0.00000000000E+00  0.00000000000E+00  0.99999998245E-14  0.12500000000E+03  0.12500000000E+03 0.  0.
        -13    1    3    3    0    0 -0.13704836203E+02  0.71333437698E+01  0.50638838963E+02  0.52943463281E+02  0.10566000000E+00 0.  1.
         23    2    1    0    0    0 -0.17626912815E+02 -0.17900020676E+02  0.18867788065E+02  0.93581657872E+02  0.88149954442E+02 0.  0.
         13    1    3    3    0    0 -0.39220766127E+01 -0.25033364446E+02 -0.31771050898E+02  0.40638194591E+02  0.10566000000E+00 0. -1.
         22    1    1    0    0    0  0.17626912815E+02  0.17900020676E+02 -0.18867788065E+02  0.31418342128E+02  0.00000000000E+00 0.  1.
</event>
<event>
 5    1  0.8943334E-005  0.9118800E+02  0.7818608E-02  0.1130116E+00
         25   -1    0    0    0    0  0.00000000000E+00  0.00000000000E+00  0.99999998245E-14  0.12500000000E+03  0.12500000000E+03 0.  0.
        -13    1    3    3    0    0  0.30784816446E+02  0.11537306900E+02 -0.11219731297E+02  0.34737701544E+02  0.10566000000E+00 0. -1.
         23    2    1    0    0    0 -0.10975240525E+02 -0.29094576558E+02 -0.10324418043E+01  0.93887040871E+02  0.88581940698E+02 0.  0.
         13    1    3    3    0    0 -0.41760056971E+02 -0.40631883458E+02  0.10187289493E+02  0.59149339327E+02  0.10566000000E+00 0.  1.
         22    1    1    0    0    0  0.10975240525E+02  0.29094576558E+02  0.10324418043E+01  0.31112959129E+02  0.00000000000E+00 0.  1.
</event>
<event>
 5    1  0.8943334E-005  0.9118800E+02  0.7818608E-02  0.1130116E+00
         25   -1    0    0    0    0  0.00000000000E+00  0.00000000000E+00  0.99999998245E-14  0.12500000000E+03  0.12500000000E+03 0.  0.
        -13    1    3    3    0    0 -0.37921564111E+02  0.66143352941E+01 -0.33436069875E+02  0.50988002400E+02  0.10566000000E+00 0. -1.
         23    2    1    0    0    0 -0.43025734127E+01  0.26472444983E+02 -0.11076557705E+02  0.95982891048E+02  0.91491654057E+02 0.  0.
         13    1    3    3    0    0  0.33618990698E+02  0.19858109689E+02  0.22359512170E+02  0.44994888648E+02  0.10566000000E+00 0.  1.
         22    1    1    0    0    0  0.43025734127E+01 -0.26472444983E+02  0.11076557705E+02  0.29017108952E+02  0.00000000000E+00 0. -1.
</event>
<event>
 5    1  0.8943334E-005  0.9118800E+02  0.7818608E-02  0.1130116E+00
         25   -1    0    0    0    0  0.00000000000E+00  0.00000000000E+00  0.99999998245E-14  0.12500000000E+03  0.12500000000E+03 0.  0.
        -13    1    3    3    0    0 -0.25235781978E+02  0.25523459236E+02  0.48312065238E+02  0.60186032225E+02  0.10566000000E+00 0.  1.
         23    2    1    0    0    0 -0.19528063103E+02  0.15878186786E+02  0.14178954522E+02  0.96112203000E+02  0.91668155594E+02 0.  0.
         13    1    3    3    0    0  0.57077188744E+01 -0.96452724505E+01 -0.34133110716E+02  0.35926170775E+02  0.10566000000E+00 0. -1.
         22    1    1    0    0    0  0.19528063103E+02 -0.15878186786E+02 -0.14178954522E+02  0.28887797000E+02  0.00000000000E+00 0.  1.
</event>
<event>
 5    1  0.8943334E-005  0.9118800E+02  0.7818608E-02  0.1130116E+00
         25   -1    0    0    0    0  0.00000000000E+00  0.00000000000E+00  0.99999998245E-14  0.12500000000E+03  0.12500000000E+03 0.  0.
        -13    1    3    3    0    0 -0.23278501591E+01  0.58776074421E+02 -0.79245513489E+01  0.59353647646E+02  0.10566000000E+00 0.  1.
         23    2    1    0    0    0 -0.14241334057E+02  0.23745198790E+02  0.52093017041E+00  0.97306653696E+02  0.93282706993E+02 0.  0.
         13    1    3    3    0    0 -0.11913483897E+02 -0.35030875632E+02  0.84454815193E+01  0.37953006050E+02  0.10566000000E+00 0. -1.
         22    1    1    0    0    0  0.14241334057E+02 -0.23745198790E+02 -0.52093017041E+00  0.27693346304E+02  0.00000000000E+00 0.  1.
</event>
<event>
 5    1  0.8943334E-005  0.9118800E+02  0.7818608E-02  0.1130116E+00
         25   -1    0    0    0    0  0.00000000000E+00  0.00000000000E+00  0.99999998245E-14  0.12500000000E+03  0.12500000000E+03 0.  0.
        -13    1    3    3    0    0  0.19674557268E+01  0.44205127232E+02  0.35389555139E+02  0.56660355917E+02  0.10566000000E+00 0.  1.
         23    2    1    0    0    0 -0.68892729806E+00  0.32114856252E+01  0.25991972632E+02  0.98801318697E+02  0.95264524741E+02 0.  0.
         13    1    3    3    0    0 -0.26563830248E+01 -0.40993641607E+02 -0.93975825076E+01  0.42140962780E+02  0.10566000000E+00 0. -1.
         22    1    1    0    0    0  0.68892729806E+00 -0.32114856252E+01 -0.25991972632E+02  0.26198681303E+02  0.00000000000E+00 0.  1.
</event>
<event>
 5    1  0.8943334E-005  0.9118800E+02  0.7818608E-02  0.1130116E+00
         25   -1    0    0    0    0  0.00000000000E+00  0.00000000000E+00  0.99999998245E-14  0.12500000000E+03  0.12500000000E+03 0.  0.
        -13    1    3    3    0    0  0.52977258358E+02 -0.20490198394E+01 -0.17500274205E+02  0.55830629110E+02  0.10566000000E+00 0.  1.
         23    2    1    0    0    0  0.24107190943E+02  0.45964577370E+01  0.12037560189E+02  0.97665279695E+02  0.93762038820E+02 0.  0.
         13    1    3    3    0    0 -0.28870067416E+02  0.66454775764E+01  0.29537834395E+02  0.41834650585E+02  0.10566000000E+00 0. -1.
         22    1    1    0    0    0 -0.24107190943E+02 -0.45964577370E+01 -0.12037560189E+02  0.27334720305E+02  0.00000000000E+00 0. -1.
</event>
<event>
 5    1  0.8943334E-005  0.9118800E+02  0.7818608E-02  0.1130116E+00
         25   -1    0    0    0    0  0.00000000000E+00  0.00000000000E+00  0.99999998245E-14  0.12500000000E+03  0.12500000000E+03 0.  0.
        -13    1    3    3    0    0  0.40010221341E+02  0.38720115280E+02  0.88585972822E+01  0.56378640006E+02  0.10566000000E+00 0.  1.
         23    2    1    0    0    0  0.25182399958E+01  0.28285056063E+02  0.87140021665E+01  0.95296132189E+02  0.90548512121E+02 0.  0.
         13    1    3    3    0    0 -0.37491981345E+02 -0.10435059217E+02 -0.14459511573E+00  0.38917492183E+02  0.10566000000E+00 0. -1.
         22    1    1    0    0    0 -0.25182399958E+01 -0.28285056063E+02 -0.87140021665E+01  0.29703867811E+02  0.00000000000E+00 0.  1.
</event>
<event>
 5    1  0.8943334E-005  0.9118800E+02  0.7818608E-02  0.1130116E+00
         25   -1    0    0    0    0  0.00000000000E+00  0.00000000000E+00  0.99999998245E-14  0.12500000000E+03  0.12500000000E+03 0.  0.
        -13    1    3    3    0    0  0.13053059278E+02  0.30712743901E+02  0.16317450371E+02  0.37147346407E+02  0.10566000000E+00 0. -1.
         23    2    1    0    0    0  0.15248494125E+02 -0.25163423324E+02 -0.60356972131E+00  0.95570784195E+02  0.90926871984E+02 0.  0.
         13    1    3    3    0    0  0.21954348477E+01 -0.55876167226E+02 -0.16921020092E+02  0.58423437788E+02  0.10566000000E+00 0.  1.
         22    1    1    0    0    0 -0.15248494125E+02  0.25163423324E+02  0.60356972131E+00  0.29429215805E+02  0.00000000000E+00 0.  1.
</event>
<event>
 5    1  0.8943334E-005  0.9118800E+02  0.7818608E-02  0.1130116E+00
         25   -1    0    0    0    0  0.00000000000E+00  0.00000000000E+00  0.99999998245E-14  0.12500000000E+03  0.12500000000E+03 0.  0.
        -13    1    3    3    0    0  0.45022324594E+02  0.23386189365E+02 -0.29528623136E+02  0.58701569939E+02  0.10566000000E+00 0.  1.
         23    2    1    0    0    0  0.18149062589E+02  0.24539438457E+02 -0.72471808787E+01  0.93629725163E+02  0.88218089362E+02 0.  0.
         13    1    3    3    0    0 -0.26873262005E+02  0.11532490921E+01  0.22281442257E+02  0.34928155224E+02  0.10566000000E+00 0. -1.
         22    1    1    0    0    0 -0.18149062589E+02 -0.24539438457E+02  0.72471808787E+01  0.31370274837E+02  0.00000000000E+00 0.  1.
</event>
<event>
 5    1  0.8943334E-005  0.9118800E+02  0.7818608E-02  0.1130116E+00
         25   -1    0    0    0    0  0.00000000000E+00  0.00000000000E+00  0.99999998245E-14  0.12500000000E+03  0.12500000000E+03 0.  0.
        -13    1    3    3    0    0  0.16728360915E+02 -0.42412159513E+02  0.30645074424E+02  0.54934152255E+02  0.10566000000E+00 0. -1.
         23    2    1    0    0    0  0.23891682134E+02 -0.58193856370E+01  0.18762820694E+02  0.94069090464E+02  0.88838463606E+02 0.  0.
         13    1    3    3    0    0  0.71633212188E+01  0.36592773876E+02 -0.11882253730E+02  0.39134938209E+02  0.10566000000E+00 0.  1.
         22    1    1    0    0    0 -0.23891682134E+02  0.58193856370E+01 -0.18762820694E+02  0.30930909536E+02  0.00000000000E+00 0. -1.
</event>
<event>
 5    1  0.8943334E-005  0.9118800E+02  0.7818608E-02  0.1130116E+00
         25   -1    0    0    0    0  0.00000000000E+00  0.00000000000E+00  0.99999998245E-14  0.12500000000E+03  0.12500000000E+03 0.  0.
        -13    1    3    3    0    0 -0.37958244067E+02  0.14714099497E+02  0.44598897112E+02  0.60385476767E+02  0.10566000000E+00 0.  1.
         23    2    1    0    0    0 -0.36462616301E+02  0.13081454690E+02  0.27827159589E+02  0.77303064511E+02  0.60833922508E+02 0.  0.
         13    1    3    3    0    0  0.14956277667E+01 -0.16326448069E+01 -0.16771737524E+02  0.16917587744E+02  0.10566000000E+00 0. -1.
         22    1    1    0    0    0  0.36462616301E+02 -0.13081454690E+02 -0.27827159589E+02  0.47696935489E+02  0.00000000000E+00 0.  1.
</event>
<event>
 5    1  0.8943334E-005  0.9118800E+02  0.7818608E-02  0.1130116E+00
         25   -1    0    0    0    0  0.00000000000E+00  0.00000000000E+00  0.99999998245E-14  0.12500000000E+03  0.12500000000E+03 0.  0.
        -13    1    3    3    0    0  0.46001398986E+02  0.25723887141E+01  0.19123538162E+02  0.49884534359E+02  0.10566000000E+00 0.  1.
         23    2    1    0    0    0  0.72291787241E+01  0.25985041930E+02  0.10853452257E+02  0.95926285841E+02  0.91414284771E+02 0.  0.
         13    1    3    3    0    0 -0.38772220262E+02  0.23412653216E+02 -0.82700859050E+01  0.46041751482E+02  0.10566000000E+00 0. -1.
         22    1    1    0    0    0 -0.72291787241E+01 -0.25985041930E+02 -0.10853452257E+02  0.29073714159E+02  0.00000000000E+00 0.  1.
</event>
<event>
 5    1  0.8943334E-005  0.9118800E+02  0.7818608E-02  0.1130116E+00
         25   -1    0    0    0    0  0.00000000000E+00  0.00000000000E+00  0.99999998245E-14  0.12500000000E+03  0.12500000000E+03 0.  0.
        -13    1    3    3    0    0 -0.27457920839E+02 -0.22531387827E+02 -0.23769030943E+01  0.35598619167E+02  0.10566000000E+00 0.  1.
         23    2    1    0    0    0  0.24679273593E+02 -0.59866282025E+01  0.17894651632E+02  0.93933541892E+02  0.88647535065E+02 0.  0.
         13    1    3    3    0    0  0.52137194432E+02  0.16544759625E+02  0.20271554727E+02  0.58334922725E+02  0.10566000000E+00 0. -1.
         22    1    1    0    0    0 -0.24679273593E+02  0.59866282025E+01 -0.17894651632E+02  0.31066458108E+02  0.00000000000E+00 0. -1.
</event>
<event>
 5    1  0.8943334E-005  0.9118800E+02  0.7818608E-02  0.1130116E+00
         25   -1    0    0    0    0  0.00000000000E+00  0.00000000000E+00  0.99999998245E-14  0.12500000000E+03  0.12500000000E+03 0.  0.
        -13    1    3    3    0    0 -0.19602773413E+02 -0.12088020891E+02 -0.29584558345E+02  0.37491948883E+02  0.10566000000E+00 0. -1.
         23    2    1    0    0    0 -0.31534486132E+01 -0.22368797309E+02  0.22527387373E+02  0.93097170767E+02  0.87460234917E+02 0.  0.
         13    1    3    3    0    0  0.16449324800E+02 -0.10280776418E+02  0.52111945719E+02  0.55605221884E+02  0.10566000000E+00 0.  1.
         22    1    1    0    0    0  0.31534486132E+01  0.22368797309E+02 -0.22527387373E+02  0.31902829233E+02  0.00000000000E+00 0.  1.
</event>
<event>
 5    1  0.8943334E-005  0.9118800E+02  0.7818608E-02  0.1130116E+00
         25   -1    0    0    0    0  0.00000000000E+00  0.00000000000E+00  0.99999998245E-14  0.12500000000E+03  0.12500000000E+03 0.  0.
        -13    1    3    3    0    0  0.27219313221E+02 -0.10808548716E+02  0.19583788975E+02  0.35231402075E+02  0.10566000000E+00 0. -1.
         23    2    1    0    0    0 -0.23365682226E+02  0.99257341185E+01 -0.10379343232E+02  0.97573624563E+02  0.93639767945E+02 0.  0.
         13    1    3    3    0    0 -0.50584995447E+02  0.20734282834E+02 -0.29963132207E+02  0.62342222488E+02  0.10566000000E+00 0.  1.
         22    1    1    0    0    0  0.23365682226E+02 -0.99257341185E+01  0.10379343232E+02  0.27426375437E+02  0.00000000000E+00 0.  1.
</event>
<event>
 5    1  0.8943334E-005  0.9118800E+02  0.7818608E-02  0.1130116E+00
         25   -1    0    0    0    0  0.00000000000E+00  0.00000000000E+00  0.99999998245E-14  0.12500000000E+03  0.12500000000E+03 0.  0.
        -13    1    3    3    0    0  0.32747657993E+02 -0.31047922440E+02 -0.11633095748E+02  0.46601745381E+02  0.10566000000E+00 0. -1.
         23    2    1    0    0    0 -0.12614601243E+02 -0.14200949892E+02 -0.21839289205E+02  0.96056093986E+02  0.91591612588E+02 0.  0.
         13    1    3    3    0    0 -0.45362259236E+02  0.16846972549E+02 -0.10206193457E+02  0.49454348605E+02  0.10566000000E+00 0.  1.
         22    1    1    0    0    0  0.12614601243E+02  0.14200949892E+02  0.21839289205E+02  0.28943906014E+02  0.00000000000E+00 0.  1.
</event>
<event>
 5    1  0.8943334E-005  0.9118800E+02  0.7818608E-02  0.1130116E+00
         25   -1    0    0    0    0  0.00000000000E+00  0.00000000000E+00  0.99999998245E-14  0.12500000000E+03  0.12500000000E+03 0.  0.
        -13    1    3    3    0    0 -0.16615607070E+02  0.12455804915E+02  0.56829951956E+02  0.60505207030E+02  0.10566000000E+00 0. -1.
         23    2    1    0    0    0 -0.17930402008E+02  0.20469304106E+01  0.23994337608E+02  0.94976384670E+02  0.90106027365E+02 0.  0.
         13    1    3    3    0    0 -0.13147949379E+01 -0.10408874505E+02 -0.32835614349E+02  0.34471177640E+02  0.10566000000E+00 0.  1.
         22    1    1    0    0    0  0.17930402008E+02 -0.20469304106E+01 -0.23994337608E+02  0.30023615330E+02  0.00000000000E+00 0. -1.
</event>
<event>
 5    1  0.8943334E-005  0.9118800E+02  0.7818608E-02  0.1130116E+00
         25   -1    0    0    0    0  0.00000000000E+00  0.00000000000E+00  0.99999998245E-14  0.12500000000E+03  0.12500000000E+03 0.  0.
        -13    1    3    3    0    0  0.22506108442E+02  0.50066507606E+02  0.17037649165E+02  0.57475844962E+02  0.10566000000E+00 0.  1.
         23    2    1    0    0    0  0.22719390311E+02  0.24618407397E+02 -0.49855939121E+01  0.91131241158E+02  0.84603843231E+02 0.  0.
         13    1    3    3    0    0  0.21328186921E+00 -0.25448100209E+02 -0.22023243077E+02  0.33655396195E+02  0.10566000000E+00 0. -1.
         22    1    1    0    0    0 -0.22719390311E+02 -0.24618407397E+02  0.49855939121E+01  0.33868758842E+02  0.00000000000E+00 0.  1.
</event>
<event>
 5    1  0.8943334E-005  0.9118800E+02  0.7818608E-02  0.1130116E+00
         25   -1    0    0    0    0  0.00000000000E+00  0.00000000000E+00  0.99999998245E-14  0.12500000000E+03  0.12500000000E+03 0.  0.
        -13    1    3    3    0    0  0.49815806431E+02  0.80144576671E+00  0.25932599757E-02  0.49822365022E+02  0.10566000000E+00 0.  1.
         23    2    1    0    0    0  0.77998420006E+01  0.24444403322E+02 -0.66577062735E+01  0.98491672217E+02  0.94857356353E+02 0.  0.
         13    1    3    3    0    0 -0.42015964430E+02  0.23642957555E+02 -0.66602995335E+01  0.48669307195E+02  0.10566000000E+00 0. -1.
         22    1    1    0    0    0 -0.77998420006E+01 -0.24444403322E+02  0.66577062735E+01  0.26508327783E+02  0.00000000000E+00 0. -1.
</event>
<event>
 5    1  0.8943334E-005  0.9118800E+02  0.7818608E-02  0.1130116E+00
         25   -1    0    0    0    0  0.00000000000E+00  0.00000000000E+00  0.99999998245E-14  0.12500000000E+03  0.12500000000E+03 0.  0.
        -13    1    3    3    0    0 -0.28307703303E+02  0.10293868468E+02  0.45658728867E+02  0.54699364531E+02  0.10566000000E+00 0. -1.
         23    2    1    0    0    0 -0.76653135024E+01 -0.16734924445E+02  0.22889454527E+02  0.95627532350E+02  0.91004852000E+02 0.  0.
         13    1    3    3    0    0  0.20642389801E+02 -0.27028792913E+02 -0.22769274340E+02  0.40928167819E+02  0.10566000000E+00 0.  1.
         22    1    1    0    0    0  0.76653135024E+01  0.16734924445E+02 -0.22889454527E+02  0.29372467650E+02  0.00000000000E+00 0.  1.
</event>
<event>
 5    1  0.8943334E-005  0.9118800E+02  0.7818608E-02  0.1130116E+00
         25   -1    0    0    0    0  0.00000000000E+00  0.00000000000E+00  0.99999998245E-14  0.12500000000E+03  0.12500000000E+03 0.  0.
        -13    1    3    3    0    0  0.30402807947E+02 -0.10074528576E+02 -0.69513826904E+01  0.32774376309E+02  0.10566000000E+00 0. -1.
         23    2    1    0    0    0 -0.24768140927E+02  0.15115806752E+02  0.73072022913E+01  0.95077706905E+02  0.90246477639E+02 0.  0.
         13    1    3    3    0    0 -0.55170948874E+02  0.25190335329E+02  0.14258584982E+02  0.62303330596E+02  0.10566000000E+00 0.  1.
         22    1    1    0    0    0  0.24768140927E+02 -0.15115806752E+02 -0.73072022913E+01  0.29922293095E+02  0.00000000000E+00 0.  1.
</event>
<event>
 5    1  0.8943334E-005  0.9118800E+02  0.7818608E-02  0.1130116E+00
         25   -1    0    0    0    0  0.00000000000E+00  0.00000000000E+00  0.99999998245E-14  0.12500000000E+03  0.12500000000E+03 0.  0.
        -13    1    3    3    0    0  0.20287437042E+02 -0.27269711482E+02  0.37625055350E+02  0.50703779151E+02  0.10566000000E+00 0.  1.
         23    2    1    0    0    0 -0.12342714290E+02 -0.26951853548E+02  0.92510529493E+01  0.93946385292E+02  0.88665643420E+02 0.  0.
         13    1    3    3    0    0 -0.32630151332E+02  0.31785793415E+00 -0.28374002401E+02  0.43242606141E+02  0.10566000000E+00 0. -1.
         22    1    1    0    0    0  0.12342714290E+02  0.26951853548E+02 -0.92510529493E+01  0.31053614708E+02  0.00000000000E+00 0. -1.
</event>
<event>
 5    1  0.8943334E-005  0.9118800E+02  0.7818608E-02  0.1130116E+00
         25   -1    0    0    0    0  0.00000000000E+00  0.00000000000E+00  0.99999998245E-14  0.12500000000E+03  0.12500000000E+03 0.  0.
        -13    1    3    3    0    0 -0.32163393229E+02 -0.27618646190E+02  0.23425453813E+02  0.48435901269E+02  0.10566000000E+00 0.  1.
         23    2    1    0    0    0 -0.26279383512E+02  0.70769459112E+00 -0.13581871861E+02  0.95409899077E+02  0.90705428554E+02 0.  0.
         13    1    3    3    0    0  0.58840097172E+01  0.28326340781E+02 -0.37007325674E+02  0.46973997807E+02  0.10566000000E+00 0. -1.
         22    1    1    0    0    0  0.26279383512E+02 -0.70769459112E+00  0.13581871861E+02  0.29590100923E+02  0.00000000000E+00 0.  1.
</event>
<event>
 5    1  0.8943334E-005  0.9118800E+02  0.7818608E-02  0.1130116E+00
         25   -1    0    0    0    0  0.00000000000E+00  0.00000000000E+00  0.99999998245E-14  0.12500000000E+03  0.12500000000E+03 0.  0.
        -13    1    3    3    0    0  0.81745775718E+01 -0.42539199959E+02  0.35575969510E+02  0.56054152587E+02  0.10566000000E+00 0. -1.
         23    2    1    0    0    0  0.11154237374E+02 -0.22332267072E+02 -0.31524130233E+01  0.99838822130E+02  0.96616279852E+02 0.  0.
         13    1    3    3    0    0  0.29796598023E+01  0.20206932888E+02 -0.38728382533E+02  0.43784669542E+02  0.10566000000E+00 0.  1.
         22    1    1    0    0    0 -0.11154237374E+02  0.22332267072E+02  0.31524130233E+01  0.25161177870E+02  0.00000000000E+00 0. -1.
</event>
<event>
 5    1  0.8943334E-005  0.9118800E+02  0.7818608E-02  0.1130116E+00
         25   -1    0    0    0    0  0.00000000000E+00  0.00000000000E+00  0.99999998245E-14  0.12500000000E+03  0.12500000000E+03 0.  0.
        -13    1    3    3    0    0 -0.46268828393E+02 -0.32383637641E+02  0.27195967500E+01  0.56541240155E+02  0.10566000000E+00 0. -1.
         23    2    1    0    0    0 -0.28524242799E+02  0.10826125475E+01 -0.69203413477E+01  0.95628319736E+02  0.91005933510E+02 0.  0.
         13    1    3    3    0    0  0.17744585595E+02  0.33466250189E+02 -0.96399380976E+01  0.39087079581E+02  0.10566000000E+00 0.  1.
         22    1    1    0    0    0  0.28524242799E+02 -0.10826125475E+01  0.69203413477E+01  0.29371680264E+02  0.00000000000E+00 0. -1.
</event>
<event>
 5    1  0.8943334E-005  0.9118800E+02  0.7818608E-02  0.1130116E+00
         25   -1    0    0    0    0  0.00000000000E+00  0.00000000000E+00  0.99999998245E-14  0.12500000000E+03  0.12500000000E+03 0.  0.
        -13    1    3    3    0    0 -0.20627647023E+02  0.15080921678E+02  0.56905370964E+02  0.62379214718E+02  0.10566000000E+00 0.  1.
         23    2    1    0    0    0 -0.12026386527E+02  0.54945870805E+01  0.27205080603E+02  0.94752010468E+02  0.89794223740E+02 0.  0.
         13    1    3    3    0    0  0.86012604956E+01 -0.95863345974E+01 -0.29700290360E+02  0.32372795750E+02  0.10566000000E+00 0. -1.
         22    1    1    0    0    0  0.12026386527E+02 -0.54945870805E+01 -0.27205080603E+02  0.30247989532E+02  0.00000000000E+00 0.  1.
</event>
<event>
 5    1  0.8943334E-005  0.9118800E+02  0.7818608E-02  0.1130116E+00
         25   -1    0    0    0    0  0.00000000000E+00  0.00000000000E+00  0.99999998245E-14  0.12500000000E+03  0.12500000000E+03 0.  0.
        -13    1    3    3    0    0  0.33582237111E+02 -0.12922932425E+02 -0.49206670834E+02  0.60959629678E+02  0.10566000000E+00 0.  1.
         23    2    1    0    0    0  0.24058876184E+02 -0.46073902523E+01 -0.18085604405E+02  0.94550917011E+02  0.89513849502E+02 0.  0.
         13    1    3    3    0    0 -0.95233609269E+01  0.83155421730E+01  0.31121066429E+02  0.33591287333E+02  0.10566000000E+00 0. -1.
         22    1    1    0    0    0 -0.24058876184E+02  0.46073902523E+01  0.18085604405E+02  0.30449082989E+02  0.00000000000E+00 0.  1.
</event>
<event>
 5    1  0.8943334E-005  0.9118800E+02  0.7818608E-02  0.1130116E+00
         25   -1    0    0    0    0  0.00000000000E+00  0.00000000000E+00  0.99999998245E-14  0.12500000000E+03  0.12500000000E+03 0.  0.
        -13    1    3    3    0    0 -0.11904010840E+02  0.56265105475E+02  0.63976668493E+01  0.57865437641E+02  0.10566000000E+00 0.  1.
         23    2    1    0    0    0  0.41880943304E+01  0.33874904210E+02 -0.93380296758E+01  0.89612882745E+02  0.82329950117E+02 0.  0.
         13    1    3    3    0    0  0.16092105170E+02 -0.22390201265E+02 -0.15735696525E+02  0.31747445104E+02  0.10566000000E+00 0. -1.
         22    1    1    0    0    0 -0.41880943304E+01 -0.33874904210E+02  0.93380296758E+01  0.35387117255E+02  0.00000000000E+00 0.  1.
</event>
<event>
 5    1  0.8943334E-005  0.9118800E+02  0.7818608E-02  0.1130116E+00
         25   -1    0    0    0    0  0.00000000000E+00  0.00000000000E+00  0.99999998245E-14  0.12500000000E+03  0.12500000000E+03 0.  0.
        -13    1    3    3    0    0 -0.29099699906E+02 -0.23198109256E+02 -0.11220229291E+02  0.38869647760E+02  0.10566000000E+00 0.  1.
         23    2    1    0    0    0 -0.64468913615E+01  0.27949270028E+02  0.16461324320E+01  0.96269635308E+02  0.91882581740E+02 0.  0.
         13    1    3    3    0    0  0.22652808544E+02  0.51147379284E+02  0.12866361723E+02  0.57399987548E+02  0.10566000000E+00 0. -1.
         22    1    1    0    0    0  0.64468913615E+01 -0.27949270028E+02 -0.16461324320E+01  0.28730364692E+02  0.00000000000E+00 0. -1.
</event>
<event>
 5    1  0.8943334E-005  0.9118800E+02  0.7818608E-02  0.1130116E+00
         25   -1    0    0    0    0  0.00000000000E+00  0.00000000000E+00  0.99999998245E-14  0.12500000000E+03  0.12500000000E+03 0.  0.
        -13    1    3    3    0    0  0.24792715135E+00 -0.37523531429E+01 -0.48566920666E+02  0.48712406726E+02  0.10566000000E+00 0.  1.
         23    2    1    0    0    0 -0.20177130509E+01 -0.26779156392E+02 -0.55204838251E+01  0.97583396916E+02  0.93652812179E+02 0.  0.
         13    1    3    3    0    0 -0.22656402023E+01 -0.23026803249E+02  0.43046436841E+02  0.48870990190E+02  0.10566000000E+00 0. -1.
         22    1    1    0    0    0  0.20177130509E+01  0.26779156392E+02  0.55204838251E+01  0.27416603084E+02  0.00000000000E+00 0. -1.
</event>
<event>
 5    1  0.8943334E-005  0.9118800E+02  0.7818608E-02  0.1130116E+00
         25   -1    0    0    0    0  0.00000000000E+00  0.00000000000E+00  0.99999998245E-14  0.12500000000E+03  0.12500000000E+03 0.  0.
        -13    1    3    3    0    0  0.23291044964E+02  0.55680093320E+01 -0.54820624601E+02  0.59822968408E+02  0.10566000000E+00 0.  1.
         23    2    1    0    0    0  0.16284301713E+02  0.13286904523E+02 -0.20700297253E+02  0.95500464064E+02  0.90830149267E+02 0.  0.
         13    1    3    3    0    0 -0.70067432512E+01  0.77188951910E+01  0.34120327347E+02  0.35677495656E+02  0.10566000000E+00 0. -1.
         22    1    1    0    0    0 -0.16284301713E+02 -0.13286904523E+02  0.20700297253E+02  0.29499535936E+02  0.00000000000E+00 0.  1.
</event>
<event>
 5    1  0.8943334E-005  0.9118800E+02  0.7818608E-02  0.1130116E+00
         25   -1    0    0    0    0  0.00000000000E+00  0.00000000000E+00  0.99999998245E-14  0.12500000000E+03  0.12500000000E+03 0.  0.
        -13    1    3    3    0    0  0.12429163282E+02 -0.19698534017E+02  0.23426478483E+02  0.33035244822E+02  0.10566000000E+00 0.  1.
         23    2    1    0    0    0 -0.12877263730E+02  0.19480257160E+02 -0.18077163628E+02  0.95468860756E+02  0.90786646535E+02 0.  0.
         13    1    3    3    0    0 -0.25306427012E+02  0.39178791177E+02 -0.41503642111E+02  0.62433615935E+02  0.10566000000E+00 0. -1.
         22    1    1    0    0    0  0.12877263730E+02 -0.19480257160E+02  0.18077163628E+02  0.29531139244E+02  0.00000000000E+00 0. -1.
</event>
<event>
 5    1  0.8943334E-005  0.9118800E+02  0.7818608E-02  0.1130116E+00
         25   -1    0    0    0    0  0.00000000000E+00  0.00000000000E+00  0.99999998245E-14  0.12500000000E+03  0.12500000000E+03 0.  0.
        -13    1    3    3    0    0  0.24315386183E+02 -0.25204750364E+02  0.41471505260E+02  0.54280883916E+02  0.10566000000E+00 0. -1.
         23    2    1    0    0    0 -0.65125390138E+01 -0.25543907511E+02  0.17126897143E+02  0.93563795060E+02  0.88124620651E+02 0.  0.
         13    1    3    3    0    0 -0.30827925197E+02 -0.33915714650E+00 -0.24344608117E+02  0.39282911144E+02  0.10566000000E+00 0.  1.
         22    1    1    0    0    0  0.65125390138E+01  0.25543907511E+02 -0.17126897143E+02  0.31436204940E+02  0.00000000000E+00 0. -1.
</event>
<event>
 5    1  0.8943334E-005  0.9118800E+02  0.7818608E-02  0.1130116E+00
         25   -1    0    0    0    0  0.00000000000E+00  0.00000000000E+00  0.99999998245E-14  0.12500000000E+03  0.12500000000E+03 0.  0.
        -13    1    3    3    0    0 -0.22199045475E+02 -0.20559364145E+02 -0.17326267629E+02  0.34866829337E+02  0.10566000000E+00 0. -1.
         23    2    1    0    0    0 -0.16100801513E+00  0.21494249964E+02  0.20290620366E+02  0.95440940814E+02  0.90748196696E+02 0.  0.
         13    1    3    3    0    0  0.22038037460E+02  0.42053614109E+02  0.37616887995E+02  0.60574111477E+02  0.10566000000E+00 0.  1.
         22    1    1    0    0    0  0.16100801513E+00 -0.21494249964E+02 -0.20290620366E+02  0.29559059186E+02  0.00000000000E+00 0.  1.
</event>
<event>
 5    1  0.8943334E-005  0.9118800E+02  0.7818608E-02  0.1130116E+00
         25   -1    0    0    0    0  0.00000000000E+00  0.00000000000E+00  0.99999998245E-14  0.12500000000E+03  0.12500000000E+03 0.  0.
        -13    1    3    3    0    0 -0.55227473175E+02 -0.50708907827E+01 -0.97714059473E+01  0.56314112484E+02  0.10566000000E+00 0.  1.
         23    2    1    0    0    0 -0.22197156232E+02  0.17133907442E+02 -0.18254342568E+01  0.96899880085E+02  0.92736023320E+02 0.  0.
         13    1    3    3    0    0  0.33030316944E+02  0.22204798225E+02  0.79459716906E+01  0.40585767601E+02  0.10566000000E+00 0. -1.
         22    1    1    0    0    0  0.22197156232E+02 -0.17133907442E+02  0.18254342568E+01  0.28100119915E+02  0.00000000000E+00 0.  1.
</event>
<event>
 5    1  0.8943334E-005  0.9118800E+02  0.7818608E-02  0.1130116E+00
         25   -1    0    0    0    0  0.00000000000E+00  0.00000000000E+00  0.99999998245E-14  0.12500000000E+03  0.12500000000E+03 0.  0.
        -13    1    3    3    0    0 -0.16007329547E+02 -0.94077502502E+01  0.34878792699E+02  0.39513057439E+02  0.10566000000E+00 0. -1.
         23    2    1    0    0    0 -0.50359517050E+01  0.27882495560E+02 -0.61237095356E+01  0.96012171749E+02  0.91531649921E+02 0.  0.
         13    1    3    3    0    0  0.10971377842E+02  0.37290245810E+02 -0.41002502235E+02  0.56499114310E+02  0.10566000000E+00 0.  1.
         22    1    1    0    0    0  0.50359517050E+01 -0.27882495560E+02  0.61237095356E+01  0.28987828251E+02  0.00000000000E+00 0.  1.
</event>
<event>
 5    1  0.8943334E-005  0.9118800E+02  0.7818608E-02  0.1130116E+00
         25   -1    0    0    0    0  0.00000000000E+00  0.00000000000E+00  0.99999998245E-14  0.12500000000E+03  0.12500000000E+03 0.  0.
        -13    1    3    3    0    0  0.19756018873E+02 -0.85368800078E+01 -0.53043083491E+02  0.57242977493E+02  0.10566000000E+00 0.  1.
         23    2    1    0    0    0  0.23440990202E+02  0.45730238252E+00 -0.13537383532E+02  0.97926952517E+02  0.94110244550E+02 0.  0.
         13    1    3    3    0    0  0.36849713285E+01  0.89941823903E+01  0.39505699958E+02  0.40683975024E+02  0.10566000000E+00 0. -1.
         22    1    1    0    0    0 -0.23440990202E+02 -0.45730238252E+00  0.13537383532E+02  0.27073047483E+02  0.00000000000E+00 0.  1.
</event>
<event>
 5    1  0.8943334E-005  0.9118800E+02  0.7818608E-02  0.1130116E+00
         25   -1    0    0    0    0  0.00000000000E+00  0.00000000000E+00  0.99999998245E-14  0.12500000000E+03  0.12500000000E+03 0.  0.
        -13    1    3    3    0    0 -0.39051585995E+02  0.13114477036E+02 -0.93246655232E+01  0.42237145119E+02  0.10566000000E+00 0. -1.
         23    2    1    0    0    0  0.13736182165E+02  0.18436212346E+02 -0.17746255108E+02  0.95956821860E+02  0.91456030228E+02 0.  0.
         13    1    3    3    0    0  0.52787768160E+02  0.53217353097E+01 -0.84215895848E+01  0.53719676741E+02  0.10566000000E+00 0.  1.
         22    1    1    0    0    0 -0.13736182165E+02 -0.18436212346E+02  0.17746255108E+02  0.29043178140E+02  0.00000000000E+00 0.  1.
</event>
<event>
 5    1  0.8943334E-005  0.9118800E+02  0.7818608E-02  0.1130116E+00
         25   -1    0    0    0    0  0.00000000000E+00  0.00000000000E+00  0.99999998245E-14  0.12500000000E+03  0.12500000000E+03 0.  0.
        -13    1    3    3    0    0  0.58392711262E+01  0.17260055278E+02  0.49602671940E+02  0.52843569364E+02  0.10566000000E+00 0. -1.
         23    2    1    0    0    0  0.22187225671E+02 -0.64227129404E+01  0.17062451448E+02  0.96283254469E+02  0.91901107813E+02 0.  0.
         13    1    3    3    0    0  0.16347954544E+02 -0.23682768219E+02 -0.32540220493E+02  0.43439685105E+02  0.10566000000E+00 0.  1.
         22    1    1    0    0    0 -0.22187225671E+02  0.64227129404E+01 -0.17062451448E+02  0.28716745531E+02  0.00000000000E+00 0. -1.
</event>
<event>
 5    1  0.8943334E-005  0.9118800E+02  0.7818608E-02  0.1130116E+00
         25   -1    0    0    0    0  0.00000000000E+00  0.00000000000E+00  0.99999998245E-14  0.12500000000E+03  0.12500000000E+03 0.  0.
        -13    1    3    3    0    0  0.31706236554E+02 -0.30250480289E+02  0.42689410199E+02  0.61178214270E+02  0.10566000000E+00 0.  1.
         23    2    1    0    0    0  0.14573733023E+02 -0.18721183881E+02  0.11374647885E+02  0.98689184075E+02  0.95117275080E+02 0.  0.
         13    1    3    3    0    0 -0.17132503531E+02  0.11529296407E+02 -0.31314762314E+02  0.37510969805E+02  0.10566000000E+00 0. -1.
         22    1    1    0    0    0 -0.14573733023E+02  0.18721183881E+02 -0.11374647885E+02  0.26310815925E+02  0.00000000000E+00 0.  1.
</event>
<event>
 5    1  0.8943334E-005  0.9118800E+02  0.7818608E-02  0.1130116E+00
         25   -1    0    0    0    0  0.00000000000E+00  0.00000000000E+00  0.99999998245E-14  0.12500000000E+03  0.12500000000E+03 0.  0.
        -13    1    3    3    0    0 -0.16616126290E+02  0.44907811840E+02 -0.37853777499E+02  0.61038732393E+02  0.10566000000E+00 0. -1.
         23    2    1    0    0    0 -0.16014711193E+02  0.16015682101E+02 -0.17246144120E+02  0.96532430122E+02  0.92239403351E+02 0.  0.
         13    1    3    3    0    0  0.60141509662E+00 -0.28892129739E+02  0.20607633379E+02  0.35493697729E+02  0.10566000000E+00 0.  1.
         22    1    1    0    0    0  0.16014711193E+02 -0.16015682101E+02  0.17246144120E+02  0.28467569878E+02  0.00000000000E+00 0. -1.
</event>
<event>
 5    1  0.8943334E-005  0.9118800E+02  0.7818608E-02  0.1130116E+00
         25   -1    0    0    0    0  0.00000000000E+00  0.00000000000E+00  0.99999998245E-14  0.12500000000E+03  0.12500000000E+03 0.  0.
        -13    1    3    3    0    0 -0.24962342730E+02 -0.73337238443E+01  0.25208161715E+02  0.36226573687E+02  0.10566000000E+00 0. -1.
         23    2    1    0    0    0  0.17798866880E+02 -0.17545776815E+02 -0.15039322502E+02  0.95830921037E+02  0.91283789685E+02 0.  0.
         13    1    3    3    0    0  0.42761209610E+02 -0.10212052971E+02 -0.40247484217E+02  0.59604347350E+02  0.10566000000E+00 0.  1.
         22    1    1    0    0    0 -0.17798866880E+02  0.17545776815E+02  0.15039322502E+02  0.29169078963E+02  0.00000000000E+00 0.  1.
</event>
<event>
 5    1  0.8943334E-005  0.9118800E+02  0.7818608E-02  0.1130116E+00
         25   -1    0    0    0    0  0.00000000000E+00  0.00000000000E+00  0.99999998245E-14  0.12500000000E+03  0.12500000000E+03 0.  0.
        -13    1    3    3    0    0  0.49373150281E+02  0.33755511193E+02 -0.24831148645E+01  0.59860834675E+02  0.10566000000E+00 0. -1.
         23    2    1    0    0    0  0.27536894626E+02  0.48667763667E+01 -0.64843825437E+01  0.96294368239E+02  0.91916223049E+02 0.  0.
         13    1    3    3    0    0 -0.21836255655E+02 -0.28888734826E+02 -0.40012676793E+01  0.36433533564E+02  0.10566000000E+00 0.  1.
         22    1    1    0    0    0 -0.27536894626E+02 -0.48667763667E+01  0.64843825437E+01  0.28705631761E+02  0.00000000000E+00 0. -1.
</event>
<event>
 5    1  0.8943334E-005  0.9118800E+02  0.7818608E-02  0.1130116E+00
         25   -1    0    0    0    0  0.00000000000E+00  0.00000000000E+00  0.99999998245E-14  0.12500000000E+03  0.12500000000E+03 0.  0.
        -13    1    3    3    0    0 -0.27258203761E+02 -0.27398958622E+02  0.39458571094E+02  0.55233165786E+02  0.10566000000E+00 0.  1.
         23    2    1    0    0    0 -0.18870982261E+02 -0.22743427299E+02  0.40863067982E+00  0.95444214849E+02  0.90752706364E+02 0.  0.
         13    1    3    3    0    0  0.83872214998E+01  0.46555313225E+01 -0.39049940415E+02  0.40211049064E+02  0.10566000000E+00 0. -1.
         22    1    1    0    0    0  0.18870982261E+02  0.22743427299E+02 -0.40863067982E+00  0.29555785151E+02  0.00000000000E+00 0. -1.
</event>
<event>
 5    1  0.8943334E-005  0.9118800E+02  0.7818608E-02  0.1130116E+00
         25   -1    0    0    0    0  0.00000000000E+00  0.00000000000E+00  0.99999998245E-14  0.12500000000E+03  0.12500000000E+03 0.  0.
        -13    1    3    3    0    0  0.17326837297E+02  0.23874312478E+02 -0.53197316676E+02  0.60829004205E+02  0.10566000000E+00 0. -1.
         23    2    1    0    0    0 -0.20792624332E+00  0.78240941902E+01 -0.29821748288E+02  0.94168257360E+02  0.88977886804E+02 0.  0.
         13    1    3    3    0    0 -0.17534763541E+02 -0.16050218288E+02  0.23375568387E+02  0.33339253156E+02  0.10566000000E+00 0.  1.
         22    1    1    0    0    0  0.20792624332E+00 -0.78240941902E+01  0.29821748288E+02  0.30831742640E+02  0.00000000000E+00 0. -1.
</event>
<event>
 5    1  0.8943334E-005  0.9118800E+02  0.7818608E-02  0.1130116E+00
         25   -1    0    0    0    0  0.00000000000E+00  0.00000000000E+00  0.99999998245E-14  0.12500000000E+03  0.12500000000E+03 0.  0.
        -13    1    3    3    0    0  0.39246718679E+02  0.32221882081E+02  0.33775062442E+02  0.60986233027E+02  0.10566000000E+00 0. -1.
         23    2    1    0    0    0  0.16159383895E+02  0.22108669173E+02  0.94078117903E+01  0.96044415683E+02  0.91575673193E+02 0.  0.
         13    1    3    3    0    0 -0.23087334784E+02 -0.10113212908E+02 -0.24367250652E+02  0.35058182656E+02  0.10566000000E+00 0.  1.
         22    1    1    0    0    0 -0.16159383895E+02 -0.22108669173E+02 -0.94078117903E+01  0.28955584317E+02  0.00000000000E+00 0. -1.
</event>
<event>
 5    1  0.8943334E-005  0.9118800E+02  0.7818608E-02  0.1130116E+00
         25   -1    0    0    0    0  0.00000000000E+00  0.00000000000E+00  0.99999998245E-14  0.12500000000E+03  0.12500000000E+03 0.  0.
        -13    1    3    3    0    0  0.94957352061E+01 -0.27713886094E+02  0.54383139039E+02  0.61771882320E+02  0.10566000000E+00 0.  1.
         23    2    1    0    0    0  0.31008565069E+01 -0.18488335781E+02  0.21728227428E+02  0.96302443689E+02  0.91927204473E+02 0.  0.
         13    1    3    3    0    0 -0.63948786992E+01  0.92255503125E+01 -0.32654911611E+02  0.34530561370E+02  0.10566000000E+00 0. -1.
         22    1    1    0    0    0 -0.31008565069E+01  0.18488335781E+02 -0.21728227428E+02  0.28697556311E+02  0.00000000000E+00 0.  1.
</event>
<event>
 5    1  0.8943334E-005  0.9118800E+02  0.7818608E-02  0.1130116E+00
         25   -1    0    0    0    0  0.00000000000E+00  0.00000000000E+00  0.99999998245E-14  0.12500000000E+03  0.12500000000E+03 0.  0.
        -13    1    3    3    0    0  0.10668177611E+02 -0.16094526594E+02 -0.45081852928E+02  0.49043128237E+02  0.10566000000E+00 0.  1.
         23    2    1    0    0    0  0.13363157879E+01 -0.29197153911E+02 -0.12367095348E+01  0.95746128686E+02  0.91167604835E+02 0.  0.
         13    1    3    3    0    0 -0.93318618231E+01 -0.13102627318E+02  0.43845143393E+02  0.46703000449E+02  0.10566000000E+00 0. -1.
         22    1    1    0    0    0 -0.13363157879E+01  0.29197153911E+02  0.12367095348E+01  0.29253871314E+02  0.00000000000E+00 0. -1.
</event>
<event>
 5    1  0.8943334E-005  0.9118800E+02  0.7818608E-02  0.1130116E+00
         25   -1    0    0    0    0  0.00000000000E+00  0.00000000000E+00  0.99999998245E-14  0.12500000000E+03  0.12500000000E+03 0.  0.
        -13    1    3    3    0    0 -0.11516796116E+02 -0.35315798855E+02  0.14688594341E+02  0.39945064893E+02  0.10566000000E+00 0.  1.
         23    2    1    0    0    0  0.16183763098E+02 -0.52518625811E+01 -0.23566809657E+02  0.95932995236E+02  0.91423458745E+02 0.  0.
         13    1    3    3    0    0  0.27700559214E+02  0.30063936274E+02 -0.38255403997E+02  0.55987930343E+02  0.10566000000E+00 0. -1.
         22    1    1    0    0    0 -0.16183763098E+02  0.52518625811E+01  0.23566809657E+02  0.29067004764E+02  0.00000000000E+00 0. -1.
</event>
<event>
 5    1  0.8943334E-005  0.9118800E+02  0.7818608E-02  0.1130116E+00
         25   -1    0    0    0    0  0.00000000000E+00  0.00000000000E+00  0.99999998245E-14  0.12500000000E+03  0.12500000000E+03 0.  0.
        -13    1    3    3    0    0  0.32533239782E+02  0.13213731789E+01 -0.29876048709E+02  0.44189898940E+02  0.10566000000E+00 0. -1.
         23    2    1    0    0    0 -0.16269894174E+02 -0.13718083695E+02 -0.19147523878E+02  0.96372688786E+02  0.92022672187E+02 0.  0.
         13    1    3    3    0    0 -0.48803133957E+02 -0.15039456874E+02  0.10728524831E+02  0.52182789846E+02  0.10566000000E+00 0.  1.
         22    1    1    0    0    0  0.16269894174E+02  0.13718083695E+02  0.19147523878E+02  0.28627311214E+02  0.00000000000E+00 0.  1.
</event>
<event>
 5    1  0.8943334E-005  0.9118800E+02  0.7818608E-02  0.1130116E+00
         25   -1    0    0    0    0  0.00000000000E+00  0.00000000000E+00  0.99999998245E-14  0.12500000000E+03  0.12500000000E+03 0.  0.
        -13    1    3    3    0    0  0.44213569684E+02  0.32679920679E+01  0.65696467292E+01  0.44818421866E+02  0.10566000000E+00 0. -1.
         23    2    1    0    0    0  0.35323280083E+01 -0.27820780420E+02 -0.26078140581E+01  0.96834882238E+02  0.92648370518E+02 0.  0.
         13    1    3    3    0    0 -0.40681241676E+02 -0.31088772488E+02 -0.91774607873E+01  0.52016460372E+02  0.10566000000E+00 0.  1.
         22    1    1    0    0    0 -0.35323280083E+01  0.27820780420E+02  0.26078140581E+01  0.28165117762E+02  0.00000000000E+00 0. -1.
</event>
<event>
 5    1  0.8943334E-005  0.9118800E+02  0.7818608E-02  0.1130116E+00
         25   -1    0    0    0    0  0.00000000000E+00  0.00000000000E+00  0.99999998245E-14  0.12500000000E+03  0.12500000000E+03 0.  0.
        -13    1    3    3    0    0  0.50243682721E+01 -0.60564652645E+02 -0.14152372121E+02  0.62398896042E+02  0.10566000000E+00 0. -1.
         23    2    1    0    0    0  0.11593897890E+00 -0.28882589805E+02 -0.56136402107E+01  0.95576703242E+02  0.90935008718E+02 0.  0.
         13    1    3    3    0    0 -0.49084292932E+01  0.31682062840E+02  0.85387319100E+01  0.33177807200E+02  0.10566000000E+00 0.  1.
         22    1    1    0    0    0 -0.11593897890E+00  0.28882589805E+02  0.56136402107E+01  0.29423296758E+02  0.00000000000E+00 0. -1.
</event>
<event>
 5    1  0.8943334E-005  0.9118800E+02  0.7818608E-02  0.1130116E+00
         25   -1    0    0    0    0  0.00000000000E+00  0.00000000000E+00  0.99999998245E-14  0.12500000000E+03  0.12500000000E+03 0.  0.
        -13    1    3    3    0    0 -0.30929548993E+02 -0.34863387190E+02 -0.63604956984E+01  0.47037855360E+02  0.10566000000E+00 0. -1.
         23    2    1    0    0    0 -0.18694450371E+02  0.87279416883E+01 -0.21905694629E+02  0.94908158947E+02  0.90011331157E+02 0.  0.
         13    1    3    3    0    0  0.12235098623E+02  0.43591328878E+02 -0.15545198931E+02  0.47870303587E+02  0.10566000000E+00 0.  1.
         22    1    1    0    0    0  0.18694450371E+02 -0.87279416883E+01  0.21905694629E+02  0.30091841053E+02  0.00000000000E+00 0. -1.
</event>
<event>
 5    1  0.8943334E-005  0.9118800E+02  0.7818608E-02  0.1130116E+00
         25   -1    0    0    0    0  0.00000000000E+00  0.00000000000E+00  0.99999998245E-14  0.12500000000E+03  0.12500000000E+03 0.  0.
        -13    1    3    3    0    0 -0.67856222709E+01 -0.24532167243E+02  0.29129120698E+02  0.38683184149E+02  0.10566000000E+00 0. -1.
         23    2    1    0    0    0 -0.17075865847E+02  0.24041647224E+02  0.15727732576E+01  0.95469344549E+02  0.90787312644E+02 0.  0.
         13    1    3    3    0    0 -0.10290243577E+02  0.48573814466E+02 -0.27556347440E+02  0.56786160400E+02  0.10566000000E+00 0.  1.
         22    1    1    0    0    0  0.17075865847E+02 -0.24041647224E+02 -0.15727732576E+01  0.29530655451E+02  0.00000000000E+00 0.  1.
</event>
<event>
 5    1  0.8943334E-005  0.9118800E+02  0.7818608E-02  0.1130116E+00
         25   -1    0    0    0    0  0.00000000000E+00  0.00000000000E+00  0.99999998245E-14  0.12500000000E+03  0.12500000000E+03 0.  0.
        -13    1    3    3    0    0 -0.49579241573E+02  0.17487320634E+01 -0.38655758090E+01  0.49760557665E+02  0.10566000000E+00 0. -1.
         23    2    1    0    0    0 -0.15313829372E+02 -0.16289151256E+02  0.19793755875E+02  0.95139615034E+02  0.90332185618E+02 0.  0.
         13    1    3    3    0    0  0.34265412201E+02 -0.18037883319E+02  0.23659331684E+02  0.45379057369E+02  0.10566000000E+00 0.  1.
         22    1    1    0    0    0  0.15313829372E+02  0.16289151256E+02 -0.19793755875E+02  0.29860384966E+02  0.00000000000E+00 0. -1.
</event>
<event>
 5    1  0.8943334E-005  0.9118800E+02  0.7818608E-02  0.1130116E+00
         25   -1    0    0    0    0  0.00000000000E+00  0.00000000000E+00  0.99999998245E-14  0.12500000000E+03  0.12500000000E+03 0.  0.
        -13    1    3    3    0    0 -0.29734325043E+02  0.26945470030E+02 -0.21292000527E+02  0.45426301758E+02  0.10566000000E+00 0.  1.
         23    2    1    0    0    0 -0.70546059455E+01 -0.10834351551E+02  0.16888421803E+02  0.10373102190E+03  0.10152711694E+03 0.  0.
         13    1    3    3    0    0  0.22679719097E+02 -0.37779821581E+02  0.38180422330E+02  0.58304720138E+02  0.10566000000E+00 0. -1.
         22    1    1    0    0    0  0.70546059455E+01  0.10834351551E+02 -0.16888421803E+02  0.21268978104E+02  0.00000000000E+00 0. -1.
</event>
<event>
 5    1  0.8943334E-005  0.9118800E+02  0.7818608E-02  0.1130116E+00
         25   -1    0    0    0    0  0.00000000000E+00  0.00000000000E+00  0.99999998245E-14  0.12500000000E+03  0.12500000000E+03 0.  0.
        -13    1    3    3    0    0 -0.14120154451E+02 -0.26869562785E+02 -0.32288697070E+02  0.44316174119E+02  0.10566000000E+00 0. -1.
         23    2    1    0    0    0 -0.48933984900E+01  0.21621729496E+02 -0.19903106155E+02  0.95207749837E+02  0.90426420139E+02 0.  0.
         13    1    3    3    0    0  0.92267559609E+01  0.48491292281E+02  0.12385590916E+02  0.50891575718E+02  0.10566000000E+00 0.  1.
         22    1    1    0    0    0  0.48933984900E+01 -0.21621729496E+02  0.19903106155E+02  0.29792250163E+02  0.00000000000E+00 0.  1.
</event>
<event>
 5    1  0.8943334E-005  0.9118800E+02  0.7818608E-02  0.1130116E+00
         25   -1    0    0    0    0  0.00000000000E+00  0.00000000000E+00  0.99999998245E-14  0.12500000000E+03  0.12500000000E+03 0.  0.
        -13    1    3    3    0    0 -0.29320092540E+02 -0.13977594981E+02  0.23163073957E+02  0.39894613010E+02  0.10566000000E+00 0. -1.
         23    2    1    0    0    0 -0.21705208720E+02  0.36052676454E+01 -0.24980544493E+02  0.91711238480E+02  0.85456477929E+02 0.  0.
         13    1    3    3    0    0  0.76148838204E+01  0.17582862627E+02 -0.48143618449E+02  0.51816625471E+02  0.10566000000E+00 0.  1.
         22    1    1    0    0    0  0.21705208720E+02 -0.36052676454E+01  0.24980544493E+02  0.33288761520E+02  0.00000000000E+00 0. -1.
</event>
<event>
 5    1  0.8943334E-005  0.9118800E+02  0.7818608E-02  0.1130116E+00
         25   -1    0    0    0    0  0.00000000000E+00  0.00000000000E+00  0.99999998245E-14  0.12500000000E+03  0.12500000000E+03 0.  0.
        -13    1    3    3    0    0 -0.40098031458E+02 -0.74061596707E+01  0.85045950805E+01  0.41653842913E+02  0.10566000000E+00 0. -1.
         23    2    1    0    0    0  0.13776939686E+02 -0.22978957802E+02  0.15701946733E+01  0.98161555930E+02  0.94421337539E+02 0.  0.
         13    1    3    3    0    0  0.53874971144E+02 -0.15572798131E+02 -0.69344004072E+01  0.56507713018E+02  0.10566000000E+00 0.  1.
         22    1    1    0    0    0 -0.13776939686E+02  0.22978957802E+02 -0.15701946733E+01  0.26838444070E+02  0.00000000000E+00 0.  1.
</event>
<event>
 5    1  0.8943334E-005  0.9118800E+02  0.7818608E-02  0.1130116E+00
         25   -1    0    0    0    0  0.00000000000E+00  0.00000000000E+00  0.99999998245E-14  0.12500000000E+03  0.12500000000E+03 0.  0.
        -13    1    3    3    0    0  0.25516406639E+02  0.83694283710E+01 -0.27477045950E+02  0.38420483562E+02  0.10566000000E+00 0.  1.
         23    2    1    0    0    0  0.13525298779E+02 -0.47852921579E+01  0.26286004462E+02  0.95053601908E+02  0.90213083735E+02 0.  0.
         13    1    3    3    0    0 -0.11991107859E+02 -0.13154720529E+02  0.53763050412E+02  0.56633118345E+02  0.10566000000E+00 0. -1.
         22    1    1    0    0    0 -0.13525298779E+02  0.47852921579E+01 -0.26286004462E+02  0.29946398092E+02  0.00000000000E+00 0. -1.
</event>
<event>
 5    1  0.8943334E-005  0.9118800E+02  0.7818608E-02  0.1130116E+00
         25   -1    0    0    0    0  0.00000000000E+00  0.00000000000E+00  0.99999998245E-14  0.12500000000E+03  0.12500000000E+03 0.  0.
        -13    1    3    3    0    0 -0.58456309606E+02 -0.11994792281E+00  0.14108249784E+02  0.60134918277E+02  0.10566000000E+00 0.  1.
         23    2    1    0    0    0 -0.27190872153E+02 -0.97628181431E+01 -0.81884791464E+00  0.96097981758E+02  0.91648761255E+02 0.  0.
         13    1    3    3    0    0  0.31265437453E+02 -0.96428702203E+01 -0.14927097699E+02  0.35963063481E+02  0.10566000000E+00 0. -1.
         22    1    1    0    0    0  0.27190872153E+02  0.97628181431E+01  0.81884791464E+00  0.28902018242E+02  0.00000000000E+00 0.  1.
</event>
<event>
 5    1  0.8943334E-005  0.9118800E+02  0.7818608E-02  0.1130116E+00
         25   -1    0    0    0    0  0.00000000000E+00  0.00000000000E+00  0.99999998245E-14  0.12500000000E+03  0.12500000000E+03 0.  0.
        -13    1    3    3    0    0  0.52394665070E+01 -0.42642982552E+02 -0.21856830528E+02  0.48203819091E+02  0.10566000000E+00 0.  1.
         23    2    1    0    0    0  0.13312461512E+02 -0.11809294944E+01 -0.30839458362E+02  0.91389162194E+02  0.84984060556E+02 0.  0.
         13    1    3    3    0    0  0.80729950046E+01  0.41462053058E+02 -0.89826278332E+01  0.43185343103E+02  0.10566000000E+00 0. -1.
         22    1    1    0    0    0 -0.13312461512E+02  0.11809294944E+01  0.30839458362E+02  0.33610837806E+02  0.00000000000E+00 0.  1.
</event>
<event>
 5    1  0.8943334E-005  0.9118800E+02  0.7818608E-02  0.1130116E+00
         25   -1    0    0    0    0  0.00000000000E+00  0.00000000000E+00  0.99999998245E-14  0.12500000000E+03  0.12500000000E+03 0.  0.
        -13    1    3    3    0    0  0.21323692475E+01 -0.43945410449E+02  0.35423194044E+01  0.44139611336E+02  0.10566000000E+00 0.  1.
         23    2    1    0    0    0  0.18337900694E+02  0.63485405842E+01  0.17582577228E+02  0.98813560926E+02  0.95280586855E+02 0.  0.
         13    1    3    3    0    0  0.16205531447E+02  0.50293951033E+02  0.14040257823E+02  0.54673949590E+02  0.10566000000E+00 0. -1.
         22    1    1    0    0    0 -0.18337900694E+02 -0.63485405842E+01 -0.17582577228E+02  0.26186439074E+02  0.00000000000E+00 0. -1.
</event>
<event>
 5    1  0.8943334E-005  0.9118800E+02  0.7818608E-02  0.1130116E+00
         25   -1    0    0    0    0  0.00000000000E+00  0.00000000000E+00  0.99999998245E-14  0.12500000000E+03  0.12500000000E+03 0.  0.
        -13    1    3    3    0    0  0.26913132455E+02  0.59570988153E+01  0.22925902758E+02  0.35852641551E+02  0.10566000000E+00 0.  1.
         23    2    1    0    0    0  0.16882601186E+02 -0.31310900120E+02  0.33779814169E+02  0.75944209980E+02  0.57974584906E+02 0.  0.
         13    1    3    3    0    0 -0.10030531269E+02 -0.37267998935E+02  0.10853911411E+02  0.40091568430E+02  0.10566000000E+00 0. -1.
         22    1    1    0    0    0 -0.16882601186E+02  0.31310900120E+02 -0.33779814169E+02  0.49055790020E+02  0.00000000000E+00 0.  1.
</event>
<event>
 5    1  0.8943334E-005  0.9118800E+02  0.7818608E-02  0.1130116E+00
         25   -1    0    0    0    0  0.00000000000E+00  0.00000000000E+00  0.99999998245E-14  0.12500000000E+03  0.12500000000E+03 0.  0.
        -13    1    3    3    0    0 -0.60996576755E+02 -0.10534156656E+02  0.83277948435E+01  0.62457298719E+02  0.10566000000E+00 0.  1.
         23    2    1    0    0    0 -0.28481690198E+02 -0.63846909354E+01  0.46851026553E+01  0.95437842742E+02  0.90743929194E+02 0.  0.
         13    1    3    3    0    0  0.32514886558E+02  0.41494657202E+01 -0.36426921882E+01  0.32980544023E+02  0.10566000000E+00 0. -1.
         22    1    1    0    0    0  0.28481690198E+02  0.63846909354E+01 -0.46851026553E+01  0.29562157258E+02  0.00000000000E+00 0.  1.
</event>
<event>
 5    1  0.8943334E-005  0.9118800E+02  0.7818608E-02  0.1130116E+00
         25   -1    0    0    0    0  0.00000000000E+00  0.00000000000E+00  0.99999998245E-14  0.12500000000E+03  0.12500000000E+03 0.  0.
        -13    1    3    3    0    0 -0.32961580173E+00  0.47362361588E+02 -0.36014569826E+02  0.59500944073E+02  0.10566000000E+00 0. -1.
         23    2    1    0    0    0  0.13113988891E+02  0.22139644849E+02 -0.13153117432E+02  0.96101123259E+02  0.91653045857E+02 0.  0.
         13    1    3    3    0    0  0.13443604693E+02 -0.25222716739E+02  0.22861452394E+02  0.36600179186E+02  0.10566000000E+00 0.  1.
         22    1    1    0    0    0 -0.13113988891E+02 -0.22139644849E+02  0.13153117432E+02  0.28898876741E+02  0.00000000000E+00 0. -1.
</event>
<event>
 5    1  0.8943334E-005  0.9118800E+02  0.7818608E-02  0.1130116E+00
         25   -1    0    0    0    0  0.00000000000E+00  0.00000000000E+00  0.99999998245E-14  0.12500000000E+03  0.12500000000E+03 0.  0.
        -13    1    3    3    0    0  0.29798196175E+02  0.37143703853E+02 -0.31468432801E+02  0.57077672151E+02  0.10566000000E+00 0. -1.
         23    2    1    0    0    0 -0.34241374351E+00  0.26709715236E+02 -0.67008869208E+01  0.97460428096E+02  0.93488539533E+02 0.  0.
         13    1    3    3    0    0 -0.30140609919E+02 -0.10433988617E+02  0.24767545880E+02  0.40382755945E+02  0.10566000000E+00 0.  1.
         22    1    1    0    0    0  0.34241374351E+00 -0.26709715236E+02  0.67008869208E+01  0.27539571904E+02  0.00000000000E+00 0. -1.
</event>
<event>
 5    1  0.8943334E-005  0.9118800E+02  0.7818608E-02  0.1130116E+00
         25   -1    0    0    0    0  0.00000000000E+00  0.00000000000E+00  0.99999998245E-14  0.12500000000E+03  0.12500000000E+03 0.  0.
        -13    1    3    3    0    0 -0.34342430234E+02 -0.51995877203E+02  0.42620624849E+01  0.62459187484E+02  0.10566000000E+00 0. -1.
         23    2    1    0    0    0 -0.14972575298E+02 -0.24156112056E+02  0.57761423794E+00  0.96574142072E+02  0.92295912792E+02 0.  0.
         13    1    3    3    0    0  0.19369854936E+02  0.27839765147E+02 -0.36844482469E+01  0.34114954589E+02  0.10566000000E+00 0.  1.
         22    1    1    0    0    0  0.14972575298E+02  0.24156112056E+02 -0.57761423794E+00  0.28425857928E+02  0.00000000000E+00 0. -1.
</event>
<event>
 5    1  0.8943334E-005  0.9118800E+02  0.7818608E-02  0.1130116E+00
         25   -1    0    0    0    0  0.00000000000E+00  0.00000000000E+00  0.99999998245E-14  0.12500000000E+03  0.12500000000E+03 0.  0.
        -13    1    3    3    0    0  0.21424803649E+02 -0.21065033866E+02 -0.21971794156E+02  0.37222691542E+02  0.10566000000E+00 0.  1.
         23    2    1    0    0    0 -0.21940986441E+02  0.16618862094E+02 -0.65915625555E+01  0.96697311785E+02  0.92462575922E+02 0.  0.
         13    1    3    3    0    0 -0.43365790090E+02  0.37683895959E+02  0.15380231600E+02  0.59474620242E+02  0.10566000000E+00 0. -1.
         22    1    1    0    0    0  0.21940986441E+02 -0.16618862094E+02  0.65915625555E+01  0.28302688215E+02  0.00000000000E+00 0. -1.
</event>
<event>
 5    1  0.8943334E-005  0.9118800E+02  0.7818608E-02  0.1130116E+00
         25   -1    0    0    0    0  0.00000000000E+00  0.00000000000E+00  0.99999998245E-14  0.12500000000E+03  0.12500000000E+03 0.  0.
        -13    1    3    3    0    0  0.22974124072E+01  0.13586255130E+02  0.36462126669E+02  0.38978997902E+02  0.10566000000E+00 0.  1.
         23    2    1    0    0    0  0.20893794775E+02  0.35896031769E+01 -0.17872556336E+02  0.97271599738E+02  0.93235722417E+02 0.  0.
         13    1    3    3    0    0  0.18596382368E+02 -0.99966519535E+01 -0.54334683005E+02  0.58292601836E+02  0.10566000000E+00 0. -1.
         22    1    1    0    0    0 -0.20893794775E+02 -0.35896031769E+01  0.17872556336E+02  0.27728400262E+02  0.00000000000E+00 0. -1.
</event>
<event>
 5    1  0.8943334E-005  0.9118800E+02  0.7818608E-02  0.1130116E+00
         25   -1    0    0    0    0  0.00000000000E+00  0.00000000000E+00  0.99999998245E-14  0.12500000000E+03  0.12500000000E+03 0.  0.
        -13    1    3    3    0    0  0.28497637478E+01 -0.41681188887E+02  0.90388751524E+01  0.42745234688E+02  0.10566000000E+00 0. -1.
         23    2    1    0    0    0  0.22503696208E+02  0.73317900962E+01  0.16600490982E+02  0.96090697174E+02  0.91638825252E+02 0.  0.
         13    1    3    3    0    0  0.19653932460E+02  0.49012978983E+02  0.75616158295E+01  0.53345462487E+02  0.10566000000E+00 0.  1.
         22    1    1    0    0    0 -0.22503696208E+02 -0.73317900962E+01 -0.16600490982E+02  0.28909302826E+02  0.00000000000E+00 0.  1.
</event>
<event>
 5    1  0.8943334E-005  0.9118800E+02  0.7818608E-02  0.1130116E+00
         25   -1    0    0    0    0  0.00000000000E+00  0.00000000000E+00  0.99999998245E-14  0.12500000000E+03  0.12500000000E+03 0.  0.
        -13    1    3    3    0    0 -0.45490555771E+01 -0.42482236979E+02 -0.75523837507E+00  0.42731907451E+02  0.10566000000E+00 0.  1.
         23    2    1    0    0    0 -0.30798966889E+02 -0.44660604537E+01  0.13496035207E+02  0.91078546261E+02  0.84525952023E+02 0.  0.
         13    1    3    3    0    0 -0.26249911312E+02  0.38016176525E+02  0.14251273582E+02  0.48346638810E+02  0.10566000000E+00 0. -1.
         22    1    1    0    0    0  0.30798966889E+02  0.44660604537E+01 -0.13496035207E+02  0.33921453739E+02  0.00000000000E+00 0.  1.
</event>
<event>
 5    1  0.8943334E-005  0.9118800E+02  0.7818608E-02  0.1130116E+00
         25   -1    0    0    0    0  0.00000000000E+00  0.00000000000E+00  0.99999998245E-14  0.12500000000E+03  0.12500000000E+03 0.  0.
        -13    1    3    3    0    0  0.48570490665E+02 -0.12663582345E+02  0.37194580508E+02  0.62473249191E+02  0.10566000000E+00 0. -1.
         23    2    1    0    0    0  0.23730206398E+02 -0.55171431352E+01  0.16658838710E+02  0.95485961455E+02  0.90810188656E+02 0.  0.
         13    1    3    3    0    0 -0.24840284267E+02  0.71464392096E+01 -0.20535741798E+02  0.33012712265E+02  0.10566000000E+00 0.  1.
         22    1    1    0    0    0 -0.23730206398E+02  0.55171431352E+01 -0.16658838710E+02  0.29514038545E+02  0.00000000000E+00 0. -1.
</event>
<event>
 5    1  0.8943334E-005  0.9118800E+02  0.7818608E-02  0.1130116E+00
         25   -1    0    0    0    0  0.00000000000E+00  0.00000000000E+00  0.99999998245E-14  0.12500000000E+03  0.12500000000E+03 0.  0.
        -13    1    3    3    0    0 -0.25173756692E+02  0.56492006339E+00  0.29093859975E+02  0.38477279178E+02  0.10566000000E+00 0.  1.
         23    2    1    0    0    0  0.23071059764E+02  0.18167497096E+02  0.49699826468E+01  0.95216909547E+02  0.90439081081E+02 0.  0.
         13    1    3    3    0    0  0.48244816456E+02  0.17602577033E+02 -0.24123877328E+02  0.56739630370E+02  0.10566000000E+00 0. -1.
         22    1    1    0    0    0 -0.23071059764E+02 -0.18167497096E+02 -0.49699826468E+01  0.29783090453E+02  0.00000000000E+00 0. -1.
</event>
<event>
 5    1  0.8943334E-005  0.9118800E+02  0.7818608E-02  0.1130116E+00
         25   -1    0    0    0    0  0.00000000000E+00  0.00000000000E+00  0.99999998245E-14  0.12500000000E+03  0.12500000000E+03 0.  0.
        -13    1    3    3    0    0  0.34168003375E+02  0.36224963794E+02  0.19746826678E+02  0.53569102890E+02  0.10566000000E+00 0.  1.
         23    2    1    0    0    0  0.12586578066E+02  0.18182956476E+02 -0.15002503141E+02  0.98277033208E+02  0.94574088957E+02 0.  0.
         13    1    3    3    0    0 -0.21581425309E+02 -0.18042007318E+02 -0.34749329820E+02  0.44707930319E+02  0.10566000000E+00 0. -1.
         22    1    1    0    0    0 -0.12586578066E+02 -0.18182956476E+02  0.15002503141E+02  0.26722966792E+02  0.00000000000E+00 0.  1.
</event>
<event>
 5    1  0.8943334E-005  0.9118800E+02  0.7818608E-02  0.1130116E+00
         25   -1    0    0    0    0  0.00000000000E+00  0.00000000000E+00  0.99999998245E-14  0.12500000000E+03  0.12500000000E+03 0.  0.
        -13    1    3    3    0    0  0.35958024835E+02 -0.35703007215E+02 -0.33358577209E+02  0.60667043044E+02  0.10566000000E+00 0.  1.
         23    2    1    0    0    0  0.22971401281E+02 -0.81588762681E+01 -0.17419515316E+02  0.95038490482E+02  0.90192142787E+02 0.  0.
         13    1    3    3    0    0 -0.12986623554E+02  0.27544130946E+02  0.15939061893E+02  0.34371447438E+02  0.10566000000E+00 0. -1.
         22    1    1    0    0    0 -0.22971401281E+02  0.81588762681E+01  0.17419515316E+02  0.29961509518E+02  0.00000000000E+00 0.  1.
</event>
<event>
 5    1  0.8943334E-005  0.9118800E+02  0.7818608E-02  0.1130116E+00
         25   -1    0    0    0    0  0.00000000000E+00  0.00000000000E+00  0.99999998245E-14  0.12500000000E+03  0.12500000000E+03 0.  0.
        -13    1    3    3    0    0 -0.38433779418E+02  0.23891054117E+02 -0.17216405533E+02  0.48418525903E+02  0.10566000000E+00 0. -1.
         23    2    1    0    0    0  0.23091795925E+00  0.23705395544E+02  0.13427699253E+02  0.97754776415E+02  0.93881276641E+02 0.  0.
         13    1    3    3    0    0  0.38664697377E+02 -0.18565857275E+00  0.30644104785E+02  0.49336250511E+02  0.10566000000E+00 0.  1.
         22    1    1    0    0    0 -0.23091795925E+00 -0.23705395544E+02 -0.13427699253E+02  0.27245223585E+02  0.00000000000E+00 0.  1.
</event>
<event>
 5    1  0.8943334E-005  0.9118800E+02  0.7818608E-02  0.1130116E+00
         25   -1    0    0    0    0  0.00000000000E+00  0.00000000000E+00  0.99999998245E-14  0.12500000000E+03  0.12500000000E+03 0.  0.
        -13    1    3    3    0    0 -0.18248493005E+02 -0.39069294970E+02 -0.13084775254E+01  0.43140938607E+02  0.10566000000E+00 0. -1.
         23    2    1    0    0    0 -0.11779049716E+02  0.58622528876E+01  0.25817536029E+02  0.96023161185E+02  0.91546656390E+02 0.  0.
         13    1    3    3    0    0  0.64694432896E+01  0.44931547858E+02  0.27126013554E+02  0.52882222578E+02  0.10566000000E+00 0.  1.
         22    1    1    0    0    0  0.11779049716E+02 -0.58622528876E+01 -0.25817536029E+02  0.28976838815E+02  0.00000000000E+00 0. -1.
</event>
<event>
 5    1  0.8943334E-005  0.9118800E+02  0.7818608E-02  0.1130116E+00
         25   -1    0    0    0    0  0.00000000000E+00  0.00000000000E+00  0.99999998245E-14  0.12500000000E+03  0.12500000000E+03 0.  0.
        -13    1    3    3    0    0 -0.17058581752E+02 -0.15540599738E+02  0.49730789902E+02  0.54823973588E+02  0.10566000000E+00 0.  1.
         23    2    1    0    0    0  0.12306849481E+02 -0.15908744221E+02  0.21451703639E+02  0.95593839491E+02  0.90958561295E+02 0.  0.
         13    1    3    3    0    0  0.29365431234E+02 -0.36814448317E+00 -0.28279086263E+02  0.40769865904E+02  0.10566000000E+00 0. -1.
         22    1    1    0    0    0 -0.12306849481E+02  0.15908744221E+02 -0.21451703639E+02  0.29406160509E+02  0.00000000000E+00 0.  1.
</event>
<event>
 5    1  0.8943334E-005  0.9118800E+02  0.7818608E-02  0.1130116E+00
         25   -1    0    0    0    0  0.00000000000E+00  0.00000000000E+00  0.99999998245E-14  0.12500000000E+03  0.12500000000E+03 0.  0.
        -13    1    3    3    0    0 -0.90874404931E+01 -0.47709488458E+02  0.25157526199E+02  0.54696335820E+02  0.10566000000E+00 0.  1.
         23    2    1    0    0    0 -0.23627730074E+02 -0.12920768254E+02  0.44772598450E+01  0.97700517653E+02  0.93809004969E+02 0.  0.
         13    1    3    3    0    0 -0.14540289581E+02  0.34788720205E+02 -0.20680266354E+02  0.43004181833E+02  0.10566000000E+00 0. -1.
         22    1    1    0    0    0  0.23627730074E+02  0.12920768254E+02 -0.44772598450E+01  0.27299482347E+02  0.00000000000E+00 0. -1.
</event>
<event>
 5    1  0.8943334E-005  0.9118800E+02  0.7818608E-02  0.1130116E+00
         25   -1    0    0    0    0  0.00000000000E+00  0.00000000000E+00  0.99999998245E-14  0.12500000000E+03  0.12500000000E+03 0.  0.
        -13    1    3    3    0    0  0.19575558602E+02  0.14818166518E+02  0.53180731118E+02  0.58574583907E+02  0.10566000000E+00 0.  1.
         23    2    1    0    0    0 -0.20376528269E+01 -0.23617046533E+01  0.30597844916E+02  0.94243573169E+02  0.89083630889E+02 0.  0.
         13    1    3    3    0    0 -0.21613211429E+02 -0.17179871171E+02 -0.22582886203E+02  0.35668989263E+02  0.10566000000E+00 0. -1.
         22    1    1    0    0    0  0.20376528269E+01  0.23617046533E+01 -0.30597844916E+02  0.30756426831E+02  0.00000000000E+00 0.  1.
</event>
<event>
 5    1  0.8943334E-005  0.9118800E+02  0.7818608E-02  0.1130116E+00
         25   -1    0    0    0    0  0.00000000000E+00  0.00000000000E+00  0.99999998245E-14  0.12500000000E+03  0.12500000000E+03 0.  0.
        -13    1    3    3    0    0  0.26524666074E+02  0.99398976855E+01  0.25059419384E+02  0.37819904022E+02  0.10566000000E+00 0.  1.
         23    2    1    0    0    0  0.79695144287E+01 -0.12489316793E+02 -0.25122871032E+02  0.95834012222E+02  0.91288022519E+02 0.  0.
         13    1    3    3    0    0 -0.18555151646E+02 -0.22429214479E+02 -0.50182290416E+02  0.58014108199E+02  0.10566000000E+00 0. -1.
         22    1    1    0    0    0 -0.79695144287E+01  0.12489316793E+02  0.25122871032E+02  0.29165987778E+02  0.00000000000E+00 0. -1.
</event>
<event>
 5    1  0.8943334E-005  0.9118800E+02  0.7818608E-02  0.1130116E+00
         25   -1    0    0    0    0  0.00000000000E+00  0.00000000000E+00  0.99999998245E-14  0.12500000000E+03  0.12500000000E+03 0.  0.
        -13    1    3    3    0    0 -0.40952091587E+02 -0.30971342213E+02 -0.10488293630E+02  0.52405279420E+02  0.10566000000E+00 0. -1.
         23    2    1    0    0    0  0.67325573506E+00 -0.30093436939E+02 -0.62679203568E+01  0.94253373426E+02  0.89097381312E+02 0.  0.
         13    1    3    3    0    0  0.41625347322E+02  0.87790527484E+00  0.42203732734E+01  0.41848094006E+02  0.10566000000E+00 0.  1.
         22    1    1    0    0    0 -0.67325573506E+00  0.30093436939E+02  0.62679203568E+01  0.30746626574E+02  0.00000000000E+00 0.  1.
</event>
<event>
 5    1  0.8943334E-005  0.9118800E+02  0.7818608E-02  0.1130116E+00
         25   -1    0    0    0    0  0.00000000000E+00  0.00000000000E+00  0.99999998245E-14  0.12500000000E+03  0.12500000000E+03 0.  0.
        -13    1    3    3    0    0 -0.31793593161E+02 -0.30351260209E+02 -0.10247323199E+02  0.45133694277E+02  0.10566000000E+00 0. -1.
         23    2    1    0    0    0 -0.17058577166E+02  0.19137770831E+02 -0.11765651912E+02  0.96792201571E+02  0.92590768399E+02 0.  0.
         13    1    3    3    0    0  0.14735015995E+02  0.49489031040E+02 -0.15183287125E+01  0.51658507293E+02  0.10566000000E+00 0.  1.
         22    1    1    0    0    0  0.17058577166E+02 -0.19137770831E+02  0.11765651912E+02  0.28207798429E+02  0.00000000000E+00 0.  1.
</event>
<event>
 5    1  0.8943334E-005  0.9118800E+02  0.7818608E-02  0.1130116E+00
         25   -1    0    0    0    0  0.00000000000E+00  0.00000000000E+00  0.99999998245E-14  0.12500000000E+03  0.12500000000E+03 0.  0.
        -13    1    3    3    0    0 -0.33538701398E+02 -0.26254098190E+02 -0.30545492247E+02  0.52413361120E+02  0.10566000000E+00 0.  1.
         23    2    1    0    0    0  0.94618624306E+01 -0.17664275749E+02 -0.18103607419E+02  0.97994554623E+02  0.94199992866E+02 0.  0.
         13    1    3    3    0    0  0.43000563828E+02  0.85898224405E+01  0.12441884828E+02  0.45581193504E+02  0.10566000000E+00 0. -1.
         22    1    1    0    0    0 -0.94618624306E+01  0.17664275749E+02  0.18103607419E+02  0.27005445377E+02  0.00000000000E+00 0. -1.
</event>
<event>
 5    1  0.8943334E-005  0.9118800E+02  0.7818608E-02  0.1130116E+00
         25   -1    0    0    0    0  0.00000000000E+00  0.00000000000E+00  0.99999998245E-14  0.12500000000E+03  0.12500000000E+03 0.  0.
        -13    1    3    3    0    0 -0.22895849055E+02 -0.32281839301E+02 -0.11203906212E+02  0.41132417035E+02  0.10566000000E+00 0. -1.
         23    2    1    0    0    0 -0.20523380248E+02  0.18997048551E+02  0.79543450724E+01  0.95924776940E+02  0.91412221475E+02 0.  0.
         13    1    3    3    0    0  0.23724688075E+01  0.51278887853E+02  0.19158251285E+02  0.54792359905E+02  0.10566000000E+00 0.  1.
         22    1    1    0    0    0  0.20523380248E+02 -0.18997048551E+02 -0.79543450724E+01  0.29075223060E+02  0.00000000000E+00 0.  1.
</event>
<event>
 5    1  0.8943334E-005  0.9118800E+02  0.7818608E-02  0.1130116E+00
         25   -1    0    0    0    0  0.00000000000E+00  0.00000000000E+00  0.99999998245E-14  0.12500000000E+03  0.12500000000E+03 0.  0.
        -13    1    3    3    0    0  0.21422828701E+02  0.21518439411E+02  0.24915208596E+02  0.39277978660E+02  0.10566000000E+00 0. -1.
         23    2    1    0    0    0  0.35661964386E+02 -0.17853175190E+02  0.15647408941E+02  0.82158980232E+02  0.70105242728E+02 0.  0.
         13    1    3    3    0    0  0.14239135685E+02 -0.39371614601E+02 -0.92677996547E+01  0.42881001572E+02  0.10566000000E+00 0.  1.
         22    1    1    0    0    0 -0.35661964386E+02  0.17853175190E+02 -0.15647408941E+02  0.42841019768E+02  0.00000000000E+00 0.  1.
</event>
<event>
 5    1  0.8943334E-005  0.9118800E+02  0.7818608E-02  0.1130116E+00
         25   -1    0    0    0    0  0.00000000000E+00  0.00000000000E+00  0.99999998245E-14  0.12500000000E+03  0.12500000000E+03 0.  0.
        -13    1    3    3    0    0  0.13516814871E+02  0.31573839309E+01  0.35735128616E+02  0.38336457046E+02  0.10566000000E+00 0.  1.
         23    2    1    0    0    0  0.16386930857E+02  0.10673790353E+02 -0.21385291433E+02  0.96020835190E+02  0.91543480366E+02 0.  0.
         13    1    3    3    0    0  0.28701159856E+01  0.75164064219E+01 -0.57120420049E+02  0.57684378145E+02  0.10566000000E+00 0. -1.
         22    1    1    0    0    0 -0.16386930857E+02 -0.10673790353E+02  0.21385291433E+02  0.28979164810E+02  0.00000000000E+00 0. -1.
</event>
<event>
 5    1  0.8943334E-005  0.9118800E+02  0.7818608E-02  0.1130116E+00
         25   -1    0    0    0    0  0.00000000000E+00  0.00000000000E+00  0.99999998245E-14  0.12500000000E+03  0.12500000000E+03 0.  0.
        -13    1    3    3    0    0 -0.31581618055E+02 -0.40379290020E+02 -0.18759390068E+02  0.54587650080E+02  0.10566000000E+00 0. -1.
         23    2    1    0    0    0 -0.16916835015E+02 -0.23477080364E+02  0.12867877403E+02  0.93330852897E+02  0.87793583047E+02 0.  0.
         13    1    3    3    0    0  0.14664783040E+02  0.16902209655E+02  0.31627267471E+02  0.38743202818E+02  0.10566000000E+00 0.  1.
         22    1    1    0    0    0  0.16916835015E+02  0.23477080364E+02 -0.12867877403E+02  0.31669147103E+02  0.00000000000E+00 0. -1.
</event>
<event>
 5    1  0.8943334E-005  0.9118800E+02  0.7818608E-02  0.1130116E+00
         25   -1    0    0    0    0  0.00000000000E+00  0.00000000000E+00  0.99999998245E-14  0.12500000000E+03  0.12500000000E+03 0.  0.
        -13    1    3    3    0    0  0.34894447290E+02 -0.13389929385E+02 -0.17194225753E+01  0.37414973455E+02  0.10566000000E+00 0. -1.
         23    2    1    0    0    0 -0.11400879581E+02 -0.19339693272E+02  0.25162116928E+02  0.91278554014E+02  0.84821214937E+02 0.  0.
         13    1    3    3    0    0 -0.46295326872E+02 -0.59497638864E+01  0.26881539504E+02  0.53863580558E+02  0.10566000000E+00 0.  1.
         22    1    1    0    0    0  0.11400879581E+02  0.19339693272E+02 -0.25162116928E+02  0.33721445986E+02  0.00000000000E+00 0.  1.
</event>
<event>
 5    1  0.8943334E-005  0.9118800E+02  0.7818608E-02  0.1130116E+00
         25   -1    0    0    0    0  0.00000000000E+00  0.00000000000E+00  0.99999998245E-14  0.12500000000E+03  0.12500000000E+03 0.  0.
        -13    1    3    3    0    0 -0.31476860923E+02  0.27150639025E+02 -0.94617960145E+01  0.42631991754E+02  0.10566000000E+00 0.  1.
         23    2    1    0    0    0 -0.14350784991E+01 -0.10766201098E+02  0.22087557467E+02  0.10038637103E+03  0.97322108262E+02 0.  0.
         13    1    3    3    0    0  0.30041782424E+02 -0.37916840122E+02  0.31549353482E+02  0.57754379273E+02  0.10566000000E+00 0. -1.
         22    1    1    0    0    0  0.14350784991E+01  0.10766201098E+02 -0.22087557467E+02  0.24613628973E+02  0.00000000000E+00 0. -1.
</event>
<event>
 5    1  0.8943334E-005  0.9118800E+02  0.7818608E-02  0.1130116E+00
         25   -1    0    0    0    0  0.00000000000E+00  0.00000000000E+00  0.99999998245E-14  0.12500000000E+03  0.12500000000E+03 0.  0.
        -13    1    3    3    0    0 -0.43150888341E+02  0.30075473007E+02 -0.68839364838E+01  0.53046517197E+02  0.10566000000E+00 0.  1.
         23    2    1    0    0    0 -0.25797821154E+02 -0.77002805589E+01 -0.13065518039E+02  0.95074598438E+02  0.90242172013E+02 0.  0.
         13    1    3    3    0    0  0.17353067187E+02 -0.37775753566E+02 -0.61815815556E+01  0.42028081241E+02  0.10566000000E+00 0. -1.
         22    1    1    0    0    0  0.25797821154E+02  0.77002805589E+01  0.13065518039E+02  0.29925401562E+02  0.00000000000E+00 0. -1.
</event>
<event>
 5    1  0.8943334E-005  0.9118800E+02  0.7818608E-02  0.1130116E+00
         25   -1    0    0    0    0  0.00000000000E+00  0.00000000000E+00  0.99999998245E-14  0.12500000000E+03  0.12500000000E+03 0.  0.
        -13    1    3    3    0    0  0.24137957083E+00  0.31524167843E+02 -0.52100418709E+01  0.31952889112E+02  0.10566000000E+00 0. -1.
         23    2    1    0    0    0  0.23871880763E+01 -0.29423773783E+02  0.81297012773E+01  0.94380575228E+02  0.89275661896E+02 0.  0.
         13    1    3    3    0    0  0.21458085054E+01 -0.60947941625E+02  0.13339743148E+02  0.62427686116E+02  0.10566000000E+00 0.  1.
         22    1    1    0    0    0 -0.23871880763E+01  0.29423773783E+02 -0.81297012773E+01  0.30619424772E+02  0.00000000000E+00 0.  1.
</event>
<event>
 5    1  0.8943334E-005  0.9118800E+02  0.7818608E-02  0.1130116E+00
         25   -1    0    0    0    0  0.00000000000E+00  0.00000000000E+00  0.99999998245E-14  0.12500000000E+03  0.12500000000E+03 0.  0.
        -13    1    3    3    0    0  0.17057865715E+01 -0.42676290515E+02  0.44905841526E+02  0.61973552804E+02  0.10566000000E+00 0. -1.
         23    2    1    0    0    0  0.24450009371E+01 -0.22629752004E+02  0.15922087390E+02  0.97222372812E+02  0.93169701099E+02 0.  0.
         13    1    3    3    0    0  0.73921436565E+00  0.20046538510E+02 -0.28983754136E+02  0.35248820008E+02  0.10566000000E+00 0.  1.
         22    1    1    0    0    0 -0.24450009371E+01  0.22629752004E+02 -0.15922087390E+02  0.27777627188E+02  0.00000000000E+00 0. -1.
</event>
<event>
 5    1  0.8943334E-005  0.9118800E+02  0.7818608E-02  0.1130116E+00
         25   -1    0    0    0    0  0.00000000000E+00  0.00000000000E+00  0.99999998245E-14  0.12500000000E+03  0.12500000000E+03 0.  0.
        -13    1    3    3    0    0 -0.12504950912E+02 -0.13533773553E+02 -0.27964547204E+01  0.18637814972E+02  0.10566000000E+00 0.  1.
         23    2    1    0    0    0  0.44721050572E+02 -0.82260577137E+01 -0.14467514838E+02  0.77282609299E+02  0.60791877128E+02 0.  0.
         13    1    3    3    0    0  0.57226001484E+02  0.53077158393E+01 -0.11671060117E+02  0.58644794326E+02  0.10566000000E+00 0. -1.
         22    1    1    0    0    0 -0.44721050572E+02  0.82260577137E+01  0.14467514838E+02  0.47717390701E+02  0.00000000000E+00 0. -1.
</event>
<event>
 5    1  0.8943334E-005  0.9118800E+02  0.7818608E-02  0.1130116E+00
         25   -1    0    0    0    0  0.00000000000E+00  0.00000000000E+00  0.99999998245E-14  0.12500000000E+03  0.12500000000E+03 0.  0.
        -13    1    3    3    0    0  0.90888696805E+01 -0.39209042868E+02 -0.44822505096E+02  0.60241387117E+02  0.10566000000E+00 0. -1.
         23    2    1    0    0    0 -0.10030857180E+01 -0.14863029452E+02 -0.32321111100E+02  0.89411096558E+02  0.82023009818E+02 0.  0.
         13    1    3    3    0    0 -0.10091955398E+02  0.24346013416E+02  0.12501393996E+02  0.29169709441E+02  0.10566000000E+00 0.  1.
         22    1    1    0    0    0  0.10030857180E+01  0.14863029452E+02  0.32321111100E+02  0.35588903442E+02  0.00000000000E+00 0. -1.
</event>
<event>
 5    1  0.8943334E-005  0.9118800E+02  0.7818608E-02  0.1130116E+00
         25   -1    0    0    0    0  0.00000000000E+00  0.00000000000E+00  0.99999998245E-14  0.12500000000E+03  0.12500000000E+03 0.  0.
        -13    1    3    3    0    0 -0.17625075891E+02  0.42461072053E+02  0.89354861342E+00  0.45982556836E+02  0.10566000000E+00 0. -1.
         23    2    1    0    0    0 -0.17849688261E+02  0.32425994446E+00 -0.24125105160E+02  0.94987715606E+02  0.90121744888E+02 0.  0.
         13    1    3    3    0    0 -0.22461237080E+00 -0.42136812109E+02 -0.25018653773E+02  0.49005158770E+02  0.10566000000E+00 0.  1.
         22    1    1    0    0    0  0.17849688261E+02 -0.32425994446E+00  0.24125105160E+02  0.30012284394E+02  0.00000000000E+00 0. -1.
</event>
<event>
 5    1  0.8943334E-005  0.9118800E+02  0.7818608E-02  0.1130116E+00
         25   -1    0    0    0    0  0.00000000000E+00  0.00000000000E+00  0.99999998245E-14  0.12500000000E+03  0.12500000000E+03 0.  0.
        -13    1    3    3    0    0  0.45568489325E+02  0.24292624162E+02 -0.92651736651E+01  0.52464020196E+02  0.10566000000E+00 0. -1.
         23    2    1    0    0    0  0.16207803040E+02 -0.64327077466E+01 -0.22091406161E+02  0.96855678468E+02  0.92676424278E+02 0.  0.
         13    1    3    3    0    0 -0.29360686286E+02 -0.30725331908E+02 -0.12826232496E+02  0.44391658272E+02  0.10566000000E+00 0.  1.
         22    1    1    0    0    0 -0.16207803040E+02  0.64327077466E+01  0.22091406161E+02  0.28144321532E+02  0.00000000000E+00 0. -1.
</event>
<event>
 5    1  0.8943334E-005  0.9118800E+02  0.7818608E-02  0.1130116E+00
         25   -1    0    0    0    0  0.00000000000E+00  0.00000000000E+00  0.99999998245E-14  0.12500000000E+03  0.12500000000E+03 0.  0.
        -13    1    3    3    0    0 -0.33610074280E+02  0.15717960418E+02 -0.13632929093E+02  0.39529220743E+02  0.10566000000E+00 0. -1.
         23    2    1    0    0    0  0.16310901287E+02 -0.13101597539E+02 -0.18087762528E+02  0.97343816023E+02  0.93332491694E+02 0.  0.
         13    1    3    3    0    0  0.49920975568E+02 -0.28819557957E+02 -0.44548334351E+01  0.57814595280E+02  0.10566000000E+00 0.  1.
         22    1    1    0    0    0 -0.16310901287E+02  0.13101597539E+02  0.18087762528E+02  0.27656183977E+02  0.00000000000E+00 0.  1.
</event>
<event>
 5    1  0.8943334E-005  0.9118800E+02  0.7818608E-02  0.1130116E+00
         25   -1    0    0    0    0  0.00000000000E+00  0.00000000000E+00  0.99999998245E-14  0.12500000000E+03  0.12500000000E+03 0.  0.
        -13    1    3    3    0    0 -0.31626131093E+02  0.67834093113E+00  0.24285483567E+02  0.39880674398E+02  0.10566000000E+00 0.  1.
         23    2    1    0    0    0 -0.13474399418E+02 -0.11528820448E+02 -0.25315623070E+02  0.94091200087E+02  0.88869567467E+02 0.  0.
         13    1    3    3    0    0  0.18151731675E+02 -0.12207161380E+02 -0.49601106637E+02  0.54210525689E+02  0.10566000000E+00 0. -1.
         22    1    1    0    0    0  0.13474399418E+02  0.11528820448E+02  0.25315623070E+02  0.30908799913E+02  0.00000000000E+00 0. -1.
</event>
<event>
 5    1  0.8943334E-005  0.9118800E+02  0.7818608E-02  0.1130116E+00
         25   -1    0    0    0    0  0.00000000000E+00  0.00000000000E+00  0.99999998245E-14  0.12500000000E+03  0.12500000000E+03 0.  0.
        -13    1    3    3    0    0  0.24437482885E+02  0.54731154395E+02 -0.64141427079E+01  0.60281358826E+02  0.10566000000E+00 0.  1.
         23    2    1    0    0    0  0.20441377141E+02  0.21936704791E+02 -0.97098864464E+01  0.93482531648E+02  0.88009277420E+02 0.  0.
         13    1    3    3    0    0 -0.39961057444E+01 -0.32794449604E+02 -0.32957437385E+01  0.33201172822E+02  0.10566000000E+00 0. -1.
         22    1    1    0    0    0 -0.20441377141E+02 -0.21936704791E+02  0.97098864464E+01  0.31517468352E+02  0.00000000000E+00 0.  1.
</event>
<event>
 5    1  0.8943334E-005  0.9118800E+02  0.7818608E-02  0.1130116E+00
         25   -1    0    0    0    0  0.00000000000E+00  0.00000000000E+00  0.99999998245E-14  0.12500000000E+03  0.12500000000E+03 0.  0.
        -13    1    3    3    0    0 -0.59032033871E+02  0.15372089786E+02 -0.90522276094E+01  0.61668761590E+02  0.10566000000E+00 0.  1.
         23    2    1    0    0    0 -0.23814544303E+02  0.73440043665E+01 -0.10815974854E+02  0.97832883250E+02  0.93985215925E+02 0.  0.
         13    1    3    3    0    0  0.35217489568E+02 -0.80280854198E+01 -0.17637472443E+01  0.36164121659E+02  0.10566000000E+00 0. -1.
         22    1    1    0    0    0  0.23814544303E+02 -0.73440043665E+01  0.10815974854E+02  0.27167116750E+02  0.00000000000E+00 0.  1.
</event>
<event>
 5    1  0.8943334E-005  0.9118800E+02  0.7818608E-02  0.1130116E+00
         25   -1    0    0    0    0  0.00000000000E+00  0.00000000000E+00  0.99999998245E-14  0.12500000000E+03  0.12500000000E+03 0.  0.
        -13    1    3    3    0    0  0.58597850428E+02 -0.11394363117E+02 -0.16762549253E+02  0.62004304747E+02  0.10566000000E+00 0. -1.
         23    2    1    0    0    0  0.27290861852E+02 -0.11065018470E+01 -0.11449355833E+02  0.95384071246E+02  0.90669828562E+02 0.  0.
         13    1    3    3    0    0 -0.31306988576E+02  0.10287861270E+02  0.53131934198E+01  0.33379766499E+02  0.10566000000E+00 0.  1.
         22    1    1    0    0    0 -0.27290861852E+02  0.11065018470E+01  0.11449355833E+02  0.29615928754E+02  0.00000000000E+00 0. -1.
</event>
<event>
 5    1  0.8943334E-005  0.9118800E+02  0.7818608E-02  0.1130116E+00
         25   -1    0    0    0    0  0.00000000000E+00  0.00000000000E+00  0.99999998245E-14  0.12500000000E+03  0.12500000000E+03 0.  0.
        -13    1    3    3    0    0  0.58239220058E+01 -0.34053819819E+02  0.12877887510E+02  0.36870474130E+02  0.10566000000E+00 0. -1.
         23    2    1    0    0    0 -0.75373006119E+00  0.24232586010E+02  0.16555882731E+02  0.95642146081E+02  0.91024922523E+02 0.  0.
         13    1    3    3    0    0 -0.65776520670E+01  0.58286405828E+02  0.36779952211E+01  0.58771671952E+02  0.10566000000E+00 0.  1.
         22    1    1    0    0    0  0.75373006119E+00 -0.24232586010E+02 -0.16555882731E+02  0.29357853919E+02  0.00000000000E+00 0.  1.
</event>
<event>
 5    1  0.8943334E-005  0.9118800E+02  0.7818608E-02  0.1130116E+00
         25   -1    0    0    0    0  0.00000000000E+00  0.00000000000E+00  0.99999998245E-14  0.12500000000E+03  0.12500000000E+03 0.  0.
        -13    1    3    3    0    0 -0.22045157353E+02  0.28493124951E+02 -0.47618180666E+02  0.59710547026E+02  0.10566000000E+00 0.  1.
         23    2    1    0    0    0 -0.21384315463E+02  0.14565530723E+02 -0.15220214640E+02  0.94981696138E+02  0.90113395423E+02 0.  0.
         13    1    3    3    0    0  0.66084189029E+00 -0.13927594228E+02  0.32397966027E+02  0.35271149112E+02  0.10566000000E+00 0. -1.
         22    1    1    0    0    0  0.21384315463E+02 -0.14565530723E+02  0.15220214640E+02  0.30018303862E+02  0.00000000000E+00 0.  1.
</event>
<event>
 5    1  0.8943334E-005  0.9118800E+02  0.7818608E-02  0.1130116E+00
         25   -1    0    0    0    0  0.00000000000E+00  0.00000000000E+00  0.99999998245E-14  0.12500000000E+03  0.12500000000E+03 0.  0.
        -13    1    3    3    0    0  0.17085616445E+02  0.14690312761E+02  0.57600171577E+02  0.61850743795E+02  0.10566000000E+00 0.  1.
         23    2    1    0    0    0  0.13581744551E+02  0.42926958088E+01  0.25272545257E+02  0.95989785142E+02  0.91501072592E+02 0.  0.
         13    1    3    3    0    0 -0.35038718942E+01 -0.10397616952E+02 -0.32327626320E+02  0.34139041346E+02  0.10566000000E+00 0. -1.
         22    1    1    0    0    0 -0.13581744551E+02 -0.42926958088E+01 -0.25272545257E+02  0.29010214858E+02  0.00000000000E+00 0.  1.
</event>
<event>
 5    1  0.8943334E-005  0.9118800E+02  0.7818608E-02  0.1130116E+00
         25   -1    0    0    0    0  0.00000000000E+00  0.00000000000E+00  0.99999998245E-14  0.12500000000E+03  0.12500000000E+03 0.  0.
        -13    1    3    3    0    0  0.57471203367E+02  0.80508373213E+01  0.13572025398E+02  0.59598374436E+02  0.10566000000E+00 0.  1.
         23    2    1    0    0    0  0.25414997309E+02 -0.98551122382E+01  0.59379301759E+01  0.97101893609E+02  0.93007921179E+02 0.  0.
         13    1    3    3    0    0 -0.32056206057E+02 -0.17905949559E+02 -0.76340952219E+01  0.37503519172E+02  0.10566000000E+00 0. -1.
         22    1    1    0    0    0 -0.25414997309E+02  0.98551122382E+01 -0.59379301759E+01  0.27898106391E+02  0.00000000000E+00 0.  1.
</event>
<event>
 5    1  0.8943334E-005  0.9118800E+02  0.7818608E-02  0.1130116E+00
         25   -1    0    0    0    0  0.00000000000E+00  0.00000000000E+00  0.99999998245E-14  0.12500000000E+03  0.12500000000E+03 0.  0.
        -13    1    3    3    0    0  0.32353825765E+02 -0.12565977735E+02 -0.31072698246E+02  0.46585379449E+02  0.10566000000E+00 0.  1.
         23    2    1    0    0    0  0.37131916779E+00  0.21520680366E+02 -0.22043062995E+02  0.94191329345E+02  0.89010293428E+02 0.  0.
         13    1    3    3    0    0 -0.31982506597E+02  0.34086658101E+02  0.90296352503E+01  0.47605949896E+02  0.10566000000E+00 0. -1.
         22    1    1    0    0    0 -0.37131916779E+00 -0.21520680366E+02  0.22043062995E+02  0.30808670655E+02  0.00000000000E+00 0. -1.
</event>
<event>
 5    1  0.8943334E-005  0.9118800E+02  0.7818608E-02  0.1130116E+00
         25   -1    0    0    0    0  0.00000000000E+00  0.00000000000E+00  0.99999998245E-14  0.12500000000E+03  0.12500000000E+03 0.  0.
        -13    1    3    3    0    0  0.53487895949E+02 -0.14158552104E+02 -0.58582524330E+01  0.55639463480E+02  0.10566000000E+00 0. -1.
         23    2    1    0    0    0  0.19297925793E+02  0.11800990656E+02 -0.12620351179E+02  0.99097363372E+02  0.95652186818E+02 0.  0.
         13    1    3    3    0    0 -0.34189970156E+02  0.25959542760E+02 -0.67620987463E+01  0.43457899892E+02  0.10566000000E+00 0.  1.
         22    1    1    0    0    0 -0.19297925793E+02 -0.11800990656E+02  0.12620351179E+02  0.25902636628E+02  0.00000000000E+00 0. -1.
</event>
<event>
 5    1  0.8943334E-005  0.9118800E+02  0.7818608E-02  0.1130116E+00
         25   -1    0    0    0    0  0.00000000000E+00  0.00000000000E+00  0.99999998245E-14  0.12500000000E+03  0.12500000000E+03 0.  0.
        -13    1    3    3    0    0 -0.34354248001E+02  0.41772009816E+01  0.44452952083E+01  0.34891763746E+02  0.10566000000E+00 0. -1.
         23    2    1    0    0    0  0.26312998423E+02  0.46884828635E+01  0.11368970810E+02  0.95955047687E+02  0.91453605297E+02 0.  0.
         13    1    3    3    0    0  0.60667246424E+02  0.51128188184E+00  0.69236756019E+01  0.61063283942E+02  0.10566000000E+00 0.  1.
         22    1    1    0    0    0 -0.26312998423E+02 -0.46884828635E+01 -0.11368970810E+02  0.29044952313E+02  0.00000000000E+00 0.  1.
</event>
<event>
 5    1  0.8943334E-005  0.9118800E+02  0.7818608E-02  0.1130116E+00
         25   -1    0    0    0    0  0.00000000000E+00  0.00000000000E+00  0.99999998245E-14  0.12500000000E+03  0.12500000000E+03 0.  0.
        -13    1    3    3    0    0 -0.40674615036E+02  0.20255097883E+02 -0.11981835845E+02  0.46992221195E+02  0.10566000000E+00 0. -1.
         23    2    1    0    0    0 -0.20693591123E+00 -0.15508019269E+01 -0.28961093595E+02  0.95996676892E+02  0.91510486956E+02 0.  0.
         13    1    3    3    0    0  0.40467679125E+02 -0.21805899810E+02 -0.16979257751E+02  0.49004455696E+02  0.10566000000E+00 0.  1.
         22    1    1    0    0    0  0.20693591123E+00  0.15508019269E+01  0.28961093595E+02  0.29003323108E+02  0.00000000000E+00 0. -1.
</event>
<event>
 5    1  0.8943334E-005  0.9118800E+02  0.7818608E-02  0.1130116E+00
         25   -1    0    0    0    0  0.00000000000E+00  0.00000000000E+00  0.99999998245E-14  0.12500000000E+03  0.12500000000E+03 0.  0.
        -13    1    3    3    0    0 -0.11164879197E+02  0.28075073710E+02 -0.26258797765E+02  0.40029987702E+02  0.10566000000E+00 0.  1.
         23    2    1    0    0    0  0.24712572442E+01 -0.46785096528E+01  0.23371241582E+02  0.10103731029E+03  0.98154610555E+02 0.  0.
         13    1    3    3    0    0  0.13636136441E+02 -0.32753583363E+02  0.49630039347E+02  0.61007322591E+02  0.10566000000E+00 0. -1.
         22    1    1    0    0    0 -0.24712572442E+01  0.46785096528E+01 -0.23371241582E+02  0.23962689707E+02  0.00000000000E+00 0. -1.
</event>
<event>
 5    1  0.8943334E-005  0.9118800E+02  0.7818608E-02  0.1130116E+00
         25   -1    0    0    0    0  0.00000000000E+00  0.00000000000E+00  0.99999998245E-14  0.12500000000E+03  0.12500000000E+03 0.  0.
        -13    1    3    3    0    0 -0.14572579684E+01  0.32619230681E+02  0.13728261174E+02  0.35420532603E+02  0.10566000000E+00 0.  1.
         23    2    1    0    0    0 -0.13442818808E+02 -0.22573419067E+02 -0.10275800516E+02  0.96788996790E+02  0.92586441758E+02 0.  0.
         13    1    3    3    0    0 -0.11985560840E+02 -0.55192649749E+02 -0.24004061690E+02  0.61368464186E+02  0.10566000000E+00 0. -1.
         22    1    1    0    0    0  0.13442818808E+02  0.22573419067E+02  0.10275800516E+02  0.28211003210E+02  0.00000000000E+00 0. -1.
</event>
<event>
 5    1  0.8943334E-005  0.9118800E+02  0.7818608E-02  0.1130116E+00
         25   -1    0    0    0    0  0.00000000000E+00  0.00000000000E+00  0.99999998245E-14  0.12500000000E+03  0.12500000000E+03 0.  0.
        -13    1    3    3    0    0 -0.23959716707E+02  0.81243384879E+01 -0.11453523346E+02  0.27771698933E+02  0.10566000000E+00 0.  1.
         23    2    1    0    0    0  0.10819846642E+02 -0.37523234296E+02 -0.69361361179E+01  0.85336765417E+02  0.75559191063E+02 0.  0.
         13    1    3    3    0    0  0.34779563350E+02 -0.45647572784E+02  0.45173872282E+01  0.57565066483E+02  0.10566000000E+00 0. -1.
         22    1    1    0    0    0 -0.10819846642E+02  0.37523234296E+02  0.69361361179E+01  0.39663234583E+02  0.00000000000E+00 0. -1.
</event>
<event>
 5    1  0.8943334E-005  0.9118800E+02  0.7818608E-02  0.1130116E+00
         25   -1    0    0    0    0  0.00000000000E+00  0.00000000000E+00  0.99999998245E-14  0.12500000000E+03  0.12500000000E+03 0.  0.
        -13    1    3    3    0    0 -0.38226871604E+02  0.39487097084E+02 -0.96088648298E+00  0.54967799807E+02  0.10566000000E+00 0.  1.
         23    2    1    0    0    0 -0.22402831815E+02  0.97443523888E+01 -0.19787311372E+02  0.93561536804E+02  0.88121417379E+02 0.  0.
         13    1    3    3    0    0  0.15824039789E+02 -0.29742744695E+02 -0.18826424889E+02  0.38593736997E+02  0.10566000000E+00 0. -1.
         22    1    1    0    0    0  0.22402831815E+02 -0.97443523888E+01  0.19787311372E+02  0.31438463196E+02  0.00000000000E+00 0.  1.
</event>
<event>
 5    1  0.8943334E-005  0.9118800E+02  0.7818608E-02  0.1130116E+00
         25   -1    0    0    0    0  0.00000000000E+00  0.00000000000E+00  0.99999998245E-14  0.12500000000E+03  0.12500000000E+03 0.  0.
        -13    1    3    3    0    0 -0.61194715333E+01  0.33654649444E+02 -0.12982090520E+02  0.36587281934E+02  0.10566000000E+00 0.  1.
         23    2    1    0    0    0  0.30032011109E+02 -0.87416934279E+01 -0.90293965624E+01  0.92444372260E+02  0.86522211397E+02 0.  0.
         13    1    3    3    0    0  0.36151482643E+02 -0.42396342871E+02  0.39526939579E+01  0.55857090326E+02  0.10566000000E+00 0. -1.
         22    1    1    0    0    0 -0.30032011109E+02  0.87416934279E+01  0.90293965624E+01  0.32555627740E+02  0.00000000000E+00 0. -1.
</event>
<event>
 5    1  0.8943334E-005  0.9118800E+02  0.7818608E-02  0.1130116E+00
         25   -1    0    0    0    0  0.00000000000E+00  0.00000000000E+00  0.99999998245E-14  0.12500000000E+03  0.12500000000E+03 0.  0.
        -13    1    3    3    0    0  0.55085172817E+00 -0.78509637626E+01 -0.36261914892E+02  0.37106316245E+02  0.10566000000E+00 0. -1.
         23    2    1    0    0    0 -0.22722909143E+02 -0.73470747889E+00  0.17624473339E+02  0.96233831408E+02  0.91833860051E+02 0.  0.
         13    1    3    3    0    0 -0.23273760871E+02  0.71162562837E+01  0.53886388232E+02  0.59127515162E+02  0.10566000000E+00 0.  1.
         22    1    1    0    0    0  0.22722909143E+02  0.73470747889E+00 -0.17624473339E+02  0.28766168592E+02  0.00000000000E+00 0.  1.
</event>
<event>
 5    1  0.8943334E-005  0.9118800E+02  0.7818608E-02  0.1130116E+00
         25   -1    0    0    0    0  0.00000000000E+00  0.00000000000E+00  0.99999998245E-14  0.12500000000E+03  0.12500000000E+03 0.  0.
        -13    1    3    3    0    0  0.19874953898E+02 -0.50446426544E+02 -0.77116774441E+00  0.54226023339E+02  0.10566000000E+00 0. -1.
         23    2    1    0    0    0 -0.95584805329E+01 -0.22679825524E+02 -0.13859789711E+02  0.96754065660E+02  0.92539269583E+02 0.  0.
         13    1    3    3    0    0 -0.29433434431E+02  0.27766601019E+02 -0.13088621967E+02  0.42528042320E+02  0.10566000000E+00 0.  1.
         22    1    1    0    0    0  0.95584805329E+01  0.22679825524E+02  0.13859789711E+02  0.28245934340E+02  0.00000000000E+00 0. -1.
</event>
<event>
 5    1  0.8943334E-005  0.9118800E+02  0.7818608E-02  0.1130116E+00
         25   -1    0    0    0    0  0.00000000000E+00  0.00000000000E+00  0.99999998245E-14  0.12500000000E+03  0.12500000000E+03 0.  0.
        -13    1    3    3    0    0 -0.54365068052E+00 -0.32788243965E+02 -0.10058867424E+02  0.34300969028E+02  0.10566000000E+00 0.  1.
         23    2    1    0    0    0  0.33704605909E+01 -0.10132851445E+02 -0.46445528798E+02  0.77342662387E+02  0.60915232880E+02 0.  0.
         13    1    3    3    0    0  0.39141112714E+01  0.22655392520E+02 -0.36386661374E+02  0.43041693359E+02  0.10566000000E+00 0. -1.
         22    1    1    0    0    0 -0.33704605909E+01  0.10132851445E+02  0.46445528798E+02  0.47657337613E+02  0.00000000000E+00 0. -1.
</event>
<event>
 5    1  0.8943334E-005  0.9118800E+02  0.7818608E-02  0.1130116E+00
         25   -1    0    0    0    0  0.00000000000E+00  0.00000000000E+00  0.99999998245E-14  0.12500000000E+03  0.12500000000E+03 0.  0.
        -13    1    3    3    0    0  0.49538712033E+02 -0.30023026238E+02  0.14132670605E+02  0.59625578713E+02  0.10566000000E+00 0.  1.
         23    2    1    0    0    0  0.15863677468E+02 -0.24963185511E+02  0.91388458115E+01  0.94043007309E+02  0.88801755767E+02 0.  0.
         13    1    3    3    0    0 -0.33675034565E+02  0.50598407267E+01 -0.49938247934E+01  0.34417428597E+02  0.10566000000E+00 0. -1.
         22    1    1    0    0    0 -0.15863677468E+02  0.24963185511E+02 -0.91388458115E+01  0.30956992691E+02  0.00000000000E+00 0.  1.
</event>
<event>
 5    1  0.8943334E-005  0.9118800E+02  0.7818608E-02  0.1130116E+00
         25   -1    0    0    0    0  0.00000000000E+00  0.00000000000E+00  0.99999998245E-14  0.12500000000E+03  0.12500000000E+03 0.  0.
        -13    1    3    3    0    0 -0.33181548837E+02 -0.14758402228E+02  0.35792211597E+02  0.50989402768E+02  0.10566000000E+00 0.  1.
         23    2    1    0    0    0 -0.14715335536E+02  0.38356829685E+01 -0.12089225599E+02  0.10557313872E+03  0.10377034585E+03 0.  0.
         13    1    3    3    0    0  0.18466213301E+02  0.18594085196E+02 -0.47881437197E+02  0.54583735948E+02  0.10566000000E+00 0. -1.
         22    1    1    0    0    0  0.14715335536E+02 -0.38356829685E+01  0.12089225599E+02  0.19426861285E+02  0.00000000000E+00 0. -1.
</event>
<event>
 5    1  0.8943334E-005  0.9118800E+02  0.7818608E-02  0.1130116E+00
         25   -1    0    0    0    0  0.00000000000E+00  0.00000000000E+00  0.99999998245E-14  0.12500000000E+03  0.12500000000E+03 0.  0.
        -13    1    3    3    0    0  0.55538032931E+02 -0.96094331675E+01  0.50285065978E+01  0.56587201294E+02  0.10566000000E+00 0.  1.
         23    2    1    0    0    0  0.23823015817E+02  0.13571746731E+02  0.91717595749E+01  0.96088936968E+02  0.91636424210E+02 0.  0.
         13    1    3    3    0    0 -0.31715017114E+02  0.23181179898E+02  0.41432529771E+01  0.39501735675E+02  0.10566000000E+00 0. -1.
         22    1    1    0    0    0 -0.23823015817E+02 -0.13571746731E+02 -0.91717595749E+01  0.28911063032E+02  0.00000000000E+00 0.  1.
</event>
<event>
 5    1  0.8943334E-005  0.9118800E+02  0.7818608E-02  0.1130116E+00
         25   -1    0    0    0    0  0.00000000000E+00  0.00000000000E+00  0.99999998245E-14  0.12500000000E+03  0.12500000000E+03 0.  0.
        -13    1    3    3    0    0  0.37041542891E+02  0.29901207941E+02 -0.11591526347E+02  0.48995232249E+02  0.10566000000E+00 0.  1.
         23    2    1    0    0    0 -0.57907813644E+01  0.29251640281E+02  0.46737627407E+01  0.94816632625E+02  0.89884137401E+02 0.  0.
         13    1    3    3    0    0 -0.42832324255E+02 -0.64956765997E+00  0.16265289088E+02  0.45821400376E+02  0.10566000000E+00 0. -1.
         22    1    1    0    0    0  0.57907813644E+01 -0.29251640281E+02 -0.46737627407E+01  0.30183367375E+02  0.00000000000E+00 0.  1.
</event>
<event>
 5    1  0.8943334E-005  0.9118800E+02  0.7818608E-02  0.1130116E+00
         25   -1    0    0    0    0  0.00000000000E+00  0.00000000000E+00  0.99999998245E-14  0.12500000000E+03  0.12500000000E+03 0.  0.
        -13    1    3    3    0    0  0.15423258461E+02  0.30129110775E+02 -0.42583799162E+02  0.54396979078E+02  0.10566000000E+00 0.  1.
         23    2    1    0    0    0  0.32055809984E+01  0.28409494958E+02 -0.25411314998E+01  0.96297517484E+02  0.91920505715E+02 0.  0.
         13    1    3    3    0    0 -0.12217677463E+02 -0.17196158173E+01  0.40042667662E+02  0.41900538406E+02  0.10566000000E+00 0. -1.
         22    1    1    0    0    0 -0.32055809984E+01 -0.28409494958E+02  0.25411314998E+01  0.28702482516E+02  0.00000000000E+00 0.  1.
</event>
<event>
 5    1  0.8943334E-005  0.9118800E+02  0.7818608E-02  0.1130116E+00
         25   -1    0    0    0    0  0.00000000000E+00  0.00000000000E+00  0.99999998245E-14  0.12500000000E+03  0.12500000000E+03 0.  0.
        -13    1    3    3    0    0  0.30912887094E+02  0.36738924603E+02  0.21882404724E+02  0.52765575615E+02  0.10566000000E+00 0. -1.
         23    2    1    0    0    0  0.94221644779E+00  0.38746067120E+02  0.11035544707E+02  0.84702000842E+02  0.74501679247E+02 0.  0.
         13    1    3    3    0    0 -0.29970670646E+02  0.20071425177E+01 -0.10846860017E+02  0.31936425228E+02  0.10566000000E+00 0.  1.
         22    1    1    0    0    0 -0.94221644779E+00 -0.38746067120E+02 -0.11035544707E+02  0.40297999158E+02  0.00000000000E+00 0.  1.
</event>
<event>
 5    1  0.8943334E-005  0.9118800E+02  0.7818608E-02  0.1130116E+00
         25   -1    0    0    0    0  0.00000000000E+00  0.00000000000E+00  0.99999998245E-14  0.12500000000E+03  0.12500000000E+03 0.  0.
        -13    1    3    3    0    0 -0.58706519290E+02  0.11730979356E+02  0.12893745655E+02  0.61239947133E+02  0.10566000000E+00 0. -1.
         23    2    1    0    0    0 -0.31035310057E+02  0.22271971899E+01 -0.15039055199E+01  0.93848553654E+02  0.88527613847E+02 0.  0.
         13    1    3    3    0    0  0.27671209233E+02 -0.95037821661E+01 -0.14397651175E+02  0.32608606521E+02  0.10566000000E+00 0.  1.
         22    1    1    0    0    0  0.31035310057E+02 -0.22271971899E+01  0.15039055199E+01  0.31151446346E+02  0.00000000000E+00 0.  1.
</event>
<event>
 5    1  0.8943334E-005  0.9118800E+02  0.7818608E-02  0.1130116E+00
         25   -1    0    0    0    0  0.00000000000E+00  0.00000000000E+00  0.99999998245E-14  0.12500000000E+03  0.12500000000E+03 0.  0.
        -13    1    3    3    0    0  0.19723964108E+02 -0.16589926411E+02 -0.31963724272E+02  0.41060336723E+02  0.10566000000E+00 0.  1.
         23    2    1    0    0    0  0.44501558781E+01 -0.24609043736E+02  0.18175692627E+02  0.94084555261E+02  0.88860220657E+02 0.  0.
         13    1    3    3    0    0 -0.15273808230E+02 -0.80191173253E+01  0.50139416899E+02  0.53024218538E+02  0.10566000000E+00 0. -1.
         22    1    1    0    0    0 -0.44501558781E+01  0.24609043736E+02 -0.18175692627E+02  0.30915444739E+02  0.00000000000E+00 0. -1.
</event>
<event>
 5    1  0.8943334E-005  0.9118800E+02  0.7818608E-02  0.1130116E+00
         25   -1    0    0    0    0  0.00000000000E+00  0.00000000000E+00  0.99999998245E-14  0.12500000000E+03  0.12500000000E+03 0.  0.
        -13    1    3    3    0    0  0.45170147840E+02  0.39740105596E+02  0.13146565834E+02  0.61582965226E+02  0.10566000000E+00 0. -1.
         23    2    1    0    0    0  0.25295618107E+02  0.14435974204E+02  0.11124953879E+02  0.93822600406E+02  0.88490960564E+02 0.  0.
         13    1    3    3    0    0 -0.19874529733E+02 -0.25304131392E+02 -0.20216119545E+01  0.32239635181E+02  0.10566000000E+00 0.  1.
         22    1    1    0    0    0 -0.25295618107E+02 -0.14435974204E+02 -0.11124953879E+02  0.31177399594E+02  0.00000000000E+00 0. -1.
</event>
<event>
 5    1  0.8943334E-005  0.9118800E+02  0.7818608E-02  0.1130116E+00
         25   -1    0    0    0    0  0.00000000000E+00  0.00000000000E+00  0.99999998245E-14  0.12500000000E+03  0.12500000000E+03 0.  0.
        -13    1    3    3    0    0 -0.19718193305E+02  0.51469344461E+02 -0.25516182437E+02  0.60737033980E+02  0.10566000000E+00 0.  1.
         23    2    1    0    0    0 -0.11344012453E+02  0.26207377851E+02 -0.17977634343E+01  0.96386275570E+02  0.92041126094E+02 0.  0.
         13    1    3    3    0    0  0.83741808518E+01 -0.25261966610E+02  0.23718419003E+02  0.35649241591E+02  0.10566000000E+00 0. -1.
         22    1    1    0    0    0  0.11344012453E+02 -0.26207377851E+02  0.17977634343E+01  0.28613724430E+02  0.00000000000E+00 0.  1.
</event>
<event>
 5    1  0.8943334E-005  0.9118800E+02  0.7818608E-02  0.1130116E+00
         25   -1    0    0    0    0  0.00000000000E+00  0.00000000000E+00  0.99999998245E-14  0.12500000000E+03  0.12500000000E+03 0.  0.
        -13    1    3    3    0    0  0.19351015768E+02 -0.30446132229E+02 -0.21018030056E+01  0.36136650631E+02  0.10566000000E+00 0.  1.
         23    2    1    0    0    0 -0.91136636847E+01  0.14950784306E+02  0.23639648059E+02  0.95582016087E+02  0.90942311505E+02 0.  0.
         13    1    3    3    0    0 -0.28464679453E+02  0.45396916535E+02  0.25741451065E+02  0.59445365456E+02  0.10566000000E+00 0. -1.
         22    1    1    0    0    0  0.91136636847E+01 -0.14950784306E+02 -0.23639648059E+02  0.29417983913E+02  0.00000000000E+00 0. -1.
</event>
<event>
 5    1  0.8943334E-005  0.9118800E+02  0.7818608E-02  0.1130116E+00
         25   -1    0    0    0    0  0.00000000000E+00  0.00000000000E+00  0.99999998245E-14  0.12500000000E+03  0.12500000000E+03 0.  0.
        -13    1    3    3    0    0  0.14634523893E+02 -0.25962433927E+02  0.20573258621E+02  0.36214463952E+02  0.10566000000E+00 0. -1.
         23    2    1    0    0    0 -0.21843287104E+02  0.18649080285E+02  0.77680940552E+01  0.95246669560E+02  0.90480204410E+02 0.  0.
         13    1    3    3    0    0 -0.36477810997E+02  0.44611514213E+02 -0.12805164565E+02  0.59032205609E+02  0.10566000000E+00 0.  1.
         22    1    1    0    0    0  0.21843287104E+02 -0.18649080285E+02 -0.77680940552E+01  0.29753330440E+02  0.00000000000E+00 0.  1.
</event>
<event>
 5    1  0.8943334E-005  0.9118800E+02  0.7818608E-02  0.1130116E+00
         25   -1    0    0    0    0  0.00000000000E+00  0.00000000000E+00  0.99999998245E-14  0.12500000000E+03  0.12500000000E+03 0.  0.
        -13    1    3    3    0    0  0.33159103780E+01  0.42694915945E+02  0.33191604620E+02  0.54180668974E+02  0.10566000000E+00 0. -1.
         23    2    1    0    0    0  0.20543966357E+02  0.14925902338E+02  0.27880070876E+02  0.87288788586E+02  0.78722278591E+02 0.  0.
         13    1    3    3    0    0  0.17228055979E+02 -0.27769013607E+02 -0.53115337443E+01  0.33108119612E+02  0.10566000000E+00 0.  1.
         22    1    1    0    0    0 -0.20543966357E+02 -0.14925902338E+02 -0.27880070876E+02  0.37711211414E+02  0.00000000000E+00 0. -1.
</event>
<event>
 5    1  0.8943334E-005  0.9118800E+02  0.7818608E-02  0.1130116E+00
         25   -1    0    0    0    0  0.00000000000E+00  0.00000000000E+00  0.99999998245E-14  0.12500000000E+03  0.12500000000E+03 0.  0.
        -13    1    3    3    0    0 -0.34962703785E+02 -0.22043863025E+02 -0.31379945611E+02  0.51894457350E+02  0.10566000000E+00 0.  1.
         23    2    1    0    0    0 -0.27441305813E+00  0.56661619611E+01 -0.28011875367E+02  0.96419484688E+02  0.92086215972E+02 0.  0.
         13    1    3    3    0    0  0.34688290727E+02  0.27710024986E+02  0.33680702437E+01  0.44525027339E+02  0.10566000000E+00 0. -1.
         22    1    1    0    0    0  0.27441305813E+00 -0.56661619611E+01  0.28011875367E+02  0.28580515312E+02  0.00000000000E+00 0.  1.
</event>
<event>
 5    1  0.8943334E-005  0.9118800E+02  0.7818608E-02  0.1130116E+00
         25   -1    0    0    0    0  0.00000000000E+00  0.00000000000E+00  0.99999998245E-14  0.12500000000E+03  0.12500000000E+03 0.  0.
        -13    1    3    3    0    0  0.30019572524E+02 -0.36887788332E+02  0.21342259617E+02  0.52128561002E+02  0.10566000000E+00 0. -1.
         23    2    1    0    0    0 -0.84941483101E+01 -0.22308619091E+02  0.20839090825E+02  0.93312577453E+02  0.87767558718E+02 0.  0.
         13    1    3    3    0    0 -0.38513720834E+02  0.14579169241E+02 -0.50316879259E+00  0.41184016451E+02  0.10566000000E+00 0.  1.
         22    1    1    0    0    0  0.84941483101E+01  0.22308619091E+02 -0.20839090825E+02  0.31687422547E+02  0.00000000000E+00 0. -1.
</event>
<event>
 5    1  0.8943334E-005  0.9118800E+02  0.7818608E-02  0.1130116E+00
         25   -1    0    0    0    0  0.00000000000E+00  0.00000000000E+00  0.99999998245E-14  0.12500000000E+03  0.12500000000E+03 0.  0.
        -13    1    3    3    0    0  0.34487694997E+02  0.26599456910E+02 -0.27976767801E+01  0.43643675069E+02  0.10566000000E+00 0.  1.
         23    2    1    0    0    0  0.97807871430E+01 -0.10725752396E+02  0.24825166638E+02  0.96242488630E+02  0.91845643105E+02 0.  0.
         13    1    3    3    0    0 -0.24706907854E+02 -0.37325209306E+02  0.27622843418E+02  0.52598813561E+02  0.10566000000E+00 0. -1.
         22    1    1    0    0    0 -0.97807871430E+01  0.10725752396E+02 -0.24825166638E+02  0.28757511370E+02  0.00000000000E+00 0. -1.
</event>
<event>
 5    1  0.8943334E-005  0.9118800E+02  0.7818608E-02  0.1130116E+00
         25   -1    0    0    0    0  0.00000000000E+00  0.00000000000E+00  0.99999998245E-14  0.12500000000E+03  0.12500000000E+03 0.  0.
        -13    1    3    3    0    0  0.36690880394E+02  0.18961556940E+01  0.42327063543E+01  0.36983010662E+02  0.10566000000E+00 0.  1.
         23    2    1    0    0    0 -0.12798399758E+02 -0.28261840333E+00 -0.26703372338E+02  0.95386675233E+02  0.90673418422E+02 0.  0.
         13    1    3    3    0    0 -0.49489280152E+02 -0.21787740973E+01 -0.30936078692E+02  0.58403664572E+02  0.10566000000E+00 0. -1.
         22    1    1    0    0    0  0.12798399758E+02  0.28261840333E+00  0.26703372338E+02  0.29613324767E+02  0.00000000000E+00 0. -1.
</event>
<event>
 5    1  0.8943334E-005  0.9118800E+02  0.7818608E-02  0.1130116E+00
         25   -1    0    0    0    0  0.00000000000E+00  0.00000000000E+00  0.99999998245E-14  0.12500000000E+03  0.12500000000E+03 0.  0.
        -13    1    3    3    0    0 -0.29333950448E+02 -0.40897170389E+02  0.16832104761E+02  0.53069672218E+02  0.10566000000E+00 0.  1.
         23    2    1    0    0    0  0.69293816558E+01 -0.22730654661E+02  0.20258226706E+02  0.93773492979E+02  0.88421565496E+02 0.  0.
         13    1    3    3    0    0  0.36263332103E+02  0.18166515728E+02  0.34261219453E+01  0.40703820761E+02  0.10566000000E+00 0. -1.
         22    1    1    0    0    0 -0.69293816558E+01  0.22730654661E+02 -0.20258226706E+02  0.31226507021E+02  0.00000000000E+00 0.  1.
</event>
<event>
 5    1  0.8943334E-005  0.9118800E+02  0.7818608E-02  0.1130116E+00
         25   -1    0    0    0    0  0.00000000000E+00  0.00000000000E+00  0.99999998245E-14  0.12500000000E+03  0.12500000000E+03 0.  0.
        -13    1    3    3    0    0 -0.40653702176E+02 -0.16595219617E+01 -0.44996012520E+01  0.40935743419E+02  0.10566000000E+00 0. -1.
         23    2    1    0    0    0  0.12286758414E+02 -0.86491435689E+01 -0.23066259795E+02  0.97471388380E+02  0.93503192967E+02 0.  0.
         13    1    3    3    0    0  0.52940460590E+02 -0.69896216072E+01 -0.18566658543E+02  0.56535644961E+02  0.10566000000E+00 0.  1.
         22    1    1    0    0    0 -0.12286758414E+02  0.86491435689E+01  0.23066259795E+02  0.27528611620E+02  0.00000000000E+00 0.  1.
</event>
<event>
 5    1  0.8943334E-005  0.9118800E+02  0.7818608E-02  0.1130116E+00
         25   -1    0    0    0    0  0.00000000000E+00  0.00000000000E+00  0.99999998245E-14  0.12500000000E+03  0.12500000000E+03 0.  0.
        -13    1    3    3    0    0 -0.25962659044E+02 -0.21922896942E+01  0.38259492081E+02  0.46288937092E+02  0.10566000000E+00 0. -1.
         23    2    1    0    0    0 -0.20221490064E+02 -0.20960111217E+02 -0.64970053986E+01  0.95159658149E+02  0.90359916652E+02 0.  0.
         13    1    3    3    0    0  0.57411689804E+01 -0.18767821522E+02 -0.44756497480E+02  0.48870721057E+02  0.10566000000E+00 0.  1.
         22    1    1    0    0    0  0.20221490064E+02  0.20960111217E+02  0.64970053986E+01  0.29840341851E+02  0.00000000000E+00 0.  1.
</event>
<event>
 5    1  0.8943334E-005  0.9118800E+02  0.7818608E-02  0.1130116E+00
         25   -1    0    0    0    0  0.00000000000E+00  0.00000000000E+00  0.99999998245E-14  0.12500000000E+03  0.12500000000E+03 0.  0.
        -13    1    3    3    0    0 -0.80166644654E+01 -0.31783567712E+02  0.30507549833E+02  0.44779279209E+02  0.10566000000E+00 0.  1.
         23    2    1    0    0    0 -0.27849712255E+02  0.65596616152E+01  0.24100925319E+01  0.96286863996E+02  0.91906017208E+02 0.  0.
         13    1    3    3    0    0 -0.19833047789E+02  0.38343229327E+02 -0.28097457301E+02  0.51507584787E+02  0.10566000000E+00 0. -1.
         22    1    1    0    0    0  0.27849712255E+02 -0.65596616152E+01 -0.24100925319E+01  0.28713136004E+02  0.00000000000E+00 0.  1.
</event>
<event>
 5    1  0.8943334E-005  0.9118800E+02  0.7818608E-02  0.1130116E+00
         25   -1    0    0    0    0  0.00000000000E+00  0.00000000000E+00  0.99999998245E-14  0.12500000000E+03  0.12500000000E+03 0.  0.
        -13    1    3    3    0    0 -0.78766170263E+01  0.25053108088E+02 -0.18249806461E+02  0.31980711695E+02  0.10566000000E+00 0. -1.
         23    2    1    0    0    0 -0.47190383802E+01 -0.23538131726E+02  0.19882865922E+02  0.93828838237E+02  0.88499771521E+02 0.  0.
         13    1    3    3    0    0  0.31575786461E+01 -0.48591239814E+02  0.38132672383E+02  0.61848126541E+02  0.10566000000E+00 0.  1.
         22    1    1    0    0    0  0.47190383802E+01  0.23538131726E+02 -0.19882865922E+02  0.31171161763E+02  0.00000000000E+00 0.  1.
</event>
<event>
 5    1  0.8943334E-005  0.9118800E+02  0.7818608E-02  0.1130116E+00
         25   -1    0    0    0    0  0.00000000000E+00  0.00000000000E+00  0.99999998245E-14  0.12500000000E+03  0.12500000000E+03 0.  0.
        -13    1    3    3    0    0  0.27878237027E+02  0.29117208015E+02 -0.15861062518E+02  0.43319653398E+02  0.10566000000E+00 0. -1.
         23    2    1    0    0    0 -0.58486116402E+01 -0.11528364774E+02 -0.24938236358E+02  0.96910409666E+02  0.92750215183E+02 0.  0.
         13    1    3    3    0    0 -0.33726848667E+02 -0.40645572789E+02 -0.90771738405E+01  0.53590756268E+02  0.10566000000E+00 0.  1.
         22    1    1    0    0    0  0.58486116402E+01  0.11528364774E+02  0.24938236358E+02  0.28089590334E+02  0.00000000000E+00 0. -1.
</event>
<event>
 5    1  0.8943334E-005  0.9118800E+02  0.7818608E-02  0.1130116E+00
         25   -1    0    0    0    0  0.00000000000E+00  0.00000000000E+00  0.99999998245E-14  0.12500000000E+03  0.12500000000E+03 0.  0.
        -13    1    3    3    0    0  0.16529810926E+01  0.33460792880E+02  0.14768420378E+02  0.36612489824E+02  0.10566000000E+00 0. -1.
         23    2    1    0    0    0 -0.28795393909E+02 -0.97961001080E+01 -0.69564788073E+01  0.93798543542E+02  0.88456971944E+02 0.  0.
         13    1    3    3    0    0 -0.30448375002E+02 -0.43256892988E+02 -0.21724899185E+02  0.57186053718E+02  0.10566000000E+00 0.  1.
         22    1    1    0    0    0  0.28795393909E+02  0.97961001080E+01  0.69564788073E+01  0.31201456458E+02  0.00000000000E+00 0.  1.
</event>
<event>
 5    1  0.8943334E-005  0.9118800E+02  0.7818608E-02  0.1130116E+00
         25   -1    0    0    0    0  0.00000000000E+00  0.00000000000E+00  0.99999998245E-14  0.12500000000E+03  0.12500000000E+03 0.  0.
        -13    1    3    3    0    0 -0.31044966101E+02 -0.64197372975E+01  0.16786710734E+02  0.35872102928E+02  0.10566000000E+00 0.  1.
         23    2    1    0    0    0  0.26391243344E+02 -0.96322763289E+01 -0.30926195449E+01  0.96736193317E+02  0.92515124868E+02 0.  0.
         13    1    3    3    0    0  0.57436209446E+02 -0.32125390314E+01 -0.19879330279E+02  0.60864090389E+02  0.10566000000E+00 0. -1.
         22    1    1    0    0    0 -0.26391243344E+02  0.96322763289E+01  0.30926195449E+01  0.28263806683E+02  0.00000000000E+00 0. -1.
</event>
<event>
 5    1  0.8943334E-005  0.9118800E+02  0.7818608E-02  0.1130116E+00
         25   -1    0    0    0    0  0.00000000000E+00  0.00000000000E+00  0.99999998245E-14  0.12500000000E+03  0.12500000000E+03 0.  0.
        -13    1    3    3    0    0  0.24497802553E+02  0.51725170587E+02 -0.24891964387E+02  0.62411991294E+02  0.10566000000E+00 0.  1.
         23    2    1    0    0    0  0.13733232241E+02  0.24497990607E+02 -0.10730394101E+02  0.94935160584E+02  0.90048820903E+02 0.  0.
         13    1    3    3    0    0 -0.10764570312E+02 -0.27227179980E+02  0.14161570286E+02  0.32523169290E+02  0.10566000000E+00 0. -1.
         22    1    1    0    0    0 -0.13733232241E+02 -0.24497990607E+02  0.10730394101E+02  0.30064839416E+02  0.00000000000E+00 0.  1.
</event>
<event>
 5    1  0.8943334E-005  0.9118800E+02  0.7818608E-02  0.1130116E+00
         25   -1    0    0    0    0  0.00000000000E+00  0.00000000000E+00  0.99999998245E-14  0.12500000000E+03  0.12500000000E+03 0.  0.
        -13    1    3    3    0    0 -0.33880257691E+02  0.16977256152E+02 -0.91679318808E+01  0.38989245012E+02  0.10566000000E+00 0.  1.
         23    2    1    0    0    0  0.12402732447E+02  0.11773783090E+02  0.23541714092E+02  0.95902542331E+02  0.91381812100E+02 0.  0.
         13    1    3    3    0    0  0.46282990138E+02 -0.52034730614E+01  0.32709645973E+02  0.56913297319E+02  0.10566000000E+00 0. -1.
         22    1    1    0    0    0 -0.12402732447E+02 -0.11773783090E+02 -0.23541714092E+02  0.29097457669E+02  0.00000000000E+00 0. -1.
</event>
<event>
 5    1  0.8943334E-005  0.9118800E+02  0.7818608E-02  0.1130116E+00
         25   -1    0    0    0    0  0.00000000000E+00  0.00000000000E+00  0.99999998245E-14  0.12500000000E+03  0.12500000000E+03 0.  0.
        -13    1    3    3    0    0  0.10208470839E+02 -0.24779142907E+02  0.43226023311E+02  0.50859798028E+02  0.10566000000E+00 0. -1.
         23    2    1    0    0    0 -0.96836606981E+01 -0.24552138052E+02 -0.17899091616E+00  0.98606576479E+02  0.95008652867E+02 0.  0.
         13    1    3    3    0    0 -0.19892131538E+02  0.22700485505E+00 -0.43405014228E+02  0.47746778451E+02  0.10566000000E+00 0.  1.
         22    1    1    0    0    0  0.96836606981E+01  0.24552138052E+02  0.17899091616E+00  0.26393423521E+02  0.00000000000E+00 0.  1.
</event>
<event>
 5    1  0.8943334E-005  0.9118800E+02  0.7818608E-02  0.1130116E+00
         25   -1    0    0    0    0  0.00000000000E+00  0.00000000000E+00  0.99999998245E-14  0.12500000000E+03  0.12500000000E+03 0.  0.
        -13    1    3    3    0    0 -0.40014730292E+02 -0.17884807399E+02  0.22896620395E+02  0.49450089641E+02  0.10566000000E+00 0.  1.
         23    2    1    0    0    0 -0.23596707341E+00 -0.20616825294E+01  0.31763218632E+02  0.93169067353E+02  0.87562930731E+02 0.  0.
         13    1    3    3    0    0  0.39778763218E+02  0.15823124869E+02  0.88665982374E+01  0.43718977712E+02  0.10566000000E+00 0. -1.
         22    1    1    0    0    0  0.23596707341E+00  0.20616825294E+01 -0.31763218632E+02  0.31830932647E+02  0.00000000000E+00 0. -1.
</event>
<event>
 5    1  0.8943334E-005  0.9118800E+02  0.7818608E-02  0.1130116E+00
         25   -1    0    0    0    0  0.00000000000E+00  0.00000000000E+00  0.99999998245E-14  0.12500000000E+03  0.12500000000E+03 0.  0.
        -13    1    3    3    0    0  0.44794482235E+02 -0.22411563130E+02  0.13553856252E+01  0.50106606698E+02  0.10566000000E+00 0.  1.
         23    2    1    0    0    0  0.15683095209E+02 -0.34226340260E+01 -0.26072320050E+02  0.94382361753E+02  0.89278163278E+02 0.  0.
         13    1    3    3    0    0 -0.29111387025E+02  0.18988929104E+02 -0.27427705675E+02  0.44275755055E+02  0.10566000000E+00 0. -1.
         22    1    1    0    0    0 -0.15683095209E+02  0.34226340260E+01  0.26072320050E+02  0.30617638247E+02  0.00000000000E+00 0.  1.
</event>
<event>
 5    1  0.8943334E-005  0.9118800E+02  0.7818608E-02  0.1130116E+00
         25   -1    0    0    0    0  0.00000000000E+00  0.00000000000E+00  0.99999998245E-14  0.12500000000E+03  0.12500000000E+03 0.  0.
        -13    1    3    3    0    0  0.43121809786E+02  0.47773425091E+01  0.66217071162E+01  0.43888172095E+02  0.10566000000E+00 0.  1.
         23    2    1    0    0    0  0.57604065783E+01 -0.27736828020E+02 -0.80604867115E+01  0.95546895604E+02  0.90894025661E+02 0.  0.
         13    1    3    3    0    0 -0.37361403208E+02 -0.32514170529E+02 -0.14682193828E+02  0.51658723508E+02  0.10566000000E+00 0. -1.
         22    1    1    0    0    0 -0.57604065783E+01  0.27736828020E+02  0.80604867115E+01  0.29453104396E+02  0.00000000000E+00 0. -1.
</event>
<event>
 5    1  0.8943334E-005  0.9118800E+02  0.7818608E-02  0.1130116E+00
         25   -1    0    0    0    0  0.00000000000E+00  0.00000000000E+00  0.99999998245E-14  0.12500000000E+03  0.12500000000E+03 0.  0.
        -13    1    3    3    0    0  0.31414151372E+02 -0.27127353525E+02  0.38378590815E+02  0.56530253959E+02  0.10566000000E+00 0. -1.
         23    2    1    0    0    0  0.28087944009E+02 -0.70827776530E+01  0.50036916308E+01  0.95603822224E+02  0.90972279052E+02 0.  0.
         13    1    3    3    0    0 -0.33262073635E+01  0.20044575872E+02 -0.33374899185E+02  0.39073568265E+02  0.10566000000E+00 0.  1.
         22    1    1    0    0    0 -0.28087944009E+02  0.70827776530E+01 -0.50036916308E+01  0.29396177776E+02  0.00000000000E+00 0. -1.
</event>
<event>
 5    1  0.8943334E-005  0.9118800E+02  0.7818608E-02  0.1130116E+00
         25   -1    0    0    0    0  0.00000000000E+00  0.00000000000E+00  0.99999998245E-14  0.12500000000E+03  0.12500000000E+03 0.  0.
        -13    1    3    3    0    0 -0.30138717994E+02 -0.38993095678E+01  0.58728726140E+01  0.30952362336E+02  0.10566000000E+00 0.  1.
         23    2    1    0    0    0  0.10194470024E+02  0.28828604351E+01 -0.34794040024E+02  0.88628811890E+02  0.80822045090E+02 0.  0.
         13    1    3    3    0    0  0.40333188018E+02  0.67821700028E+01 -0.40666912638E+02  0.57676449554E+02  0.10566000000E+00 0. -1.
         22    1    1    0    0    0 -0.10194470024E+02 -0.28828604351E+01  0.34794040024E+02  0.36371188110E+02  0.00000000000E+00 0. -1.
</event>
<event>
 5    1  0.8943334E-005  0.9118800E+02  0.7818608E-02  0.1130116E+00
         25   -1    0    0    0    0  0.00000000000E+00  0.00000000000E+00  0.99999998245E-14  0.12500000000E+03  0.12500000000E+03 0.  0.
        -13    1    3    3    0    0 -0.20307855752E+02 -0.46210394953E+02 -0.67562947802E+01  0.50926106175E+02  0.10566000000E+00 0.  1.
         23    2    1    0    0    0 -0.27288536363E+02 -0.50507601500E+00 -0.53772713830E+01  0.97182121465E+02  0.93115682709E+02 0.  0.
         13    1    3    3    0    0 -0.69806806116E+01  0.45705318938E+02  0.13790233971E+01  0.46256015291E+02  0.10566000000E+00 0. -1.
         22    1    1    0    0    0  0.27288536363E+02  0.50507601500E+00  0.53772713830E+01  0.27817878535E+02  0.00000000000E+00 0.  1.
</event>
<event>
 5    1  0.8943334E-005  0.9118800E+02  0.7818608E-02  0.1130116E+00
         25   -1    0    0    0    0  0.00000000000E+00  0.00000000000E+00  0.99999998245E-14  0.12500000000E+03  0.12500000000E+03 0.  0.
        -13    1    3    3    0    0  0.49596236202E+02 -0.25265675230E+02  0.13079578632E+00  0.55661200686E+02  0.10566000000E+00 0.  1.
         23    2    1    0    0    0  0.22218910523E+02 -0.17625853849E+01  0.18393376729E+02  0.96101851278E+02  0.91654038751E+02 0.  0.
         13    1    3    3    0    0 -0.27377325679E+02  0.23503089845E+02  0.18262580943E+02  0.40440650592E+02  0.10566000000E+00 0. -1.
         22    1    1    0    0    0 -0.22218910523E+02  0.17625853849E+01 -0.18393376729E+02  0.28898148722E+02  0.00000000000E+00 0.  1.
</event>
<event>
 5    1  0.8943334E-005  0.9118800E+02  0.7818608E-02  0.1130116E+00
         25   -1    0    0    0    0  0.00000000000E+00  0.00000000000E+00  0.99999998245E-14  0.12500000000E+03  0.12500000000E+03 0.  0.
        -13    1    3    3    0    0  0.68936384754E+01 -0.32141114942E+02  0.18928483874E+02  0.37932468770E+02  0.10566000000E+00 0.  1.
         23    2    1    0    0    0 -0.17402137147E+02  0.20507957014E+02  0.40011315890E+01  0.97807726609E+02  0.93951751725E+02 0.  0.
         13    1    3    3    0    0 -0.24295775622E+02  0.52649071957E+02 -0.14927352285E+02  0.59875257839E+02  0.10566000000E+00 0. -1.
         22    1    1    0    0    0  0.17402137147E+02 -0.20507957014E+02 -0.40011315890E+01  0.27192273391E+02  0.00000000000E+00 0. -1.
</event>
<event>
 5    1  0.8943334E-005  0.9118800E+02  0.7818608E-02  0.1130116E+00
         25   -1    0    0    0    0  0.00000000000E+00  0.00000000000E+00  0.99999998245E-14  0.12500000000E+03  0.12500000000E+03 0.  0.
        -13    1    3    3    0    0  0.19461933427E+02 -0.31582208914E+02  0.28307158141E+02  0.46663788302E+02  0.10566000000E+00 0. -1.
         23    2    1    0    0    0 -0.22696891900E+02 -0.11521782570E+02  0.15956958082E+02  0.94957948027E+02  0.90080447417E+02 0.  0.
         13    1    3    3    0    0 -0.42158825327E+02  0.20060426344E+02 -0.12350200059E+02  0.48294159725E+02  0.10566000000E+00 0.  1.
         22    1    1    0    0    0  0.22696891900E+02  0.11521782570E+02 -0.15956958082E+02  0.30042051973E+02  0.00000000000E+00 0. -1.
</event>
<event>
 5    1  0.8943334E-005  0.9118800E+02  0.7818608E-02  0.1130116E+00
         25   -1    0    0    0    0  0.00000000000E+00  0.00000000000E+00  0.99999998245E-14  0.12500000000E+03  0.12500000000E+03 0.  0.
        -13    1    3    3    0    0  0.25233819077E+02 -0.25719416396E+02 -0.28622827195E+00  0.36032306276E+02  0.10566000000E+00 0. -1.
         23    2    1    0    0    0 -0.20935988318E+02  0.12254647480E+02 -0.13474525002E+02  0.97250138456E+02  0.93206945095E+02 0.  0.
         13    1    3    3    0    0 -0.46169807394E+02  0.37974063876E+02 -0.13188296730E+02  0.61217832179E+02  0.10566000000E+00 0.  1.
         22    1    1    0    0    0  0.20935988318E+02 -0.12254647480E+02  0.13474525002E+02  0.27749861544E+02  0.00000000000E+00 0.  1.
</event>
<event>
 5    1  0.8943334E-005  0.9118800E+02  0.7818608E-02  0.1130116E+00
         25   -1    0    0    0    0  0.00000000000E+00  0.00000000000E+00  0.99999998245E-14  0.12500000000E+03  0.12500000000E+03 0.  0.
        -13    1    3    3    0    0 -0.52386727442E+02  0.38431932143E+01  0.29305059453E+02  0.60149289437E+02  0.10566000000E+00 0.  1.
         23    2    1    0    0    0 -0.23943418976E+02  0.13413064639E+02  0.10218305471E+02  0.95714997320E+02  0.91124910590E+02 0.  0.
         13    1    3    3    0    0  0.28443308466E+02  0.95698714251E+01 -0.19086753982E+02  0.35565707883E+02  0.10566000000E+00 0. -1.
         22    1    1    0    0    0  0.23943418976E+02 -0.13413064639E+02 -0.10218305471E+02  0.29285002680E+02  0.00000000000E+00 0.  1.
</event>
<event>
 5    1  0.8943334E-005  0.9118800E+02  0.7818608E-02  0.1130116E+00
         25   -1    0    0    0    0  0.00000000000E+00  0.00000000000E+00  0.99999998245E-14  0.12500000000E+03  0.12500000000E+03 0.  0.
        -13    1    3    3    0    0  0.26553313144E+02  0.47494157717E+01  0.51686139872E+02  0.58301831943E+02  0.10566000000E+00 0. -1.
         23    2    1    0    0    0  0.23922730947E+02 -0.57900232752E+01  0.15906980320E+02  0.95693798466E+02  0.91095826559E+02 0.  0.
         13    1    3    3    0    0 -0.26305821969E+01 -0.10539439047E+02 -0.35779159552E+02  0.37391966522E+02  0.10566000000E+00 0.  1.
         22    1    1    0    0    0 -0.23922730947E+02  0.57900232752E+01 -0.15906980320E+02  0.29306201534E+02  0.00000000000E+00 0. -1.
</event>
<event>
 5    1  0.8943334E-005  0.9118800E+02  0.7818608E-02  0.1130116E+00
         25   -1    0    0    0    0  0.00000000000E+00  0.00000000000E+00  0.99999998245E-14  0.12500000000E+03  0.12500000000E+03 0.  0.
        -13    1    3    3    0    0  0.27144360436E+02 -0.25909454477E+02  0.40231555017E+02  0.55015500705E+02  0.10566000000E+00 0.  1.
         23    2    1    0    0    0  0.21321129050E+02 -0.19489058889E+02  0.57922392283E-01  0.96113717522E+02  0.91670220795E+02 0.  0.
         13    1    3    3    0    0 -0.58232313855E+01  0.64203955876E+01 -0.40173632624E+02  0.41098216817E+02  0.10566000000E+00 0. -1.
         22    1    1    0    0    0 -0.21321129050E+02  0.19489058889E+02 -0.57922392283E-01  0.28886282478E+02  0.00000000000E+00 0.  1.
</event>
<event>
 5    1  0.8943334E-005  0.9118800E+02  0.7818608E-02  0.1130116E+00
         25   -1    0    0    0    0  0.00000000000E+00  0.00000000000E+00  0.99999998245E-14  0.12500000000E+03  0.12500000000E+03 0.  0.
        -13    1    3    3    0    0  0.23333872516E+02  0.47826861823E+02  0.27974950753E+02  0.60120606718E+02  0.10566000000E+00 0.  1.
         23    2    1    0    0    0  0.20227204489E+02  0.20014651334E+02  0.54906406911E+01  0.96019434018E+02  0.91541567086E+02 0.  0.
         13    1    3    3    0    0 -0.31066680277E+01 -0.27812210489E+02 -0.22484310062E+02  0.35898827300E+02  0.10566000000E+00 0. -1.
         22    1    1    0    0    0 -0.20227204489E+02 -0.20014651334E+02 -0.54906406911E+01  0.28980565982E+02  0.00000000000E+00 0.  1.
</event>
<event>
 5    1  0.8943334E-005  0.9118800E+02  0.7818608E-02  0.1130116E+00
         25   -1    0    0    0    0  0.00000000000E+00  0.00000000000E+00  0.99999998245E-14  0.12500000000E+03  0.12500000000E+03 0.  0.
        -13    1    3    3    0    0  0.43216379335E+02 -0.12814883347E+02 -0.10879011866E+02  0.46370688384E+02  0.10566000000E+00 0. -1.
         23    2    1    0    0    0 -0.84755081314E-01 -0.26511330425E+02  0.10396565521E+02  0.96522879378E+02  0.92226459568E+02 0.  0.
         13    1    3    3    0    0 -0.43301134416E+02 -0.13696447077E+02  0.21275577387E+02  0.50152190993E+02  0.10566000000E+00 0.  1.
         22    1    1    0    0    0  0.84755081314E-01  0.26511330425E+02 -0.10396565521E+02  0.28477120622E+02  0.00000000000E+00 0. -1.
</event>
<event>
 5    1  0.8943334E-005  0.9118800E+02  0.7818608E-02  0.1130116E+00
         25   -1    0    0    0    0  0.00000000000E+00  0.00000000000E+00  0.99999998245E-14  0.12500000000E+03  0.12500000000E+03 0.  0.
        -13    1    3    3    0    0  0.12669965241E+02  0.19311243945E+02 -0.31515327024E+02  0.39072741949E+02  0.10566000000E+00 0. -1.
         23    2    1    0    0    0 -0.21834668929E+02 -0.18070997195E+02 -0.58217735213E+01  0.96065474709E+02  0.91604414071E+02 0.  0.
         13    1    3    3    0    0 -0.34504634171E+02 -0.37382241140E+02  0.25693553503E+02  0.56992732761E+02  0.10566000000E+00 0.  1.
         22    1    1    0    0    0  0.21834668929E+02  0.18070997195E+02  0.58217735213E+01  0.28934525291E+02  0.00000000000E+00 0.  1.
</event>
<event>
 5    1  0.8943334E-005  0.9118800E+02  0.7818608E-02  0.1130116E+00
         25   -1    0    0    0    0  0.00000000000E+00  0.00000000000E+00  0.99999998245E-14  0.12500000000E+03  0.12500000000E+03 0.  0.
        -13    1    3    3    0    0 -0.26322570406E+02  0.13626694538E+02 -0.44238077379E+02  0.53250194094E+02  0.10566000000E+00 0.  1.
         23    2    1    0    0    0 -0.10351846332E+02 -0.18162810621E+02 -0.16941131687E+02  0.98091816209E+02  0.94328967195E+02 0.  0.
         13    1    3    3    0    0  0.15970724074E+02 -0.31789505159E+02  0.27296945692E+02  0.44841622115E+02  0.10566000000E+00 0. -1.
         22    1    1    0    0    0  0.10351846332E+02  0.18162810621E+02  0.16941131687E+02  0.26908183791E+02  0.00000000000E+00 0.  1.
</event>
<event>
 5    1  0.8943334E-005  0.9118800E+02  0.7818608E-02  0.1130116E+00
         25   -1    0    0    0    0  0.00000000000E+00  0.00000000000E+00  0.99999998245E-14  0.12500000000E+03  0.12500000000E+03 0.  0.
        -13    1    3    3    0    0  0.18791368302E+02 -0.50529457124E+02  0.25894202409E+02  0.59806876212E+02  0.10566000000E+00 0.  1.
         23    2    1    0    0    0  0.18501506224E+02 -0.19722022663E+02  0.38606681943E+01  0.97683911894E+02  0.93786875274E+02 0.  0.
         13    1    3    3    0    0 -0.28986207760E+00  0.30807434460E+02 -0.22033534214E+02  0.37877035682E+02  0.10566000000E+00 0. -1.
         22    1    1    0    0    0 -0.18501506224E+02  0.19722022663E+02 -0.38606681943E+01  0.27316088106E+02  0.00000000000E+00 0.  1.
</event>
<event>
 5    1  0.8943334E-005  0.9118800E+02  0.7818608E-02  0.1130116E+00
         25   -1    0    0    0    0  0.00000000000E+00  0.00000000000E+00  0.99999998245E-14  0.12500000000E+03  0.12500000000E+03 0.  0.
        -13    1    3    3    0    0  0.12094921198E+02 -0.34733213169E+02 -0.20927858561E+02  0.42316304704E+02  0.10566000000E+00 0. -1.
         23    2    1    0    0    0  0.95983822160E+01  0.20410646007E+02 -0.15174245605E+02  0.97815792429E+02  0.93962482445E+02 0.  0.
         13    1    3    3    0    0 -0.24965389824E+01  0.55143859175E+02  0.57536129561E+01  0.55499487725E+02  0.10566000000E+00 0.  1.
         22    1    1    0    0    0 -0.95983822160E+01 -0.20410646007E+02  0.15174245605E+02  0.27184207571E+02  0.00000000000E+00 0.  1.
</event>
<event>
 5    1  0.8943334E-005  0.9118800E+02  0.7818608E-02  0.1130116E+00
         25   -1    0    0    0    0  0.00000000000E+00  0.00000000000E+00  0.99999998245E-14  0.12500000000E+03  0.12500000000E+03 0.  0.
        -13    1    3    3    0    0 -0.47285812420E+02 -0.24453872041E+01  0.28014934536E+01  0.47431924949E+02  0.10566000000E+00 0.  1.
         23    2    1    0    0    0 -0.13370455320E+02  0.12273131624E+02  0.27612391445E+02  0.91956952370E+02  0.85815139064E+02 0.  0.
         13    1    3    3    0    0  0.33915357099E+02  0.14718518828E+02  0.24810897992E+02  0.44525027421E+02  0.10566000000E+00 0. -1.
         22    1    1    0    0    0  0.13370455320E+02 -0.12273131624E+02 -0.27612391445E+02  0.33043047630E+02  0.00000000000E+00 0.  1.
</event>
<event>
 5    1  0.8943334E-005  0.9118800E+02  0.7818608E-02  0.1130116E+00
         25   -1    0    0    0    0  0.00000000000E+00  0.00000000000E+00  0.99999998245E-14  0.12500000000E+03  0.12500000000E+03 0.  0.
        -13    1    3    3    0    0  0.16276694259E+02 -0.26390917819E+02 -0.36584232442E+02  0.47956527676E+02  0.10566000000E+00 0.  1.
         23    2    1    0    0    0  0.10381455486E+02  0.19080624652E+02 -0.14761165631E+02  0.98737158077E+02  0.95180300059E+02 0.  0.
         13    1    3    3    0    0 -0.58952387738E+01  0.45471542471E+02  0.21823066811E+02  0.50780630401E+02  0.10566000000E+00 0. -1.
         22    1    1    0    0    0 -0.10381455486E+02 -0.19080624652E+02  0.14761165631E+02  0.26262841923E+02  0.00000000000E+00 0.  1.
</event>
<event>
 5    1  0.8943334E-005  0.9118800E+02  0.7818608E-02  0.1130116E+00
         25   -1    0    0    0    0  0.00000000000E+00  0.00000000000E+00  0.99999998245E-14  0.12500000000E+03  0.12500000000E+03 0.  0.
        -13    1    3    3    0    0 -0.16549756149E+02  0.39281289263E+02  0.34496822900E+02  0.54835718916E+02  0.10566000000E+00 0.  1.
         23    2    1    0    0    0  0.53920950809E+01  0.58796484722E+01  0.28692474277E+02  0.95219082693E+02  0.90442084635E+02 0.  0.
         13    1    3    3    0    0  0.21941851230E+02 -0.33401640791E+02 -0.58043486225E+01  0.40383363777E+02  0.10566000000E+00 0. -1.
         22    1    1    0    0    0 -0.53920950809E+01 -0.58796484722E+01 -0.28692474277E+02  0.29780917307E+02  0.00000000000E+00 0.  1.
</event>
<event>
 5    1  0.8943334E-005  0.9118800E+02  0.7818608E-02  0.1130116E+00
         25   -1    0    0    0    0  0.00000000000E+00  0.00000000000E+00  0.99999998245E-14  0.12500000000E+03  0.12500000000E+03 0.  0.
        -13    1    3    3    0    0  0.55562154390E+02 -0.13880198544E+02  0.19830304300E+02  0.60605816922E+02  0.10566000000E+00 0.  1.
         23    2    1    0    0    0  0.21295762879E+02 -0.16271792498E+02  0.10644636615E+02  0.96162714477E+02  0.91737007904E+02 0.  0.
         13    1    3    3    0    0 -0.34266391512E+02 -0.23915939540E+01 -0.91856676846E+01  0.35556897555E+02  0.10566000000E+00 0. -1.
         22    1    1    0    0    0 -0.21295762879E+02  0.16271792498E+02 -0.10644636615E+02  0.28837285523E+02  0.00000000000E+00 0.  1.
</event>
<event>
 5    1  0.8943334E-005  0.9118800E+02  0.7818608E-02  0.1130116E+00
         25   -1    0    0    0    0  0.00000000000E+00  0.00000000000E+00  0.99999998245E-14  0.12500000000E+03  0.12500000000E+03 0.  0.
        -13    1    3    3    0    0  0.19697640517E+02  0.13030636253E+02  0.33493779737E+02  0.40983398690E+02  0.10566000000E+00 0.  1.
         23    2    1    0    0    0 -0.17644964283E+02 -0.20056819383E+02  0.74364656153E+01  0.97270560965E+02  0.93234329736E+02 0.  0.
         13    1    3    3    0    0 -0.37342604800E+02 -0.33087455637E+02 -0.26057314121E+02  0.56287162275E+02  0.10566000000E+00 0. -1.
         22    1    1    0    0    0  0.17644964283E+02  0.20056819383E+02 -0.74364656153E+01  0.27729439035E+02  0.00000000000E+00 0. -1.
</event>
<event>
 5    1  0.8943334E-005  0.9118800E+02  0.7818608E-02  0.1130116E+00
         25   -1    0    0    0    0  0.00000000000E+00  0.00000000000E+00  0.99999998245E-14  0.12500000000E+03  0.12500000000E+03 0.  0.
        -13    1    3    3    0    0 -0.25513310122E+02  0.76689806376E+01  0.47566445312E+02  0.54518988811E+02  0.10566000000E+00 0. -1.
         23    2    1    0    0    0 -0.26900134796E+02 -0.65692555056E+01  0.86373494892E+01  0.95993514930E+02  0.91506167729E+02 0.  0.
         13    1    3    3    0    0 -0.13868246743E+01 -0.14238236143E+02 -0.38929095823E+02  0.41474526118E+02  0.10566000000E+00 0.  1.
         22    1    1    0    0    0  0.26900134796E+02  0.65692555056E+01 -0.86373494892E+01  0.29006485070E+02  0.00000000000E+00 0. -1.
</event>
<event>
 5    1  0.8943334E-005  0.9118800E+02  0.7818608E-02  0.1130116E+00
         25   -1    0    0    0    0  0.00000000000E+00  0.00000000000E+00  0.99999998245E-14  0.12500000000E+03  0.12500000000E+03 0.  0.
        -13    1    3    3    0    0  0.96973215333E+01  0.17396059992E+01 -0.40528386223E+02  0.41708818346E+02  0.10566000000E+00 0.  1.
         23    2    1    0    0    0 -0.23953547017E+02 -0.14720510356E+02 -0.18411507999E-01  0.96884769629E+02  0.92715653518E+02 0.  0.
         13    1    3    3    0    0 -0.33650868550E+02 -0.16460116355E+02  0.40509974715E+02  0.55175951283E+02  0.10566000000E+00 0. -1.
         22    1    1    0    0    0  0.23953547017E+02  0.14720510356E+02  0.18411507999E-01  0.28115230371E+02  0.00000000000E+00 0.  1.
</event>
<event>
 5    1  0.8943334E-005  0.9118800E+02  0.7818608E-02  0.1130116E+00
         25   -1    0    0    0    0  0.00000000000E+00  0.00000000000E+00  0.99999998245E-14  0.12500000000E+03  0.12500000000E+03 0.  0.
        -13    1    3    3    0    0  0.36270190686E+02  0.16610748237E+02  0.20078124787E+02  0.44660787593E+02  0.10566000000E+00 0.  1.
         23    2    1    0    0    0  0.19556495076E+02 -0.13825742119E+01 -0.23324903093E+02  0.94530029284E+02  0.89484676459E+02 0.  0.
         13    1    3    3    0    0 -0.16713695610E+02 -0.17993322449E+02 -0.43403027880E+02  0.49869241692E+02  0.10566000000E+00 0. -1.
         22    1    1    0    0    0 -0.19556495076E+02  0.13825742119E+01  0.23324903093E+02  0.30469970716E+02  0.00000000000E+00 0. -1.
</event>
<event>
 5    1  0.8943334E-005  0.9118800E+02  0.7818608E-02  0.1130116E+00
         25   -1    0    0    0    0  0.00000000000E+00  0.00000000000E+00  0.99999998245E-14  0.12500000000E+03  0.12500000000E+03 0.  0.
        -13    1    3    3    0    0  0.27869005178E+02  0.35862054435E+02 -0.19311966782E+02  0.49353131845E+02  0.10566000000E+00 0.  1.
         23    2    1    0    0    0 -0.14676178035E+02  0.25366310099E+02 -0.70288874185E+01  0.94862894165E+02  0.89948449355E+02 0.  0.
         13    1    3    3    0    0 -0.42545183213E+02 -0.10495744336E+02  0.12283079363E+02  0.45509762320E+02  0.10566000000E+00 0. -1.
         22    1    1    0    0    0  0.14676178035E+02 -0.25366310099E+02  0.70288874185E+01  0.30137105835E+02  0.00000000000E+00 0. -1.
</event>
<event>
 5    1  0.8943334E-005  0.9118800E+02  0.7818608E-02  0.1130116E+00
         25   -1    0    0    0    0  0.00000000000E+00  0.00000000000E+00  0.99999998245E-14  0.12500000000E+03  0.12500000000E+03 0.  0.
        -13    1    3    3    0    0 -0.40016190951E+02 -0.87751868618E+01 -0.49557697953E+01  0.41265848604E+02  0.10566000000E+00 0.  1.
         23    2    1    0    0    0  0.33138024052E+01  0.16823657426E+01  0.28034339243E+02  0.96720399266E+02  0.92493782583E+02 0.  0.
         13    1    3    3    0    0  0.43329993356E+02  0.10457552604E+02  0.32990109039E+02  0.55454550662E+02  0.10566000000E+00 0. -1.
         22    1    1    0    0    0 -0.33138024052E+01 -0.16823657426E+01 -0.28034339243E+02  0.28279600734E+02  0.00000000000E+00 0. -1.
</event>
<event>
 5    1  0.8943334E-005  0.9118800E+02  0.7818608E-02  0.1130116E+00
         25   -1    0    0    0    0  0.00000000000E+00  0.00000000000E+00  0.99999998245E-14  0.12500000000E+03  0.12500000000E+03 0.  0.
        -13    1    3    3    0    0 -0.38813718018E+02 -0.33862402515E+02 -0.33775011045E+02  0.61594882463E+02  0.10566000000E+00 0.  1.
         23    2    1    0    0    0 -0.19233295454E+02 -0.13871544590E+02 -0.24064813138E+02  0.91214579554E+02  0.84726884096E+02 0.  0.
         13    1    3    3    0    0  0.19580422564E+02  0.19990857925E+02  0.97101979075E+01  0.29619697091E+02  0.10566000000E+00 0. -1.
         22    1    1    0    0    0  0.19233295454E+02  0.13871544590E+02  0.24064813138E+02  0.33785420446E+02  0.00000000000E+00 0.  1.
</event>
<event>
 5    1  0.8943334E-005  0.9118800E+02  0.7818608E-02  0.1130116E+00
         25   -1    0    0    0    0  0.00000000000E+00  0.00000000000E+00  0.99999998245E-14  0.12500000000E+03  0.12500000000E+03 0.  0.
        -13    1    3    3    0    0  0.41110048656E+02  0.16086719688E+02  0.74691180734E+00  0.44151870766E+02  0.10566000000E+00 0.  1.
         23    2    1    0    0    0  0.77239228768E+00 -0.17827724425E+01  0.28604581036E+02  0.96329511276E+02  0.91964002844E+02 0.  0.
         13    1    3    3    0    0 -0.40337656369E+02 -0.17869492130E+02  0.27857669229E+02  0.52177640510E+02  0.10566000000E+00 0. -1.
         22    1    1    0    0    0 -0.77239228768E+00  0.17827724425E+01 -0.28604581036E+02  0.28670488724E+02  0.00000000000E+00 0.  1.
</event>
<event>
 5    1  0.8943334E-005  0.9118800E+02  0.7818608E-02  0.1130116E+00
         25   -1    0    0    0    0  0.00000000000E+00  0.00000000000E+00  0.99999998245E-14  0.12500000000E+03  0.12500000000E+03 0.  0.
        -13    1    3    3    0    0  0.34422977778E+02 -0.17605221277E+02  0.11065322902E+02  0.40216137933E+02  0.10566000000E+00 0.  1.
         23    2    1    0    0    0  0.22417802222E+02  0.28573456738E+01  0.40862518958E+02  0.78304521243E+02  0.62858017076E+02 0.  0.
         13    1    3    3    0    0 -0.12005175556E+02  0.20462566951E+02  0.29797196055E+02  0.38088383310E+02  0.10566000000E+00 0. -1.
         22    1    1    0    0    0 -0.22417802222E+02 -0.28573456738E+01 -0.40862518958E+02  0.46695478757E+02  0.00000000000E+00 0. -1.
</event>
<event>
 5    1  0.8943334E-005  0.9118800E+02  0.7818608E-02  0.1130116E+00
         25   -1    0    0    0    0  0.00000000000E+00  0.00000000000E+00  0.99999998245E-14  0.12500000000E+03  0.12500000000E+03 0.  0.
        -13    1    3    3    0    0 -0.17301442992E+02  0.23931345722E+02 -0.39389849898E+02  0.49230282110E+02  0.10566000000E+00 0.  1.
         23    2    1    0    0    0 -0.19990719080E+01 -0.18012178279E+02 -0.20298240848E+02  0.97788725933E+02  0.93926468491E+02 0.  0.
         13    1    3    3    0    0  0.15302371084E+02 -0.41943524000E+02  0.19091609049E+02  0.48558443822E+02  0.10566000000E+00 0. -1.
         22    1    1    0    0    0  0.19990719080E+01  0.18012178279E+02  0.20298240848E+02  0.27211274067E+02  0.00000000000E+00 0. -1.
</event>
<event>
 5    1  0.8943334E-005  0.9118800E+02  0.7818608E-02  0.1130116E+00
         25   -1    0    0    0    0  0.00000000000E+00  0.00000000000E+00  0.99999998245E-14  0.12500000000E+03  0.12500000000E+03 0.  0.
        -13    1    3    3    0    0  0.32221824575E+02  0.58382343946E+01  0.32889359552E+02  0.46411766779E+02  0.10566000000E+00 0.  1.
         23    2    1    0    0    0  0.25895575651E+02 -0.43370186597E+01 -0.14302488700E+02  0.95100974060E+02  0.90278699121E+02 0.  0.
         13    1    3    3    0    0 -0.63262489237E+01 -0.10175253054E+02 -0.47191848252E+02  0.48689207281E+02  0.10566000000E+00 0. -1.
         22    1    1    0    0    0 -0.25895575651E+02  0.43370186597E+01  0.14302488700E+02  0.29899025940E+02  0.00000000000E+00 0. -1.
</event>
<event>
 5    1  0.8943334E-005  0.9118800E+02  0.7818608E-02  0.1130116E+00
         25   -1    0    0    0    0  0.00000000000E+00  0.00000000000E+00  0.99999998245E-14  0.12500000000E+03  0.12500000000E+03 0.  0.
        -13    1    3    3    0    0 -0.41505653041E+01  0.29407782857E+02  0.53366515619E+02  0.61074061911E+02  0.10566000000E+00 0. -1.
         23    2    1    0    0    0  0.64966293728E+01  0.10352650633E+02  0.27407477821E+02  0.94990777937E+02  0.90125992278E+02 0.  0.
         13    1    3    3    0    0  0.10647194677E+02 -0.19055132224E+02 -0.25959037798E+02  0.33916716026E+02  0.10566000000E+00 0.  1.
         22    1    1    0    0    0 -0.64966293728E+01 -0.10352650633E+02 -0.27407477821E+02  0.30009222063E+02  0.00000000000E+00 0. -1.
</event>
<event>
 5    1  0.8943334E-005  0.9118800E+02  0.7818608E-02  0.1130116E+00
         25   -1    0    0    0    0  0.00000000000E+00  0.00000000000E+00  0.99999998245E-14  0.12500000000E+03  0.12500000000E+03 0.  0.
        -13    1    3    3    0    0  0.17298584044E+02  0.19788745748E+02  0.53118478567E+02  0.59265667950E+02  0.10566000000E+00 0. -1.
         23    2    1    0    0    0  0.14592636653E+02 -0.32342547828E+01  0.26601238292E+02  0.94487194047E+02  0.89424820445E+02 0.  0.
         13    1    3    3    0    0 -0.27059473905E+01 -0.23023000531E+02 -0.26517240276E+02  0.35221526097E+02  0.10566000000E+00 0.  1.
         22    1    1    0    0    0 -0.14592636653E+02  0.32342547828E+01 -0.26601238292E+02  0.30512805953E+02  0.00000000000E+00 0. -1.
</event>
<event>
 5    1  0.8943334E-005  0.9118800E+02  0.7818608E-02  0.1130116E+00
         25   -1    0    0    0    0  0.00000000000E+00  0.00000000000E+00  0.99999998245E-14  0.12500000000E+03  0.12500000000E+03 0.  0.
        -13    1    3    3    0    0 -0.29234881321E+02  0.30774403332E+02  0.44461175461E+02  0.61469907058E+02  0.10566000000E+00 0.  1.
         23    2    1    0    0    0 -0.17610839027E+02  0.18457811411E+02  0.15130048183E+02  0.95339406423E+02  0.90608231446E+02 0.  0.
         13    1    3    3    0    0  0.11624042294E+02 -0.12316591921E+02 -0.29331127278E+02  0.33869499365E+02  0.10566000000E+00 0. -1.
         22    1    1    0    0    0  0.17610839027E+02 -0.18457811411E+02 -0.15130048183E+02  0.29660593577E+02  0.00000000000E+00 0.  1.
</event>
<event>
 5    1  0.8943334E-005  0.9118800E+02  0.7818608E-02  0.1130116E+00
         25   -1    0    0    0    0  0.00000000000E+00  0.00000000000E+00  0.99999998245E-14  0.12500000000E+03  0.12500000000E+03 0.  0.
        -13    1    3    3    0    0  0.47167251768E+02 -0.21380200819E+02 -0.50642691648E+01  0.52033841033E+02  0.10566000000E+00 0.  1.
         23    2    1    0    0    0  0.20479011726E+02 -0.12537253120E+01  0.21907305163E+02  0.94985140881E+02  0.90118173640E+02 0.  0.
         13    1    3    3    0    0 -0.26688240042E+02  0.20126475507E+02  0.26971574328E+02  0.42951299848E+02  0.10566000000E+00 0. -1.
         22    1    1    0    0    0 -0.20479011726E+02  0.12537253120E+01 -0.21907305163E+02  0.30014859119E+02  0.00000000000E+00 0.  1.
</event>
<event>
 5    1  0.8943334E-005  0.9118800E+02  0.7818608E-02  0.1130116E+00
         25   -1    0    0    0    0  0.00000000000E+00  0.00000000000E+00  0.99999998245E-14  0.12500000000E+03  0.12500000000E+03 0.  0.
        -13    1    3    3    0    0 -0.11097470055E+02 -0.25261491237E+02  0.20605580649E+02  0.34436868311E+02  0.10566000000E+00 0.  1.
         23    2    1    0    0    0 -0.15456968550E+02  0.16747803546E+02 -0.21207489486E+02  0.93868594463E+02  0.88555906725E+02 0.  0.
         13    1    3    3    0    0 -0.43594984948E+01  0.42009294783E+02 -0.41813070135E+02  0.59431726152E+02  0.10566000000E+00 0. -1.
         22    1    1    0    0    0  0.15456968550E+02 -0.16747803546E+02  0.21207489486E+02  0.31131405537E+02  0.00000000000E+00 0. -1.
</event>
<event>
 5    1  0.8943334E-005  0.9118800E+02  0.7818608E-02  0.1130116E+00
         25   -1    0    0    0    0  0.00000000000E+00  0.00000000000E+00  0.99999998245E-14  0.12500000000E+03  0.12500000000E+03 0.  0.
        -13    1    3    3    0    0 -0.24384133890E+01 -0.42535103302E+01 -0.53876536287E+02  0.54099265580E+02  0.10566000000E+00 0.  1.
         23    2    1    0    0    0 -0.10983066418E+02 -0.21434647896E+02 -0.17492795215E+02  0.95233076027E+02  0.90461422755E+02 0.  0.
         13    1    3    3    0    0 -0.85446530291E+01 -0.17181137565E+02  0.36383741072E+02  0.41133810447E+02  0.10566000000E+00 0. -1.
         22    1    1    0    0    0  0.10983066418E+02  0.21434647896E+02  0.17492795215E+02  0.29766923973E+02  0.00000000000E+00 0.  1.
</event>
<event>
 5    1  0.8943334E-005  0.9118800E+02  0.7818608E-02  0.1130116E+00
         25   -1    0    0    0    0  0.00000000000E+00  0.00000000000E+00  0.99999998245E-14  0.12500000000E+03  0.12500000000E+03 0.  0.
        -13    1    3    3    0    0  0.12091524490E+02  0.44389561650E+02  0.34026476887E+01  0.46132714242E+02  0.10566000000E+00 0.  1.
         23    2    1    0    0    0  0.28821905565E+02  0.51973166584E+01 -0.14458770736E+02  0.92338548837E+02  0.86369191320E+02 0.  0.
         13    1    3    3    0    0  0.16730381075E+02 -0.39192244992E+02 -0.17861418425E+02  0.46205834595E+02  0.10566000000E+00 0. -1.
         22    1    1    0    0    0 -0.28821905565E+02 -0.51973166584E+01  0.14458770736E+02  0.32661451163E+02  0.00000000000E+00 0. -1.
</event>
<event>
 5    1  0.8943334E-005  0.9118800E+02  0.7818608E-02  0.1130116E+00
         25   -1    0    0    0    0  0.00000000000E+00  0.00000000000E+00  0.99999998245E-14  0.12500000000E+03  0.12500000000E+03 0.  0.
        -13    1    3    3    0    0  0.10193620265E+02  0.57188733639E+02 -0.94498511175E+01  0.58853818904E+02  0.10566000000E+00 0.  1.
         23    2    1    0    0    0 -0.77515893137E+01  0.24911196551E+02  0.48632831445E+01  0.98461228864E+02  0.94817230586E+02 0.  0.
         13    1    3    3    0    0 -0.17945209578E+02 -0.32277537088E+02  0.14313134262E+02  0.39607409960E+02  0.10566000000E+00 0. -1.
         22    1    1    0    0    0  0.77515893137E+01 -0.24911196551E+02 -0.48632831445E+01  0.26538771136E+02  0.00000000000E+00 0.  1.
</event>
<event>
 5    1  0.8943334E-005  0.9118800E+02  0.7818608E-02  0.1130116E+00
         25   -1    0    0    0    0  0.00000000000E+00  0.00000000000E+00  0.99999998245E-14  0.12500000000E+03  0.12500000000E+03 0.  0.
        -13    1    3    3    0    0 -0.16843906033E+02 -0.56411759867E+02 -0.18753467609E+02  0.61787600157E+02  0.10566000000E+00 0.  1.
         23    2    1    0    0    0 -0.10039180982E+02 -0.24312427569E+02 -0.14748037418E+02  0.94844007282E+02  0.89922198709E+02 0.  0.
         13    1    3    3    0    0  0.68047250514E+01  0.32099332298E+02  0.40054301913E+01  0.33056407125E+02  0.10566000000E+00 0. -1.
         22    1    1    0    0    0  0.10039180982E+02  0.24312427569E+02  0.14748037418E+02  0.30155992718E+02  0.00000000000E+00 0.  1.
</event>
<event>
 5    1  0.8943334E-005  0.9118800E+02  0.7818608E-02  0.1130116E+00
         25   -1    0    0    0    0  0.00000000000E+00  0.00000000000E+00  0.99999998245E-14  0.12500000000E+03  0.12500000000E+03 0.  0.
        -13    1    3    3    0    0  0.33412883219E+02 -0.82007411383E+01  0.16858534011E+02  0.38313108113E+02  0.10566000000E+00 0. -1.
         23    2    1    0    0    0 -0.68269247650E+01  0.29189382851E+02  0.82049358644E+01  0.93920296888E+02  0.88628856599E+02 0.  0.
         13    1    3    3    0    0 -0.40239807984E+02  0.37390123990E+02 -0.86535981468E+01  0.55607188775E+02  0.10566000000E+00 0.  1.
         22    1    1    0    0    0  0.68269247650E+01 -0.29189382851E+02 -0.82049358644E+01  0.31079703112E+02  0.00000000000E+00 0. -1.
</event>
<event>
 4    1  0.8943334E-005  0.9118800E+02  0.7818608E-02  0.1130116E+00
         25   -1    0    0    0    0  0.00000000000E+00  0.00000000000E+00  0.99999998245E-14  0.12500000000E+03  0.12500000000E+03 0.  0.
        -13    1    1    0    0    0  0.11141830048E+01 -0.62257441396E+01  0.22773090479E+01  0.67229899893E+01  0.10566000000E+00 0.  1.
         13    1    1    0    0    0 -0.10286522008E+02 -0.51919263796E+02 -0.20342640732E+02  0.56703233454E+02  0.10566000000E+00 0. -1.
         22    1    1    0    0    0  0.91723390029E+01  0.58145007936E+02  0.18065331684E+02  0.61573776557E+02  0.00000000000E+00 0. -1.
</event>
<event>
 5    1  0.8943334E-005  0.9118800E+02  0.7818608E-02  0.1130116E+00
         25   -1    0    0    0    0  0.00000000000E+00  0.00000000000E+00  0.99999998245E-14  0.12500000000E+03  0.12500000000E+03 0.  0.
        -13    1    3    3    0    0  0.48125677831E+02  0.14092072107E+01  0.15573297510E+02  0.50602425742E+02  0.10566000000E+00 0.  1.
         23    2    1    0    0    0  0.17477666225E+02  0.25169635636E+02 -0.40951353107E+01  0.94084801344E+02  0.88860566822E+02 0.  0.
         13    1    3    3    0    0 -0.30648011606E+02  0.23760428425E+02 -0.19668432821E+02  0.43482375602E+02  0.10566000000E+00 0. -1.
         22    1    1    0    0    0 -0.17477666225E+02 -0.25169635636E+02  0.40951353107E+01  0.30915198656E+02  0.00000000000E+00 0.  1.
</event>
<event>
 5    1  0.8943334E-005  0.9118800E+02  0.7818608E-02  0.1130116E+00
         25   -1    0    0    0    0  0.00000000000E+00  0.00000000000E+00  0.99999998245E-14  0.12500000000E+03  0.12500000000E+03 0.  0.
        -13    1    3    3    0    0  0.12295558413E+02  0.44390828226E+02  0.35253196590E+02  0.58004529316E+02  0.10566000000E+00 0.  1.
         23    2    1    0    0    0  0.21436358126E+02  0.19673732948E+02  0.10772930617E+02  0.93973732872E+02  0.88704189405E+02 0.  0.
         13    1    3    3    0    0  0.91407997123E+01 -0.24717095277E+02 -0.24480265973E+02  0.35969203556E+02  0.10566000000E+00 0. -1.
         22    1    1    0    0    0 -0.21436358126E+02 -0.19673732948E+02 -0.10772930617E+02  0.31026267128E+02  0.00000000000E+00 0.  1.
</event>
<event>
 5    1  0.8943334E-005  0.9118800E+02  0.7818608E-02  0.1130116E+00
         25   -1    0    0    0    0  0.00000000000E+00  0.00000000000E+00  0.99999998245E-14  0.12500000000E+03  0.12500000000E+03 0.  0.
        -13    1    3    3    0    0  0.43193775955E+02  0.38173632417E+02  0.86538062081E+01  0.58290891390E+02  0.10566000000E+00 0.  1.
         23    2    1    0    0    0  0.24696373115E+02  0.65590983446E+01  0.14858946963E+02  0.95441229373E+02  0.90748594167E+02 0.  0.
         13    1    3    3    0    0 -0.18497402839E+02 -0.31614534072E+02  0.62051407552E+01  0.37150337983E+02  0.10566000000E+00 0. -1.
         22    1    1    0    0    0 -0.24696373115E+02 -0.65590983446E+01 -0.14858946963E+02  0.29558770627E+02  0.00000000000E+00 0.  1.
</event>
<event>
 5    1  0.8943334E-005  0.9118800E+02  0.7818608E-02  0.1130116E+00
         25   -1    0    0    0    0  0.00000000000E+00  0.00000000000E+00  0.99999998245E-14  0.12500000000E+03  0.12500000000E+03 0.  0.
        -13    1    3    3    0    0 -0.53766502451E+02 -0.55353290373E+01 -0.21343811273E+02  0.58112357525E+02  0.10566000000E+00 0.  1.
         23    2    1    0    0    0 -0.16083684354E+02 -0.76458154550E+01 -0.23024858503E+02  0.95891796596E+02  0.91367111966E+02 0.  0.
         13    1    3    3    0    0  0.37682818097E+02 -0.21104864177E+01 -0.16810472293E+01  0.37779439071E+02  0.10566000000E+00 0. -1.
         22    1    1    0    0    0  0.16083684354E+02  0.76458154550E+01  0.23024858503E+02  0.29108203404E+02  0.00000000000E+00 0.  1.
</event>
<event>
 5    1  0.8943334E-005  0.9118800E+02  0.7818608E-02  0.1130116E+00
         25   -1    0    0    0    0  0.00000000000E+00  0.00000000000E+00  0.99999998245E-14  0.12500000000E+03  0.12500000000E+03 0.  0.
        -13    1    3    3    0    0  0.37481602093E+02  0.44778253041E+02 -0.13562090025E+02  0.59949177565E+02  0.10566000000E+00 0. -1.
         23    2    1    0    0    0  0.91392521129E+01  0.28845629879E+02 -0.12521998867E+01  0.94715279482E+02  0.89743077006E+02 0.  0.
         13    1    3    3    0    0 -0.28342349980E+02 -0.15932623163E+02  0.12309890139E+02  0.34766101917E+02  0.10566000000E+00 0.  1.
         22    1    1    0    0    0 -0.91392521129E+01 -0.28845629879E+02  0.12521998867E+01  0.30284720518E+02  0.00000000000E+00 0. -1.
</event>
<event>
 5    1  0.8943334E-005  0.9118800E+02  0.7818608E-02  0.1130116E+00
         25   -1    0    0    0    0  0.00000000000E+00  0.00000000000E+00  0.99999998245E-14  0.12500000000E+03  0.12500000000E+03 0.  0.
        -13    1    3    3    0    0 -0.21083436455E+02 -0.87325070245E+01  0.27319564750E+02  0.35596878429E+02  0.10566000000E+00 0. -1.
         23    2    1    0    0    0  0.22106715643E+02 -0.12288537676E+02 -0.14520997653E+02  0.95835391181E+02  0.91289910697E+02 0.  0.
         13    1    3    3    0    0  0.43190152098E+02 -0.35560306511E+01 -0.41840562404E+02  0.60238512752E+02  0.10566000000E+00 0.  1.
         22    1    1    0    0    0 -0.22106715643E+02  0.12288537676E+02  0.14520997653E+02  0.29164608819E+02  0.00000000000E+00 0.  1.
</event>
<event>
 5    1  0.8943334E-005  0.9118800E+02  0.7818608E-02  0.1130116E+00
         25   -1    0    0    0    0  0.00000000000E+00  0.00000000000E+00  0.99999998245E-14  0.12500000000E+03  0.12500000000E+03 0.  0.
        -13    1    3    3    0    0  0.48928428010E+01  0.31018124464E+02 -0.17918239833E+02  0.36154369565E+02  0.10566000000E+00 0. -1.
         23    2    1    0    0    0 -0.23898865050E+02 -0.13891364463E+02  0.90283025473E+01  0.95920178745E+02  0.91405933540E+02 0.  0.
         13    1    3    3    0    0 -0.28791707851E+02 -0.44909488927E+02  0.26946542381E+02  0.59765809180E+02  0.10566000000E+00 0.  1.
         22    1    1    0    0    0  0.23898865050E+02  0.13891364463E+02 -0.90283025473E+01  0.29079821255E+02  0.00000000000E+00 0.  1.
</event>
<event>
 5    1  0.8943334E-005  0.9118800E+02  0.7818608E-02  0.1130116E+00
         25   -1    0    0    0    0  0.00000000000E+00  0.00000000000E+00  0.99999998245E-14  0.12500000000E+03  0.12500000000E+03 0.  0.
        -13    1    3    3    0    0 -0.32310985127E+02 -0.79408256742E+00 -0.13730838167E+02  0.35116625803E+02  0.10566000000E+00 0.  1.
         23    2    1    0    0    0  0.28185922151E+02 -0.83870033285E+00 -0.20828166678E+01  0.96724785570E+02  0.92499710230E+02 0.  0.
         13    1    3    3    0    0  0.60496907279E+02 -0.44617765432E-01  0.11648021499E+02  0.61608159767E+02  0.10566000000E+00 0. -1.
         22    1    1    0    0    0 -0.28185922151E+02  0.83870033285E+00  0.20828166678E+01  0.28275214430E+02  0.00000000000E+00 0. -1.
</event>
<event>
 5    1  0.8943334E-005  0.9118800E+02  0.7818608E-02  0.1130116E+00
         25   -1    0    0    0    0  0.00000000000E+00  0.00000000000E+00  0.99999998245E-14  0.12500000000E+03  0.12500000000E+03 0.  0.
        -13    1    3    3    0    0  0.32808885852E+02 -0.67694440054E+01  0.89091045335E+01  0.34664559288E+02  0.10566000000E+00 0.  1.
         23    2    1    0    0    0 -0.18257866107E+02  0.30438544636E+01 -0.22847347376E+02  0.95595646463E+02  0.90961044496E+02 0.  0.
         13    1    3    3    0    0 -0.51066751959E+02  0.98132984691E+01 -0.31756451909E+02  0.60931087176E+02  0.10566000000E+00 0. -1.
         22    1    1    0    0    0  0.18257866107E+02 -0.30438544636E+01  0.22847347376E+02  0.29404353537E+02  0.00000000000E+00 0. -1.
</event>
<event>
 5    1  0.8943334E-005  0.9118800E+02  0.7818608E-02  0.1130116E+00
         25   -1    0    0    0    0  0.00000000000E+00  0.00000000000E+00  0.99999998245E-14  0.12500000000E+03  0.12500000000E+03 0.  0.
        -13    1    3    3    0    0 -0.52797795798E+01 -0.27665521916E+02 -0.35268080722E+02  0.45134309091E+02  0.10566000000E+00 0.  1.
         23    2    1    0    0    0  0.24809990933E+02 -0.10330655101E+02  0.43039826657E+01  0.97782682871E+02  0.93918425870E+02 0.  0.
         13    1    3    3    0    0  0.30089770513E+02  0.17334866815E+02  0.39572063387E+02  0.52648373781E+02  0.10566000000E+00 0. -1.
         22    1    1    0    0    0 -0.24809990933E+02  0.10330655101E+02 -0.43039826657E+01  0.27217317129E+02  0.00000000000E+00 0. -1.
</event>
<event>
 5    1  0.8943334E-005  0.9118800E+02  0.7818608E-02  0.1130116E+00
         25   -1    0    0    0    0  0.00000000000E+00  0.00000000000E+00  0.99999998245E-14  0.12500000000E+03  0.12500000000E+03 0.  0.
        -13    1    3    3    0    0  0.46844568688E+02 -0.31061967292E+02  0.21178447022E+02  0.60064941604E+02  0.10566000000E+00 0. -1.
         23    2    1    0    0    0  0.13700772654E+02 -0.23084746105E+02  0.13243234253E+02  0.95066742116E+02  0.90231289080E+02 0.  0.
         13    1    3    3    0    0 -0.33143796034E+02  0.79772211873E+01 -0.79352127688E+01  0.35001800512E+02  0.10566000000E+00 0.  1.
         22    1    1    0    0    0 -0.13700772654E+02  0.23084746105E+02 -0.13243234253E+02  0.29933257884E+02  0.00000000000E+00 0. -1.
</event>
<event>
 5    1  0.8943334E-005  0.9118800E+02  0.7818608E-02  0.1130116E+00
         25   -1    0    0    0    0  0.00000000000E+00  0.00000000000E+00  0.99999998245E-14  0.12500000000E+03  0.12500000000E+03 0.  0.
        -13    1    3    3    0    0 -0.16186811793E+02  0.15644652689E+02 -0.39927697589E+02  0.45836669082E+02  0.10566000000E+00 0.  1.
         23    2    1    0    0    0  0.50416228177E+01  0.29072412743E+02  0.27583205779E+01  0.95365029514E+02  0.90643573288E+02 0.  0.
         13    1    3    3    0    0  0.21228434610E+02  0.13427760053E+02  0.42686018167E+02  0.49528360431E+02  0.10566000000E+00 0. -1.
         22    1    1    0    0    0 -0.50416228177E+01 -0.29072412743E+02 -0.27583205779E+01  0.29634970486E+02  0.00000000000E+00 0. -1.
</event>
<event>
 5    1  0.8943334E-005  0.9118800E+02  0.7818608E-02  0.1130116E+00
         25   -1    0    0    0    0  0.00000000000E+00  0.00000000000E+00  0.99999998245E-14  0.12500000000E+03  0.12500000000E+03 0.  0.
        -13    1    3    3    0    0 -0.25785626551E+01  0.23608607433E+02 -0.50538217811E+02  0.55840289700E+02  0.10566000000E+00 0.  1.
         23    2    1    0    0    0 -0.16547916934E+02  0.20321796006E+02 -0.13587615641E+02  0.95479968723E+02  0.90801939301E+02 0.  0.
         13    1    3    3    0    0 -0.13969354279E+02 -0.32868114275E+01  0.36950602169E+02  0.39639679023E+02  0.10566000000E+00 0. -1.
         22    1    1    0    0    0  0.16547916934E+02 -0.20321796006E+02  0.13587615641E+02  0.29520031277E+02  0.00000000000E+00 0.  1.
</event>
<event>
 5    1  0.8943334E-005  0.9118800E+02  0.7818608E-02  0.1130116E+00
         25   -1    0    0    0    0  0.00000000000E+00  0.00000000000E+00  0.99999998245E-14  0.12500000000E+03  0.12500000000E+03 0.  0.
        -13    1    3    3    0    0 -0.30055558078E+02 -0.82651029207E+01 -0.15270612740E+02  0.34710967649E+02  0.10566000000E+00 0.  1.
         23    2    1    0    0    0  0.23035983012E+02  0.15104881264E+02  0.65474045375E+01  0.96686002446E+02  0.92447285582E+02 0.  0.
         13    1    3    3    0    0  0.53091541090E+02  0.23369984185E+02  0.21818017277E+02  0.61975034797E+02  0.10566000000E+00 0. -1.
         22    1    1    0    0    0 -0.23035983012E+02 -0.15104881264E+02 -0.65474045375E+01  0.28313997554E+02  0.00000000000E+00 0. -1.
</event>
<event>
 5    1  0.8943334E-005  0.9118800E+02  0.7818608E-02  0.1130116E+00
         25   -1    0    0    0    0  0.00000000000E+00  0.00000000000E+00  0.99999998245E-14  0.12500000000E+03  0.12500000000E+03 0.  0.
        -13    1    3    3    0    0  0.20378396162E+02  0.17564904940E+02  0.13204286167E+02  0.29969472015E+02  0.10566000000E+00 0. -1.
         23    2    1    0    0    0 -0.33301073771E+02 -0.80700698176E+01  0.85478729905E+00  0.90724378890E+02  0.84000563823E+02 0.  0.
         13    1    3    3    0    0 -0.53679469933E+02 -0.25634974757E+02 -0.12349498868E+02  0.60754906875E+02  0.10566000000E+00 0.  1.
         22    1    1    0    0    0  0.33301073771E+02  0.80700698176E+01 -0.85478729905E+00  0.34275621110E+02  0.00000000000E+00 0.  1.
</event>
<event>
 5    1  0.8943334E-005  0.9118800E+02  0.7818608E-02  0.1130116E+00
         25   -1    0    0    0    0  0.00000000000E+00  0.00000000000E+00  0.99999998245E-14  0.12500000000E+03  0.12500000000E+03 0.  0.
        -13    1    3    3    0    0  0.40572142836E+01  0.28437540019E+02  0.49351969580E+02  0.57103263791E+02  0.10566000000E+00 0. -1.
         23    2    1    0    0    0  0.19415337874E+02  0.15612549663E+02  0.18126110517E+02  0.94189889091E+02  0.89008270811E+02 0.  0.
         13    1    3    3    0    0  0.15358123591E+02 -0.12824990356E+02 -0.31225859063E+02  0.37086625300E+02  0.10566000000E+00 0.  1.
         22    1    1    0    0    0 -0.19415337874E+02 -0.15612549663E+02 -0.18126110517E+02  0.30810110909E+02  0.00000000000E+00 0. -1.
</event>
<event>
 5    1  0.8943334E-005  0.9118800E+02  0.7818608E-02  0.1130116E+00
         25   -1    0    0    0    0  0.00000000000E+00  0.00000000000E+00  0.99999998245E-14  0.12500000000E+03  0.12500000000E+03 0.  0.
        -13    1    3    3    0    0  0.13511736756E+02  0.34464111888E+02 -0.49278672393E+02  0.61633925360E+02  0.10566000000E+00 0.  1.
         23    2    1    0    0    0 -0.61664337499E-01  0.15360257319E+02 -0.26818449963E+02  0.94094166152E+02  0.88873739305E+02 0.  0.
         13    1    3    3    0    0 -0.13573401093E+02 -0.19103854569E+02  0.22460222430E+02  0.32460240792E+02  0.10566000000E+00 0. -1.
         22    1    1    0    0    0  0.61664337499E-01 -0.15360257319E+02  0.26818449963E+02  0.30905833848E+02  0.00000000000E+00 0.  1.
</event>
<event>
 5    1  0.8943334E-005  0.9118800E+02  0.7818608E-02  0.1130116E+00
         25   -1    0    0    0    0  0.00000000000E+00  0.00000000000E+00  0.99999998245E-14  0.12500000000E+03  0.12500000000E+03 0.  0.
        -13    1    3    3    0    0  0.55001008441E+02  0.23937419916E+02  0.10450161254E+01  0.59993451513E+02  0.10566000000E+00 0. -1.
         23    2    1    0    0    0  0.23545319647E+02  0.13503876339E+02  0.12578664400E+02  0.95084125426E+02  0.90255367466E+02 0.  0.
         13    1    3    3    0    0 -0.31455688794E+02 -0.10433543577E+02  0.11533648275E+02  0.35090673913E+02  0.10566000000E+00 0.  1.
         22    1    1    0    0    0 -0.23545319647E+02 -0.13503876339E+02 -0.12578664400E+02  0.29915874574E+02  0.00000000000E+00 0. -1.
</event>
<event>
 5    1  0.8943334E-005  0.9118800E+02  0.7818608E-02  0.1130116E+00
         25   -1    0    0    0    0  0.00000000000E+00  0.00000000000E+00  0.99999998245E-14  0.12500000000E+03  0.12500000000E+03 0.  0.
        -13    1    3    3    0    0 -0.13449901710E+02  0.31128685686E+02  0.21067936678E+01  0.33975648223E+02  0.10566000000E+00 0.  1.
         23    2    1    0    0    0  0.79366419446E+01 -0.20797125927E+02  0.22144515982E+02  0.93601109570E+02  0.88177533377E+02 0.  0.
         13    1    3    3    0    0  0.21386543655E+02 -0.51925811614E+02  0.20037722314E+02  0.59625461347E+02  0.10566000000E+00 0. -1.
         22    1    1    0    0    0 -0.79366419446E+01  0.20797125927E+02 -0.22144515982E+02  0.31398890430E+02  0.00000000000E+00 0. -1.
</event>
<event>
 5    1  0.8943334E-005  0.9118800E+02  0.7818608E-02  0.1130116E+00
         25   -1    0    0    0    0  0.00000000000E+00  0.00000000000E+00  0.99999998245E-14  0.12500000000E+03  0.12500000000E+03 0.  0.
        -13    1    3    3    0    0  0.15299416864E+02 -0.17194971266E+02 -0.57483979744E+02  0.61920580459E+02  0.10566000000E+00 0. -1.
         23    2    1    0    0    0  0.92854738767E+01 -0.21839910010E+01 -0.25806239880E+02  0.97487241895E+02  0.93524384381E+02 0.  0.
         13    1    3    3    0    0 -0.60139429869E+01  0.15010980265E+02  0.31677739864E+02  0.35566661436E+02  0.10566000000E+00 0.  1.
         22    1    1    0    0    0 -0.92854738767E+01  0.21839910010E+01  0.25806239880E+02  0.27512758105E+02  0.00000000000E+00 0. -1.
</event>
<event>
 5    1  0.8943334E-005  0.9118800E+02  0.7818608E-02  0.1130116E+00
         25   -1    0    0    0    0  0.00000000000E+00  0.00000000000E+00  0.99999998245E-14  0.12500000000E+03  0.12500000000E+03 0.  0.
        -13    1    3    3    0    0  0.24570593367E+02  0.14450805188E+01  0.26877714197E+02  0.36444821314E+02  0.10566000000E+00 0.  1.
         23    2    1    0    0    0 -0.66268378039E+01 -0.28006068082E+02 -0.11500068162E+02  0.94007962371E+02  0.88752411757E+02 0.  0.
         13    1    3    3    0    0 -0.31197431170E+02 -0.29451148601E+02 -0.38377782358E+02  0.57563141057E+02  0.10566000000E+00 0. -1.
         22    1    1    0    0    0  0.66268378039E+01  0.28006068082E+02  0.11500068162E+02  0.30992037629E+02  0.00000000000E+00 0. -1.
</event>
<event>
 5    1  0.8943334E-005  0.9118800E+02  0.7818608E-02  0.1130116E+00
         25   -1    0    0    0    0  0.00000000000E+00  0.00000000000E+00  0.99999998245E-14  0.12500000000E+03  0.12500000000E+03 0.  0.
        -13    1    3    3    0    0 -0.16636702927E+02 -0.30334758277E+02  0.34665313979E+02  0.48976245276E+02  0.10566000000E+00 0.  1.
         23    2    1    0    0    0 -0.14221417268E+02  0.14810669853E+02  0.19556119299E+02  0.96644287125E+02  0.92390864166E+02 0.  0.
         13    1    3    3    0    0  0.24152856595E+01  0.45145428130E+02 -0.15109194680E+02  0.47668041850E+02  0.10566000000E+00 0. -1.
         22    1    1    0    0    0  0.14221417268E+02 -0.14810669853E+02 -0.19556119299E+02  0.28355712875E+02  0.00000000000E+00 0. -1.
</event>
<event>
 5    1  0.8943334E-005  0.9118800E+02  0.7818608E-02  0.1130116E+00
         25   -1    0    0    0    0  0.00000000000E+00  0.00000000000E+00  0.99999998245E-14  0.12500000000E+03  0.12500000000E+03 0.  0.
        -13    1    3    3    0    0 -0.37471004438E+02 -0.59684209655E+01  0.32447356178E+02  0.49925347364E+02  0.10566000000E+00 0.  1.
         23    2    1    0    0    0 -0.46843516116E+01  0.19340928965E+02  0.26637452579E+02  0.91749908825E+02  0.85513023606E+02 0.  0.
         13    1    3    3    0    0  0.32786652827E+02  0.25309349931E+02 -0.58099035991E+01  0.41824561461E+02  0.10566000000E+00 0. -1.
         22    1    1    0    0    0  0.46843516116E+01 -0.19340928965E+02 -0.26637452579E+02  0.33250091175E+02  0.00000000000E+00 0.  1.
</event>
<event>
 5    1  0.8943334E-005  0.9118800E+02  0.7818608E-02  0.1130116E+00
         25   -1    0    0    0    0  0.00000000000E+00  0.00000000000E+00  0.99999998245E-14  0.12500000000E+03  0.12500000000E+03 0.  0.
        -13    1    3    3    0    0  0.39776023335E+02  0.72200027916E+01  0.45241542379E+02  0.60671812183E+02  0.10566000000E+00 0.  1.
         23    2    1    0    0    0  0.19485354404E+02  0.11107106844E+02  0.12678441047E+02  0.99235882975E+02  0.95833035764E+02 0.  0.
         13    1    3    3    0    0 -0.20290668931E+02  0.38871040525E+01 -0.32563101333E+02  0.38564070792E+02  0.10566000000E+00 0. -1.
         22    1    1    0    0    0 -0.19485354404E+02 -0.11107106844E+02 -0.12678441047E+02  0.25764117025E+02  0.00000000000E+00 0.  1.
</event>
<event>
 5    1  0.8943334E-005  0.9118800E+02  0.7818608E-02  0.1130116E+00
         25   -1    0    0    0    0  0.00000000000E+00  0.00000000000E+00  0.99999998245E-14  0.12500000000E+03  0.12500000000E+03 0.  0.
        -13    1    3    3    0    0 -0.45582970928E+02  0.39601954178E+02  0.63221813901E-01  0.60383252433E+02  0.10566000000E+00 0.  1.
         23    2    1    0    0    0 -0.26957895460E+02  0.10477812013E+02  0.60049782043E+01  0.95460662915E+02  0.90775358598E+02 0.  0.
         13    1    3    3    0    0  0.18625075468E+02 -0.29124142165E+02  0.59417563904E+01  0.35077410482E+02  0.10566000000E+00 0. -1.
         22    1    1    0    0    0  0.26957895460E+02 -0.10477812013E+02 -0.60049782043E+01  0.29539337085E+02  0.00000000000E+00 0.  1.
</event>
<event>
 5    1  0.8943334E-005  0.9118800E+02  0.7818608E-02  0.1130116E+00
         25   -1    0    0    0    0  0.00000000000E+00  0.00000000000E+00  0.99999998245E-14  0.12500000000E+03  0.12500000000E+03 0.  0.
        -13    1    3    3    0    0 -0.21075637305E+02 -0.75780020088E+01  0.30791357429E+02  0.38075286718E+02  0.10566000000E+00 0.  1.
         23    2    1    0    0    0  0.84877877676E+01 -0.21854330917E+02 -0.16988557902E+02  0.96047186309E+02  0.91579454996E+02 0.  0.
         13    1    3    3    0    0  0.29563425073E+02 -0.14276328908E+02 -0.47779915332E+02  0.57971899592E+02  0.10566000000E+00 0. -1.
         22    1    1    0    0    0 -0.84877877676E+01  0.21854330917E+02  0.16988557902E+02  0.28952813691E+02  0.00000000000E+00 0. -1.
</event>
<event>
 4    1  0.8943334E-005  0.9118800E+02  0.7818608E-02  0.1130116E+00
         25   -1    0    0    0    0  0.00000000000E+00  0.00000000000E+00  0.99999998245E-14  0.12500000000E+03  0.12500000000E+03 0.  0.
        -13    1    1    0    0    0  0.11619384769E+02  0.27814592776E+01 -0.44668050405E+00  0.11956475469E+02  0.10566000000E+00 0.  1.
         13    1    1    0    0    0 -0.15760419880E+01 -0.55057545222E+01 -0.55673153332E+02  0.55967029644E+02  0.10566000000E+00 0. -1.
         22    1    1    0    0    0 -0.10043342781E+02  0.27242952446E+01  0.56119833836E+02  0.57076494887E+02  0.00000000000E+00 0. -1.
</event>
<event>
 5    1  0.8943334E-005  0.9118800E+02  0.7818608E-02  0.1130116E+00
         25   -1    0    0    0    0  0.00000000000E+00  0.00000000000E+00  0.99999998245E-14  0.12500000000E+03  0.12500000000E+03 0.  0.
        -13    1    3    3    0    0 -0.12759775442E+02  0.54977100560E+02  0.16637263411E+02  0.58839639302E+02  0.10566000000E+00 0.  1.
         23    2    1    0    0    0 -0.90827753111E+00  0.26528444630E+02 -0.68479527336E+01  0.97586904603E+02  0.93657493832E+02 0.  0.
         13    1    3    3    0    0  0.11851497911E+02 -0.28448655930E+02 -0.23485216144E+02  0.38747265301E+02  0.10566000000E+00 0. -1.
         22    1    1    0    0    0  0.90827753111E+00 -0.26528444630E+02  0.68479527336E+01  0.27413095397E+02  0.00000000000E+00 0.  1.
</event>
<event>
 5    1  0.8943334E-005  0.9118800E+02  0.7818608E-02  0.1130116E+00
         25   -1    0    0    0    0  0.00000000000E+00  0.00000000000E+00  0.99999998245E-14  0.12500000000E+03  0.12500000000E+03 0.  0.
        -13    1    3    3    0    0 -0.26983976197E+02 -0.51445594256E+01  0.48925138797E+02  0.56109552069E+02  0.10566000000E+00 0. -1.
         23    2    1    0    0    0 -0.23039528698E+02 -0.15206734126E+02  0.11446641287E+02  0.95115384524E+02  0.90298649663E+02 0.  0.
         13    1    3    3    0    0  0.39444474988E+01 -0.10062174701E+02 -0.37478497511E+02  0.39005832455E+02  0.10566000000E+00 0.  1.
         22    1    1    0    0    0  0.23039528698E+02  0.15206734126E+02 -0.11446641287E+02  0.29884615476E+02  0.00000000000E+00 0.  1.
</event>
<event>
 5    1  0.8943334E-005  0.9118800E+02  0.7818608E-02  0.1130116E+00
         25   -1    0    0    0    0  0.00000000000E+00  0.00000000000E+00  0.99999998245E-14  0.12500000000E+03  0.12500000000E+03 0.  0.
        -13    1    3    3    0    0 -0.17242309662E+01  0.20407853594E+02 -0.55219797038E+02  0.58895590749E+02  0.10566000000E+00 0. -1.
         23    2    1    0    0    0 -0.61050722703E+01  0.21528167389E+02 -0.18296040868E+02  0.96095346223E+02  0.91645166570E+02 0.  0.
         13    1    3    3    0    0 -0.43808413041E+01  0.11203137946E+01  0.36923756170E+02  0.37199755474E+02  0.10566000000E+00 0.  1.
         22    1    1    0    0    0  0.61050722703E+01 -0.21528167389E+02  0.18296040868E+02  0.28904653777E+02  0.00000000000E+00 0. -1.
</event>
<event>
 5    1  0.8943334E-005  0.9118800E+02  0.7818608E-02  0.1130116E+00
         25   -1    0    0    0    0  0.00000000000E+00  0.00000000000E+00  0.99999998245E-14  0.12500000000E+03  0.12500000000E+03 0.  0.
        -13    1    3    3    0    0 -0.15186360175E+02  0.33494415707E+02  0.88930009026E+01  0.37836464528E+02  0.10566000000E+00 0. -1.
         23    2    1    0    0    0 -0.33221134374E+01 -0.13285451682E+02 -0.24782734223E+02  0.96685276274E+02  0.92446303704E+02 0.  0.
         13    1    3    3    0    0  0.11864246738E+02 -0.46779867389E+02 -0.33675735126E+02  0.58848811746E+02  0.10566000000E+00 0.  1.
         22    1    1    0    0    0  0.33221134374E+01  0.13285451682E+02  0.24782734223E+02  0.28314723726E+02  0.00000000000E+00 0.  1.
</event>
<event>
 5    1  0.8943334E-005  0.9118800E+02  0.7818608E-02  0.1130116E+00
         25   -1    0    0    0    0  0.00000000000E+00  0.00000000000E+00  0.99999998245E-14  0.12500000000E+03  0.12500000000E+03 0.  0.
        -13    1    3    3    0    0 -0.12482673022E+02 -0.35540306026E+02 -0.19389733229E+02  0.42366300250E+02  0.10566000000E+00 0.  1.
         23    2    1    0    0    0 -0.11428481004E+02  0.18874880002E+02 -0.17522131859E+02  0.96823833156E+02  0.92633462037E+02 0.  0.
         13    1    3    3    0    0  0.10541920173E+01  0.54415186028E+02  0.18676013697E+01  0.54457532906E+02  0.10566000000E+00 0. -1.
         22    1    1    0    0    0  0.11428481004E+02 -0.18874880002E+02  0.17522131859E+02  0.28176166844E+02  0.00000000000E+00 0. -1.
</event>
<event>
 5    1  0.8943334E-005  0.9118800E+02  0.7818608E-02  0.1130116E+00
         25   -1    0    0    0    0  0.00000000000E+00  0.00000000000E+00  0.99999998245E-14  0.12500000000E+03  0.12500000000E+03 0.  0.
        -13    1    3    3    0    0  0.41852995660E+00  0.19552308763E+02  0.32244977665E+02  0.37712301626E+02  0.10566000000E+00 0. -1.
         23    2    1    0    0    0 -0.19261313245E+02 -0.22897000700E+02 -0.92200521820E+00  0.95064721104E+02  0.90228489270E+02 0.  0.
         13    1    3    3    0    0 -0.19679843202E+02 -0.42449309463E+02 -0.33166982883E+02  0.57352419478E+02  0.10566000000E+00 0.  1.
         22    1    1    0    0    0  0.19261313245E+02  0.22897000700E+02  0.92200521820E+00  0.29935278896E+02  0.00000000000E+00 0.  1.
</event>
<event>
 5    1  0.8943334E-005  0.9118800E+02  0.7818608E-02  0.1130116E+00
         25   -1    0    0    0    0  0.00000000000E+00  0.00000000000E+00  0.99999998245E-14  0.12500000000E+03  0.12500000000E+03 0.  0.
        -13    1    3    3    0    0 -0.79027023363E+01  0.40492377466E+02  0.82055679406E+01  0.42064567588E+02  0.10566000000E+00 0. -1.
         23    2    1    0    0    0  0.51893803014E+01 -0.56852642693E+01  0.29455023622E+02  0.94555783566E+02  0.89520645057E+02 0.  0.
         13    1    3    3    0    0  0.13092082638E+02 -0.46177641736E+02  0.21249455681E+02  0.52491215978E+02  0.10566000000E+00 0.  1.
         22    1    1    0    0    0 -0.51893803014E+01  0.56852642693E+01 -0.29455023622E+02  0.30444216434E+02  0.00000000000E+00 0.  1.
</event>
<event>
 5    1  0.8943334E-005  0.9118800E+02  0.7818608E-02  0.1130116E+00
         25   -1    0    0    0    0  0.00000000000E+00  0.00000000000E+00  0.99999998245E-14  0.12500000000E+03  0.12500000000E+03 0.  0.
        -13    1    3    3    0    0  0.77035827292E+01  0.50326175220E+02 -0.27712812959E+02  0.57966199334E+02  0.10566000000E+00 0.  1.
         23    2    1    0    0    0  0.13984992523E+02  0.13735246337E+02 -0.22007843518E+02  0.95528281622E+02  0.90868423589E+02 0.  0.
         13    1    3    3    0    0  0.62814097936E+01 -0.36590928882E+02  0.57049694407E+01  0.37562082288E+02  0.10566000000E+00 0. -1.
         22    1    1    0    0    0 -0.13984992523E+02 -0.13735246337E+02  0.22007843518E+02  0.29471718378E+02  0.00000000000E+00 0.  1.
</event>
<event>
 5    1  0.8943334E-005  0.9118800E+02  0.7818608E-02  0.1130116E+00
         25   -1    0    0    0    0  0.00000000000E+00  0.00000000000E+00  0.99999998245E-14  0.12500000000E+03  0.12500000000E+03 0.  0.
        -13    1    3    3    0    0  0.26819865038E+02 -0.29377454043E+02  0.14371337826E+02  0.42295230011E+02  0.10566000000E+00 0.  1.
         23    2    1    0    0    0 -0.23191341943E+02 -0.17800021196E+02 -0.57065223995E+00  0.95759535919E+02  0.91185985654E+02 0.  0.
         13    1    3    3    0    0 -0.50011206981E+02  0.11577432847E+02 -0.14941990066E+02  0.53464305908E+02  0.10566000000E+00 0. -1.
         22    1    1    0    0    0  0.23191341943E+02  0.17800021196E+02  0.57065223995E+00  0.29240464081E+02  0.00000000000E+00 0.  1.
</event>
<event>
 5    1  0.8943334E-005  0.9118800E+02  0.7818608E-02  0.1130116E+00
         25   -1    0    0    0    0  0.00000000000E+00  0.00000000000E+00  0.99999998245E-14  0.12500000000E+03  0.12500000000E+03 0.  0.
        -13    1    3    3    0    0 -0.16384475698E+02  0.18064303094E+02  0.48695934606E+02  0.54461686545E+02  0.10566000000E+00 0. -1.
         23    2    1    0    0    0  0.52328077144E+01  0.25169321978E+02  0.14652389985E+02  0.95409975031E+02  0.90705533225E+02 0.  0.
         13    1    3    3    0    0  0.21617283412E+02  0.71050188843E+01 -0.34043544621E+02  0.40948288485E+02  0.10566000000E+00 0.  1.
         22    1    1    0    0    0 -0.52328077144E+01 -0.25169321978E+02 -0.14652389985E+02  0.29590024969E+02  0.00000000000E+00 0. -1.
</event>
<event>
 5    1  0.8943334E-005  0.9118800E+02  0.7818608E-02  0.1130116E+00
         25   -1    0    0    0    0  0.00000000000E+00  0.00000000000E+00  0.99999998245E-14  0.12500000000E+03  0.12500000000E+03 0.  0.
        -13    1    3    3    0    0  0.28862675078E+02  0.12619703091E+02  0.21046693870E+02  0.37885160759E+02  0.10566000000E+00 0. -1.
         23    2    1    0    0    0 -0.18255429123E+02 -0.17623495608E+02  0.17870923520E+02  0.93964243245E+02  0.88690815822E+02 0.  0.
         13    1    3    3    0    0 -0.47118104202E+02 -0.30243198699E+02 -0.31757703502E+01  0.56079082486E+02  0.10566000000E+00 0.  1.
         22    1    1    0    0    0  0.18255429123E+02  0.17623495608E+02 -0.17870923520E+02  0.31035756755E+02  0.00000000000E+00 0.  1.
</event>
<event>
 5    1  0.8943334E-005  0.9118800E+02  0.7818608E-02  0.1130116E+00
         25   -1    0    0    0    0  0.00000000000E+00  0.00000000000E+00  0.99999998245E-14  0.12500000000E+03  0.12500000000E+03 0.  0.
        -13    1    3    3    0    0 -0.93520292547E+01 -0.23191188316E+02  0.26522897078E+02  0.36452255076E+02  0.10566000000E+00 0.  1.
         23    2    1    0    0    0  0.49109738947E+01  0.29118687100E+02  0.38552957423E+01  0.95219487777E+02  0.90442644500E+02 0.  0.
         13    1    3    3    0    0  0.14263003149E+02  0.52309875416E+02 -0.22667601336E+02  0.58767232700E+02  0.10566000000E+00 0. -1.
         22    1    1    0    0    0 -0.49109738947E+01 -0.29118687100E+02 -0.38552957423E+01  0.29780512223E+02  0.00000000000E+00 0. -1.
</event>
<event>
 5    1  0.8943334E-005  0.9118800E+02  0.7818608E-02  0.1130116E+00
         25   -1    0    0    0    0  0.00000000000E+00  0.00000000000E+00  0.99999998245E-14  0.12500000000E+03  0.12500000000E+03 0.  0.
        -13    1    3    3    0    0 -0.17035258408E+02 -0.58115796909E+02 -0.16158269915E+01  0.60582736322E+02  0.10566000000E+00 0. -1.
         23    2    1    0    0    0 -0.29855482240E+00 -0.27886737261E+02  0.71077643404E+01  0.96220153510E+02  0.91815240443E+02 0.  0.
         13    1    3    3    0    0  0.16736703585E+02  0.30229059648E+02  0.87235913319E+01  0.35637417188E+02  0.10566000000E+00 0.  1.
         22    1    1    0    0    0  0.29855482240E+00  0.27886737261E+02 -0.71077643404E+01  0.28779846490E+02  0.00000000000E+00 0. -1.
</event>
<event>
 5    1  0.8943334E-005  0.9118800E+02  0.7818608E-02  0.1130116E+00
         25   -1    0    0    0    0  0.00000000000E+00  0.00000000000E+00  0.99999998245E-14  0.12500000000E+03  0.12500000000E+03 0.  0.
        -13    1    3    3    0    0  0.35973580536E+01  0.84570173226E+01 -0.43812711164E+02  0.44766359586E+02  0.10566000000E+00 0.  1.
         23    2    1    0    0    0  0.18499263751E+02 -0.21520110802E+02 -0.47243598110E+01  0.96230962757E+02  0.91829955294E+02 0.  0.
         13    1    3    3    0    0  0.14901905698E+02 -0.29977128124E+02  0.39088351354E+02  0.51464603171E+02  0.10566000000E+00 0. -1.
         22    1    1    0    0    0 -0.18499263751E+02  0.21520110802E+02  0.47243598110E+01  0.28769037243E+02  0.00000000000E+00 0. -1.
</event>
<event>
 5    1  0.8943334E-005  0.9118800E+02  0.7818608E-02  0.1130116E+00
         25   -1    0    0    0    0  0.00000000000E+00  0.00000000000E+00  0.99999998245E-14  0.12500000000E+03  0.12500000000E+03 0.  0.
        -13    1    3    3    0    0  0.95060460172E+00  0.11624867581E+01  0.32235347567E+02  0.32270479101E+02  0.10566000000E+00 0.  1.
         23    2    1    0    0    0 -0.24354940087E+01  0.10253050216E+02 -0.28935171772E+02  0.94205506413E+02  0.89030200512E+02 0.  0.
         13    1    3    3    0    0 -0.33860986104E+01  0.90905634584E+01 -0.61170519340E+02  0.61935027312E+02  0.10566000000E+00 0. -1.
         22    1    1    0    0    0  0.24354940087E+01 -0.10253050216E+02  0.28935171772E+02  0.30794493587E+02  0.00000000000E+00 0. -1.
</event>
<event>
 5    1  0.8943334E-005  0.9118800E+02  0.7818608E-02  0.1130116E+00
         25   -1    0    0    0    0  0.00000000000E+00  0.00000000000E+00  0.99999998245E-14  0.12500000000E+03  0.12500000000E+03 0.  0.
        -13    1    3    3    0    0  0.90830761886E+01 -0.71754854691E+01  0.38638525374E+02  0.40335303047E+02  0.10566000000E+00 0. -1.
         23    2    1    0    0    0 -0.30072134689E+02  0.77555863322E+01  0.61951824368E+01  0.93331992650E+02  0.87795205806E+02 0.  0.
         13    1    3    3    0    0 -0.39155210877E+02  0.14931071801E+02 -0.32443342937E+02  0.52996689604E+02  0.10566000000E+00 0.  1.
         22    1    1    0    0    0  0.30072134689E+02 -0.77555863322E+01 -0.61951824368E+01  0.31668007350E+02  0.00000000000E+00 0.  1.
</event>
<event>
 5    1  0.8943334E-005  0.9118800E+02  0.7818608E-02  0.1130116E+00
         25   -1    0    0    0    0  0.00000000000E+00  0.00000000000E+00  0.99999998245E-14  0.12500000000E+03  0.12500000000E+03 0.  0.
        -13    1    3    3    0    0 -0.95567618314E+01 -0.55239651529E+02 -0.12394069250E+02  0.57414065475E+02  0.10566000000E+00 0.  1.
         23    2    1    0    0    0 -0.18161803204E+02 -0.12025754766E+02 -0.83887281974E+01  0.10165817843E+03  0.98942127571E+02 0.  0.
         13    1    3    3    0    0 -0.86050413723E+01  0.43213896763E+02  0.40053410523E+01  0.44244112958E+02  0.10566000000E+00 0. -1.
         22    1    1    0    0    0  0.18161803204E+02  0.12025754766E+02  0.83887281974E+01  0.23341821567E+02  0.00000000000E+00 0.  1.
</event>
<event>
 5    1  0.8943334E-005  0.9118800E+02  0.7818608E-02  0.1130116E+00
         25   -1    0    0    0    0  0.00000000000E+00  0.00000000000E+00  0.99999998245E-14  0.12500000000E+03  0.12500000000E+03 0.  0.
        -13    1    3    3    0    0 -0.23904824401E+02  0.23856525584E+02  0.79532387275E+01  0.34696391929E+02  0.10566000000E+00 0. -1.
         23    2    1    0    0    0  0.25168008428E+02 -0.10560184762E+02 -0.76913647687E+01  0.96643285761E+02  0.92389509362E+02 0.  0.
         13    1    3    3    0    0  0.49072832829E+02 -0.34416710345E+02 -0.15644603496E+02  0.61946893832E+02  0.10566000000E+00 0.  1.
         22    1    1    0    0    0 -0.25168008428E+02  0.10560184762E+02  0.76913647687E+01  0.28356714239E+02  0.00000000000E+00 0.  1.
</event>
<event>
 5    1  0.8943334E-005  0.9118800E+02  0.7818608E-02  0.1130116E+00
         25   -1    0    0    0    0  0.00000000000E+00  0.00000000000E+00  0.99999998245E-14  0.12500000000E+03  0.12500000000E+03 0.  0.
        -13    1    3    3    0    0 -0.50819105301E+02  0.26930681388E+02 -0.75686658288E+01  0.58009817532E+02  0.10566000000E+00 0.  1.
         23    2    1    0    0    0 -0.14336085541E+02  0.26437885413E+02 -0.33653716972E+01  0.94737632934E+02  0.89774206950E+02 0.  0.
         13    1    3    3    0    0  0.36483019760E+02 -0.49279597478E+00  0.42032941315E+01  0.36727815402E+02  0.10566000000E+00 0. -1.
         22    1    1    0    0    0  0.14336085541E+02 -0.26437885413E+02  0.33653716972E+01  0.30262367066E+02  0.00000000000E+00 0.  1.
</event>
<event>
 5    1  0.8943334E-005  0.9118800E+02  0.7818608E-02  0.1130116E+00
         25   -1    0    0    0    0  0.00000000000E+00  0.00000000000E+00  0.99999998245E-14  0.12500000000E+03  0.12500000000E+03 0.  0.
        -13    1    3    3    0    0  0.23227001158E+02 -0.31373794428E+02 -0.66558564061E+01  0.39599496816E+02  0.10566000000E+00 0.  1.
         23    2    1    0    0    0 -0.10730877824E+02  0.31612073762E+01 -0.29719979582E+02  0.93244336610E+02  0.87670315116E+02 0.  0.
         13    1    3    3    0    0 -0.33957878983E+02  0.34535001804E+02 -0.23064123176E+02  0.53644839794E+02  0.10566000000E+00 0. -1.
         22    1    1    0    0    0  0.10730877824E+02 -0.31612073762E+01  0.29719979582E+02  0.31755663390E+02  0.00000000000E+00 0. -1.
</event>
<event>
 5    1  0.8943334E-005  0.9118800E+02  0.7818608E-02  0.1130116E+00
         25   -1    0    0    0    0  0.00000000000E+00  0.00000000000E+00  0.99999998245E-14  0.12500000000E+03  0.12500000000E+03 0.  0.
        -13    1    3    3    0    0 -0.36615765713E+02 -0.11763093213E+02 -0.35318724908E+02  0.52215976040E+02  0.10566000000E+00 0.  1.
         23    2    1    0    0    0 -0.34721235535E+01 -0.26812902968E+02 -0.12196797627E+02  0.95339432239E+02  0.90608267061E+02 0.  0.
         13    1    3    3    0    0  0.33143642159E+02 -0.15049809755E+02  0.23121927281E+02  0.43123456199E+02  0.10566000000E+00 0. -1.
         22    1    1    0    0    0  0.34721235535E+01  0.26812902968E+02  0.12196797627E+02  0.29660567761E+02  0.00000000000E+00 0.  1.
</event>
<event>
 5    1  0.8943334E-005  0.9118800E+02  0.7818608E-02  0.1130116E+00
         25   -1    0    0    0    0  0.00000000000E+00  0.00000000000E+00  0.99999998245E-14  0.12500000000E+03  0.12500000000E+03 0.  0.
        -13    1    3    3    0    0 -0.42977969343E+02 -0.28239803637E+02 -0.21669898947E+02  0.55804910561E+02  0.10566000000E+00 0. -1.
         23    2    1    0    0    0 -0.25668454405E+02  0.68348718599E+01 -0.76115533458E+01  0.97368120419E+02  0.93365036843E+02 0.  0.
         13    1    3    3    0    0  0.17309514938E+02  0.35074675497E+02  0.14058345602E+02  0.41563209858E+02  0.10566000000E+00 0.  1.
         22    1    1    0    0    0  0.25668454405E+02 -0.68348718599E+01  0.76115533458E+01  0.27631879581E+02  0.00000000000E+00 0. -1.
</event>
<event>
 5    1  0.8943334E-005  0.9118800E+02  0.7818608E-02  0.1130116E+00
         25   -1    0    0    0    0  0.00000000000E+00  0.00000000000E+00  0.99999998245E-14  0.12500000000E+03  0.12500000000E+03 0.  0.
        -13    1    3    3    0    0  0.39324205654E+02 -0.27719390076E+02 -0.15399730296E+02  0.50516537824E+02  0.10566000000E+00 0.  1.
         23    2    1    0    0    0 -0.44954647042E+01 -0.28536118978E+02 -0.37209430792E+01  0.95873299077E+02  0.91341801872E+02 0.  0.
         13    1    3    3    0    0 -0.43819670359E+02 -0.81672890252E+00  0.11678787217E+02  0.45356761253E+02  0.10566000000E+00 0. -1.
         22    1    1    0    0    0  0.44954647042E+01  0.28536118978E+02  0.37209430792E+01  0.29126700923E+02  0.00000000000E+00 0.  1.
</event>
<event>
 5    1  0.8943334E-005  0.9118800E+02  0.7818608E-02  0.1130116E+00
         25   -1    0    0    0    0  0.00000000000E+00  0.00000000000E+00  0.99999998245E-14  0.12500000000E+03  0.12500000000E+03 0.  0.
        -13    1    3    3    0    0 -0.39082536775E+02  0.37093715267E+02  0.19063404556E+02  0.57156040367E+02  0.10566000000E+00 0.  1.
         23    2    1    0    0    0 -0.28273590770E+02  0.33622677476E+01  0.20437135504E+01  0.96453939948E+02  0.92132974482E+02 0.  0.
         13    1    3    3    0    0  0.10808946005E+02 -0.33731447520E+02 -0.17019691006E+02  0.39297899581E+02  0.10566000000E+00 0. -1.
         22    1    1    0    0    0  0.28273590770E+02 -0.33622677476E+01 -0.20437135504E+01  0.28546060052E+02  0.00000000000E+00 0.  1.
</event>
<event>
 5    1  0.8943334E-005  0.9118800E+02  0.7818608E-02  0.1130116E+00
         25   -1    0    0    0    0  0.00000000000E+00  0.00000000000E+00  0.99999998245E-14  0.12500000000E+03  0.12500000000E+03 0.  0.
        -13    1    3    3    0    0  0.62174862764E+01 -0.23566037507E+02 -0.22841570925E+02  0.33403050546E+02  0.10566000000E+00 0.  1.
         23    2    1    0    0    0 -0.21528593983E+01  0.67119229104E+01  0.29621127603E+02  0.94551750243E+02  0.89515013047E+02 0.  0.
         13    1    3    3    0    0 -0.83703456747E+01  0.30277960417E+02  0.52462698529E+02  0.61148699698E+02  0.10566000000E+00 0. -1.
         22    1    1    0    0    0  0.21528593983E+01 -0.67119229104E+01 -0.29621127603E+02  0.30448249757E+02  0.00000000000E+00 0. -1.
</event>
<event>
 5    1  0.8943334E-005  0.9118800E+02  0.7818608E-02  0.1130116E+00
         25   -1    0    0    0    0  0.00000000000E+00  0.00000000000E+00  0.99999998245E-14  0.12500000000E+03  0.12500000000E+03 0.  0.
        -13    1    3    3    0    0 -0.41684675117E+02  0.17587616469E+02  0.40417014942E+02  0.60666981576E+02  0.10566000000E+00 0. -1.
         23    2    1    0    0    0 -0.13612627661E+02  0.86947453660E+01  0.28104346627E+02  0.92584625127E+02  0.86724600211E+02 0.  0.
         13    1    3    3    0    0  0.28072047455E+02 -0.88928711031E+01 -0.12312668315E+02  0.31917643551E+02  0.10566000000E+00 0.  1.
         22    1    1    0    0    0  0.13612627661E+02 -0.86947453660E+01 -0.28104346627E+02  0.32415374873E+02  0.00000000000E+00 0. -1.
</event>
<event>
 5    1  0.8943334E-005  0.9118800E+02  0.7818608E-02  0.1130116E+00
         25   -1    0    0    0    0  0.00000000000E+00  0.00000000000E+00  0.99999998245E-14  0.12500000000E+03  0.12500000000E+03 0.  0.
        -13    1    3    3    0    0 -0.76259882091E+01  0.40831630603E+02 -0.38447714324E+02  0.56600491647E+02  0.10566000000E+00 0.  1.
         23    2    1    0    0    0  0.14872496010E+02  0.22681981053E+02 -0.13907491801E+02  0.94519157980E+02  0.89469489185E+02 0.  0.
         13    1    3    3    0    0  0.22498484220E+02 -0.18149649550E+02  0.24540222523E+02  0.37918666333E+02  0.10566000000E+00 0. -1.
         22    1    1    0    0    0 -0.14872496010E+02 -0.22681981053E+02  0.13907491801E+02  0.30480842020E+02  0.00000000000E+00 0.  1.
</event>
<event>
 5    1  0.8943334E-005  0.9118800E+02  0.7818608E-02  0.1130116E+00
         25   -1    0    0    0    0  0.00000000000E+00  0.00000000000E+00  0.99999998245E-14  0.12500000000E+03  0.12500000000E+03 0.  0.
        -13    1    3    3    0    0 -0.27371262338E+02  0.33260581654E+02 -0.29585513140E+02  0.52256732061E+02  0.10566000000E+00 0. -1.
         23    2    1    0    0    0 -0.29345750301E+02  0.81060556529E+00 -0.87431133830E+00  0.95630039795E+02  0.91008296044E+02 0.  0.
         13    1    3    3    0    0 -0.19744879626E+01 -0.32449976088E+02  0.28711201802E+02  0.43373307734E+02  0.10566000000E+00 0.  1.
         22    1    1    0    0    0  0.29345750301E+02 -0.81060556529E+00  0.87431133830E+00  0.29369960205E+02  0.00000000000E+00 0. -1.
</event>
<event>
 5    1  0.8943334E-005  0.9118800E+02  0.7818608E-02  0.1130116E+00
         25   -1    0    0    0    0  0.00000000000E+00  0.00000000000E+00  0.99999998245E-14  0.12500000000E+03  0.12500000000E+03 0.  0.
        -13    1    3    3    0    0  0.10736160887E+02 -0.34289840548E+02  0.34039351961E+02  0.49494918540E+02  0.10566000000E+00 0. -1.
         23    2    1    0    0    0 -0.22225587859E+02 -0.46617343644E+01  0.15319082392E+02  0.97606883925E+02  0.93684155443E+02 0.  0.
         13    1    3    3    0    0 -0.32961748746E+02  0.29628106183E+02 -0.18720269568E+02  0.48111965384E+02  0.10566000000E+00 0.  1.
         22    1    1    0    0    0  0.22225587859E+02  0.46617343644E+01 -0.15319082392E+02  0.27393116075E+02  0.00000000000E+00 0.  1.
</event>
<event>
 5    1  0.8943334E-005  0.9118800E+02  0.7818608E-02  0.1130116E+00
         25   -1    0    0    0    0  0.00000000000E+00  0.00000000000E+00  0.99999998245E-14  0.12500000000E+03  0.12500000000E+03 0.  0.
        -13    1    3    3    0    0  0.81343288301E+01  0.38104242207E+02 -0.39786193743E+02  0.55687098652E+02  0.10566000000E+00 0.  1.
         23    2    1    0    0    0 -0.12698246044E+02  0.25801436094E+02 -0.89488394683E+01  0.94882873893E+02  0.89976210596E+02 0.  0.
         13    1    3    3    0    0 -0.20832574874E+02 -0.12302806113E+02  0.30837354274E+02  0.39195775241E+02  0.10566000000E+00 0. -1.
         22    1    1    0    0    0  0.12698246044E+02 -0.25801436094E+02  0.89488394683E+01  0.30117126107E+02  0.00000000000E+00 0.  1.
</event>
<event>
 5    1  0.8943334E-005  0.9118800E+02  0.7818608E-02  0.1130116E+00
         25   -1    0    0    0    0  0.00000000000E+00  0.00000000000E+00  0.99999998245E-14  0.12500000000E+03  0.12500000000E+03 0.  0.
        -13    1    3    3    0    0  0.12889700243E+02 -0.44915707782E+02 -0.12379537738E+02  0.48340762267E+02  0.10566000000E+00 0.  1.
         23    2    1    0    0    0 -0.24658148112E+01 -0.35926407315E+01 -0.29164268879E+02  0.95512004318E+02  0.90846029519E+02 0.  0.
         13    1    3    3    0    0 -0.15355515054E+02  0.41323067051E+02 -0.16784731141E+02  0.47171242050E+02  0.10566000000E+00 0. -1.
         22    1    1    0    0    0  0.24658148112E+01  0.35926407315E+01  0.29164268879E+02  0.29487995682E+02  0.00000000000E+00 0.  1.
</event>
<event>
 5    1  0.8943334E-005  0.9118800E+02  0.7818608E-02  0.1130116E+00
         25   -1    0    0    0    0  0.00000000000E+00  0.00000000000E+00  0.99999998245E-14  0.12500000000E+03  0.12500000000E+03 0.  0.
        -13    1    3    3    0    0 -0.35339053553E+02 -0.13964104797E+02  0.57185477507E+01  0.38426005272E+02  0.10566000000E+00 0. -1.
         23    2    1    0    0    0  0.12607710886E+02  0.16336209139E+02  0.19297159915E+02  0.96747451732E+02  0.92530335204E+02 0.  0.
         13    1    3    3    0    0  0.47946764439E+02  0.30300313937E+02  0.13578612164E+02  0.58321446460E+02  0.10566000000E+00 0.  1.
         22    1    1    0    0    0 -0.12607710886E+02 -0.16336209139E+02 -0.19297159915E+02  0.28252548268E+02  0.00000000000E+00 0.  1.
</event>
<event>
 5    1  0.8943334E-005  0.9118800E+02  0.7818608E-02  0.1130116E+00
         25   -1    0    0    0    0  0.00000000000E+00  0.00000000000E+00  0.99999998245E-14  0.12500000000E+03  0.12500000000E+03 0.  0.
        -13    1    3    3    0    0  0.11022475400E+02 -0.55344269869E+02  0.21615773675E+02  0.60429595456E+02  0.10566000000E+00 0. -1.
         23    2    1    0    0    0 -0.32428318543E+01 -0.22185132384E+02  0.17087118956E+02  0.96810184613E+02  0.92615042803E+02 0.  0.
         13    1    3    3    0    0 -0.14265307254E+02  0.33159137485E+02 -0.45286547196E+01  0.36380589157E+02  0.10566000000E+00 0.  1.
         22    1    1    0    0    0  0.32428318543E+01  0.22185132384E+02 -0.17087118956E+02  0.28189815387E+02  0.00000000000E+00 0. -1.
</event>
<event>
 5    1  0.8943334E-005  0.9118800E+02  0.7818608E-02  0.1130116E+00
         25   -1    0    0    0    0  0.00000000000E+00  0.00000000000E+00  0.99999998245E-14  0.12500000000E+03  0.12500000000E+03 0.  0.
        -13    1    3    3    0    0 -0.66411488706E+01  0.10395222999E+02  0.22689192095E+02  0.25825880846E+02  0.10566000000E+00 0. -1.
         23    2    1    0    0    0 -0.14053750768E+02  0.25464475360E+01 -0.36402553794E+02  0.85895802931E+02  0.76478433122E+02 0.  0.
         13    1    3    3    0    0 -0.74126018970E+01 -0.78487754627E+01 -0.59091745889E+02  0.60069922085E+02  0.10566000000E+00 0.  1.
         22    1    1    0    0    0  0.14053750768E+02 -0.25464475360E+01  0.36402553794E+02  0.39104197069E+02  0.00000000000E+00 0.  1.
</event>
<event>
 5    1  0.8943334E-005  0.9118800E+02  0.7818608E-02  0.1130116E+00
         25   -1    0    0    0    0  0.00000000000E+00  0.00000000000E+00  0.99999998245E-14  0.12500000000E+03  0.12500000000E+03 0.  0.
        -13    1    3    3    0    0  0.24010774932E+02  0.22488262032E+02 -0.21822494101E+02  0.39477482884E+02  0.10566000000E+00 0. -1.
         23    2    1    0    0    0 -0.16381732972E+02  0.18960374164E+02  0.16280928393E+02  0.95118139399E+02  0.90302463144E+02 0.  0.
         13    1    3    3    0    0 -0.40392507905E+02 -0.35278878676E+01  0.38103422493E+02  0.55640656515E+02  0.10566000000E+00 0.  1.
         22    1    1    0    0    0  0.16381732972E+02 -0.18960374164E+02 -0.16280928393E+02  0.29881860601E+02  0.00000000000E+00 0.  1.
</event>
<event>
 5    1  0.8943334E-005  0.9118800E+02  0.7818608E-02  0.1130116E+00
         25   -1    0    0    0    0  0.00000000000E+00  0.00000000000E+00  0.99999998245E-14  0.12500000000E+03  0.12500000000E+03 0.  0.
        -13    1    3    3    0    0  0.25943281857E+02 -0.25675152699E+02  0.19700420153E+02  0.41477524732E+02  0.10566000000E+00 0. -1.
         23    2    1    0    0    0  0.18787456355E+02  0.91051501747E+01 -0.20929804271E+02  0.95437710122E+02  0.90743746510E+02 0.  0.
         13    1    3    3    0    0 -0.71558255016E+01  0.34780302874E+02 -0.40630224424E+02  0.53960185391E+02  0.10566000000E+00 0.  1.
         22    1    1    0    0    0 -0.18787456355E+02 -0.91051501747E+01  0.20929804271E+02  0.29562289878E+02  0.00000000000E+00 0. -1.
</event>
<event>
 5    1  0.8943334E-005  0.9118800E+02  0.7818608E-02  0.1130116E+00
         25   -1    0    0    0    0  0.00000000000E+00  0.00000000000E+00  0.99999998245E-14  0.12500000000E+03  0.12500000000E+03 0.  0.
        -13    1    3    3    0    0 -0.85306910054E+00  0.46824802388E+02 -0.15225749309E+02  0.49245552608E+02  0.10566000000E+00 0. -1.
         23    2    1    0    0    0  0.15581441169E+02  0.23389021933E+02  0.16846584711E+02  0.92233628942E+02  0.86217209624E+02 0.  0.
         13    1    3    3    0    0  0.16434510270E+02 -0.23435780455E+02  0.32072334020E+02  0.42988076334E+02  0.10566000000E+00 0.  1.
         22    1    1    0    0    0 -0.15581441169E+02 -0.23389021933E+02 -0.16846584711E+02  0.32766371058E+02  0.00000000000E+00 0.  1.
</event>
<event>
 5    1  0.8943334E-005  0.9118800E+02  0.7818608E-02  0.1130116E+00
         25   -1    0    0    0    0  0.00000000000E+00  0.00000000000E+00  0.99999998245E-14  0.12500000000E+03  0.12500000000E+03 0.  0.
        -13    1    3    3    0    0 -0.47096104868E+02  0.22050107860E+02  0.24211467390E+02  0.57362502278E+02  0.10566000000E+00 0.  1.
         23    2    1    0    0    0 -0.25378073556E+02 -0.39585366897E+01  0.21762725325E+02  0.91334990811E+02  0.84904344428E+02 0.  0.
         13    1    3    3    0    0  0.21718031312E+02 -0.26008644550E+02 -0.24487420650E+01  0.33972488533E+02  0.10566000000E+00 0. -1.
         22    1    1    0    0    0  0.25378073556E+02  0.39585366897E+01 -0.21762725325E+02  0.33665009189E+02  0.00000000000E+00 0.  1.
</event>
<event>
 5    1  0.8943334E-005  0.9118800E+02  0.7818608E-02  0.1130116E+00
         25   -1    0    0    0    0  0.00000000000E+00  0.00000000000E+00  0.99999998245E-14  0.12500000000E+03  0.12500000000E+03 0.  0.
        -13    1    3    3    0    0 -0.25462225684E+02  0.14606654917E+02  0.53465970658E+02  0.60994266018E+02  0.10566000000E+00 0. -1.
         23    2    1    0    0    0 -0.61216968185E+01  0.14615934128E+02  0.24100313583E+02  0.96156875739E+02  0.91729051748E+02 0.  0.
         13    1    3    3    0    0  0.19340528865E+02  0.92792115913E-02 -0.29365657075E+02  0.35162609721E+02  0.10566000000E+00 0.  1.
         22    1    1    0    0    0  0.61216968185E+01 -0.14615934128E+02 -0.24100313583E+02  0.28843124261E+02  0.00000000000E+00 0. -1.
</event>
<event>
 5    1  0.8943334E-005  0.9118800E+02  0.7818608E-02  0.1130116E+00
         25   -1    0    0    0    0  0.00000000000E+00  0.00000000000E+00  0.99999998245E-14  0.12500000000E+03  0.12500000000E+03 0.  0.
        -13    1    3    3    0    0  0.26665360381E+02  0.18167666902E+02 -0.13666467151E+02  0.35041247885E+02  0.10566000000E+00 0. -1.
         23    2    1    0    0    0 -0.28431260165E+02 -0.26868705821E+01  0.30530463898E+01  0.96279329389E+02  0.91895768930E+02 0.  0.
         13    1    3    3    0    0 -0.55096620546E+02 -0.20854537484E+02  0.16719513541E+02  0.61238081504E+02  0.10566000000E+00 0.  1.
         22    1    1    0    0    0  0.28431260165E+02  0.26868705821E+01 -0.30530463898E+01  0.28720670611E+02  0.00000000000E+00 0.  1.
</event>
<event>
 5    1  0.8943334E-005  0.9118800E+02  0.7818608E-02  0.1130116E+00
         25   -1    0    0    0    0  0.00000000000E+00  0.00000000000E+00  0.99999998245E-14  0.12500000000E+03  0.12500000000E+03 0.  0.
        -13    1    3    3    0    0 -0.18569604952E+02 -0.36660702937E+02  0.44776349548E+02  0.60776393532E+02  0.10566000000E+00 0. -1.
         23    2    1    0    0    0  0.71752003718E+00 -0.20994338570E+02  0.17655492132E+02  0.97559273162E+02  0.93620608257E+02 0.  0.
         13    1    3    3    0    0  0.19287124990E+02  0.15666364367E+02 -0.27120857416E+02  0.36782879630E+02  0.10566000000E+00 0.  1.
         22    1    1    0    0    0 -0.71752003718E+00  0.20994338570E+02 -0.17655492132E+02  0.27440726838E+02  0.00000000000E+00 0. -1.
</event>
<event>
 5    1  0.8943334E-005  0.9118800E+02  0.7818608E-02  0.1130116E+00
         25   -1    0    0    0    0  0.00000000000E+00  0.00000000000E+00  0.99999998245E-14  0.12500000000E+03  0.12500000000E+03 0.  0.
        -13    1    3    3    0    0 -0.53827552490E+02  0.26304606176E+01  0.24613637290E+02  0.59246662647E+02  0.10566000000E+00 0. -1.
         23    2    1    0    0    0 -0.26158311653E+02 -0.83019450840E+01  0.48582365410E+00  0.97551583191E+02  0.93610340229E+02 0.  0.
         13    1    3    3    0    0  0.27669240837E+02 -0.10932405702E+02 -0.24127813636E+02  0.38304920543E+02  0.10566000000E+00 0.  1.
         22    1    1    0    0    0  0.26158311653E+02  0.83019450840E+01 -0.48582365410E+00  0.27448416809E+02  0.00000000000E+00 0. -1.
</event>
<event>
 5    1  0.8943334E-005  0.9118800E+02  0.7818608E-02  0.1130116E+00
         25   -1    0    0    0    0  0.00000000000E+00  0.00000000000E+00  0.99999998245E-14  0.12500000000E+03  0.12500000000E+03 0.  0.
        -13    1    3    3    0    0  0.16718440904E+01  0.18629458652E+02  0.51809912536E+02  0.55082937406E+02  0.10566000000E+00 0. -1.
         23    2    1    0    0    0  0.14071934349E+02 -0.86308264708E+01  0.23403228262E+02  0.96360488919E+02  0.92006098872E+02 0.  0.
         13    1    3    3    0    0  0.12400090258E+02 -0.27260285123E+02 -0.28406684274E+02  0.41277551512E+02  0.10566000000E+00 0.  1.
         22    1    1    0    0    0 -0.14071934349E+02  0.86308264708E+01 -0.23403228262E+02  0.28639511081E+02  0.00000000000E+00 0. -1.
</event>
<event>
 5    1  0.8943334E-005  0.9118800E+02  0.7818608E-02  0.1130116E+00
         25   -1    0    0    0    0  0.00000000000E+00  0.00000000000E+00  0.99999998245E-14  0.12500000000E+03  0.12500000000E+03 0.  0.
        -13    1    3    3    0    0 -0.10932785095E+02  0.40424117143E+02 -0.41606642240E+02  0.59031846314E+02  0.10566000000E+00 0.  1.
         23    2    1    0    0    0 -0.86207529292E+01  0.27086121956E+02 -0.76855904944E+01  0.95554394472E+02  0.90904337729E+02 0.  0.
         13    1    3    3    0    0  0.23120321655E+01 -0.13337995187E+02  0.33921051746E+02  0.36522548158E+02  0.10566000000E+00 0. -1.
         22    1    1    0    0    0  0.86207529292E+01 -0.27086121956E+02  0.76855904944E+01  0.29445605528E+02  0.00000000000E+00 0.  1.
</event>
<event>
 5    1  0.8943334E-005  0.9118800E+02  0.7818608E-02  0.1130116E+00
         25   -1    0    0    0    0  0.00000000000E+00  0.00000000000E+00  0.99999998245E-14  0.12500000000E+03  0.12500000000E+03 0.  0.
        -13    1    3    3    0    0 -0.37832724934E+02 -0.10811589036E+02 -0.21002815039E+02  0.44601961134E+02  0.10566000000E+00 0.  1.
         23    2    1    0    0    0 -0.24710942380E+02 -0.21698113661E+02  0.18244470165E+02  0.87392826465E+02  0.78887303263E+02 0.  0.
         13    1    3    3    0    0  0.13121782555E+02 -0.10886524625E+02  0.39247285204E+02  0.42790865330E+02  0.10566000000E+00 0. -1.
         22    1    1    0    0    0  0.24710942380E+02  0.21698113661E+02 -0.18244470165E+02  0.37607173535E+02  0.00000000000E+00 0.  1.
</event>
<event>
 5    1  0.8943334E-005  0.9118800E+02  0.7818608E-02  0.1130116E+00
         25   -1    0    0    0    0  0.00000000000E+00  0.00000000000E+00  0.99999998245E-14  0.12500000000E+03  0.12500000000E+03 0.  0.
        -13    1    3    3    0    0  0.75764117263E+01  0.35437966460E+02  0.20774870672E+02  0.41771496226E+02  0.10566000000E+00 0. -1.
         23    2    1    0    0    0 -0.28248068665E+02 -0.25336710911E+01  0.62570133153E+01  0.95956531059E+02  0.91455632767E+02 0.  0.
         13    1    3    3    0    0 -0.35824480391E+02 -0.37971637551E+02 -0.14517857357E+02  0.54185034833E+02  0.10566000000E+00 0.  1.
         22    1    1    0    0    0  0.28248068665E+02  0.25336710911E+01 -0.62570133153E+01  0.29043468941E+02  0.00000000000E+00 0.  1.
</event>
<event>
 5    1  0.8943334E-005  0.9118800E+02  0.7818608E-02  0.1130116E+00
         25   -1    0    0    0    0  0.00000000000E+00  0.00000000000E+00  0.99999998245E-14  0.12500000000E+03  0.12500000000E+03 0.  0.
        -13    1    3    3    0    0 -0.19940925463E+01  0.15756305764E+02  0.30227535941E+02  0.34146049106E+02  0.10566000000E+00 0. -1.
         23    2    1    0    0    0  0.12337779852E+02 -0.18494890885E+02 -0.18964860230E+02  0.95777616045E+02  0.91210766970E+02 0.  0.
         13    1    3    3    0    0  0.14331872398E+02 -0.34251196649E+02 -0.49192396171E+02  0.61631566939E+02  0.10566000000E+00 0.  1.
         22    1    1    0    0    0 -0.12337779852E+02  0.18494890885E+02  0.18964860230E+02  0.29222383955E+02  0.00000000000E+00 0.  1.
</event>
<event>
 5    1  0.8943334E-005  0.9118800E+02  0.7818608E-02  0.1130116E+00
         25   -1    0    0    0    0  0.00000000000E+00  0.00000000000E+00  0.99999998245E-14  0.12500000000E+03  0.12500000000E+03 0.  0.
        -13    1    3    3    0    0 -0.41375394716E+02  0.19408710762E+02 -0.23361362463E+01  0.45761228545E+02  0.10566000000E+00 0. -1.
         23    2    1    0    0    0 -0.32424968913E+02  0.13553242821E+02 -0.32108836998E+02  0.77396991551E+02  0.61026616225E+02 0.  0.
         13    1    3    3    0    0  0.89504258031E+01 -0.58554679411E+01 -0.29772700752E+02  0.31635763006E+02  0.10566000000E+00 0.  1.
         22    1    1    0    0    0  0.32424968913E+02 -0.13553242821E+02  0.32108836998E+02  0.47603008449E+02  0.00000000000E+00 0.  1.
</event>
<event>
 5    1  0.8943334E-005  0.9118800E+02  0.7818608E-02  0.1130116E+00
         25   -1    0    0    0    0  0.00000000000E+00  0.00000000000E+00  0.99999998245E-14  0.12500000000E+03  0.12500000000E+03 0.  0.
        -13    1    3    3    0    0  0.87163402420E+01 -0.37059379477E+02 -0.33006377487E+02  0.50386548932E+02  0.10566000000E+00 0.  1.
         23    2    1    0    0    0 -0.72287011843E+01 -0.24823161914E+02  0.95401758154E+01  0.97441726418E+02  0.93463530880E+02 0.  0.
         13    1    3    3    0    0 -0.15945041426E+02  0.12236217563E+02  0.42546553302E+02  0.47055177486E+02  0.10566000000E+00 0. -1.
         22    1    1    0    0    0  0.72287011843E+01  0.24823161914E+02 -0.95401758154E+01  0.27558273582E+02  0.00000000000E+00 0.  1.
</event>
<event>
 5    1  0.8943334E-005  0.9118800E+02  0.7818608E-02  0.1130116E+00
         25   -1    0    0    0    0  0.00000000000E+00  0.00000000000E+00  0.99999998245E-14  0.12500000000E+03  0.12500000000E+03 0.  0.
        -13    1    3    3    0    0 -0.24580457016E+02 -0.26427986096E+02  0.18314265334E+02  0.40472963753E+02  0.10566000000E+00 0.  1.
         23    2    1    0    0    0  0.18051544621E+02  0.68758639379E+01  0.23222574752E+02  0.94793647254E+02  0.89852166437E+02 0.  0.
         13    1    3    3    0    0  0.42632001637E+02  0.33303850034E+02  0.49083094182E+01  0.54320683501E+02  0.10566000000E+00 0. -1.
         22    1    1    0    0    0 -0.18051544621E+02 -0.68758639379E+01 -0.23222574752E+02  0.30206352746E+02  0.00000000000E+00 0. -1.
</event>
<event>
 5    1  0.8943334E-005  0.9118800E+02  0.7818608E-02  0.1130116E+00
         25   -1    0    0    0    0  0.00000000000E+00  0.00000000000E+00  0.99999998245E-14  0.12500000000E+03  0.12500000000E+03 0.  0.
        -13    1    3    3    0    0 -0.18232196262E+02 -0.58616105934E+01  0.59023750654E+02  0.62053088276E+02  0.10566000000E+00 0.  1.
         23    2    1    0    0    0 -0.13016155162E+02 -0.53511811198E+01  0.26515983973E+02  0.94980792139E+02  0.90112141439E+02 0.  0.
         13    1    3    3    0    0  0.52160410998E+01  0.51042947361E+00 -0.32507766681E+02  0.32927703862E+02  0.10566000000E+00 0. -1.
         22    1    1    0    0    0  0.13016155162E+02  0.53511811198E+01 -0.26515983973E+02  0.30019207861E+02  0.00000000000E+00 0.  1.
</event>
<event>
 5    1  0.8943334E-005  0.9118800E+02  0.7818608E-02  0.1130116E+00
         25   -1    0    0    0    0  0.00000000000E+00  0.00000000000E+00  0.99999998245E-14  0.12500000000E+03  0.12500000000E+03 0.  0.
        -13    1    3    3    0    0 -0.33148036157E+02 -0.28651621938E+02  0.35248220088E+02  0.56233050105E+02  0.10566000000E+00 0. -1.
         23    2    1    0    0    0 -0.22106631896E+02 -0.23113297914E+02  0.60690254989E+00  0.93011001188E+02  0.87336992718E+02 0.  0.
         13    1    3    3    0    0  0.11041404260E+02  0.55383240240E+01 -0.34641317538E+02  0.36777951083E+02  0.10566000000E+00 0.  1.
         22    1    1    0    0    0  0.22106631896E+02  0.23113297914E+02 -0.60690254989E+00  0.31988998812E+02  0.00000000000E+00 0. -1.
</event>
<event>
 5    1  0.8943334E-005  0.9118800E+02  0.7818608E-02  0.1130116E+00
         25   -1    0    0    0    0  0.00000000000E+00  0.00000000000E+00  0.99999998245E-14  0.12500000000E+03  0.12500000000E+03 0.  0.
        -13    1    3    3    0    0 -0.13388437178E+02 -0.49550933478E+02 -0.11577264903E+02  0.52617387670E+02  0.10566000000E+00 0.  1.
         23    2    1    0    0    0 -0.22817465705E+01 -0.11108040082E+02 -0.27166171469E+02  0.95562000847E+02  0.90914796440E+02 0.  0.
         13    1    3    3    0    0  0.11106690607E+02  0.38442893396E+02 -0.15588906566E+02  0.42944613176E+02  0.10566000000E+00 0. -1.
         22    1    1    0    0    0  0.22817465705E+01  0.11108040082E+02  0.27166171469E+02  0.29437999153E+02  0.00000000000E+00 0. -1.
</event>
<event>
 5    1  0.8943334E-005  0.9118800E+02  0.7818608E-02  0.1130116E+00
         25   -1    0    0    0    0  0.00000000000E+00  0.00000000000E+00  0.99999998245E-14  0.12500000000E+03  0.12500000000E+03 0.  0.
        -13    1    3    3    0    0  0.47320316227E+02  0.61903748943E+01  0.63444348557E+01  0.48143494751E+02  0.10566000000E+00 0. -1.
         23    2    1    0    0    0  0.88253426198E+01 -0.20144856348E+02  0.18408046758E+02  0.96319726377E+02  0.91950701979E+02 0.  0.
         13    1    3    3    0    0 -0.38494973607E+02 -0.26335231242E+02  0.12063611902E+02  0.48176231627E+02  0.10566000000E+00 0.  1.
         22    1    1    0    0    0 -0.88253426198E+01  0.20144856348E+02 -0.18408046758E+02  0.28680273623E+02  0.00000000000E+00 0.  1.
</event>
<event>
 5    1  0.8943334E-005  0.9118800E+02  0.7818608E-02  0.1130116E+00
         25   -1    0    0    0    0  0.00000000000E+00  0.00000000000E+00  0.99999998245E-14  0.12500000000E+03  0.12500000000E+03 0.  0.
        -13    1    3    3    0    0 -0.14796466672E+02  0.31870882918E+02  0.64123674477E+01  0.35718597737E+02  0.10566000000E+00 0. -1.
         23    2    1    0    0    0  0.23812705802E+02 -0.10271108543E+02  0.17198681330E+02  0.93881914137E+02  0.88574705950E+02 0.  0.
         13    1    3    3    0    0  0.38609172474E+02 -0.42141991461E+02  0.10786313882E+02  0.58163316400E+02  0.10566000000E+00 0.  1.
         22    1    1    0    0    0 -0.23812705802E+02  0.10271108543E+02 -0.17198681330E+02  0.31118085863E+02  0.00000000000E+00 0.  1.
</event>
<event>
 5    1  0.8943334E-005  0.9118800E+02  0.7818608E-02  0.1130116E+00
         25   -1    0    0    0    0  0.00000000000E+00  0.00000000000E+00  0.99999998245E-14  0.12500000000E+03  0.12500000000E+03 0.  0.
        -13    1    3    3    0    0  0.30349352125E+02 -0.12760050443E+02  0.98606656098E+01  0.34367804003E+02  0.10566000000E+00 0. -1.
         23    2    1    0    0    0 -0.28679786345E+02 -0.11024531110E+00  0.96577505127E+01  0.94737573730E+02  0.89774124515E+02 0.  0.
         13    1    3    3    0    0 -0.59029138469E+02  0.12649805132E+02 -0.20291509710E+00  0.60369769727E+02  0.10566000000E+00 0.  1.
         22    1    1    0    0    0  0.28679786345E+02  0.11024531110E+00 -0.96577505127E+01  0.30262426270E+02  0.00000000000E+00 0.  1.
</event>
<event>
 5    1  0.8943334E-005  0.9118800E+02  0.7818608E-02  0.1130116E+00
         25   -1    0    0    0    0  0.00000000000E+00  0.00000000000E+00  0.99999998245E-14  0.12500000000E+03  0.12500000000E+03 0.  0.
        -13    1    3    3    0    0  0.36032918377E+02 -0.17955824239E+02  0.45330550242E+02  0.60627162066E+02  0.10566000000E+00 0.  1.
         23    2    1    0    0    0  0.95525440314E+01 -0.16507614121E+02  0.21214356644E+02  0.96472796330E+02  0.92158554038E+02 0.  0.
         13    1    3    3    0    0 -0.26480374346E+02  0.14482101189E+01 -0.24116193598E+02  0.35845634263E+02  0.10566000000E+00 0. -1.
         22    1    1    0    0    0 -0.95525440314E+01  0.16507614121E+02 -0.21214356644E+02  0.28527203670E+02  0.00000000000E+00 0.  1.
</event>
<event>
 5    1  0.8943334E-005  0.9118800E+02  0.7818608E-02  0.1130116E+00
         25   -1    0    0    0    0  0.00000000000E+00  0.00000000000E+00  0.99999998245E-14  0.12500000000E+03  0.12500000000E+03 0.  0.
        -13    1    3    3    0    0  0.29854055704E+02 -0.13550743112E+02 -0.34606409198E+02  0.47670766750E+02  0.10566000000E+00 0.  1.
         23    2    1    0    0    0  0.58949948249E+01 -0.27720014116E+02  0.51428384320E+01  0.96197240866E+02  0.91784041187E+02 0.  0.
         13    1    3    3    0    0 -0.23959060879E+02 -0.14169271004E+02  0.39749247630E+02  0.48526474117E+02  0.10566000000E+00 0. -1.
         22    1    1    0    0    0 -0.58949948249E+01  0.27720014116E+02 -0.51428384320E+01  0.28802759134E+02  0.00000000000E+00 0. -1.
</event>
<event>
 5    1  0.8943334E-005  0.9118800E+02  0.7818608E-02  0.1130116E+00
         25   -1    0    0    0    0  0.00000000000E+00  0.00000000000E+00  0.99999998245E-14  0.12500000000E+03  0.12500000000E+03 0.  0.
        -13    1    3    3    0    0 -0.36027450175E+01 -0.34334810064E+02  0.17303058000E+02  0.38616912538E+02  0.10566000000E+00 0.  1.
         23    2    1    0    0    0 -0.20226076204E+02  0.18358277738E+02 -0.30840484859E+01  0.97511240930E+02  0.93556454788E+02 0.  0.
         13    1    3    3    0    0 -0.16623331187E+02  0.52693087802E+02 -0.20387106486E+02  0.58894328392E+02  0.10566000000E+00 0. -1.
         22    1    1    0    0    0  0.20226076204E+02 -0.18358277738E+02  0.30840484859E+01  0.27488759070E+02  0.00000000000E+00 0. -1.
</event>
<event>
 5    1  0.8943334E-005  0.9118800E+02  0.7818608E-02  0.1130116E+00
         25   -1    0    0    0    0  0.00000000000E+00  0.00000000000E+00  0.99999998245E-14  0.12500000000E+03  0.12500000000E+03 0.  0.
        -13    1    3    3    0    0 -0.43262747290E+02 -0.23604846239E+02 -0.27161489310E+02  0.56272655301E+02  0.10566000000E+00 0. -1.
         23    2    1    0    0    0 -0.15810298702E+02 -0.16332160350E+01 -0.29476470043E+02  0.91511267181E+02  0.85163471014E+02 0.  0.
         13    1    3    3    0    0  0.27452448589E+02  0.21971630204E+02 -0.23149807326E+01  0.35238611879E+02  0.10566000000E+00 0.  1.
         22    1    1    0    0    0  0.15810298702E+02  0.16332160350E+01  0.29476470043E+02  0.33488732819E+02  0.00000000000E+00 0. -1.
</event>
<event>
 5    1  0.8943334E-005  0.9118800E+02  0.7818608E-02  0.1130116E+00
         25   -1    0    0    0    0  0.00000000000E+00  0.00000000000E+00  0.99999998245E-14  0.12500000000E+03  0.12500000000E+03 0.  0.
        -13    1    3    3    0    0  0.62019604901E+01 -0.14624771574E+02  0.28860761850E+02  0.32943937168E+02  0.10566000000E+00 0.  1.
         23    2    1    0    0    0  0.27357488116E+00  0.15686130680E+02 -0.25264174566E+02  0.95261001103E+02  0.90500001523E+02 0.  0.
         13    1    3    3    0    0 -0.59283856089E+01  0.30310902254E+02 -0.54124936416E+02  0.62317063935E+02  0.10566000000E+00 0. -1.
         22    1    1    0    0    0 -0.27357488116E+00 -0.15686130680E+02  0.25264174566E+02  0.29738998897E+02  0.00000000000E+00 0. -1.
</event>
<event>
 5    1  0.8943334E-005  0.9118800E+02  0.7818608E-02  0.1130116E+00
         25   -1    0    0    0    0  0.00000000000E+00  0.00000000000E+00  0.99999998245E-14  0.12500000000E+03  0.12500000000E+03 0.  0.
        -13    1    3    3    0    0  0.27195928305E+02  0.16867725451E+02 -0.17487401509E+02  0.36468603673E+02  0.10566000000E+00 0.  1.
         23    2    1    0    0    0  0.47304847317E+01 -0.31341350835E+02  0.23082454420E+01  0.93219726953E+02  0.87635219736E+02 0.  0.
         13    1    3    3    0    0 -0.22465443573E+02 -0.48209076286E+02  0.19795646951E+02  0.56751123280E+02  0.10566000000E+00 0. -1.
         22    1    1    0    0    0 -0.47304847317E+01  0.31341350835E+02 -0.23082454420E+01  0.31780273047E+02  0.00000000000E+00 0. -1.
</event>
<event>
 5    1  0.8943334E-005  0.9118800E+02  0.7818608E-02  0.1130116E+00
         25   -1    0    0    0    0  0.00000000000E+00  0.00000000000E+00  0.99999998245E-14  0.12500000000E+03  0.12500000000E+03 0.  0.
        -13    1    3    3    0    0 -0.46663345910E+01  0.26813470388E+02 -0.21660710307E+02  0.34784111428E+02  0.10566000000E+00 0.  1.
         23    2    1    0    0    0  0.24907416194E+02 -0.19482744871E+02 -0.13675419872E+01  0.93348350749E+02  0.87818492855E+02 0.  0.
         13    1    3    3    0    0  0.29573750785E+02 -0.46296215259E+02  0.20293168320E+02  0.58564239322E+02  0.10566000000E+00 0. -1.
         22    1    1    0    0    0 -0.24907416194E+02  0.19482744871E+02  0.13675419872E+01  0.31651649251E+02  0.00000000000E+00 0. -1.
</event>
<event>
 5    1  0.8943334E-005  0.9118800E+02  0.7818608E-02  0.1130116E+00
         25   -1    0    0    0    0  0.00000000000E+00  0.00000000000E+00  0.99999998245E-14  0.12500000000E+03  0.12500000000E+03 0.  0.
        -13    1    3    3    0    0  0.19860611255E+02  0.55796588318E+02  0.20486791674E+01  0.59261382010E+02  0.10566000000E+00 0. -1.
         23    2    1    0    0    0  0.10474337516E+01  0.30656459936E+02 -0.97626340411E+01  0.92809556128E+02  0.87048199476E+02 0.  0.
         13    1    3    3    0    0 -0.18813177504E+02 -0.25140128383E+02 -0.11811313208E+02  0.33548174118E+02  0.10566000000E+00 0.  1.
         22    1    1    0    0    0 -0.10474337516E+01 -0.30656459936E+02  0.97626340411E+01  0.32190443872E+02  0.00000000000E+00 0. -1.
</event>
<event>
 5    1  0.8943334E-005  0.9118800E+02  0.7818608E-02  0.1130116E+00
         25   -1    0    0    0    0  0.00000000000E+00  0.00000000000E+00  0.99999998245E-14  0.12500000000E+03  0.12500000000E+03 0.  0.
        -13    1    3    3    0    0 -0.81445692966E+01 -0.29572345564E+02  0.20449600791E+02  0.36865362710E+02  0.10566000000E+00 0. -1.
         23    2    1    0    0    0  0.27061330871E+02  0.54007218573E+01 -0.10640587393E+02  0.95424579037E+02  0.90725656565E+02 0.  0.
         13    1    3    3    0    0  0.35205900168E+02  0.34973067421E+02 -0.31090188184E+02  0.58559216327E+02  0.10566000000E+00 0.  1.
         22    1    1    0    0    0 -0.27061330871E+02 -0.54007218573E+01  0.10640587393E+02  0.29575420963E+02  0.00000000000E+00 0.  1.
</event>
<event>
 5    1  0.8943334E-005  0.9118800E+02  0.7818608E-02  0.1130116E+00
         25   -1    0    0    0    0  0.00000000000E+00  0.00000000000E+00  0.99999998245E-14  0.12500000000E+03  0.12500000000E+03 0.  0.
        -13    1    3    3    0    0  0.27116674205E+01 -0.26320830541E+02 -0.41958045657E+02  0.49604717719E+02  0.10566000000E+00 0.  1.
         23    2    1    0    0    0 -0.22910131704E+02 -0.57140788584E+01 -0.20705807981E+01  0.10129742342E+03  0.98485307807E+02 0.  0.
         13    1    3    3    0    0 -0.25621799125E+02  0.20606751683E+02  0.39887464859E+02  0.51692705696E+02  0.10566000000E+00 0. -1.
         22    1    1    0    0    0  0.22910131704E+02  0.57140788584E+01  0.20705807981E+01  0.23702576585E+02  0.00000000000E+00 0. -1.
</event>
<event>
 5    1  0.8943334E-005  0.9118800E+02  0.7818608E-02  0.1130116E+00
         25   -1    0    0    0    0  0.00000000000E+00  0.00000000000E+00  0.99999998245E-14  0.12500000000E+03  0.12500000000E+03 0.  0.
        -13    1    3    3    0    0  0.21815813763E+02 -0.48861809889E+02  0.94985405888E+01  0.54347397666E+02  0.10566000000E+00 0.  1.
         23    2    1    0    0    0 -0.65956957320E+01 -0.24216560926E+02 -0.11465238321E+02  0.97406582034E+02  0.93416516251E+02 0.  0.
         13    1    3    3    0    0 -0.28411509495E+02  0.24645248963E+02 -0.20963778910E+02  0.43059184368E+02  0.10566000000E+00 0. -1.
         22    1    1    0    0    0  0.65956957320E+01  0.24216560926E+02  0.11465238321E+02  0.27593417966E+02  0.00000000000E+00 0.  1.
</event>
<event>
 5    1  0.8943334E-005  0.9118800E+02  0.7818608E-02  0.1130116E+00
         25   -1    0    0    0    0  0.00000000000E+00  0.00000000000E+00  0.99999998245E-14  0.12500000000E+03  0.12500000000E+03 0.  0.
        -13    1    3    3    0    0 -0.10991722907E+02 -0.16370185519E+02  0.56823645743E+02  0.60147641899E+02  0.10566000000E+00 0.  1.
         23    2    1    0    0    0  0.47216432528E+01 -0.14642333538E+02  0.25982970936E+02  0.94803864070E+02  0.89866378682E+02 0.  0.
         13    1    3    3    0    0  0.15713366160E+02  0.17278519810E+01 -0.30840674807E+02  0.34656222171E+02  0.10566000000E+00 0. -1.
         22    1    1    0    0    0 -0.47216432528E+01  0.14642333538E+02 -0.25982970936E+02  0.30196135930E+02  0.00000000000E+00 0.  1.
</event>
<event>
 5    1  0.8943334E-005  0.9118800E+02  0.7818608E-02  0.1130116E+00
         25   -1    0    0    0    0  0.00000000000E+00  0.00000000000E+00  0.99999998245E-14  0.12500000000E+03  0.12500000000E+03 0.  0.
        -13    1    3    3    0    0  0.27976863468E+02  0.52901305841E+01  0.28806165863E+02  0.40503045896E+02  0.10566000000E+00 0. -1.
         23    2    1    0    0    0  0.95359361485E+00  0.27409678816E+02 -0.12725253656E+02  0.94765385496E+02  0.89812840808E+02 0.  0.
         13    1    3    3    0    0 -0.27023269853E+02  0.22119548232E+02 -0.41531419519E+02  0.54262339600E+02  0.10566000000E+00 0.  1.
         22    1    1    0    0    0 -0.95359361485E+00 -0.27409678816E+02  0.12725253656E+02  0.30234614504E+02  0.00000000000E+00 0.  1.
</event>
<event>
 5    1  0.8943334E-005  0.9118800E+02  0.7818608E-02  0.1130116E+00
         25   -1    0    0    0    0  0.00000000000E+00  0.00000000000E+00  0.99999998245E-14  0.12500000000E+03  0.12500000000E+03 0.  0.
        -13    1    3    3    0    0  0.35673217738E+02 -0.13977525522E+00  0.23664195966E+02  0.42808916544E+02  0.10566000000E+00 0.  1.
         23    2    1    0    0    0 -0.61677056129E+01 -0.26512707026E+02 -0.32190127372E+00  0.97777438644E+02  0.93911445846E+02 0.  0.
         13    1    3    3    0    0 -0.41840923351E+02 -0.26372931771E+02 -0.23986097240E+02  0.54968522100E+02  0.10566000000E+00 0. -1.
         22    1    1    0    0    0  0.61677056129E+01  0.26512707026E+02  0.32190127372E+00  0.27222561356E+02  0.00000000000E+00 0. -1.
</event>
<event>
 5    1  0.8943334E-005  0.9118800E+02  0.7818608E-02  0.1130116E+00
         25   -1    0    0    0    0  0.00000000000E+00  0.00000000000E+00  0.99999998245E-14  0.12500000000E+03  0.12500000000E+03 0.  0.
        -13    1    3    3    0    0 -0.37830189613E+02 -0.26093512388E+02 -0.59460260663E+01  0.46339626940E+02  0.10566000000E+00 0.  1.
         23    2    1    0    0    0 -0.13845136078E+02  0.15632868370E+02 -0.19592152500E+02  0.96365635924E+02  0.92013091356E+02 0.  0.
         13    1    3    3    0    0  0.23985053535E+02  0.41726380757E+02 -0.13646126433E+02  0.50026008984E+02  0.10566000000E+00 0. -1.
         22    1    1    0    0    0  0.13845136078E+02 -0.15632868370E+02  0.19592152500E+02  0.28634364076E+02  0.00000000000E+00 0. -1.
</event>
<event>
 5    1  0.8943334E-005  0.9118800E+02  0.7818608E-02  0.1130116E+00
         25   -1    0    0    0    0  0.00000000000E+00  0.00000000000E+00  0.99999998245E-14  0.12500000000E+03  0.12500000000E+03 0.  0.
        -13    1    3    3    0    0  0.29453424727E+02 -0.17921216428E+02  0.29880847399E+02  0.45624011570E+02  0.10566000000E+00 0. -1.
         23    2    1    0    0    0  0.23326071022E+02  0.21163712819E+02  0.32017778084E+01  0.93341514396E+02  0.87808761517E+02 0.  0.
         13    1    3    3    0    0 -0.61273537054E+01  0.39084929247E+02 -0.26679069591E+02  0.47717502826E+02  0.10566000000E+00 0.  1.
         22    1    1    0    0    0 -0.23326071022E+02 -0.21163712819E+02 -0.32017778084E+01  0.31658485604E+02  0.00000000000E+00 0.  1.
</event>
<event>
 5    1  0.8943334E-005  0.9118800E+02  0.7818608E-02  0.1130116E+00
         25   -1    0    0    0    0  0.00000000000E+00  0.00000000000E+00  0.99999998245E-14  0.12500000000E+03  0.12500000000E+03 0.  0.
        -13    1    3    3    0    0 -0.10423704994E+02 -0.12904852682E+02  0.36787934743E+02  0.40355323753E+02  0.10566000000E+00 0.  1.
         23    2    1    0    0    0  0.28364420636E+02 -0.78064235395E+01 -0.20861191556E+01  0.95507077126E+02  0.90839249675E+02 0.  0.
         13    1    3    3    0    0  0.38788125630E+02  0.50984291427E+01 -0.38874053898E+02  0.55151753373E+02  0.10566000000E+00 0. -1.
         22    1    1    0    0    0 -0.28364420636E+02  0.78064235395E+01  0.20861191556E+01  0.29492922874E+02  0.00000000000E+00 0. -1.
</event>
<event>
 5    1  0.8943334E-005  0.9118800E+02  0.7818608E-02  0.1130116E+00
         25   -1    0    0    0    0  0.00000000000E+00  0.00000000000E+00  0.99999998245E-14  0.12500000000E+03  0.12500000000E+03 0.  0.
        -13    1    3    3    0    0 -0.10983268916E+02 -0.73628050379E+00 -0.30588913553E+02  0.32509492482E+02  0.10566000000E+00 0. -1.
         23    2    1    0    0    0  0.82511876170E+01 -0.14484351279E+02  0.26156461002E+02  0.93983246765E+02  0.88717595161E+02 0.  0.
         13    1    3    3    0    0  0.19234456533E+02 -0.13748070776E+02  0.56745374555E+02  0.61473754283E+02  0.10566000000E+00 0.  1.
         22    1    1    0    0    0 -0.82511876170E+01  0.14484351279E+02 -0.26156461002E+02  0.31016753235E+02  0.00000000000E+00 0.  1.
</event>
<event>
 5    1  0.8943334E-005  0.9118800E+02  0.7818608E-02  0.1130116E+00
         25   -1    0    0    0    0  0.00000000000E+00  0.00000000000E+00  0.99999998245E-14  0.12500000000E+03  0.12500000000E+03 0.  0.
        -13    1    3    3    0    0 -0.19876421858E+02 -0.51162619504E+02  0.10854211315E+02  0.55950968246E+02  0.10566000000E+00 0.  1.
         23    2    1    0    0    0 -0.20332020745E+02 -0.10751728613E+02  0.16412101902E+02  0.96744950459E+02  0.92526956152E+02 0.  0.
         13    1    3    3    0    0 -0.45559888700E+00  0.40410890891E+02  0.55578905870E+01  0.40793982213E+02  0.10566000000E+00 0. -1.
         22    1    1    0    0    0  0.20332020745E+02  0.10751728613E+02 -0.16412101902E+02  0.28255049541E+02  0.00000000000E+00 0. -1.
</event>
<event>
 5    1  0.8943334E-005  0.9118800E+02  0.7818608E-02  0.1130116E+00
         25   -1    0    0    0    0  0.00000000000E+00  0.00000000000E+00  0.99999998245E-14  0.12500000000E+03  0.12500000000E+03 0.  0.
        -13    1    3    3    0    0 -0.19150935579E+02 -0.18798432006E+02  0.55546460861E+02  0.61689219947E+02  0.10566000000E+00 0. -1.
         23    2    1    0    0    0 -0.11685108195E+02 -0.15351878949E+02  0.24449555014E+02  0.93855133952E+02  0.88536904667E+02 0.  0.
         13    1    3    3    0    0  0.74658273841E+01  0.34465530571E+01 -0.31096905847E+02  0.32165914005E+02  0.10566000000E+00 0.  1.
         22    1    1    0    0    0  0.11685108195E+02  0.15351878949E+02 -0.24449555014E+02  0.31144866048E+02  0.00000000000E+00 0. -1.
</event>
<event>
 5    1  0.8943334E-005  0.9118800E+02  0.7818608E-02  0.1130116E+00
         25   -1    0    0    0    0  0.00000000000E+00  0.00000000000E+00  0.99999998245E-14  0.12500000000E+03  0.12500000000E+03 0.  0.
        -13    1    3    3    0    0  0.37946650572E+01 -0.31202011835E+02 -0.25672518322E+02  0.40583917830E+02  0.10566000000E+00 0. -1.
         23    2    1    0    0    0  0.59026978171E+01 -0.12130065292E+02  0.26002476130E+02  0.95706500885E+02  0.91113254915E+02 0.  0.
         13    1    3    3    0    0  0.21080327598E+01  0.19071946543E+02  0.51674994452E+02  0.55122583055E+02  0.10566000000E+00 0.  1.
         22    1    1    0    0    0 -0.59026978171E+01  0.12130065292E+02 -0.26002476130E+02  0.29293499115E+02  0.00000000000E+00 0.  1.
</event>
<event>
 5    1  0.8943334E-005  0.9118800E+02  0.7818608E-02  0.1130116E+00
         25   -1    0    0    0    0  0.00000000000E+00  0.00000000000E+00  0.99999998245E-14  0.12500000000E+03  0.12500000000E+03 0.  0.
        -13    1    3    3    0    0  0.32874954715E+02 -0.12768730835E+02 -0.38933772207E+02  0.52532398736E+02  0.10566000000E+00 0.  1.
         23    2    1    0    0    0  0.27471983051E+02 -0.96349846005E+01  0.37285220925E+01  0.95649622524E+02  0.91035188971E+02 0.  0.
         13    1    3    3    0    0 -0.54029716642E+01  0.31337462340E+01  0.42662294299E+02  0.43117223788E+02  0.10566000000E+00 0. -1.
         22    1    1    0    0    0 -0.27471983051E+02  0.96349846005E+01 -0.37285220925E+01  0.29350377476E+02  0.00000000000E+00 0.  1.
</event>
<event>
 5    1  0.8943334E-005  0.9118800E+02  0.7818608E-02  0.1130116E+00
         25   -1    0    0    0    0  0.00000000000E+00  0.00000000000E+00  0.99999998245E-14  0.12500000000E+03  0.12500000000E+03 0.  0.
        -13    1    3    3    0    0  0.26420207797E+02 -0.33558697859E+02 -0.62433048472E+01  0.43164842192E+02  0.10566000000E+00 0.  1.
         23    2    1    0    0    0  0.65673289626E+01 -0.11537267839E+01  0.29150251798E+02  0.95096855097E+02  0.90272995820E+02 0.  0.
         13    1    3    3    0    0 -0.19852878834E+02  0.32404971075E+02  0.35393556645E+02  0.51932012905E+02  0.10566000000E+00 0. -1.
         22    1    1    0    0    0 -0.65673289626E+01  0.11537267839E+01 -0.29150251798E+02  0.29903144903E+02  0.00000000000E+00 0. -1.
</event>
<event>
 5    1  0.8943334E-005  0.9118800E+02  0.7818608E-02  0.1130116E+00
         25   -1    0    0    0    0  0.00000000000E+00  0.00000000000E+00  0.99999998245E-14  0.12500000000E+03  0.12500000000E+03 0.  0.
        -13    1    3    3    0    0  0.40821239057E+02 -0.10308796980E+02 -0.25079208963E+02  0.49006354074E+02  0.10566000000E+00 0. -1.
         23    2    1    0    0    0  0.10348426438E+02 -0.20177585109E+02  0.13075495350E+02  0.98823799947E+02  0.95294018631E+02 0.  0.
         13    1    3    3    0    0 -0.30472812620E+02 -0.98687881289E+01  0.38154704313E+02  0.49817445873E+02  0.10566000000E+00 0.  1.
         22    1    1    0    0    0 -0.10348426438E+02  0.20177585109E+02 -0.13075495350E+02  0.26176200053E+02  0.00000000000E+00 0. -1.
</event>
<event>
 5    1  0.8943334E-005  0.9118800E+02  0.7818608E-02  0.1130116E+00
         25   -1    0    0    0    0  0.00000000000E+00  0.00000000000E+00  0.99999998245E-14  0.12500000000E+03  0.12500000000E+03 0.  0.
        -13    1    3    3    0    0 -0.38348188171E+02 -0.38402955341E+01 -0.34014725246E+02  0.51403736278E+02  0.10566000000E+00 0.  1.
         23    2    1    0    0    0 -0.27794856397E+02 -0.12144366401E+01  0.89898916431E+01  0.95762232468E+02  0.91189682076E+02 0.  0.
         13    1    3    3    0    0  0.10553331774E+02  0.26258588940E+01  0.43004616889E+02  0.44358496190E+02  0.10566000000E+00 0. -1.
         22    1    1    0    0    0  0.27794856397E+02  0.12144366401E+01 -0.89898916431E+01  0.29237767532E+02  0.00000000000E+00 0.  1.
</event>
<event>
 5    1  0.8943334E-005  0.9118800E+02  0.7818608E-02  0.1130116E+00
         25   -1    0    0    0    0  0.00000000000E+00  0.00000000000E+00  0.99999998245E-14  0.12500000000E+03  0.12500000000E+03 0.  0.
        -13    1    3    3    0    0 -0.28204706447E+02  0.36543067773E+02 -0.38807737498E+02  0.60307154814E+02  0.10566000000E+00 0.  1.
         23    2    1    0    0    0 -0.26525364441E+01  0.21800815114E+02 -0.20026090778E+02  0.95278697858E+02  0.90524441254E+02 0.  0.
         13    1    3    3    0    0  0.25552170002E+02 -0.14742252659E+02  0.18781646721E+02  0.34971543044E+02  0.10566000000E+00 0. -1.
         22    1    1    0    0    0  0.26525364441E+01 -0.21800815114E+02  0.20026090778E+02  0.29721302142E+02  0.00000000000E+00 0.  1.
</event>
<event>
 5    1  0.8943334E-005  0.9118800E+02  0.7818608E-02  0.1130116E+00
         25   -1    0    0    0    0  0.00000000000E+00  0.00000000000E+00  0.99999998245E-14  0.12500000000E+03  0.12500000000E+03 0.  0.
        -13    1    3    3    0    0 -0.98292032754E+01  0.34595394713E+02 -0.35286085568E+02  0.50384259160E+02  0.10566000000E+00 0. -1.
         23    2    1    0    0    0  0.21970361327E+02  0.75126336951E+01 -0.18134678352E+02  0.95538109348E+02  0.90881941754E+02 0.  0.
         13    1    3    3    0    0  0.31799564602E+02 -0.27082761018E+02  0.17151407216E+02  0.45153850188E+02  0.10566000000E+00 0.  1.
         22    1    1    0    0    0 -0.21970361327E+02 -0.75126336951E+01  0.18134678352E+02  0.29461890652E+02  0.00000000000E+00 0. -1.
</event>
<event>
 5    1  0.8943334E-005  0.9118800E+02  0.7818608E-02  0.1130116E+00
         25   -1    0    0    0    0  0.00000000000E+00  0.00000000000E+00  0.99999998245E-14  0.12500000000E+03  0.12500000000E+03 0.  0.
        -13    1    3    3    0    0 -0.20738992551E+02  0.30122148690E+00 -0.34874704459E+02  0.40576504550E+02  0.10566000000E+00 0. -1.
         23    2    1    0    0    0 -0.76148897484E+01 -0.23454022044E+02  0.14118874549E+02  0.96584857656E+02  0.92310424189E+02 0.  0.
         13    1    3    3    0    0  0.13124102802E+02 -0.23755243530E+02  0.48993579008E+02  0.56008353106E+02  0.10566000000E+00 0.  1.
         22    1    1    0    0    0  0.76148897484E+01  0.23454022044E+02 -0.14118874549E+02  0.28415142344E+02  0.00000000000E+00 0.  1.
</event>
<event>
 5    1  0.8943334E-005  0.9118800E+02  0.7818608E-02  0.1130116E+00
         25   -1    0    0    0    0  0.00000000000E+00  0.00000000000E+00  0.99999998245E-14  0.12500000000E+03  0.12500000000E+03 0.  0.
        -13    1    3    3    0    0 -0.57383010828E+01  0.25189355231E+02 -0.53401714856E+02  0.59322727769E+02  0.10566000000E+00 0. -1.
         23    2    1    0    0    0  0.11245073261E+02  0.13218925031E+02 -0.21954426833E+02  0.97014494659E+02  0.92890385212E+02 0.  0.
         13    1    3    3    0    0  0.16983374343E+02 -0.11970430201E+02  0.31447288023E+02  0.37691766891E+02  0.10566000000E+00 0.  1.
         22    1    1    0    0    0 -0.11245073261E+02 -0.13218925031E+02  0.21954426833E+02  0.27985505341E+02  0.00000000000E+00 0. -1.
</event>
<event>
 5    1  0.8943334E-005  0.9118800E+02  0.7818608E-02  0.1130116E+00
         25   -1    0    0    0    0  0.00000000000E+00  0.00000000000E+00  0.99999998245E-14  0.12500000000E+03  0.12500000000E+03 0.  0.
        -13    1    3    3    0    0  0.18412859190E+02  0.44545178912E+02  0.32828555415E+02  0.58318363854E+02  0.10566000000E+00 0. -1.
         23    2    1    0    0    0 -0.16273740111E+01  0.12823056154E+02  0.25301290890E+02  0.96588128608E+02  0.92314853366E+02 0.  0.
         13    1    3    3    0    0 -0.20040233201E+02 -0.31722122758E+02 -0.75272645247E+01  0.38269764754E+02  0.10566000000E+00 0.  1.
         22    1    1    0    0    0  0.16273740111E+01 -0.12823056154E+02 -0.25301290890E+02  0.28411871392E+02  0.00000000000E+00 0. -1.
</event>
<event>
 5    1  0.8943334E-005  0.9118800E+02  0.7818608E-02  0.1130116E+00
         25   -1    0    0    0    0  0.00000000000E+00  0.00000000000E+00  0.99999998245E-14  0.12500000000E+03  0.12500000000E+03 0.  0.
        -13    1    3    3    0    0  0.30284557925E+02  0.24350369774E+02 -0.17338643682E+02  0.42552728298E+02  0.10566000000E+00 0.  1.
         23    2    1    0    0    0  0.10271055918E+02 -0.23980388100E+02 -0.14982053422E+02  0.94916524006E+02  0.90022947084E+02 0.  0.
         13    1    3    3    0    0 -0.20013502007E+02 -0.48330757875E+02  0.23565902597E+01  0.52363795708E+02  0.10566000000E+00 0. -1.
         22    1    1    0    0    0 -0.10271055918E+02  0.23980388100E+02  0.14982053422E+02  0.30083475994E+02  0.00000000000E+00 0. -1.
</event>
<event>
 5    1  0.8943334E-005  0.9118800E+02  0.7818608E-02  0.1130116E+00
         25   -1    0    0    0    0  0.00000000000E+00  0.00000000000E+00  0.99999998245E-14  0.12500000000E+03  0.12500000000E+03 0.  0.
        -13    1    3    3    0    0 -0.12409960361E+02  0.32922837431E+02 -0.10122475226E+02  0.36611419113E+02  0.10566000000E+00 0.  1.
         23    2    1    0    0    0  0.11620398741E+02 -0.14611474820E+02  0.19867589565E+02  0.97737388635E+02  0.93858122497E+02 0.  0.
         13    1    3    3    0    0  0.24030359102E+02 -0.47534312251E+02  0.29990064791E+02  0.61125969522E+02  0.10566000000E+00 0. -1.
         22    1    1    0    0    0 -0.11620398741E+02  0.14611474820E+02 -0.19867589565E+02  0.27262611365E+02  0.00000000000E+00 0. -1.
</event>
<event>
 5    1  0.8943334E-005  0.9118800E+02  0.7818608E-02  0.1130116E+00
         25   -1    0    0    0    0  0.00000000000E+00  0.00000000000E+00  0.99999998245E-14  0.12500000000E+03  0.12500000000E+03 0.  0.
        -13    1    3    3    0    0 -0.72292962613E+01 -0.32027930010E+01 -0.57802698743E+02  0.58341098323E+02  0.10566000000E+00 0. -1.
         23    2    1    0    0    0 -0.14412409911E+02 -0.11920688679E+02 -0.20810419112E+02  0.97019758371E+02  0.92897468171E+02 0.  0.
         13    1    3    3    0    0 -0.71831136497E+01 -0.87178956775E+01  0.36992279631E+02  0.38678660048E+02  0.10566000000E+00 0.  1.
         22    1    1    0    0    0  0.14412409911E+02  0.11920688679E+02  0.20810419112E+02  0.27980241629E+02  0.00000000000E+00 0. -1.
</event>
<event>
 5    1  0.8943334E-005  0.9118800E+02  0.7818608E-02  0.1130116E+00
         25   -1    0    0    0    0  0.00000000000E+00  0.00000000000E+00  0.99999998245E-14  0.12500000000E+03  0.12500000000E+03 0.  0.
        -13    1    3    3    0    0 -0.69035588251E+01 -0.20319034897E+02  0.27350032938E+02  0.34764317473E+02  0.10566000000E+00 0. -1.
         23    2    1    0    0    0 -0.85741611585E+01  0.18254406796E+02 -0.20495842640E+02  0.96245536475E+02  0.91849791066E+02 0.  0.
         13    1    3    3    0    0 -0.16706023334E+01  0.38573441693E+02 -0.47845875578E+02  0.61481219003E+02  0.10566000000E+00 0.  1.
         22    1    1    0    0    0  0.85741611585E+01 -0.18254406796E+02  0.20495842640E+02  0.28754463525E+02  0.00000000000E+00 0.  1.
</event>
<event>
 5    1  0.8943334E-005  0.9118800E+02  0.7818608E-02  0.1130116E+00
         25   -1    0    0    0    0  0.00000000000E+00  0.00000000000E+00  0.99999998245E-14  0.12500000000E+03  0.12500000000E+03 0.  0.
        -13    1    3    3    0    0 -0.27557090137E+02  0.37342521659E+02 -0.40216378111E+01  0.46583708261E+02  0.10566000000E+00 0.  1.
         23    2    1    0    0    0  0.26061623749E+01  0.16438482274E+02  0.26088794587E+02  0.94054225089E+02  0.88817544845E+02 0.  0.
         13    1    3    3    0    0  0.30163252512E+02 -0.20904039385E+02  0.30110432398E+02  0.47470516828E+02  0.10566000000E+00 0. -1.
         22    1    1    0    0    0 -0.26061623749E+01 -0.16438482274E+02 -0.26088794587E+02  0.30945774911E+02  0.00000000000E+00 0. -1.
</event>
<event>
 5    1  0.8943334E-005  0.9118800E+02  0.7818608E-02  0.1130116E+00
         25   -1    0    0    0    0  0.00000000000E+00  0.00000000000E+00  0.99999998245E-14  0.12500000000E+03  0.12500000000E+03 0.  0.
        -13    1    3    3    0    0  0.50650833805E+02 -0.51285533165E+01  0.29806794381E+02  0.58993772379E+02  0.10566000000E+00 0.  1.
         23    2    1    0    0    0  0.17440053539E+02  0.25714095868E+01  0.26399755681E+02  0.93255477406E+02  0.87686198181E+02 0.  0.
         13    1    3    3    0    0 -0.33210780266E+02  0.76999629033E+01 -0.34070386998E+01  0.34261705026E+02  0.10566000000E+00 0. -1.
         22    1    1    0    0    0 -0.17440053539E+02 -0.25714095868E+01 -0.26399755681E+02  0.31744522594E+02  0.00000000000E+00 0.  1.
</event>
<event>
 5    1  0.8943334E-005  0.9118800E+02  0.7818608E-02  0.1130116E+00
         25   -1    0    0    0    0  0.00000000000E+00  0.00000000000E+00  0.99999998245E-14  0.12500000000E+03  0.12500000000E+03 0.  0.
        -13    1    3    3    0    0  0.41560539548E+02  0.98217865934E+01 -0.32926165482E+02  0.53924850272E+02  0.10566000000E+00 0. -1.
         23    2    1    0    0    0  0.34544099108E+01  0.22529559018E+02 -0.10937095717E+02  0.99718899548E+02  0.96461001897E+02 0.  0.
         13    1    3    3    0    0 -0.38106129637E+02  0.12707772424E+02  0.21989069765E+02  0.45794049276E+02  0.10566000000E+00 0.  1.
         22    1    1    0    0    0 -0.34544099108E+01 -0.22529559018E+02  0.10937095717E+02  0.25281100452E+02  0.00000000000E+00 0. -1.
</event>
<event>
 5    1  0.8943334E-005  0.9118800E+02  0.7818608E-02  0.1130116E+00
         25   -1    0    0    0    0  0.00000000000E+00  0.00000000000E+00  0.99999998245E-14  0.12500000000E+03  0.12500000000E+03 0.  0.
        -13    1    3    3    0    0 -0.36452821624E+02  0.33951344239E+02 -0.14587600045E+01  0.49836142756E+02  0.10566000000E+00 0. -1.
         23    2    1    0    0    0 -0.23020093286E+02  0.97797849422E+00  0.22535098880E+02  0.92770947604E+02  0.86992740507E+02 0.  0.
         13    1    3    3    0    0  0.13432728338E+02 -0.32973365745E+02  0.23993858885E+02  0.42934804848E+02  0.10566000000E+00 0.  1.
         22    1    1    0    0    0  0.23020093286E+02 -0.97797849422E+00 -0.22535098880E+02  0.32229052396E+02  0.00000000000E+00 0.  1.
</event>
<event>
 5    1  0.8943334E-005  0.9118800E+02  0.7818608E-02  0.1130116E+00
         25   -1    0    0    0    0  0.00000000000E+00  0.00000000000E+00  0.99999998245E-14  0.12500000000E+03  0.12500000000E+03 0.  0.
        -13    1    3    3    0    0 -0.28221575587E+02 -0.25294235267E+02  0.99059774351E+01  0.39171357129E+02  0.10566000000E+00 0. -1.
         23    2    1    0    0    0  0.23296695133E+02 -0.16197904315E+02 -0.96607806738E+01  0.95026031435E+02  0.90174873766E+02 0.  0.
         13    1    3    3    0    0  0.51518270721E+02  0.90963309523E+01 -0.19566758109E+02  0.55854674305E+02  0.10566000000E+00 0.  1.
         22    1    1    0    0    0 -0.23296695133E+02  0.16197904315E+02  0.96607806738E+01  0.29973968565E+02  0.00000000000E+00 0.  1.
</event>
<event>
 5    1  0.8943334E-005  0.9118800E+02  0.7818608E-02  0.1130116E+00
         25   -1    0    0    0    0  0.00000000000E+00  0.00000000000E+00  0.99999998245E-14  0.12500000000E+03  0.12500000000E+03 0.  0.
        -13    1    3    3    0    0  0.14867875264E+02 -0.39374018063E+02  0.12738390279E+02  0.43973227813E+02  0.10566000000E+00 0. -1.
         23    2    1    0    0    0 -0.23234621136E+02 -0.15537076921E+02 -0.11192197097E+02  0.94891634809E+02  0.89988380930E+02 0.  0.
         13    1    3    3    0    0 -0.38102496400E+02  0.23836941142E+02 -0.23930587375E+02  0.50918406997E+02  0.10566000000E+00 0.  1.
         22    1    1    0    0    0  0.23234621136E+02  0.15537076921E+02  0.11192197097E+02  0.30108365191E+02  0.00000000000E+00 0.  1.
</event>
<event>
 5    1  0.8943334E-005  0.9118800E+02  0.7818608E-02  0.1130116E+00
         25   -1    0    0    0    0  0.00000000000E+00  0.00000000000E+00  0.99999998245E-14  0.12500000000E+03  0.12500000000E+03 0.  0.
        -13    1    3    3    0    0 -0.33798444590E+02  0.36114738334E+01  0.12438770717E+02  0.36195466304E+02  0.10566000000E+00 0.  1.
         23    2    1    0    0    0  0.24107270561E+02 -0.38691768378E+01  0.17735946438E+02  0.94822279421E+02  0.89891989940E+02 0.  0.
         13    1    3    3    0    0  0.57905715151E+02 -0.74806506712E+01  0.52971757204E+01  0.58626813117E+02  0.10566000000E+00 0. -1.
         22    1    1    0    0    0 -0.24107270561E+02  0.38691768378E+01 -0.17735946438E+02  0.30177720579E+02  0.00000000000E+00 0. -1.
</event>
<event>
 5    1  0.8943334E-005  0.9118800E+02  0.7818608E-02  0.1130116E+00
         25   -1    0    0    0    0  0.00000000000E+00  0.00000000000E+00  0.99999998245E-14  0.12500000000E+03  0.12500000000E+03 0.  0.
        -13    1    3    3    0    0 -0.45019669017E+02 -0.15318666119E+01 -0.25358648754E+02  0.51693224357E+02  0.10566000000E+00 0.  1.
         23    2    1    0    0    0 -0.54146669697E+01  0.15185805130E+02 -0.25674390081E+02  0.94683311496E+02  0.89698538862E+02 0.  0.
         13    1    3    3    0    0  0.39605002047E+02  0.16717671741E+02 -0.31574132713E+00  0.42990087139E+02  0.10566000000E+00 0. -1.
         22    1    1    0    0    0  0.54146669697E+01 -0.15185805130E+02  0.25674390081E+02  0.30316688504E+02  0.00000000000E+00 0.  1.
</event>
<event>
 5    1  0.8943334E-005  0.9118800E+02  0.7818608E-02  0.1130116E+00
         25   -1    0    0    0    0  0.00000000000E+00  0.00000000000E+00  0.99999998245E-14  0.12500000000E+03  0.12500000000E+03 0.  0.
        -13    1    3    3    0    0 -0.25595462359E+02  0.22509660239E+02 -0.29423814382E+01  0.34212297059E+02  0.10566000000E+00 0. -1.
         23    2    1    0    0    0  0.13452662987E+02 -0.25434306906E+02  0.13568448127E+01  0.96195154278E+02  0.91781199434E+02 0.  0.
         13    1    3    3    0    0  0.39048125346E+02 -0.47943967145E+02  0.42992262509E+01  0.61982857219E+02  0.10566000000E+00 0.  1.
         22    1    1    0    0    0 -0.13452662987E+02  0.25434306906E+02 -0.13568448127E+01  0.28804845722E+02  0.00000000000E+00 0.  1.
</event>
<event>
 5    1  0.8943334E-005  0.9118800E+02  0.7818608E-02  0.1130116E+00
         25   -1    0    0    0    0  0.00000000000E+00  0.00000000000E+00  0.99999998245E-14  0.12500000000E+03  0.12500000000E+03 0.  0.
        -13    1    3    3    0    0  0.26425051512E+01 -0.45505615204E+02 -0.41300483051E+02  0.61510039122E+02  0.10566000000E+00 0. -1.
         23    2    1    0    0    0 -0.60748899577E+01 -0.23378726545E+02 -0.17373132048E+02  0.95246095045E+02  0.90479410704E+02 0.  0.
         13    1    3    3    0    0 -0.87173951089E+01  0.22126888659E+02  0.23927351002E+02  0.33736055923E+02  0.10566000000E+00 0.  1.
         22    1    1    0    0    0  0.60748899577E+01  0.23378726545E+02  0.17373132048E+02  0.29753904955E+02  0.00000000000E+00 0. -1.
</event>
<event>
 5    1  0.8943334E-005  0.9118800E+02  0.7818608E-02  0.1130116E+00
         25   -1    0    0    0    0  0.00000000000E+00  0.00000000000E+00  0.99999998245E-14  0.12500000000E+03  0.12500000000E+03 0.  0.
        -13    1    3    3    0    0 -0.27500472950E+02  0.20632785294E+02  0.11296661948E+00  0.34380398005E+02  0.10566000000E+00 0. -1.
         23    2    1    0    0    0  0.30104504678E+02  0.47292910260E+01 -0.39138214776E+01  0.94275980177E+02  0.89129092020E+02 0.  0.
         13    1    3    3    0    0  0.57604977627E+02 -0.15903494268E+02 -0.40267880971E+01  0.59895582173E+02  0.10566000000E+00 0.  1.
         22    1    1    0    0    0 -0.30104504678E+02 -0.47292910260E+01  0.39138214776E+01  0.30724019823E+02  0.00000000000E+00 0.  1.
</event>
<event>
 5    1  0.8943334E-005  0.9118800E+02  0.7818608E-02  0.1130116E+00
         25   -1    0    0    0    0  0.00000000000E+00  0.00000000000E+00  0.99999998245E-14  0.12500000000E+03  0.12500000000E+03 0.  0.
        -13    1    3    3    0    0  0.11240354991E+02  0.39384853035E+02  0.30108467685E+02  0.50833485217E+02  0.10566000000E+00 0.  1.
         23    2    1    0    0    0 -0.14303264609E+02  0.27472230565E+02 -0.24903677667E+01  0.93927363126E+02  0.88638822090E+02 0.  0.
         13    1    3    3    0    0 -0.25543619600E+02 -0.11912622470E+02 -0.32598835451E+02  0.43093877909E+02  0.10566000000E+00 0. -1.
         22    1    1    0    0    0  0.14303264609E+02 -0.27472230565E+02  0.24903677667E+01  0.31072636874E+02  0.00000000000E+00 0.  1.
</event>
<event>
 5    1  0.8943334E-005  0.9118800E+02  0.7818608E-02  0.1130116E+00
         25   -1    0    0    0    0  0.00000000000E+00  0.00000000000E+00  0.99999998245E-14  0.12500000000E+03  0.12500000000E+03 0.  0.
        -13    1    3    3    0    0  0.49919633554E+02 -0.71348605251E+01  0.23990281712E+02  0.55842822543E+02  0.10566000000E+00 0.  1.
         23    2    1    0    0    0  0.19488465284E+02 -0.19297673785E+02 -0.17544555807E+01  0.97517667366E+02  0.93565040702E+02 0.  0.
         13    1    3    3    0    0 -0.30431168271E+02 -0.12162813260E+02 -0.25744737293E+02  0.41674844823E+02  0.10566000000E+00 0. -1.
         22    1    1    0    0    0 -0.19488465284E+02  0.19297673785E+02  0.17544555807E+01  0.27482332634E+02  0.00000000000E+00 0.  1.
</event>
<event>
 5    1  0.8943334E-005  0.9118800E+02  0.7818608E-02  0.1130116E+00
         25   -1    0    0    0    0  0.00000000000E+00  0.00000000000E+00  0.99999998245E-14  0.12500000000E+03  0.12500000000E+03 0.  0.
        -13    1    3    3    0    0 -0.64679717293E+01  0.10501550871E+02 -0.27439800277E+02  0.30084398486E+02  0.10566000000E+00 0.  1.
         23    2    1    0    0    0  0.12263453943E+02 -0.25674291669E+02  0.18171488876E+02  0.91239600665E+02  0.84763790419E+02 0.  0.
         13    1    3    3    0    0  0.18731425672E+02 -0.36175842540E+02  0.45611289154E+02  0.61155202178E+02  0.10566000000E+00 0. -1.
         22    1    1    0    0    0 -0.12263453943E+02  0.25674291669E+02 -0.18171488876E+02  0.33760399335E+02  0.00000000000E+00 0. -1.
</event>
<event>
 5    1  0.8943334E-005  0.9118800E+02  0.7818608E-02  0.1130116E+00
         25   -1    0    0    0    0  0.00000000000E+00  0.00000000000E+00  0.99999998245E-14  0.12500000000E+03  0.12500000000E+03 0.  0.
        -13    1    3    3    0    0 -0.31507027616E+02  0.35405289921E+01  0.21203363858E+02  0.38142128122E+02  0.10566000000E+00 0. -1.
         23    2    1    0    0    0  0.23594881549E+02 -0.11187372339E+02  0.13210589785E+02  0.95735765555E+02  0.91153394828E+02 0.  0.
         13    1    3    3    0    0  0.55101909166E+02 -0.14727901331E+02 -0.79927740723E+01  0.57593637433E+02  0.10566000000E+00 0.  1.
         22    1    1    0    0    0 -0.23594881549E+02  0.11187372339E+02 -0.13210589785E+02  0.29264234445E+02  0.00000000000E+00 0.  1.
</event>
<event>
 5    1  0.8943334E-005  0.9118800E+02  0.7818608E-02  0.1130116E+00
         25   -1    0    0    0    0  0.00000000000E+00  0.00000000000E+00  0.99999998245E-14  0.12500000000E+03  0.12500000000E+03 0.  0.
        -13    1    3    3    0    0 -0.13742501284E+02  0.19963785176E+02 -0.49336296576E+02  0.54968085140E+02  0.10566000000E+00 0. -1.
         23    2    1    0    0    0  0.15145964875E+02  0.11120778193E+02 -0.24783177115E+02  0.93898909544E+02  0.88598687270E+02 0.  0.
         13    1    3    3    0    0  0.28888466159E+02 -0.88430069826E+01  0.24553119460E+02  0.38930824404E+02  0.10566000000E+00 0.  1.
         22    1    1    0    0    0 -0.15145964875E+02 -0.11120778193E+02  0.24783177115E+02  0.31101090456E+02  0.00000000000E+00 0. -1.
</event>
<event>
 5    1  0.8943334E-005  0.9118800E+02  0.7818608E-02  0.1130116E+00
         25   -1    0    0    0    0  0.00000000000E+00  0.00000000000E+00  0.99999998245E-14  0.12500000000E+03  0.12500000000E+03 0.  0.
        -13    1    3    3    0    0  0.23102110854E+02 -0.36347276700E+02  0.31677844680E+02  0.53463343115E+02  0.10566000000E+00 0.  1.
         23    2    1    0    0    0 -0.12570849574E+02 -0.14239308158E+02  0.20828301926E+02  0.96811308705E+02  0.92616559946E+02 0.  0.
         13    1    3    3    0    0 -0.35672960428E+02  0.22107968542E+02 -0.10849542754E+02  0.43347965590E+02  0.10566000000E+00 0. -1.
         22    1    1    0    0    0  0.12570849574E+02  0.14239308158E+02 -0.20828301926E+02  0.28188691295E+02  0.00000000000E+00 0.  1.
</event>
<event>
 5    1  0.8943334E-005  0.9118800E+02  0.7818608E-02  0.1130116E+00
         25   -1    0    0    0    0  0.00000000000E+00  0.00000000000E+00  0.99999998245E-14  0.12500000000E+03  0.12500000000E+03 0.  0.
        -13    1    3    3    0    0  0.21521740583E+02 -0.32856044945E+02  0.19242171643E+02  0.43737596422E+02  0.10566000000E+00 0. -1.
         23    2    1    0    0    0 -0.69835292711E+01 -0.36506935771E+02 -0.11764122210E+02  0.86013840766E+02  0.76671117061E+02 0.  0.
         13    1    3    3    0    0 -0.28505269854E+02 -0.36508908257E+01 -0.31006293853E+02  0.42276244344E+02  0.10566000000E+00 0.  1.
         22    1    1    0    0    0  0.69835292711E+01  0.36506935771E+02  0.11764122210E+02  0.38986159234E+02  0.00000000000E+00 0. -1.
</event>
<event>
 5    1  0.8943334E-005  0.9118800E+02  0.7818608E-02  0.1130116E+00
         25   -1    0    0    0    0  0.00000000000E+00  0.00000000000E+00  0.99999998245E-14  0.12500000000E+03  0.12500000000E+03 0.  0.
        -13    1    3    3    0    0 -0.19949121278E+01  0.12247713117E+02 -0.35066697664E+02  0.37197723049E+02  0.10566000000E+00 0.  1.
         23    2    1    0    0    0  0.20540023454E+02 -0.17473624077E+02  0.10480269668E+02  0.96068077247E+02  0.91607965329E+02 0.  0.
         13    1    3    3    0    0  0.22534935582E+02 -0.29721337193E+02  0.45546967332E+02  0.58870354198E+02  0.10566000000E+00 0. -1.
         22    1    1    0    0    0 -0.20540023454E+02  0.17473624077E+02 -0.10480269668E+02  0.28931922753E+02  0.00000000000E+00 0. -1.
</event>
<event>
 5    1  0.8943334E-005  0.9118800E+02  0.7818608E-02  0.1130116E+00
         25   -1    0    0    0    0  0.00000000000E+00  0.00000000000E+00  0.99999998245E-14  0.12500000000E+03  0.12500000000E+03 0.  0.
        -13    1    3    3    0    0  0.12956347704E+02  0.29031644565E+02 -0.19675726812E+02  0.37387815149E+02  0.10566000000E+00 0. -1.
         23    2    1    0    0    0 -0.25078352797E+02 -0.12635204681E+02 -0.12512853054E+02  0.94256811032E+02  0.89102204002E+02 0.  0.
         13    1    3    3    0    0 -0.38034700502E+02 -0.41666849246E+02  0.71628737578E+01  0.56868995884E+02  0.10566000000E+00 0.  1.
         22    1    1    0    0    0  0.25078352797E+02  0.12635204681E+02  0.12512853054E+02  0.30743188968E+02  0.00000000000E+00 0. -1.
</event>
<event>
 5    1  0.8943334E-005  0.9118800E+02  0.7818608E-02  0.1130116E+00
         25   -1    0    0    0    0  0.00000000000E+00  0.00000000000E+00  0.99999998245E-14  0.12500000000E+03  0.12500000000E+03 0.  0.
        -13    1    3    3    0    0  0.31864063096E+02  0.50940499998E+01 -0.50132152256E+01  0.32655954332E+02  0.10566000000E+00 0.  1.
         23    2    1    0    0    0 -0.29041517462E+02  0.15163259436E+00  0.74452348200E+01  0.95018935134E+02  0.90165036370E+02 0.  0.
         13    1    3    3    0    0 -0.60905580558E+02 -0.49424174054E+01  0.12458450046E+02  0.62362980802E+02  0.10566000000E+00 0. -1.
         22    1    1    0    0    0  0.29041517462E+02 -0.15163259436E+00 -0.74452348200E+01  0.29981064866E+02  0.00000000000E+00 0. -1.
</event>
<event>
 5    1  0.8943334E-005  0.9118800E+02  0.7818608E-02  0.1130116E+00
         25   -1    0    0    0    0  0.00000000000E+00  0.00000000000E+00  0.99999998245E-14  0.12500000000E+03  0.12500000000E+03 0.  0.
        -13    1    3    3    0    0  0.18902217980E+02 -0.25343227112E+01 -0.36581031229E+02  0.41254086416E+02  0.10566000000E+00 0. -1.
         23    2    1    0    0    0 -0.18872257178E+02 -0.22114366419E+02 -0.24043703606E+01  0.95828296417E+02  0.91280195575E+02 0.  0.
         13    1    3    3    0    0 -0.37774475158E+02 -0.19580043708E+02  0.34176660868E+02  0.54574210001E+02  0.10566000000E+00 0.  1.
         22    1    1    0    0    0  0.18872257178E+02  0.22114366419E+02  0.24043703606E+01  0.29171703583E+02  0.00000000000E+00 0.  1.
</event>
<event>
 5    1  0.8943334E-005  0.9118800E+02  0.7818608E-02  0.1130116E+00
         25   -1    0    0    0    0  0.00000000000E+00  0.00000000000E+00  0.99999998245E-14  0.12500000000E+03  0.12500000000E+03 0.  0.
        -13    1    3    3    0    0  0.40131692044E+01 -0.16670863384E+02  0.39068992257E+02  0.42666386454E+02  0.10566000000E+00 0.  1.
         23    2    1    0    0    0 -0.23297875723E+01 -0.26832042396E+02 -0.12283939417E+02  0.95397946408E+02  0.90688955237E+02 0.  0.
         13    1    3    3    0    0 -0.63429567767E+01 -0.10161179012E+02 -0.51352931674E+02  0.52731559954E+02  0.10566000000E+00 0. -1.
         22    1    1    0    0    0  0.23297875723E+01  0.26832042396E+02  0.12283939417E+02  0.29602053592E+02  0.00000000000E+00 0. -1.
</event>
<event>
 5    1  0.8943334E-005  0.9118800E+02  0.7818608E-02  0.1130116E+00
         25   -1    0    0    0    0  0.00000000000E+00  0.00000000000E+00  0.99999998245E-14  0.12500000000E+03  0.12500000000E+03 0.  0.
        -13    1    3    3    0    0 -0.17469907296E+02  0.29216434545E+01 -0.29599675647E+02  0.34494718782E+02  0.10566000000E+00 0. -1.
         23    2    1    0    0    0  0.47761849500E+01  0.12943997529E+02  0.26196296568E+02  0.95392484593E+02  0.90681426699E+02 0.  0.
         13    1    3    3    0    0  0.22246092246E+02  0.10022354074E+02  0.55795972214E+02  0.60897765811E+02  0.10566000000E+00 0.  1.
         22    1    1    0    0    0 -0.47761849500E+01 -0.12943997529E+02 -0.26196296568E+02  0.29607515407E+02  0.00000000000E+00 0.  1.
</event>
<event>
 5    1  0.8943334E-005  0.9118800E+02  0.7818608E-02  0.1130116E+00
         25   -1    0    0    0    0  0.00000000000E+00  0.00000000000E+00  0.99999998245E-14  0.12500000000E+03  0.12500000000E+03 0.  0.
        -13    1    3    3    0    0 -0.45855171484E+02  0.24262243414E+02 -0.86613258759E+01  0.52596415631E+02  0.10566000000E+00 0. -1.
         23    2    1    0    0    0 -0.98389450206E+01  0.31204211034E+02  0.53231786115E+01  0.91851186206E+02  0.85660939474E+02 0.  0.
         13    1    3    3    0    0  0.36016226463E+02  0.69419676206E+01  0.13984504487E+02  0.39254770575E+02  0.10566000000E+00 0.  1.
         22    1    1    0    0    0  0.98389450206E+01 -0.31204211034E+02 -0.53231786115E+01  0.33148813794E+02  0.00000000000E+00 0. -1.
</event>
<event>
 5    1  0.8943334E-005  0.9118800E+02  0.7818608E-02  0.1130116E+00
         25   -1    0    0    0    0  0.00000000000E+00  0.00000000000E+00  0.99999998245E-14  0.12500000000E+03  0.12500000000E+03 0.  0.
        -13    1    3    3    0    0  0.24887764826E+02 -0.20958310876E+02 -0.26165568491E+02  0.41752841476E+02  0.10566000000E+00 0. -1.
         23    2    1    0    0    0  0.20884242442E+01 -0.12265807796E+02  0.24239680543E+02  0.97753464999E+02  0.93879530515E+02 0.  0.
         13    1    3    3    0    0 -0.22799340582E+02  0.86925030802E+01  0.50405249034E+02  0.56000623523E+02  0.10566000000E+00 0.  1.
         22    1    1    0    0    0 -0.20884242442E+01  0.12265807796E+02 -0.24239680543E+02  0.27246535001E+02  0.00000000000E+00 0.  1.
</event>
<event>
 5    1  0.8943334E-005  0.9118800E+02  0.7818608E-02  0.1130116E+00
         25   -1    0    0    0    0  0.00000000000E+00  0.00000000000E+00  0.99999998245E-14  0.12500000000E+03  0.12500000000E+03 0.  0.
        -13    1    3    3    0    0 -0.24367710214E+02 -0.48141191770E+02  0.27089407968E+02  0.60375548314E+02  0.10566000000E+00 0.  1.
         23    2    1    0    0    0 -0.17709836360E+02 -0.38566871909E+02  0.94494710017E+01  0.81522023794E+02  0.68960176541E+02 0.  0.
         13    1    3    3    0    0  0.66578738532E+01  0.95743198614E+01 -0.17639936966E+02  0.21146475481E+02  0.10566000000E+00 0. -1.
         22    1    1    0    0    0  0.17709836360E+02  0.38566871909E+02 -0.94494710017E+01  0.43477976206E+02  0.00000000000E+00 0.  1.
</event>
<event>
 5    1  0.8943334E-005  0.9118800E+02  0.7818608E-02  0.1130116E+00
         25   -1    0    0    0    0  0.00000000000E+00  0.00000000000E+00  0.99999998245E-14  0.12500000000E+03  0.12500000000E+03 0.  0.
        -13    1    3    3    0    0  0.43557670980E+02 -0.29947853429E+01 -0.32965469423E+01  0.43784904091E+02  0.10566000000E+00 0. -1.
         23    2    1    0    0    0 -0.62102313841E+00  0.26100422157E+02  0.76290909968E+01  0.97800354121E+02  0.93941942338E+02 0.  0.
         13    1    3    3    0    0 -0.44178694119E+02  0.29095207500E+02  0.10925637939E+02  0.54015450030E+02  0.10566000000E+00 0.  1.
         22    1    1    0    0    0  0.62102313841E+00 -0.26100422157E+02 -0.76290909968E+01  0.27199645879E+02  0.00000000000E+00 0.  1.
</event>
<event>
 5    1  0.8943334E-005  0.9118800E+02  0.7818608E-02  0.1130116E+00
         25   -1    0    0    0    0  0.00000000000E+00  0.00000000000E+00  0.99999998245E-14  0.12500000000E+03  0.12500000000E+03 0.  0.
        -13    1    3    3    0    0 -0.27978429384E+02  0.11963797545E+02 -0.21641898038E+02  0.37340432204E+02  0.10566000000E+00 0. -1.
         23    2    1    0    0    0 -0.33850415456E+01 -0.26431228380E+02  0.13707003096E+02  0.95034181576E+02  0.90186170747E+02 0.  0.
         13    1    3    3    0    0  0.24593387838E+02 -0.38395025925E+02  0.35348901134E+02  0.57693749372E+02  0.10566000000E+00 0.  1.
         22    1    1    0    0    0  0.33850415456E+01  0.26431228380E+02 -0.13707003096E+02  0.29965818424E+02  0.00000000000E+00 0.  1.
</event>
<event>
 5    1  0.8943334E-005  0.9118800E+02  0.7818608E-02  0.1130116E+00
         25   -1    0    0    0    0  0.00000000000E+00  0.00000000000E+00  0.99999998245E-14  0.12500000000E+03  0.12500000000E+03 0.  0.
        -13    1    3    3    0    0  0.22887338818E+02 -0.53562743908E+02  0.19120755730E+02  0.61305891046E+02  0.10566000000E+00 0. -1.
         23    2    1    0    0    0  0.29506202648E+01 -0.28236178350E+02  0.11068241994E+02  0.94528801983E+02  0.89482962042E+02 0.  0.
         13    1    3    3    0    0 -0.19936718553E+02  0.25326565559E+02 -0.80525137363E+01  0.33222910938E+02  0.10566000000E+00 0.  1.
         22    1    1    0    0    0 -0.29506202648E+01  0.28236178350E+02 -0.11068241994E+02  0.30471198017E+02  0.00000000000E+00 0. -1.
</event>
<event>
 5    1  0.8943334E-005  0.9118800E+02  0.7818608E-02  0.1130116E+00
         25   -1    0    0    0    0  0.00000000000E+00  0.00000000000E+00  0.99999998245E-14  0.12500000000E+03  0.12500000000E+03 0.  0.
        -13    1    3    3    0    0  0.21984735218E+02  0.10490264715E+02 -0.41744591950E+02  0.48332146212E+02  0.10566000000E+00 0.  1.
         23    2    1    0    0    0 -0.14524607231E+01 -0.23001000970E+02 -0.19129182051E+02  0.95048684608E+02  0.90206270026E+02 0.  0.
         13    1    3    3    0    0 -0.23437195941E+02 -0.33491265685E+02  0.22615409899E+02  0.46716538396E+02  0.10566000000E+00 0. -1.
         22    1    1    0    0    0  0.14524607231E+01  0.23001000970E+02  0.19129182051E+02  0.29951315392E+02  0.00000000000E+00 0.  1.
</event>
<event>
 5    1  0.8943334E-005  0.9118800E+02  0.7818608E-02  0.1130116E+00
         25   -1    0    0    0    0  0.00000000000E+00  0.00000000000E+00  0.99999998245E-14  0.12500000000E+03  0.12500000000E+03 0.  0.
        -13    1    3    3    0    0  0.55165179494E+01 -0.88535083064E+01  0.58105670195E+02  0.59034707186E+02  0.10566000000E+00 0. -1.
         23    2    1    0    0    0  0.94640991444E+00 -0.17987066687E+02  0.21947699761E+02  0.96607540005E+02  0.92341133853E+02 0.  0.
         13    1    3    3    0    0 -0.45701080349E+01 -0.91335583810E+01 -0.36157970434E+02  0.37572832820E+02  0.10566000000E+00 0.  1.
         22    1    1    0    0    0 -0.94640991444E+00  0.17987066687E+02 -0.21947699761E+02  0.28392459995E+02  0.00000000000E+00 0. -1.
</event>
<event>
 5    1  0.8943334E-005  0.9118800E+02  0.7818608E-02  0.1130116E+00
         25   -1    0    0    0    0  0.00000000000E+00  0.00000000000E+00  0.99999998245E-14  0.12500000000E+03  0.12500000000E+03 0.  0.
        -13    1    3    3    0    0 -0.47351031914E+02  0.25922305869E+02  0.16967981939E+02  0.56586303466E+02  0.10566000000E+00 0. -1.
         23    2    1    0    0    0 -0.14474060921E+02  0.67099973823E+01  0.24847102636E+02  0.95472029974E+02  0.90791009982E+02 0.  0.
         13    1    3    3    0    0  0.32876970993E+02 -0.19212308487E+02  0.78791206974E+01  0.38885726508E+02  0.10566000000E+00 0.  1.
         22    1    1    0    0    0  0.14474060921E+02 -0.67099973823E+01 -0.24847102636E+02  0.29527970026E+02  0.00000000000E+00 0. -1.
</event>
<event>
 5    1  0.8943334E-005  0.9118800E+02  0.7818608E-02  0.1130116E+00
         25   -1    0    0    0    0  0.00000000000E+00  0.00000000000E+00  0.99999998245E-14  0.12500000000E+03  0.12500000000E+03 0.  0.
        -13    1    3    3    0    0 -0.14681423627E+02  0.20615390909E+02  0.19384968168E+02  0.31879879187E+02  0.10566000000E+00 0. -1.
         23    2    1    0    0    0  0.98291711948E+01 -0.13788748410E+02 -0.26057471337E+02  0.93923738939E+02  0.88633711051E+02 0.  0.
         13    1    3    3    0    0  0.24510594822E+02 -0.34404139319E+02 -0.45442439504E+02  0.62043859752E+02  0.10566000000E+00 0.  1.
         22    1    1    0    0    0 -0.98291711948E+01  0.13788748410E+02  0.26057471337E+02  0.31076261061E+02  0.00000000000E+00 0.  1.
</event>
<event>
 5    1  0.8943334E-005  0.9118800E+02  0.7818608E-02  0.1130116E+00
         25   -1    0    0    0    0  0.00000000000E+00  0.00000000000E+00  0.99999998245E-14  0.12500000000E+03  0.12500000000E+03 0.  0.
        -13    1    3    3    0    0  0.23419221353E+02 -0.37541760505E+02  0.45244975784E+01  0.44478376241E+02  0.10566000000E+00 0. -1.
         23    2    1    0    0    0 -0.52995660464E+01 -0.87769721300E+01 -0.27129985394E+02  0.95997297583E+02  0.91511334793E+02 0.  0.
         13    1    3    3    0    0 -0.28718787400E+02  0.28764788375E+02 -0.31654482972E+02  0.51518921342E+02  0.10566000000E+00 0.  1.
         22    1    1    0    0    0  0.52995660464E+01  0.87769721300E+01  0.27129985394E+02  0.29002702417E+02  0.00000000000E+00 0.  1.
</event>
<event>
 5    1  0.8943334E-005  0.9118800E+02  0.7818608E-02  0.1130116E+00
         25   -1    0    0    0    0  0.00000000000E+00  0.00000000000E+00  0.99999998245E-14  0.12500000000E+03  0.12500000000E+03 0.  0.
        -13    1    3    3    0    0 -0.72556967805E+00  0.52652349089E+02  0.74185552389E+01  0.53177461784E+02  0.10566000000E+00 0.  1.
         23    2    1    0    0    0  0.23322945403E+02  0.19251691277E+02  0.43101677628E+01  0.94452251385E+02  0.89375963471E+02 0.  0.
         13    1    3    3    0    0  0.24048515081E+02 -0.33400657812E+02 -0.31083874761E+01  0.41274789601E+02  0.10566000000E+00 0. -1.
         22    1    1    0    0    0 -0.23322945403E+02 -0.19251691277E+02 -0.43101677628E+01  0.30547748615E+02  0.00000000000E+00 0.  1.
</event>
<event>
 5    1  0.8943334E-005  0.9118800E+02  0.7818608E-02  0.1130116E+00
         25   -1    0    0    0    0  0.00000000000E+00  0.00000000000E+00  0.99999998245E-14  0.12500000000E+03  0.12500000000E+03 0.  0.
        -13    1    3    3    0    0 -0.19581216284E+02  0.33213352904E+00  0.31897838437E+02  0.37430169715E+02  0.10566000000E+00 0.  1.
         23    2    1    0    0    0  0.18543236575E+02  0.24226061281E+02 -0.29627386467E+01  0.94348222105E+02  0.89230350925E+02 0.  0.
         13    1    3    3    0    0  0.38124452859E+02  0.23893927752E+02 -0.34860577084E+02  0.56918052390E+02  0.10566000000E+00 0. -1.
         22    1    1    0    0    0 -0.18543236575E+02 -0.24226061281E+02  0.29627386467E+01  0.30651777895E+02  0.00000000000E+00 0. -1.
</event>
<event>
 5    1  0.8943334E-005  0.9118800E+02  0.7818608E-02  0.1130116E+00
         25   -1    0    0    0    0  0.00000000000E+00  0.00000000000E+00  0.99999998245E-14  0.12500000000E+03  0.12500000000E+03 0.  0.
        -13    1    3    3    0    0 -0.34915204978E+02  0.47136715664E+01 -0.15042970697E+02  0.38309168220E+02  0.10566000000E+00 0. -1.
         23    2    1    0    0    0  0.24092894380E+02 -0.16879980426E+00 -0.13155067142E+02  0.97549101208E+02  0.93607025922E+02 0.  0.
         13    1    3    3    0    0  0.59008099358E+02 -0.48824713706E+01  0.18879035550E+01  0.59239932988E+02  0.10566000000E+00 0.  1.
         22    1    1    0    0    0 -0.24092894380E+02  0.16879980426E+00  0.13155067142E+02  0.27450898792E+02  0.00000000000E+00 0.  1.
</event>
<event>
 5    1  0.8943334E-005  0.9118800E+02  0.7818608E-02  0.1130116E+00
         25   -1    0    0    0    0  0.00000000000E+00  0.00000000000E+00  0.99999998245E-14  0.12500000000E+03  0.12500000000E+03 0.  0.
        -13    1    3    3    0    0  0.57988770127E+02 -0.99523484501E+01  0.13682239304E+02  0.60406634875E+02  0.10566000000E+00 0.  1.
         23    2    1    0    0    0  0.22804834089E+02 -0.41536338513E+01  0.17050999893E+02  0.96224146766E+02  0.91820676819E+02 0.  0.
         13    1    3    3    0    0 -0.35183936038E+02  0.57987145987E+01  0.33687605894E+01  0.35817511891E+02  0.10566000000E+00 0. -1.
         22    1    1    0    0    0 -0.22804834089E+02  0.41536338513E+01 -0.17050999893E+02  0.28775853234E+02  0.00000000000E+00 0.  1.
</event>
<event>
 5    1  0.8943334E-005  0.9118800E+02  0.7818608E-02  0.1130116E+00
         25   -1    0    0    0    0  0.00000000000E+00  0.00000000000E+00  0.99999998245E-14  0.12500000000E+03  0.12500000000E+03 0.  0.
        -13    1    3    3    0    0  0.21889239640E+02 -0.29118124453E+02 -0.22633695203E+02  0.42887052897E+02  0.10566000000E+00 0. -1.
         23    2    1    0    0    0  0.23321426230E+02  0.18508600836E+02 -0.10180409047E+01  0.95209168632E+02  0.90428381375E+02 0.  0.
         13    1    3    3    0    0  0.14321865900E+01  0.47626725289E+02  0.21615654298E+02  0.52322115735E+02  0.10566000000E+00 0.  1.
         22    1    1    0    0    0 -0.23321426230E+02 -0.18508600836E+02  0.10180409047E+01  0.29790831368E+02  0.00000000000E+00 0.  1.
</event>
<event>
 5    1  0.8943334E-005  0.9118800E+02  0.7818608E-02  0.1130116E+00
         25   -1    0    0    0    0  0.00000000000E+00  0.00000000000E+00  0.99999998245E-14  0.12500000000E+03  0.12500000000E+03 0.  0.
        -13    1    3    3    0    0  0.30381714718E+02 -0.46904560767E+02  0.53700213276E+01  0.56142093861E+02  0.10566000000E+00 0.  1.
         23    2    1    0    0    0 -0.54356830872E+00 -0.28909104707E+02 -0.90259298458E+01  0.94709750561E+02  0.89735375635E+02 0.  0.
         13    1    3    3    0    0 -0.30925283027E+02  0.17995456060E+02 -0.14395951173E+02  0.38567656700E+02  0.10566000000E+00 0. -1.
         22    1    1    0    0    0  0.54356830872E+00  0.28909104707E+02  0.90259298458E+01  0.30290249439E+02  0.00000000000E+00 0.  1.
</event>
<event>
 5    1  0.8943334E-005  0.9118800E+02  0.7818608E-02  0.1130116E+00
         25   -1    0    0    0    0  0.00000000000E+00  0.00000000000E+00  0.99999998245E-14  0.12500000000E+03  0.12500000000E+03 0.  0.
        -13    1    3    3    0    0 -0.10502546875E+02 -0.28372654507E+02  0.16102384253E+02  0.34272568583E+02  0.10566000000E+00 0.  1.
         23    2    1    0    0    0 -0.33361477803E+01  0.15678765392E+02 -0.25233986588E+02  0.95105056526E+02  0.90284351531E+02 0.  0.
         13    1    3    3    0    0  0.71663990943E+01  0.44051419898E+02 -0.41336370841E+02  0.60832487943E+02  0.10566000000E+00 0. -1.
         22    1    1    0    0    0  0.33361477803E+01 -0.15678765392E+02  0.25233986588E+02  0.29894943474E+02  0.00000000000E+00 0. -1.
</event>
<event>
 5    1  0.8943334E-005  0.9118800E+02  0.7818608E-02  0.1130116E+00
         25   -1    0    0    0    0  0.00000000000E+00  0.00000000000E+00  0.99999998245E-14  0.12500000000E+03  0.12500000000E+03 0.  0.
        -13    1    3    3    0    0  0.63943726588E+01  0.61035744116E+02  0.16514796124E+01  0.61392089152E+02  0.10566000000E+00 0. -1.
         23    2    1    0    0    0  0.10784395769E+02  0.25276935582E+02 -0.84210843162E+00  0.97505713118E+02  0.93549068833E+02 0.  0.
         13    1    3    3    0    0  0.43900231101E+01 -0.35758808534E+02 -0.24935880440E+01  0.36113623967E+02  0.10566000000E+00 0.  1.
         22    1    1    0    0    0 -0.10784395769E+02 -0.25276935582E+02  0.84210843162E+00  0.27494286882E+02  0.00000000000E+00 0. -1.
</event>
<event>
 5    1  0.8943334E-005  0.9118800E+02  0.7818608E-02  0.1130116E+00
         25   -1    0    0    0    0  0.00000000000E+00  0.00000000000E+00  0.99999998245E-14  0.12500000000E+03  0.12500000000E+03 0.  0.
        -13    1    3    3    0    0 -0.35406553072E+02 -0.93957046884E-01 -0.18183543780E+02  0.39803080996E+02  0.10566000000E+00 0.  1.
         23    2    1    0    0    0  0.10867561600E+02  0.55653335285E+01  0.21004289550E+02  0.10070479447E+03  0.97730233892E+02 0.  0.
         13    1    3    3    0    0  0.46274114672E+02  0.56592905754E+01  0.39187833330E+02  0.60901713470E+02  0.10566000000E+00 0. -1.
         22    1    1    0    0    0 -0.10867561600E+02 -0.55653335285E+01 -0.21004289550E+02  0.24295205533E+02  0.00000000000E+00 0. -1.
</event>
<event>
 5    1  0.8943334E-005  0.9118800E+02  0.7818608E-02  0.1130116E+00
         25   -1    0    0    0    0  0.00000000000E+00  0.00000000000E+00  0.99999998245E-14  0.12500000000E+03  0.12500000000E+03 0.  0.
        -13    1    3    3    0    0 -0.26482611127E+02  0.22589587312E+02  0.56286798472E+01  0.35260620356E+02  0.10566000000E+00 0.  1.
         23    2    1    0    0    0  0.64630782974E+01 -0.27748564512E+02 -0.41393990008E+01  0.96209570381E+02  0.91800831125E+02 0.  0.
         13    1    3    3    0    0  0.32945689425E+02 -0.50338151824E+02 -0.97680788481E+01  0.60948950025E+02  0.10566000000E+00 0. -1.
         22    1    1    0    0    0 -0.64630782974E+01  0.27748564512E+02  0.41393990008E+01  0.28790429619E+02  0.00000000000E+00 0. -1.
</event>
<event>
 5    1  0.8943334E-005  0.9118800E+02  0.7818608E-02  0.1130116E+00
         25   -1    0    0    0    0  0.00000000000E+00  0.00000000000E+00  0.99999998245E-14  0.12500000000E+03  0.12500000000E+03 0.  0.
        -13    1    3    3    0    0  0.37913415951E+02  0.12817369406E+02 -0.20647297978E+02  0.45033700108E+02  0.10566000000E+00 0.  1.
         23    2    1    0    0    0 -0.87326744521E+01 -0.61709026158E+01 -0.27155186162E+02  0.95815350308E+02  0.91262465324E+02 0.  0.
         13    1    3    3    0    0 -0.46646090404E+02 -0.18988272022E+02 -0.65078881836E+01  0.50781650199E+02  0.10566000000E+00 0. -1.
         22    1    1    0    0    0  0.87326744521E+01  0.61709026158E+01  0.27155186162E+02  0.29184649692E+02  0.00000000000E+00 0. -1.
</event>
<event>
 5    1  0.8943334E-005  0.9118800E+02  0.7818608E-02  0.1130116E+00
         25   -1    0    0    0    0  0.00000000000E+00  0.00000000000E+00  0.99999998245E-14  0.12500000000E+03  0.12500000000E+03 0.  0.
        -13    1    3    3    0    0  0.40286072759E+02 -0.15357466033E+02  0.39659971911E+02  0.58581088734E+02  0.10566000000E+00 0. -1.
         23    2    1    0    0    0  0.28029441928E+02  0.13922721991E+01  0.91491818888E+01  0.95482283863E+02  0.90805126319E+02 0.  0.
         13    1    3    3    0    0 -0.12256630831E+02  0.16749738232E+02 -0.30510790022E+02  0.36901195129E+02  0.10566000000E+00 0.  1.
         22    1    1    0    0    0 -0.28029441928E+02 -0.13922721991E+01 -0.91491818888E+01  0.29517716137E+02  0.00000000000E+00 0. -1.
</event>
<event>
 5    1  0.8943334E-005  0.9118800E+02  0.7818608E-02  0.1130116E+00
         25   -1    0    0    0    0  0.00000000000E+00  0.00000000000E+00  0.99999998245E-14  0.12500000000E+03  0.12500000000E+03 0.  0.
        -13    1    3    3    0    0  0.45090452195E+02  0.67060190824E+01 -0.17028187579E+02  0.48663024026E+02  0.10566000000E+00 0. -1.
         23    2    1    0    0    0  0.21242327465E+02 -0.93370752627E+01  0.19182057257E+02  0.94894040935E+02  0.89991723141E+02 0.  0.
         13    1    3    3    0    0 -0.23848124730E+02 -0.16043094345E+02  0.36210244836E+02  0.46231016909E+02  0.10566000000E+00 0.  1.
         22    1    1    0    0    0 -0.21242327465E+02  0.93370752627E+01 -0.19182057257E+02  0.30105959065E+02  0.00000000000E+00 0. -1.
</event>
<event>
 5    1  0.8943334E-005  0.9118800E+02  0.7818608E-02  0.1130116E+00
         25   -1    0    0    0    0  0.00000000000E+00  0.00000000000E+00  0.99999998245E-14  0.12500000000E+03  0.12500000000E+03 0.  0.
        -13    1    3    3    0    0  0.74714418930E+01 -0.33925826012E+02  0.39757926298E+01  0.34965729016E+02  0.10566000000E+00 0.  1.
         23    2    1    0    0    0 -0.41384321958E+01  0.15156950689E+02 -0.26715344960E+02  0.94006945430E+02  0.88750979474E+02 0.  0.
         13    1    3    3    0    0 -0.11609874089E+02  0.49082776701E+02 -0.30691137590E+02  0.59041216414E+02  0.10566000000E+00 0. -1.
         22    1    1    0    0    0  0.41384321958E+01 -0.15156950689E+02  0.26715344960E+02  0.30993054570E+02  0.00000000000E+00 0. -1.
</event>
<event>
 5    1  0.8943334E-005  0.9118800E+02  0.7818608E-02  0.1130116E+00
         25   -1    0    0    0    0  0.00000000000E+00  0.00000000000E+00  0.99999998245E-14  0.12500000000E+03  0.12500000000E+03 0.  0.
        -13    1    3    3    0    0  0.18140094991E+02  0.48599055556E+01  0.30945962047E+02  0.36198694166E+02  0.10566000000E+00 0.  1.
         23    2    1    0    0    0 -0.20928574819E+02  0.97799239741E+01 -0.15568471251E+02  0.97142694782E+02  0.93062740640E+02 0.  0.
         13    1    3    3    0    0 -0.39068669810E+02  0.49200184185E+01 -0.46514433298E+02  0.60944000616E+02  0.10566000000E+00 0. -1.
         22    1    1    0    0    0  0.20928574819E+02 -0.97799239741E+01  0.15568471251E+02  0.27857305218E+02  0.00000000000E+00 0. -1.
</event>
<event>
 5    1  0.8943334E-005  0.9118800E+02  0.7818608E-02  0.1130116E+00
         25   -1    0    0    0    0  0.00000000000E+00  0.00000000000E+00  0.99999998245E-14  0.12500000000E+03  0.12500000000E+03 0.  0.
        -13    1    3    3    0    0  0.61285320712E+02 -0.11088631606E+02 -0.39374214259E+01  0.62404829438E+02  0.10566000000E+00 0. -1.
         23    2    1    0    0    0  0.26657438990E+02 -0.61968682779E+01 -0.37412409519E+01  0.97377235587E+02  0.93377239715E+02 0.  0.
         13    1    3    3    0    0 -0.34627881722E+02  0.48917633281E+01  0.19618047403E+00  0.34972406149E+02  0.10566000000E+00 0.  1.
         22    1    1    0    0    0 -0.26657438990E+02  0.61968682779E+01  0.37412409519E+01  0.27622764413E+02  0.00000000000E+00 0. -1.
</event>
<event>
 5    1  0.8943334E-005  0.9118800E+02  0.7818608E-02  0.1130116E+00
         25   -1    0    0    0    0  0.00000000000E+00  0.00000000000E+00  0.99999998245E-14  0.12500000000E+03  0.12500000000E+03 0.  0.
        -13    1    3    3    0    0  0.13003289770E+02  0.31052649565E+02 -0.32705327504E+02  0.46936150258E+02  0.10566000000E+00 0. -1.
         23    2    1    0    0    0  0.23914381218E+02  0.10814574018E+02  0.11173985624E+02  0.96474387036E+02  0.92160711581E+02 0.  0.
         13    1    3    3    0    0  0.10911091448E+02 -0.20238075547E+02  0.43879313128E+02  0.49538236778E+02  0.10566000000E+00 0.  1.
         22    1    1    0    0    0 -0.23914381218E+02 -0.10814574018E+02 -0.11173985624E+02  0.28525612964E+02  0.00000000000E+00 0.  1.
</event>
<event>
 5    1  0.8943334E-005  0.9118800E+02  0.7818608E-02  0.1130116E+00
         25   -1    0    0    0    0  0.00000000000E+00  0.00000000000E+00  0.99999998245E-14  0.12500000000E+03  0.12500000000E+03 0.  0.
        -13    1    3    3    0    0  0.53290262526E+01  0.29578131515E+02 -0.35331323925E+02  0.46385105357E+02  0.10566000000E+00 0.  1.
         23    2    1    0    0    0  0.23729865337E+02 -0.71724529331E+01 -0.27045538780E+02  0.88311967102E+02  0.80330515843E+02 0.  0.
         13    1    3    3    0    0  0.18400839085E+02 -0.36750584448E+02  0.82857851449E+01  0.41926861745E+02  0.10566000000E+00 0. -1.
         22    1    1    0    0    0 -0.23729865337E+02  0.71724529331E+01  0.27045538780E+02  0.36688032898E+02  0.00000000000E+00 0.  1.
</event>
<event>
 5    1  0.8943334E-005  0.9118800E+02  0.7818608E-02  0.1130116E+00
         25   -1    0    0    0    0  0.00000000000E+00  0.00000000000E+00  0.99999998245E-14  0.12500000000E+03  0.12500000000E+03 0.  0.
        -13    1    3    3    0    0 -0.14295179075E+02 -0.59502203849E+02  0.10647353038E+02  0.62114746223E+02  0.10566000000E+00 0. -1.
         23    2    1    0    0    0 -0.43816563133E+01 -0.23531920865E+02 -0.50811658782E+00  0.10105822909E+03  0.98181247056E+02 0.  0.
         13    1    3    3    0    0  0.99135227616E+01  0.35970282984E+02 -0.11155469626E+02  0.38943482871E+02  0.10566000000E+00 0.  1.
         22    1    1    0    0    0  0.43816563133E+01  0.23531920865E+02  0.50811658782E+00  0.23941770906E+02  0.00000000000E+00 0. -1.
</event>
<event>
 5    1  0.8943334E-005  0.9118800E+02  0.7818608E-02  0.1130116E+00
         25   -1    0    0    0    0  0.00000000000E+00  0.00000000000E+00  0.99999998245E-14  0.12500000000E+03  0.12500000000E+03 0.  0.
        -13    1    3    3    0    0  0.38279592786E+02 -0.69075435522E+01  0.33539067084E+01  0.39042300599E+02  0.10566000000E+00 0. -1.
         23    2    1    0    0    0 -0.59636594390E+01  0.27199522187E+02  0.10244845491E+02  0.95329541624E+02  0.90594621286E+02 0.  0.
         13    1    3    3    0    0 -0.44243252226E+02  0.34107065739E+02  0.68909387829E+01  0.56287241025E+02  0.10566000000E+00 0.  1.
         22    1    1    0    0    0  0.59636594390E+01 -0.27199522187E+02 -0.10244845491E+02  0.29670458376E+02  0.00000000000E+00 0.  1.
</event>
<event>
 5    1  0.8943334E-005  0.9118800E+02  0.7818608E-02  0.1130116E+00
         25   -1    0    0    0    0  0.00000000000E+00  0.00000000000E+00  0.99999998245E-14  0.12500000000E+03  0.12500000000E+03 0.  0.
        -13    1    3    3    0    0  0.22092405466E+01 -0.58629920164E+02  0.11076634754E+02  0.59708050410E+02  0.10566000000E+00 0.  1.
         23    2    1    0    0    0 -0.18043539355E+01 -0.23550373366E+02  0.17510138287E+02  0.95597946983E+02  0.90964205849E+02 0.  0.
         13    1    3    3    0    0 -0.40135944821E+01  0.35079546798E+02  0.64335035322E+01  0.35889896573E+02  0.10566000000E+00 0. -1.
         22    1    1    0    0    0  0.18043539355E+01  0.23550373366E+02 -0.17510138287E+02  0.29402053017E+02  0.00000000000E+00 0.  1.
</event>
<event>
 5    1  0.8943334E-005  0.9118800E+02  0.7818608E-02  0.1130116E+00
         25   -1    0    0    0    0  0.00000000000E+00  0.00000000000E+00  0.99999998245E-14  0.12500000000E+03  0.12500000000E+03 0.  0.
        -13    1    3    3    0    0  0.31458078151E+02 -0.28227445869E+02 -0.27535644108E+02  0.50444248847E+02  0.10566000000E+00 0. -1.
         23    2    1    0    0    0 -0.35160622153E+01 -0.30484888719E+02 -0.11888893619E+01  0.94289991996E+02  0.89148740871E+02 0.  0.
         13    1    3    3    0    0 -0.34974140366E+02 -0.22574428503E+01  0.26346754746E+02  0.43845743149E+02  0.10566000000E+00 0.  1.
         22    1    1    0    0    0  0.35160622153E+01  0.30484888719E+02  0.11888893619E+01  0.30710008004E+02  0.00000000000E+00 0. -1.
</event>
<event>
 5    1  0.8943334E-005  0.9118800E+02  0.7818608E-02  0.1130116E+00
         25   -1    0    0    0    0  0.00000000000E+00  0.00000000000E+00  0.99999998245E-14  0.12500000000E+03  0.12500000000E+03 0.  0.
        -13    1    3    3    0    0 -0.26518231075E+01 -0.31862874789E+02 -0.46070448690E+02  0.56078269964E+02  0.10566000000E+00 0.  1.
         23    2    1    0    0    0  0.16174947865E+02 -0.44346080007E+01 -0.22878662495E+02  0.96632273899E+02  0.92374609470E+02 0.  0.
         13    1    3    3    0    0  0.18826770973E+02  0.27428266788E+02  0.23191786194E+02  0.40554003935E+02  0.10566000000E+00 0. -1.
         22    1    1    0    0    0 -0.16174947865E+02  0.44346080007E+01  0.22878662495E+02  0.28367726101E+02  0.00000000000E+00 0.  1.
</event>
<event>
 5    1  0.8943334E-005  0.9118800E+02  0.7818608E-02  0.1130116E+00
         25   -1    0    0    0    0  0.00000000000E+00  0.00000000000E+00  0.99999998245E-14  0.12500000000E+03  0.12500000000E+03 0.  0.
        -13    1    3    3    0    0  0.18929408500E+02 -0.19946973788E+02 -0.23043175296E+02  0.35877616437E+02  0.10566000000E+00 0.  1.
         23    2    1    0    0    0 -0.24261681372E+01  0.29916851055E+02  0.42687308898E+00  0.94981897303E+02  0.90113674466E+02 0.  0.
         13    1    3    3    0    0 -0.21355576637E+02  0.49863824843E+02  0.23470048385E+02  0.59104280866E+02  0.10566000000E+00 0. -1.
         22    1    1    0    0    0  0.24261681372E+01 -0.29916851055E+02 -0.42687308898E+00  0.30018102697E+02  0.00000000000E+00 0. -1.
</event>
<event>
 5    1  0.8943334E-005  0.9118800E+02  0.7818608E-02  0.1130116E+00
         25   -1    0    0    0    0  0.00000000000E+00  0.00000000000E+00  0.99999998245E-14  0.12500000000E+03  0.12500000000E+03 0.  0.
        -13    1    3    3    0    0  0.43837125094E+02 -0.11066794297E+02 -0.25248504094E+02  0.51784800816E+02  0.10566000000E+00 0.  1.
         23    2    1    0    0    0  0.11053633070E+02 -0.27590418628E+02 -0.20617010376E+01  0.95206299067E+02  0.90424414660E+02 0.  0.
         13    1    3    3    0    0 -0.32783492024E+02 -0.16523624332E+02  0.23186803056E+02  0.43421498251E+02  0.10566000000E+00 0. -1.
         22    1    1    0    0    0 -0.11053633070E+02  0.27590418628E+02  0.20617010376E+01  0.29793700933E+02  0.00000000000E+00 0.  1.
</event>
<event>
 5    1  0.8943334E-005  0.9118800E+02  0.7818608E-02  0.1130116E+00
         25   -1    0    0    0    0  0.00000000000E+00  0.00000000000E+00  0.99999998245E-14  0.12500000000E+03  0.12500000000E+03 0.  0.
        -13    1    3    3    0    0 -0.87481332086E+01  0.15361254534E+02 -0.49613383571E+02  0.52668747553E+02  0.10566000000E+00 0. -1.
         23    2    1    0    0    0 -0.16202276629E+02 -0.14446363937E+02 -0.23681409482E+02  0.92874926397E+02  0.87142019710E+02 0.  0.
         13    1    3    3    0    0 -0.74541434201E+01 -0.29807618471E+02  0.25931974088E+02  0.40206178843E+02  0.10566000000E+00 0.  1.
         22    1    1    0    0    0  0.16202276629E+02  0.14446363937E+02  0.23681409482E+02  0.32125073603E+02  0.00000000000E+00 0.  1.
</event>
<event>
 5    1  0.8943334E-005  0.9118800E+02  0.7818608E-02  0.1130116E+00
         25   -1    0    0    0    0  0.00000000000E+00  0.00000000000E+00  0.99999998245E-14  0.12500000000E+03  0.12500000000E+03 0.  0.
        -13    1    3    3    0    0 -0.21919933568E+02  0.25449119778E+02 -0.18311661427E+02  0.38255317191E+02  0.10566000000E+00 0. -1.
         23    2    1    0    0    0  0.22052941881E+02  0.23952093205E+00  0.14473149990E+02  0.98620809593E+02  0.95027377099E+02 0.  0.
         13    1    3    3    0    0  0.43972875449E+02 -0.25209598846E+02  0.32784811417E+02  0.60365492402E+02  0.10566000000E+00 0.  1.
         22    1    1    0    0    0 -0.22052941881E+02 -0.23952093205E+00 -0.14473149990E+02  0.26379190407E+02  0.00000000000E+00 0.  1.
</event>
<event>
 5    1  0.8943334E-005  0.9118800E+02  0.7818608E-02  0.1130116E+00
         25   -1    0    0    0    0  0.00000000000E+00  0.00000000000E+00  0.99999998245E-14  0.12500000000E+03  0.12500000000E+03 0.  0.
        -13    1    3    3    0    0 -0.15628414934E+02  0.32392979873E+02 -0.11143148150E+02  0.37652800867E+02  0.10566000000E+00 0. -1.
         23    2    1    0    0    0  0.35248205753E+01 -0.78835395591E+01  0.27196160970E+02  0.96465709619E+02  0.92148941419E+02 0.  0.
         13    1    3    3    0    0  0.19153235509E+02 -0.40276519432E+02  0.38339309120E+02  0.58812908752E+02  0.10566000000E+00 0.  1.
         22    1    1    0    0    0 -0.35248205753E+01  0.78835395591E+01 -0.27196160970E+02  0.28534290381E+02  0.00000000000E+00 0.  1.
</event>
<event>
 5    1  0.8943334E-005  0.9118800E+02  0.7818608E-02  0.1130116E+00
         25   -1    0    0    0    0  0.00000000000E+00  0.00000000000E+00  0.99999998245E-14  0.12500000000E+03  0.12500000000E+03 0.  0.
        -13    1    3    3    0    0 -0.45759853583E+02  0.69962491716E+01 -0.33101830525E+01  0.46409914655E+02  0.10566000000E+00 0. -1.
         23    2    1    0    0    0 -0.11684512477E+02 -0.16649507908E+02 -0.24639873430E+02  0.93049142296E+02  0.87391564662E+02 0.  0.
         13    1    3    3    0    0  0.34075341106E+02 -0.23645757079E+02 -0.21329690377E+02  0.46639227641E+02  0.10566000000E+00 0.  1.
         22    1    1    0    0    0  0.11684512477E+02  0.16649507908E+02  0.24639873430E+02  0.31950857704E+02  0.00000000000E+00 0.  1.
</event>
<event>
 5    1  0.8943334E-005  0.9118800E+02  0.7818608E-02  0.1130116E+00
         25   -1    0    0    0    0  0.00000000000E+00  0.00000000000E+00  0.99999998245E-14  0.12500000000E+03  0.12500000000E+03 0.  0.
        -13    1    3    3    0    0  0.36490549776E+02  0.38601369114E+02  0.31324827631E+02  0.61667510980E+02  0.10566000000E+00 0.  1.
         23    2    1    0    0    0  0.18017293441E+02  0.15132925960E+02  0.21549972296E+02  0.93093423609E+02  0.87454879237E+02 0.  0.
         13    1    3    3    0    0 -0.18473256335E+02 -0.23468443154E+02 -0.97748553343E+01  0.31425912629E+02  0.10566000000E+00 0. -1.
         22    1    1    0    0    0 -0.18017293441E+02 -0.15132925960E+02 -0.21549972296E+02  0.31906576391E+02  0.00000000000E+00 0.  1.
</event>
<event>
 5    1  0.8943334E-005  0.9118800E+02  0.7818608E-02  0.1130116E+00
         25   -1    0    0    0    0  0.00000000000E+00  0.00000000000E+00  0.99999998245E-14  0.12500000000E+03  0.12500000000E+03 0.  0.
        -13    1    3    3    0    0  0.31288276483E+02 -0.32286930860E+02 -0.58174697939E+01  0.45334934306E+02  0.10566000000E+00 0.  1.
         23    2    1    0    0    0 -0.88969204828E+01 -0.22372857084E+02  0.19641025433E+02  0.93927989955E+02  0.88639706050E+02 0.  0.
         13    1    3    3    0    0 -0.40185196966E+02  0.99140737765E+01  0.25458495227E+02  0.48593055649E+02  0.10566000000E+00 0. -1.
         22    1    1    0    0    0  0.88969204828E+01  0.22372857084E+02 -0.19641025433E+02  0.31072010045E+02  0.00000000000E+00 0. -1.
</event>
<event>
 5    1  0.8943334E-005  0.9118800E+02  0.7818608E-02  0.1130116E+00
         25   -1    0    0    0    0  0.00000000000E+00  0.00000000000E+00  0.99999998245E-14  0.12500000000E+03  0.12500000000E+03 0.  0.
        -13    1    3    3    0    0  0.25676373457E+02  0.38974676343E+02 -0.12815419234E+02  0.48399872770E+02  0.10566000000E+00 0. -1.
         23    2    1    0    0    0  0.30337661548E+02 -0.17637653667E+01  0.68078275488E+01  0.93857888761E+02  0.88540793933E+02 0.  0.
         13    1    3    3    0    0  0.46612880905E+01 -0.40738441709E+02  0.19623246783E+02  0.45458015992E+02  0.10566000000E+00 0.  1.
         22    1    1    0    0    0 -0.30337661548E+02  0.17637653667E+01 -0.68078275488E+01  0.31142111239E+02  0.00000000000E+00 0. -1.
</event>
<event>
 5    1  0.8943334E-005  0.9118800E+02  0.7818608E-02  0.1130116E+00
         25   -1    0    0    0    0  0.00000000000E+00  0.00000000000E+00  0.99999998245E-14  0.12500000000E+03  0.12500000000E+03 0.  0.
        -13    1    3    3    0    0  0.10395623089E+02  0.55595128196E+02 -0.23912338371E+02  0.61406012319E+02  0.10566000000E+00 0.  1.
         23    2    1    0    0    0 -0.34960899559E+01  0.24894160263E+02 -0.11967968941E+02  0.97158050701E+02  0.93083364117E+02 0.  0.
         13    1    3    3    0    0 -0.13891713045E+02 -0.30700967933E+02  0.11944369430E+02  0.35752038382E+02  0.10566000000E+00 0. -1.
         22    1    1    0    0    0  0.34960899559E+01 -0.24894160263E+02  0.11967968941E+02  0.27841949299E+02  0.00000000000E+00 0.  1.
</event>
<event>
 5    1  0.8943334E-005  0.9118800E+02  0.7818608E-02  0.1130116E+00
         25   -1    0    0    0    0  0.00000000000E+00  0.00000000000E+00  0.99999998245E-14  0.12500000000E+03  0.12500000000E+03 0.  0.
        -13    1    3    3    0    0 -0.18943909630E+02  0.44134709207E+02 -0.34620150295E+02  0.59205660534E+02  0.10566000000E+00 0.  1.
         23    2    1    0    0    0  0.10774323804E+01  0.28092603956E+02 -0.89550340687E+01  0.95494951402E+02  0.90822562453E+02 0.  0.
         13    1    3    3    0    0  0.20021342011E+02 -0.16042105250E+02  0.25665116226E+02  0.36289290868E+02  0.10566000000E+00 0. -1.
         22    1    1    0    0    0 -0.10774323804E+01 -0.28092603956E+02  0.89550340687E+01  0.29505048598E+02  0.00000000000E+00 0.  1.
</event>
<event>
 5    1  0.8943334E-005  0.9118800E+02  0.7818608E-02  0.1130116E+00
         25   -1    0    0    0    0  0.00000000000E+00  0.00000000000E+00  0.99999998245E-14  0.12500000000E+03  0.12500000000E+03 0.  0.
        -13    1    3    3    0    0  0.20962561646E+02  0.44657391185E+02  0.51048955605E+01  0.49596196436E+02  0.10566000000E+00 0. -1.
         23    2    1    0    0    0  0.21791757328E+02 -0.27368911134E+01  0.15492542885E+02  0.98122683440E+02  0.94369862033E+02 0.  0.
         13    1    3    3    0    0  0.82919568183E+00 -0.47394282298E+02  0.10387647325E+02  0.48526487005E+02  0.10566000000E+00 0.  1.
         22    1    1    0    0    0 -0.21791757328E+02  0.27368911134E+01 -0.15492542885E+02  0.26877316560E+02  0.00000000000E+00 0.  1.
</event>
<event>
 5    1  0.8943334E-005  0.9118800E+02  0.7818608E-02  0.1130116E+00
         25   -1    0    0    0    0  0.00000000000E+00  0.00000000000E+00  0.99999998245E-14  0.12500000000E+03  0.12500000000E+03 0.  0.
        -13    1    3    3    0    0  0.44173532763E+02 -0.31072889039E+02  0.30688312365E+02  0.62117703675E+02  0.10566000000E+00 0.  1.
         23    2    1    0    0    0  0.20805063370E+02 -0.10654464954E+02  0.17324188354E+02  0.95905399342E+02  0.91385720086E+02 0.  0.
         13    1    3    3    0    0 -0.23368469393E+02  0.20418424085E+02 -0.13364124011E+02  0.33787695667E+02  0.10566000000E+00 0. -1.
         22    1    1    0    0    0 -0.20805063370E+02  0.10654464954E+02 -0.17324188354E+02  0.29094600658E+02  0.00000000000E+00 0.  1.
</event>
<event>
 5    1  0.8943334E-005  0.9118800E+02  0.7818608E-02  0.1130116E+00
         25   -1    0    0    0    0  0.00000000000E+00  0.00000000000E+00  0.99999998245E-14  0.12500000000E+03  0.12500000000E+03 0.  0.
        -13    1    3    3    0    0 -0.50660145011E+02 -0.65731283400E+00 -0.15393473432E+02  0.52951416799E+02  0.10566000000E+00 0.  1.
         23    2    1    0    0    0 -0.16871089820E+02 -0.23751006222E+02 -0.98198663526E+01  0.94256321894E+02  0.89101517796E+02 0.  0.
         13    1    3    3    0    0  0.33789055191E+02 -0.23093693388E+02  0.55736070796E+01  0.41304905095E+02  0.10566000000E+00 0. -1.
         22    1    1    0    0    0  0.16871089820E+02  0.23751006222E+02  0.98198663526E+01  0.30743678106E+02  0.00000000000E+00 0. -1.
</event>
<event>
 5    1  0.8943334E-005  0.9118800E+02  0.7818608E-02  0.1130116E+00
         25   -1    0    0    0    0  0.00000000000E+00  0.00000000000E+00  0.99999998245E-14  0.12500000000E+03  0.12500000000E+03 0.  0.
        -13    1    3    3    0    0 -0.10332444979E+01  0.37724983052E+02  0.12879078499E+02  0.39876355996E+02  0.10566000000E+00 0.  1.
         23    2    1    0    0    0 -0.15516061717E+02 -0.17760836535E+02  0.14628105026E+02  0.97247938053E+02  0.93203994084E+02 0.  0.
         13    1    3    3    0    0 -0.14482817219E+02 -0.55485819588E+02  0.17490265273E+01  0.57371582057E+02  0.10566000000E+00 0. -1.
         22    1    1    0    0    0  0.15516061717E+02  0.17760836535E+02 -0.14628105026E+02  0.27752061947E+02  0.00000000000E+00 0. -1.
</event>
<event>
 5    1  0.8943334E-005  0.9118800E+02  0.7818608E-02  0.1130116E+00
         25   -1    0    0    0    0  0.00000000000E+00  0.00000000000E+00  0.99999998245E-14  0.12500000000E+03  0.12500000000E+03 0.  0.
        -13    1    3    3    0    0  0.12064375615E+02  0.26406769245E+02 -0.19595656366E+02  0.35026668888E+02  0.10566000000E+00 0.  1.
         23    2    1    0    0    0 -0.17442394726E+02 -0.22046928976E+02  0.42549067672E+01  0.96567475619E+02  0.92286883710E+02 0.  0.
         13    1    3    3    0    0 -0.29506770341E+02 -0.48453698222E+02  0.23850563133E+02  0.61540806731E+02  0.10566000000E+00 0. -1.
         22    1    1    0    0    0  0.17442394726E+02  0.22046928976E+02 -0.42549067672E+01  0.28432524381E+02  0.00000000000E+00 0. -1.
</event>
<event>
 5    1  0.8943334E-005  0.9118800E+02  0.7818608E-02  0.1130116E+00
         25   -1    0    0    0    0  0.00000000000E+00  0.00000000000E+00  0.99999998245E-14  0.12500000000E+03  0.12500000000E+03 0.  0.
        -13    1    3    3    0    0 -0.53382481522E+02  0.97632688689E+01  0.25677233983E+02  0.60036174608E+02  0.10566000000E+00 0.  1.
         23    2    1    0    0    0 -0.17127444221E+02  0.28230911134E+00  0.21150368328E+02  0.97782962608E+02  0.93918798182E+02 0.  0.
         13    1    3    3    0    0  0.36255037301E+02 -0.94809597575E+01 -0.45268656549E+01  0.37746788000E+02  0.10566000000E+00 0. -1.
         22    1    1    0    0    0  0.17127444221E+02 -0.28230911134E+00 -0.21150368328E+02  0.27217037392E+02  0.00000000000E+00 0.  1.
</event>
<event>
 5    1  0.8943334E-005  0.9118800E+02  0.7818608E-02  0.1130116E+00
         25   -1    0    0    0    0  0.00000000000E+00  0.00000000000E+00  0.99999998245E-14  0.12500000000E+03  0.12500000000E+03 0.  0.
        -13    1    3    3    0    0 -0.19870430113E+02  0.22609267892E+02 -0.93233821477E+01  0.31511102903E+02  0.10566000000E+00 0. -1.
         23    2    1    0    0    0  0.19082356819E+02 -0.24212888332E+02  0.41584688811E+01  0.93892233018E+02  0.88589267152E+02 0.  0.
         13    1    3    3    0    0  0.38952786931E+02 -0.46822156224E+02  0.13481851029E+02  0.62381130115E+02  0.10566000000E+00 0.  1.
         22    1    1    0    0    0 -0.19082356819E+02  0.24212888332E+02 -0.41584688811E+01  0.31107766982E+02  0.00000000000E+00 0.  1.
</event>
<event>
 5    1  0.8943334E-005  0.9118800E+02  0.7818608E-02  0.1130116E+00
         25   -1    0    0    0    0  0.00000000000E+00  0.00000000000E+00  0.99999998245E-14  0.12500000000E+03  0.12500000000E+03 0.  0.
        -13    1    3    3    0    0 -0.47704491135E+02 -0.50610960276E+01 -0.24115968913E+02  0.53692869993E+02  0.10566000000E+00 0.  1.
         23    2    1    0    0    0 -0.25959837996E+02  0.10665435621E+02  0.82595455811E+01  0.95744491135E+02  0.91165359560E+02 0.  0.
         13    1    3    3    0    0  0.21744653139E+02  0.15726531649E+02  0.32375514494E+02  0.42051621142E+02  0.10566000000E+00 0. -1.
         22    1    1    0    0    0  0.25959837996E+02 -0.10665435621E+02 -0.82595455811E+01  0.29255508865E+02  0.00000000000E+00 0.  1.
</event>
<event>
 5    1  0.8943334E-005  0.9118800E+02  0.7818608E-02  0.1130116E+00
         25   -1    0    0    0    0  0.00000000000E+00  0.00000000000E+00  0.99999998245E-14  0.12500000000E+03  0.12500000000E+03 0.  0.
        -13    1    3    3    0    0  0.21240709144E+01  0.29398681141E+02 -0.16044105137E+02  0.33559180618E+02  0.10566000000E+00 0.  1.
         23    2    1    0    0    0 -0.42341977422E+01 -0.23670998462E+02  0.16222507582E+02  0.95992856898E+02  0.91505268835E+02 0.  0.
         13    1    3    3    0    0 -0.63582686566E+01 -0.53069679603E+02  0.32266612719E+02  0.62433676280E+02  0.10566000000E+00 0. -1.
         22    1    1    0    0    0  0.42341977422E+01  0.23670998462E+02 -0.16222507582E+02  0.29007143102E+02  0.00000000000E+00 0. -1.
</event>
<event>
 5    1  0.8943334E-005  0.9118800E+02  0.7818608E-02  0.1130116E+00
         25   -1    0    0    0    0  0.00000000000E+00  0.00000000000E+00  0.99999998245E-14  0.12500000000E+03  0.12500000000E+03 0.  0.
        -13    1    3    3    0    0  0.29897476346E+02  0.13425671647E+02  0.49645098825E+02  0.59487433567E+02  0.10566000000E+00 0. -1.
         23    2    1    0    0    0  0.37888065413E+01  0.14762847712E+02  0.26625422956E+02  0.94320856023E+02  0.89192006401E+02 0.  0.
         13    1    3    3    0    0 -0.26108669805E+02  0.13371760651E+01 -0.23019675869E+02  0.34833422456E+02  0.10566000000E+00 0.  1.
         22    1    1    0    0    0 -0.37888065413E+01 -0.14762847712E+02 -0.26625422956E+02  0.30679143977E+02  0.00000000000E+00 0. -1.
</event>
<event>
 5    1  0.8943334E-005  0.9118800E+02  0.7818608E-02  0.1130116E+00
         25   -1    0    0    0    0  0.00000000000E+00  0.00000000000E+00  0.99999998245E-14  0.12500000000E+03  0.12500000000E+03 0.  0.
        -13    1    3    3    0    0 -0.36234751817E+02 -0.17970900025E+02  0.26138408670E+02  0.48157429944E+02  0.10566000000E+00 0.  1.
         23    2    1    0    0    0  0.11261050840E+02 -0.18624788068E+02  0.18837256273E+02  0.96215694893E+02  0.91809170148E+02 0.  0.
         13    1    3    3    0    0  0.47495802657E+02 -0.65388804262E+00 -0.73011523968E+01  0.48058264949E+02  0.10566000000E+00 0. -1.
         22    1    1    0    0    0 -0.11261050840E+02  0.18624788068E+02 -0.18837256273E+02  0.28784305107E+02  0.00000000000E+00 0.  1.
</event>
<event>
 5    1  0.8943334E-005  0.9118800E+02  0.7818608E-02  0.1130116E+00
         25   -1    0    0    0    0  0.00000000000E+00  0.00000000000E+00  0.99999998245E-14  0.12500000000E+03  0.12500000000E+03 0.  0.
        -13    1    3    3    0    0  0.17662555909E+02 -0.31148895041E+02 -0.26360129649E+02  0.44464448076E+02  0.10566000000E+00 0. -1.
         23    2    1    0    0    0 -0.23533264283E+02 -0.19932906893E+02 -0.95908139233E+00  0.94144609188E+02  0.88944658620E+02 0.  0.
         13    1    3    3    0    0 -0.41195820193E+02  0.11215988148E+02  0.25401048257E+02  0.49680161112E+02  0.10566000000E+00 0.  1.
         22    1    1    0    0    0  0.23533264283E+02  0.19932906893E+02  0.95908139233E+00  0.30855390812E+02  0.00000000000E+00 0. -1.
</event>
<event>
 5    1  0.8943334E-005  0.9118800E+02  0.7818608E-02  0.1130116E+00
         25   -1    0    0    0    0  0.00000000000E+00  0.00000000000E+00  0.99999998245E-14  0.12500000000E+03  0.12500000000E+03 0.  0.
        -13    1    3    3    0    0 -0.54460848527E+02 -0.11399822622E+02  0.10456744480E+02  0.56615321666E+02  0.10566000000E+00 0.  1.
         23    2    1    0    0    0 -0.23327340768E+02  0.93859170727E+01  0.17041190059E+02  0.94624641151E+02  0.89616741113E+02 0.  0.
         13    1    3    3    0    0  0.31133507759E+02  0.20785739695E+02  0.65844455793E+01  0.38009319485E+02  0.10566000000E+00 0. -1.
         22    1    1    0    0    0  0.23327340768E+02 -0.93859170727E+01 -0.17041190059E+02  0.30375358849E+02  0.00000000000E+00 0.  1.
</event>
<event>
 5    1  0.8943334E-005  0.9118800E+02  0.7818608E-02  0.1130116E+00
         25   -1    0    0    0    0  0.00000000000E+00  0.00000000000E+00  0.99999998245E-14  0.12500000000E+03  0.12500000000E+03 0.  0.
        -13    1    3    3    0    0  0.18381263500E+02 -0.55113941356E+02 -0.92367304127E+01  0.58828103253E+02  0.10566000000E+00 0. -1.
         23    2    1    0    0    0 -0.37473516488E+01 -0.25614599707E+02 -0.13243298056E+02  0.95921910209E+02  0.91408301331E+02 0.  0.
         13    1    3    3    0    0 -0.22128615149E+02  0.29499341649E+02 -0.40065676431E+01  0.37093806955E+02  0.10566000000E+00 0.  1.
         22    1    1    0    0    0  0.37473516488E+01  0.25614599707E+02  0.13243298056E+02  0.29078089791E+02  0.00000000000E+00 0. -1.
</event>
<event>
 5    1  0.8943334E-005  0.9118800E+02  0.7818608E-02  0.1130116E+00
         25   -1    0    0    0    0  0.00000000000E+00  0.00000000000E+00  0.99999998245E-14  0.12500000000E+03  0.12500000000E+03 0.  0.
        -13    1    3    3    0    0 -0.44930920673E+02  0.13329137330E+02 -0.32585922423E+02  0.57081582308E+02  0.10566000000E+00 0.  1.
         23    2    1    0    0    0 -0.63150800373E+01  0.15710847399E+02 -0.22085423654E+02  0.97170574928E+02  0.93100181159E+02 0.  0.
         13    1    3    3    0    0  0.38615840636E+02  0.23817100681E+01  0.10500498769E+02  0.40088992620E+02  0.10566000000E+00 0. -1.
         22    1    1    0    0    0  0.63150800373E+01 -0.15710847399E+02  0.22085423654E+02  0.27829425072E+02  0.00000000000E+00 0.  1.
</event>
<event>
 5    1  0.8943334E-005  0.9118800E+02  0.7818608E-02  0.1130116E+00
         25   -1    0    0    0    0  0.00000000000E+00  0.00000000000E+00  0.99999998245E-14  0.12500000000E+03  0.12500000000E+03 0.  0.
        -13    1    3    3    0    0 -0.15785914411E+02  0.52977969477E+02  0.28279630914E+02  0.62093550650E+02  0.10566000000E+00 0. -1.
         23    2    1    0    0    0 -0.27761321747E+01  0.26353784043E+02  0.14789967688E+02  0.94652479715E+02  0.89655562731E+02 0.  0.
         13    1    3    3    0    0  0.13009782236E+02 -0.26624185434E+02 -0.13489663226E+02  0.32558929064E+02  0.10566000000E+00 0.  1.
         22    1    1    0    0    0  0.27761321747E+01 -0.26353784043E+02 -0.14789967688E+02  0.30347520285E+02  0.00000000000E+00 0. -1.
</event>
<event>
 5    1  0.8943334E-005  0.9118800E+02  0.7818608E-02  0.1130116E+00
         25   -1    0    0    0    0  0.00000000000E+00  0.00000000000E+00  0.99999998245E-14  0.12500000000E+03  0.12500000000E+03 0.  0.
        -13    1    3    3    0    0 -0.21414806063E+02 -0.21779148852E+02  0.66828583256E+01  0.31266547665E+02  0.10566000000E+00 0. -1.
         23    2    1    0    0    0  0.26242198764E+02  0.12792059521E+02 -0.12576307092E+02  0.93212372174E+02  0.87624728493E+02 0.  0.
         13    1    3    3    0    0  0.47657004827E+02  0.34571208373E+02 -0.19259165417E+02  0.61945824509E+02  0.10566000000E+00 0.  1.
         22    1    1    0    0    0 -0.26242198764E+02 -0.12792059521E+02  0.12576307092E+02  0.31787627826E+02  0.00000000000E+00 0.  1.
</event>
<event>
 5    1  0.8943334E-005  0.9118800E+02  0.7818608E-02  0.1130116E+00
         25   -1    0    0    0    0  0.00000000000E+00  0.00000000000E+00  0.99999998245E-14  0.12500000000E+03  0.12500000000E+03 0.  0.
        -13    1    3    3    0    0  0.18762657155E+02  0.13847504437E+02  0.25604867905E+02  0.34632515171E+02  0.10566000000E+00 0.  1.
         23    2    1    0    0    0 -0.11485879660E+01 -0.31979120530E+01 -0.29316177898E+02  0.95487558854E+02  0.90812387446E+02 0.  0.
         13    1    3    3    0    0 -0.19911245121E+02 -0.17045416490E+02 -0.54921045803E+02  0.60855043683E+02  0.10566000000E+00 0. -1.
         22    1    1    0    0    0  0.11485879660E+01  0.31979120530E+01  0.29316177898E+02  0.29512441146E+02  0.00000000000E+00 0. -1.
</event>
<event>
 5    1  0.8943334E-005  0.9118800E+02  0.7818608E-02  0.1130116E+00
         25   -1    0    0    0    0  0.00000000000E+00  0.00000000000E+00  0.99999998245E-14  0.12500000000E+03  0.12500000000E+03 0.  0.
        -13    1    3    3    0    0 -0.38697340853E+02 -0.25012574246E+02  0.39927139880E+02  0.60969670513E+02  0.10566000000E+00 0. -1.
         23    2    1    0    0    0 -0.21136383721E+02 -0.25915288696E+01  0.20475651647E+02  0.95458249052E+02  0.90772034587E+02 0.  0.
         13    1    3    3    0    0  0.17560957132E+02  0.22421045376E+02 -0.19451488233E+02  0.34488578539E+02  0.10566000000E+00 0.  1.
         22    1    1    0    0    0  0.21136383721E+02  0.25915288696E+01 -0.20475651647E+02  0.29541750948E+02  0.00000000000E+00 0. -1.
</event>
<event>
 5    1  0.8943334E-005  0.9118800E+02  0.7818608E-02  0.1130116E+00
         25   -1    0    0    0    0  0.00000000000E+00  0.00000000000E+00  0.99999998245E-14  0.12500000000E+03  0.12500000000E+03 0.  0.
        -13    1    3    3    0    0  0.18343412868E+02  0.32392135312E+02 -0.16459333460E+02  0.40701990709E+02  0.10566000000E+00 0. -1.
         23    2    1    0    0    0 -0.63339523453E+01  0.72256289143E+01  0.26815685007E+02  0.96514747185E+02  0.92215436866E+02 0.  0.
         13    1    3    3    0    0 -0.24677365213E+02 -0.25166506398E+02  0.43275018467E+02  0.55812756476E+02  0.10566000000E+00 0.  1.
         22    1    1    0    0    0  0.63339523453E+01 -0.72256289143E+01 -0.26815685007E+02  0.28485252815E+02  0.00000000000E+00 0.  1.
</event>
<event>
 5    1  0.8943334E-005  0.9118800E+02  0.7818608E-02  0.1130116E+00
         25   -1    0    0    0    0  0.00000000000E+00  0.00000000000E+00  0.99999998245E-14  0.12500000000E+03  0.12500000000E+03 0.  0.
        -13    1    3    3    0    0  0.35164314358E+02 -0.51895779600E+01 -0.41102848489E+02  0.54340740165E+02  0.10566000000E+00 0. -1.
         23    2    1    0    0    0  0.39564053565E+02 -0.83631240459E+01 -0.13656966040E+02  0.82317815195E+02  0.70387881051E+02 0.  0.
         13    1    3    3    0    0  0.43997392067E+01 -0.31735460858E+01  0.27445882449E+02  0.27977075031E+02  0.10566000000E+00 0.  1.
         22    1    1    0    0    0 -0.39564053565E+02  0.83631240459E+01  0.13656966040E+02  0.42682184805E+02  0.00000000000E+00 0. -1.
</event>
<event>
 5    1  0.8943334E-005  0.9118800E+02  0.7818608E-02  0.1130116E+00
         25   -1    0    0    0    0  0.00000000000E+00  0.00000000000E+00  0.99999998245E-14  0.12500000000E+03  0.12500000000E+03 0.  0.
        -13    1    3    3    0    0 -0.28038382042E+02 -0.45001864970E+02 -0.32778583419E+02  0.62335907897E+02  0.10566000000E+00 0. -1.
         23    2    1    0    0    0 -0.10286231040E+02 -0.22378667981E+02 -0.14246295285E+02  0.96547086987E+02  0.92259263744E+02 0.  0.
         13    1    3    3    0    0  0.17752151002E+02  0.22623196990E+02  0.18532288134E+02  0.34211179090E+02  0.10566000000E+00 0.  1.
         22    1    1    0    0    0  0.10286231040E+02  0.22378667981E+02  0.14246295285E+02  0.28452913013E+02  0.00000000000E+00 0. -1.
</event>
<event>
 5    1  0.8943334E-005  0.9118800E+02  0.7818608E-02  0.1130116E+00
         25   -1    0    0    0    0  0.00000000000E+00  0.00000000000E+00  0.99999998245E-14  0.12500000000E+03  0.12500000000E+03 0.  0.
        -13    1    3    3    0    0  0.81901699381E+00  0.23536271300E+01 -0.29800378615E+02  0.29904582912E+02  0.10566000000E+00 0.  1.
         23    2    1    0    0    0 -0.23971719532E+01 -0.59426452226E+01  0.32011373148E+02  0.92353568703E+02  0.86390926466E+02 0.  0.
         13    1    3    3    0    0 -0.32161889471E+01 -0.82962723526E+01  0.61811751763E+02  0.62448985791E+02  0.10566000000E+00 0. -1.
         22    1    1    0    0    0  0.23971719532E+01  0.59426452226E+01 -0.32011373148E+02  0.32646431297E+02  0.00000000000E+00 0. -1.
</event>
<event>
 5    1  0.8943334E-005  0.9118800E+02  0.7818608E-02  0.1130116E+00
         25   -1    0    0    0    0  0.00000000000E+00  0.00000000000E+00  0.99999998245E-14  0.12500000000E+03  0.12500000000E+03 0.  0.
        -13    1    3    3    0    0 -0.42846158742E+01  0.11894909149E+02  0.30763035462E+02  0.33259920501E+02  0.10566000000E+00 0. -1.
         23    2    1    0    0    0  0.51776068957E+01 -0.73226069517E+01 -0.27890737364E+02  0.95702876994E+02  0.91108283095E+02 0.  0.
         13    1    3    3    0    0  0.94622227699E+01 -0.19217516100E+02 -0.58653772826E+02  0.62442956493E+02  0.10566000000E+00 0.  1.
         22    1    1    0    0    0 -0.51776068957E+01  0.73226069517E+01  0.27890737364E+02  0.29297123006E+02  0.00000000000E+00 0.  1.
</event>
<event>
 5    1  0.8943334E-005  0.9118800E+02  0.7818608E-02  0.1130116E+00
         25   -1    0    0    0    0  0.00000000000E+00  0.00000000000E+00  0.99999998245E-14  0.12500000000E+03  0.12500000000E+03 0.  0.
        -13    1    3    3    0    0 -0.30167923574E+02  0.12552286802E+01 -0.31178042175E+02  0.43402312032E+02  0.10566000000E+00 0.  1.
         23    2    1    0    0    0  0.75594972885E+01 -0.26674784200E+02 -0.61416853986E+01  0.96602633733E+02  0.92334492110E+02 0.  0.
         13    1    3    3    0    0  0.37727420862E+02 -0.27930012880E+02  0.25036356777E+02  0.53200321701E+02  0.10566000000E+00 0. -1.
         22    1    1    0    0    0 -0.75594972885E+01  0.26674784200E+02  0.61416853986E+01  0.28397366267E+02  0.00000000000E+00 0.  1.
</event>
<event>
 5    1  0.8943334E-005  0.9118800E+02  0.7818608E-02  0.1130116E+00
         25   -1    0    0    0    0  0.00000000000E+00  0.00000000000E+00  0.99999998245E-14  0.12500000000E+03  0.12500000000E+03 0.  0.
        -13    1    3    3    0    0 -0.59304189163E+02  0.16091207389E+02  0.10886928231E+02  0.62405530026E+02  0.10566000000E+00 0. -1.
         23    2    1    0    0    0 -0.27276491598E+02  0.97937598044E+01  0.43683833535E+01  0.95691170304E+02  0.91092220173E+02 0.  0.
         13    1    3    3    0    0  0.32027697565E+02 -0.62974475842E+01 -0.65185448773E+01  0.33285640278E+02  0.10566000000E+00 0.  1.
         22    1    1    0    0    0  0.27276491598E+02 -0.97937598044E+01 -0.43683833535E+01  0.29308829696E+02  0.00000000000E+00 0. -1.
</event>
<event>
 5    1  0.8943334E-005  0.9118800E+02  0.7818608E-02  0.1130116E+00
         25   -1    0    0    0    0  0.00000000000E+00  0.00000000000E+00  0.99999998245E-14  0.12500000000E+03  0.12500000000E+03 0.  0.
        -13    1    3    3    0    0  0.53865744514E+02  0.10020492017E+02 -0.76970646165E+01  0.55327973577E+02  0.10566000000E+00 0.  1.
         23    2    1    0    0    0  0.15877040807E+02  0.19420789307E+02 -0.15883104165E+02  0.95309589427E+02  0.90567087602E+02 0.  0.
         13    1    3    3    0    0 -0.37988703707E+02  0.94002972899E+01 -0.81860395481E+01  0.39981615850E+02  0.10566000000E+00 0. -1.
         22    1    1    0    0    0 -0.15877040807E+02 -0.19420789307E+02  0.15883104165E+02  0.29690410573E+02  0.00000000000E+00 0.  1.
</event>
<event>
 5    1  0.8943334E-005  0.9118800E+02  0.7818608E-02  0.1130116E+00
         25   -1    0    0    0    0  0.00000000000E+00  0.00000000000E+00  0.99999998245E-14  0.12500000000E+03  0.12500000000E+03 0.  0.
        -13    1    3    3    0    0 -0.28902194898E+02  0.19647814816E+02  0.14746103300E+02  0.37931941996E+02  0.10566000000E+00 0. -1.
         23    2    1    0    0    0  0.84979238047E+01 -0.22441569108E+02 -0.94415516227E+01  0.99212762264E+02  0.95802873475E+02 0.  0.
         13    1    3    3    0    0  0.37400118703E+02 -0.42089383924E+02 -0.24187654922E+02  0.61280820268E+02  0.10566000000E+00 0.  1.
         22    1    1    0    0    0 -0.84979238047E+01  0.22441569108E+02  0.94415516227E+01  0.25787237736E+02  0.00000000000E+00 0.  1.
</event>
<event>
 5    1  0.8943334E-005  0.9118800E+02  0.7818608E-02  0.1130116E+00
         25   -1    0    0    0    0  0.00000000000E+00  0.00000000000E+00  0.99999998245E-14  0.12500000000E+03  0.12500000000E+03 0.  0.
        -13    1    3    3    0    0  0.57871762919E+02 -0.20078477774E+02  0.61648962313E+01  0.61565439352E+02  0.10566000000E+00 0. -1.
         23    2    1    0    0    0  0.24528557668E+02 -0.16572310529E+02  0.32832095483E+01  0.95216261442E+02  0.90438185301E+02 0.  0.
         13    1    3    3    0    0 -0.33343205251E+02  0.35061672455E+01 -0.28816866830E+01  0.33650822090E+02  0.10566000000E+00 0.  1.
         22    1    1    0    0    0 -0.24528557668E+02  0.16572310529E+02 -0.32832095483E+01  0.29783738558E+02  0.00000000000E+00 0. -1.
</event>
<event>
 5    1  0.8943334E-005  0.9118800E+02  0.7818608E-02  0.1130116E+00
         25   -1    0    0    0    0  0.00000000000E+00  0.00000000000E+00  0.99999998245E-14  0.12500000000E+03  0.12500000000E+03 0.  0.
        -13    1    3    3    0    0 -0.27764744863E+02 -0.29267889571E+02 -0.30943220286E+02  0.50842742480E+02  0.10566000000E+00 0.  1.
         23    2    1    0    0    0 -0.31851864029E+02 -0.22782099558E+02  0.30792387673E+01  0.85718362893E+02  0.76187864672E+02 0.  0.
         13    1    3    3    0    0 -0.40871191662E+01  0.64857900126E+01  0.34022459053E+02  0.34875620413E+02  0.10566000000E+00 0. -1.
         22    1    1    0    0    0  0.31851864029E+02  0.22782099558E+02 -0.30792387673E+01  0.39281637107E+02  0.00000000000E+00 0. -1.
</event>
<event>
 5    1  0.8943334E-005  0.9118800E+02  0.7818608E-02  0.1130116E+00
         25   -1    0    0    0    0  0.00000000000E+00  0.00000000000E+00  0.99999998245E-14  0.12500000000E+03  0.12500000000E+03 0.  0.
        -13    1    3    3    0    0 -0.45610841430E+00  0.36289090092E+02  0.39312095549E+02  0.53502879503E+02  0.10566000000E+00 0.  1.
         23    2    1    0    0    0  0.23084643229E+02  0.12919166323E+02  0.15453801675E+02  0.94363002796E+02  0.89251054330E+02 0.  0.
         13    1    3    3    0    0  0.23540751643E+02 -0.23369923769E+02 -0.23858293874E+02  0.40860123293E+02  0.10566000000E+00 0. -1.
         22    1    1    0    0    0 -0.23084643229E+02 -0.12919166323E+02 -0.15453801675E+02  0.30636997204E+02  0.00000000000E+00 0.  1.
</event>
<event>
 5    1  0.8943334E-005  0.9118800E+02  0.7818608E-02  0.1130116E+00
         25   -1    0    0    0    0  0.00000000000E+00  0.00000000000E+00  0.99999998245E-14  0.12500000000E+03  0.12500000000E+03 0.  0.
        -13    1    3    3    0    0  0.24660829942E+02 -0.42203389776E+02 -0.13216753550E+02  0.50635722375E+02  0.10566000000E+00 0. -1.
         23    2    1    0    0    0  0.21868425596E+02  0.48084035073E+01  0.64902761506E+01  0.10168750406E+03  0.98979169605E+02 0.  0.
         13    1    3    3    0    0 -0.27924043468E+01  0.47011793283E+02  0.19707029701E+02  0.51051781687E+02  0.10566000000E+00 0.  1.
         22    1    1    0    0    0 -0.21868425596E+02 -0.48084035073E+01 -0.64902761506E+01  0.23312495937E+02  0.00000000000E+00 0. -1.
</event>
<event>
 5    1  0.8943334E-005  0.9118800E+02  0.7818608E-02  0.1130116E+00
         25   -1    0    0    0    0  0.00000000000E+00  0.00000000000E+00  0.99999998245E-14  0.12500000000E+03  0.12500000000E+03 0.  0.
        -13    1    3    3    0    0  0.22520667228E+02  0.18075777550E+02  0.13605635392E+02  0.31922385012E+02  0.10566000000E+00 0. -1.
         23    2    1    0    0    0 -0.21642182651E+02 -0.15845085302E+02 -0.14725040342E+02  0.94401346252E+02  0.89304739868E+02 0.  0.
         13    1    3    3    0    0 -0.44162849879E+02 -0.33920862852E+02 -0.28330675734E+02  0.62478961240E+02  0.10566000000E+00 0.  1.
         22    1    1    0    0    0  0.21642182651E+02  0.15845085302E+02  0.14725040342E+02  0.30598653748E+02  0.00000000000E+00 0.  1.
</event>
<event>
 5    1  0.8943334E-005  0.9118800E+02  0.7818608E-02  0.1130116E+00
         25   -1    0    0    0    0  0.00000000000E+00  0.00000000000E+00  0.99999998245E-14  0.12500000000E+03  0.12500000000E+03 0.  0.
        -13    1    3    3    0    0 -0.22085908372E+02  0.53137403395E+02 -0.23432555271E+02  0.62132654850E+02  0.10566000000E+00 0.  1.
         23    2    1    0    0    0 -0.14213853113E+02  0.22455739943E+02 -0.12386353532E+02  0.95679092263E+02  0.91075644745E+02 0.  0.
         13    1    3    3    0    0  0.78720552585E+01 -0.30681663453E+02  0.11046201739E+02  0.33546437413E+02  0.10566000000E+00 0. -1.
         22    1    1    0    0    0  0.14213853113E+02 -0.22455739943E+02  0.12386353532E+02  0.29320907737E+02  0.00000000000E+00 0.  1.
</event>
<event>
 5    1  0.8943334E-005  0.9118800E+02  0.7818608E-02  0.1130116E+00
         25   -1    0    0    0    0  0.00000000000E+00  0.00000000000E+00  0.99999998245E-14  0.12500000000E+03  0.12500000000E+03 0.  0.
        -13    1    3    3    0    0 -0.17328857825E+02 -0.12582994930E+02  0.32756085256E+02  0.39135576657E+02  0.10566000000E+00 0. -1.
         23    2    1    0    0    0  0.26803944637E+02 -0.12740844888E+02 -0.19171386815E+01  0.95260195070E+02  0.90498888211E+02 0.  0.
         13    1    3    3    0    0  0.44132802462E+02 -0.15784995785E+00 -0.34673223938E+02  0.56124618413E+02  0.10566000000E+00 0.  1.
         22    1    1    0    0    0 -0.26803944637E+02  0.12740844888E+02  0.19171386815E+01  0.29739804930E+02  0.00000000000E+00 0.  1.
</event>
<event>
 5    1  0.8943334E-005  0.9118800E+02  0.7818608E-02  0.1130116E+00
         25   -1    0    0    0    0  0.00000000000E+00  0.00000000000E+00  0.99999998245E-14  0.12500000000E+03  0.12500000000E+03 0.  0.
        -13    1    3    3    0    0 -0.32349795344E+02 -0.65220845396E+01 -0.16911069293E+02  0.37081562457E+02  0.10566000000E+00 0. -1.
         23    2    1    0    0    0  0.42057978762E+01  0.16097274802E+02  0.23583167041E+02  0.96138663241E+02  0.91704230056E+02 0.  0.
         13    1    3    3    0    0  0.36555593221E+02  0.22619359341E+02  0.40494236334E+02  0.59057100784E+02  0.10566000000E+00 0.  1.
         22    1    1    0    0    0 -0.42057978762E+01 -0.16097274802E+02 -0.23583167041E+02  0.28861336759E+02  0.00000000000E+00 0.  1.
</event>
<event>
 5    1  0.8943334E-005  0.9118800E+02  0.7818608E-02  0.1130116E+00
         25   -1    0    0    0    0  0.00000000000E+00  0.00000000000E+00  0.99999998245E-14  0.12500000000E+03  0.12500000000E+03 0.  0.
        -13    1    3    3    0    0  0.16161873230E+02 -0.46892665315E+02 -0.27039607776E+02  0.56491413147E+02  0.10566000000E+00 0.  1.
         23    2    1    0    0    0  0.24467877618E+02 -0.15411847844E+02 -0.54057454774E+01  0.95581907382E+02  0.90942162089E+02 0.  0.
         13    1    3    3    0    0  0.83060043880E+01  0.31480817470E+02  0.21633862299E+02  0.39090494235E+02  0.10566000000E+00 0. -1.
         22    1    1    0    0    0 -0.24467877618E+02  0.15411847844E+02  0.54057454774E+01  0.29418092618E+02  0.00000000000E+00 0.  1.
</event>
<event>
 4    1  0.8943334E-005  0.9118800E+02  0.7818608E-02  0.1130116E+00
         25   -1    0    0    0    0  0.00000000000E+00  0.00000000000E+00  0.99999998245E-14  0.12500000000E+03  0.12500000000E+03 0.  0.
        -13    1    1    0    0    0 -0.46347424588E+01 -0.27195526460E+02  0.89538143531E+01  0.29004472976E+02  0.10566000000E+00 0.  1.
         13    1    1    0    0    0  0.39885080296E+02 -0.11206497587E+02 -0.13739694066E+02  0.43648546087E+02  0.10566000000E+00 0. -1.
         22    1    1    0    0    0 -0.35250337838E+02  0.38402024047E+02  0.47858797134E+01  0.52346980937E+02  0.00000000000E+00 0. -1.
</event>
<event>
 5    1  0.8943334E-005  0.9118800E+02  0.7818608E-02  0.1130116E+00
         25   -1    0    0    0    0  0.00000000000E+00  0.00000000000E+00  0.99999998245E-14  0.12500000000E+03  0.12500000000E+03 0.  0.
        -13    1    3    3    0    0  0.17746716591E+02  0.30696829044E+02 -0.15349730596E+02  0.38637632647E+02  0.10566000000E+00 0.  1.
         23    2    1    0    0    0  0.22194898015E+01 -0.25430132535E+02 -0.11506938240E+02  0.96999510658E+02  0.92870219471E+02 0.  0.
         13    1    3    3    0    0 -0.15527226790E+02 -0.56126961579E+02  0.38427923565E+01  0.58361878011E+02  0.10566000000E+00 0. -1.
         22    1    1    0    0    0 -0.22194898015E+01  0.25430132535E+02  0.11506938240E+02  0.28000489342E+02  0.00000000000E+00 0. -1.
</event>
<event>
 5    1  0.8943334E-005  0.9118800E+02  0.7818608E-02  0.1130116E+00
         25   -1    0    0    0    0  0.00000000000E+00  0.00000000000E+00  0.99999998245E-14  0.12500000000E+03  0.12500000000E+03 0.  0.
        -13    1    3    3    0    0 -0.99226458998E+01  0.96802725331E+01  0.59227933215E+02  0.60828659486E+02  0.10566000000E+00 0.  1.
         23    2    1    0    0    0  0.27846184180E+01  0.71165277279E+01  0.41564507485E+02  0.82738819833E+02  0.71131603090E+02 0.  0.
         13    1    3    3    0    0  0.12707264318E+02 -0.25637448052E+01 -0.17663425729E+02  0.21910160346E+02  0.10566000000E+00 0. -1.
         22    1    1    0    0    0 -0.27846184180E+01 -0.71165277279E+01 -0.41564507485E+02  0.42261180167E+02  0.00000000000E+00 0.  1.
</event>
<event>
 5    1  0.8943334E-005  0.9118800E+02  0.7818608E-02  0.1130116E+00
         25   -1    0    0    0    0  0.00000000000E+00  0.00000000000E+00  0.99999998245E-14  0.12500000000E+03  0.12500000000E+03 0.  0.
        -13    1    3    3    0    0 -0.24564448242E+02 -0.22168348031E+02 -0.99318823245E+01  0.34547087032E+02  0.10566000000E+00 0.  1.
         23    2    1    0    0    0  0.24540021679E+02  0.77903176643E+01  0.12613306499E+02  0.96329506210E+02  0.91963995958E+02 0.  0.
         13    1    3    3    0    0  0.49104469921E+02  0.29958665695E+02  0.22545188824E+02  0.61782419178E+02  0.10566000000E+00 0. -1.
         22    1    1    0    0    0 -0.24540021679E+02 -0.77903176643E+01 -0.12613306499E+02  0.28670493790E+02  0.00000000000E+00 0. -1.
</event>
<event>
 5    1  0.8943334E-005  0.9118800E+02  0.7818608E-02  0.1130116E+00
         25   -1    0    0    0    0  0.00000000000E+00  0.00000000000E+00  0.99999998245E-14  0.12500000000E+03  0.12500000000E+03 0.  0.
        -13    1    3    3    0    0 -0.85295052880E+01  0.35076974237E+02 -0.12721274324E+02  0.38275169060E+02  0.10566000000E+00 0. -1.
         23    2    1    0    0    0  0.47742640352E+01 -0.23094010127E+02 -0.13249494794E+02  0.97950489595E+02  0.94141502000E+02 0.  0.
         13    1    3    3    0    0  0.13303769323E+02 -0.58170984364E+02 -0.52822047067E+00  0.59675320536E+02  0.10566000000E+00 0.  1.
         22    1    1    0    0    0 -0.47742640352E+01  0.23094010127E+02  0.13249494794E+02  0.27049510405E+02  0.00000000000E+00 0.  1.
</event>
<event>
 5    1  0.8943334E-005  0.9118800E+02  0.7818608E-02  0.1130116E+00
         25   -1    0    0    0    0  0.00000000000E+00  0.00000000000E+00  0.99999998245E-14  0.12500000000E+03  0.12500000000E+03 0.  0.
        -13    1    3    3    0    0 -0.32837315735E+02  0.11055010992E+02 -0.19457057179E+02  0.39737775615E+02  0.10566000000E+00 0.  1.
         23    2    1    0    0    0 -0.42781877628E+01 -0.24166916580E+02  0.14595076367E+02  0.96445508205E+02  0.92121534134E+02 0.  0.
         13    1    3    3    0    0  0.28559127973E+02 -0.35221927572E+02  0.34052133546E+02  0.56707732590E+02  0.10566000000E+00 0. -1.
         22    1    1    0    0    0  0.42781877628E+01  0.24166916580E+02 -0.14595076367E+02  0.28554491795E+02  0.00000000000E+00 0. -1.
</event>
<event>
 5    1  0.8943334E-005  0.9118800E+02  0.7818608E-02  0.1130116E+00
         25   -1    0    0    0    0  0.00000000000E+00  0.00000000000E+00  0.99999998245E-14  0.12500000000E+03  0.12500000000E+03 0.  0.
        -13    1    3    3    0    0 -0.14622379360E+01 -0.11957423453E+02  0.59241559770E+02  0.60454046047E+02  0.10566000000E+00 0. -1.
         23    2    1    0    0    0 -0.79234213099E+01  0.25371208965E+00  0.40465937369E+02  0.83764856466E+02  0.72912372864E+02 0.  0.
         13    1    3    3    0    0 -0.64611833739E+01  0.12211135543E+02 -0.18775622401E+02  0.23310810419E+02  0.10566000000E+00 0.  1.
         22    1    1    0    0    0  0.79234213099E+01 -0.25371208965E+00 -0.40465937369E+02  0.41235143534E+02  0.00000000000E+00 0. -1.
</event>
<event>
 5    1  0.8943334E-005  0.9118800E+02  0.7818608E-02  0.1130116E+00
         25   -1    0    0    0    0  0.00000000000E+00  0.00000000000E+00  0.99999998245E-14  0.12500000000E+03  0.12500000000E+03 0.  0.
        -13    1    3    3    0    0 -0.98382971665E+01 -0.59565420433E+02  0.19377089922E+01  0.60403619782E+02  0.10566000000E+00 0. -1.
         23    2    1    0    0    0 -0.71026808648E+01 -0.25239789345E+02 -0.10129221107E+02  0.96891350764E+02  0.92724525833E+02 0.  0.
         13    1    3    3    0    0  0.27356163018E+01  0.34325631089E+02 -0.12066930100E+02  0.36487730982E+02  0.10566000000E+00 0.  1.
         22    1    1    0    0    0  0.71026808648E+01  0.25239789345E+02  0.10129221107E+02  0.28108649236E+02  0.00000000000E+00 0. -1.
</event>
<event>
 5    1  0.8943334E-005  0.9118800E+02  0.7818608E-02  0.1130116E+00
         25   -1    0    0    0    0  0.00000000000E+00  0.00000000000E+00  0.99999998245E-14  0.12500000000E+03  0.12500000000E+03 0.  0.
        -13    1    3    3    0    0  0.47531267425E+02 -0.71517102973E+01 -0.21618812807E+02  0.52704388569E+02  0.10566000000E+00 0.  1.
         23    2    1    0    0    0  0.21195194217E+02 -0.16380738647E+02  0.11357734478E+02  0.95904244485E+02  0.91384140425E+02 0.  0.
         13    1    3    3    0    0 -0.26336073208E+02 -0.92290283494E+01  0.32976547285E+02  0.43199855916E+02  0.10566000000E+00 0. -1.
         22    1    1    0    0    0 -0.21195194217E+02  0.16380738647E+02 -0.11357734478E+02  0.29095755515E+02  0.00000000000E+00 0. -1.
</event>
<event>
 5    1  0.8943334E-005  0.9118800E+02  0.7818608E-02  0.1130116E+00
         25   -1    0    0    0    0  0.00000000000E+00  0.00000000000E+00  0.99999998245E-14  0.12500000000E+03  0.12500000000E+03 0.  0.
        -13    1    3    3    0    0 -0.17174578108E+02 -0.10834236962E+00 -0.28690951484E+02  0.33438895501E+02  0.10566000000E+00 0.  1.
         23    2    1    0    0    0  0.33270371623E+01 -0.96024826062E+01  0.28399228751E+02  0.94837224230E+02  0.89912769157E+02 0.  0.
         13    1    3    3    0    0  0.20501615270E+02 -0.94941402366E+01  0.57090180235E+02  0.61398328729E+02  0.10566000000E+00 0. -1.
         22    1    1    0    0    0 -0.33270371623E+01  0.96024826062E+01 -0.28399228751E+02  0.30162775770E+02  0.00000000000E+00 0. -1.
</event>
<event>
 5    1  0.8943334E-005  0.9118800E+02  0.7818608E-02  0.1130116E+00
         25   -1    0    0    0    0  0.00000000000E+00  0.00000000000E+00  0.99999998245E-14  0.12500000000E+03  0.12500000000E+03 0.  0.
        -13    1    3    3    0    0 -0.21510348257E+02 -0.46563173341E+01 -0.25933772302E+02  0.34013939541E+02  0.10566000000E+00 0. -1.
         23    2    1    0    0    0  0.23179433120E+02  0.96618471753E+01  0.14537949609E+02  0.95982946576E+02  0.91491729921E+02 0.  0.
         13    1    3    3    0    0  0.44689781377E+02  0.14318164509E+02  0.40471721911E+02  0.61969007035E+02  0.10566000000E+00 0.  1.
         22    1    1    0    0    0 -0.23179433120E+02 -0.96618471753E+01 -0.14537949609E+02  0.29017053424E+02  0.00000000000E+00 0.  1.
</event>
<event>
 5    1  0.8943334E-005  0.9118800E+02  0.7818608E-02  0.1130116E+00
         25   -1    0    0    0    0  0.00000000000E+00  0.00000000000E+00  0.99999998245E-14  0.12500000000E+03  0.12500000000E+03 0.  0.
        -13    1    3    3    0    0  0.42745684246E+02  0.28138426896E+02  0.26612664647E+02  0.57681970090E+02  0.10566000000E+00 0.  1.
         23    2    1    0    0    0  0.27353220032E+02 -0.23511265524E+01  0.90151018265E+01  0.96103659347E+02  0.91656504606E+02 0.  0.
         13    1    3    3    0    0 -0.15392464213E+02 -0.30489553449E+02 -0.17597562820E+02  0.38421689256E+02  0.10566000000E+00 0. -1.
         22    1    1    0    0    0 -0.27353220032E+02  0.23511265524E+01 -0.90151018265E+01  0.28896340653E+02  0.00000000000E+00 0.  1.
</event>
<event>
 5    1  0.8943334E-005  0.9118800E+02  0.7818608E-02  0.1130116E+00
         25   -1    0    0    0    0  0.00000000000E+00  0.00000000000E+00  0.99999998245E-14  0.12500000000E+03  0.12500000000E+03 0.  0.
        -13    1    3    3    0    0 -0.34149149179E+02 -0.28155871291E+02 -0.27729344016E+01  0.44346564772E+02  0.10566000000E+00 0.  1.
         23    2    1    0    0    0  0.15872161837E+02 -0.16476951752E+02 -0.15623153093E+02  0.97296239009E+02  0.93268750138E+02 0.  0.
         13    1    3    3    0    0  0.50021311017E+02  0.11678919539E+02 -0.12850218692E+02  0.52949674238E+02  0.10566000000E+00 0. -1.
         22    1    1    0    0    0 -0.15872161837E+02  0.16476951752E+02  0.15623153093E+02  0.27703760991E+02  0.00000000000E+00 0.  1.
</event>
<event>
 5    1  0.8943334E-005  0.9118800E+02  0.7818608E-02  0.1130116E+00
         25   -1    0    0    0    0  0.00000000000E+00  0.00000000000E+00  0.99999998245E-14  0.12500000000E+03  0.12500000000E+03 0.  0.
        -13    1    3    3    0    0  0.47499913614E+02 -0.21338328131E+02 -0.45880353823E+01  0.52274537526E+02  0.10566000000E+00 0.  1.
         23    2    1    0    0    0  0.20664367532E+02  0.10283874707E+02 -0.17853999671E+02  0.95818850798E+02  0.91267259735E+02 0.  0.
         13    1    3    3    0    0 -0.26835546082E+02  0.31622202838E+02 -0.13265964289E+02  0.43544313272E+02  0.10566000000E+00 0. -1.
         22    1    1    0    0    0 -0.20664367532E+02 -0.10283874707E+02  0.17853999671E+02  0.29181149202E+02  0.00000000000E+00 0.  1.
</event>
<event>
 5    1  0.8943334E-005  0.9118800E+02  0.7818608E-02  0.1130116E+00
         25   -1    0    0    0    0  0.00000000000E+00  0.00000000000E+00  0.99999998245E-14  0.12500000000E+03  0.12500000000E+03 0.  0.
        -13    1    3    3    0    0 -0.25417296159E+02  0.35107582406E+02 -0.33604965491E+02  0.54844198929E+02  0.10566000000E+00 0.  1.
         23    2    1    0    0    0 -0.24793954313E+02 -0.15601162783E+01 -0.15189431092E+02  0.95881398554E+02  0.91352885222E+02 0.  0.
         13    1    3    3    0    0  0.62334184627E+00 -0.36667698684E+02  0.18415534399E+02  0.41037199625E+02  0.10566000000E+00 0. -1.
         22    1    1    0    0    0  0.24793954313E+02  0.15601162783E+01  0.15189431092E+02  0.29118601446E+02  0.00000000000E+00 0.  1.
</event>
<event>
 5    1  0.8943334E-005  0.9118800E+02  0.7818608E-02  0.1130116E+00
         25   -1    0    0    0    0  0.00000000000E+00  0.00000000000E+00  0.99999998245E-14  0.12500000000E+03  0.12500000000E+03 0.  0.
        -13    1    3    3    0    0  0.20994762139E+02 -0.32984960385E+02  0.18812496973E+02  0.43390193077E+02  0.10566000000E+00 0. -1.
         23    2    1    0    0    0  0.19795498091E+02 -0.63597961861E+01 -0.23641041549E+02  0.93516550415E+02  0.88057581183E+02 0.  0.
         13    1    3    3    0    0 -0.11992640483E+01  0.26625164199E+02 -0.42453538522E+02  0.50126357338E+02  0.10566000000E+00 0.  1.
         22    1    1    0    0    0 -0.19795498091E+02  0.63597961861E+01  0.23641041549E+02  0.31483449585E+02  0.00000000000E+00 0.  1.
</event>
<event>
 5    1  0.8943334E-005  0.9118800E+02  0.7818608E-02  0.1130116E+00
         25   -1    0    0    0    0  0.00000000000E+00  0.00000000000E+00  0.99999998245E-14  0.12500000000E+03  0.12500000000E+03 0.  0.
        -13    1    3    3    0    0 -0.11155514188E+02  0.46225452144E+02 -0.26579927865E+02  0.54476982773E+02  0.10566000000E+00 0.  1.
         23    2    1    0    0    0 -0.23869757506E+02  0.90739787785E+01 -0.14855795634E+02  0.95456860725E+02  0.90770122735E+02 0.  0.
         13    1    3    3    0    0 -0.12714243319E+02 -0.37151473366E+02  0.11724132231E+02  0.40979877952E+02  0.10566000000E+00 0. -1.
         22    1    1    0    0    0  0.23869757506E+02 -0.90739787785E+01  0.14855795634E+02  0.29543139275E+02  0.00000000000E+00 0.  1.
</event>
<event>
 5    1  0.8943334E-005  0.9118800E+02  0.7818608E-02  0.1130116E+00
         25   -1    0    0    0    0  0.00000000000E+00  0.00000000000E+00  0.99999998245E-14  0.12500000000E+03  0.12500000000E+03 0.  0.
        -13    1    3    3    0    0 -0.27214330266E+02  0.18936325928E+02 -0.33559486674E+02  0.47174723331E+02  0.10566000000E+00 0.  1.
         23    2    1    0    0    0  0.17939379072E+02  0.17326154432E+02 -0.13886254866E+02  0.96454509584E+02  0.92133747324E+02 0.  0.
         13    1    3    3    0    0  0.45153709338E+02 -0.16101714961E+01  0.19673231809E+02  0.49279786253E+02  0.10566000000E+00 0. -1.
         22    1    1    0    0    0 -0.17939379072E+02 -0.17326154432E+02  0.13886254866E+02  0.28545490416E+02  0.00000000000E+00 0.  1.
</event>
<event>
 5    1  0.8943334E-005  0.9118800E+02  0.7818608E-02  0.1130116E+00
         25   -1    0    0    0    0  0.00000000000E+00  0.00000000000E+00  0.99999998245E-14  0.12500000000E+03  0.12500000000E+03 0.  0.
        -13    1    3    3    0    0  0.18293857737E+02  0.14491609082E+02 -0.12457268972E+02  0.26454993460E+02  0.10566000000E+00 0. -1.
         23    2    1    0    0    0 -0.39441055287E+01 -0.15937507003E+02  0.34574735452E+02  0.86725041744E+02  0.77821979132E+02 0.  0.
         13    1    3    3    0    0 -0.22237963265E+02 -0.30429116085E+02  0.47032004425E+02  0.60270048284E+02  0.10566000000E+00 0.  1.
         22    1    1    0    0    0  0.39441055287E+01  0.15937507003E+02 -0.34574735452E+02  0.38274958256E+02  0.00000000000E+00 0.  1.
</event>
<event>
 5    1  0.8943334E-005  0.9118800E+02  0.7818608E-02  0.1130116E+00
         25   -1    0    0    0    0  0.00000000000E+00  0.00000000000E+00  0.99999998245E-14  0.12500000000E+03  0.12500000000E+03 0.  0.
        -13    1    3    3    0    0 -0.23436825930E+02 -0.29177985455E+02  0.45221669516E+02  0.58699661011E+02  0.10566000000E+00 0. -1.
         23    2    1    0    0    0 -0.14615167745E+02 -0.23024494141E+02  0.93169082924E+01  0.96180991711E+02  0.91761908915E+02 0.  0.
         13    1    3    3    0    0  0.88216581856E+01  0.61534913141E+01 -0.35904761224E+02  0.37481330700E+02  0.10566000000E+00 0.  1.
         22    1    1    0    0    0  0.14615167745E+02  0.23024494141E+02 -0.93169082924E+01  0.28819008289E+02  0.00000000000E+00 0.  1.
</event>
<event>
 5    1  0.8943334E-005  0.9118800E+02  0.7818608E-02  0.1130116E+00
         25   -1    0    0    0    0  0.00000000000E+00  0.00000000000E+00  0.99999998245E-14  0.12500000000E+03  0.12500000000E+03 0.  0.
        -13    1    3    3    0    0  0.40237388538E+02  0.15110473773E+01  0.40834436641E+02  0.57347999794E+02  0.10566000000E+00 0.  1.
         23    2    1    0    0    0  0.35728137769E+01 -0.32490111292E+01  0.28154515854E+02  0.96434324188E+02  0.92106357256E+02 0.  0.
         13    1    3    3    0    0 -0.36664574761E+02 -0.47600585065E+01 -0.12679920787E+02  0.39086324394E+02  0.10566000000E+00 0. -1.
         22    1    1    0    0    0 -0.35728137769E+01  0.32490111292E+01 -0.28154515854E+02  0.28565675812E+02  0.00000000000E+00 0.  1.
</event>
<event>
 5    1  0.8943334E-005  0.9118800E+02  0.7818608E-02  0.1130116E+00
         25   -1    0    0    0    0  0.00000000000E+00  0.00000000000E+00  0.99999998245E-14  0.12500000000E+03  0.12500000000E+03 0.  0.
        -13    1    3    3    0    0 -0.94223513470E+01  0.21930112107E+02  0.38874830901E+02  0.45617695728E+02  0.10566000000E+00 0.  1.
         23    2    1    0    0    0  0.27071360642E+02  0.12324393768E+02  0.84882958787E+01  0.94067809394E+02  0.88836661061E+02 0.  0.
         13    1    3    3    0    0  0.36493711989E+02 -0.96057183390E+01 -0.30386535022E+02  0.48450113666E+02  0.10566000000E+00 0. -1.
         22    1    1    0    0    0 -0.27071360642E+02 -0.12324393768E+02 -0.84882958787E+01  0.30932190606E+02  0.00000000000E+00 0. -1.
</event>
<event>
 5    1  0.8943334E-005  0.9118800E+02  0.7818608E-02  0.1130116E+00
         25   -1    0    0    0    0  0.00000000000E+00  0.00000000000E+00  0.99999998245E-14  0.12500000000E+03  0.12500000000E+03 0.  0.
        -13    1    3    3    0    0 -0.12660242132E+02  0.20348627261E+02  0.28896364620E+02  0.37541435968E+02  0.10566000000E+00 0.  1.
         23    2    1    0    0    0 -0.38225830146E+01 -0.29800622936E+02  0.26258222688E+01  0.94840686167E+02  0.89917581939E+02 0.  0.
         13    1    3    3    0    0  0.88376591169E+01 -0.50149250197E+02 -0.26270542351E+02  0.57299250200E+02  0.10566000000E+00 0. -1.
         22    1    1    0    0    0  0.38225830146E+01  0.29800622936E+02 -0.26258222688E+01  0.30159313833E+02  0.00000000000E+00 0. -1.
</event>
<event>
 5    1  0.8943334E-005  0.9118800E+02  0.7818608E-02  0.1130116E+00
         25   -1    0    0    0    0  0.00000000000E+00  0.00000000000E+00  0.99999998245E-14  0.12500000000E+03  0.12500000000E+03 0.  0.
        -13    1    3    3    0    0 -0.14314051851E+01  0.15482913371E+02  0.32962932961E+02  0.36446339194E+02  0.10566000000E+00 0.  1.
         23    2    1    0    0    0 -0.11731845499E+01  0.10712796614E+02 -0.26651562247E+02  0.96252023663E+02  0.91858619169E+02 0.  0.
         13    1    3    3    0    0  0.25822063515E+00 -0.47701167563E+01 -0.59614495208E+02  0.59805684468E+02  0.10566000000E+00 0. -1.
         22    1    1    0    0    0  0.11731845499E+01 -0.10712796614E+02  0.26651562247E+02  0.28747976337E+02  0.00000000000E+00 0. -1.
</event>
<event>
 5    1  0.8943334E-005  0.9118800E+02  0.7818608E-02  0.1130116E+00
         25   -1    0    0    0    0  0.00000000000E+00  0.00000000000E+00  0.99999998245E-14  0.12500000000E+03  0.12500000000E+03 0.  0.
        -13    1    3    3    0    0 -0.34089365595E+02 -0.34800855269E+02  0.46844571725E+01  0.48940164253E+02  0.10566000000E+00 0.  1.
         23    2    1    0    0    0  0.10587141884E+02 -0.26980194376E+02 -0.56807728957E+01  0.95465450020E+02  0.90781950326E+02 0.  0.
         13    1    3    3    0    0  0.44676507479E+02  0.78206608927E+01 -0.10365230068E+02  0.46525285767E+02  0.10566000000E+00 0. -1.
         22    1    1    0    0    0 -0.10587141884E+02  0.26980194376E+02  0.56807728957E+01  0.29534549980E+02  0.00000000000E+00 0. -1.
</event>
<event>
 5    1  0.8943334E-005  0.9118800E+02  0.7818608E-02  0.1130116E+00
         25   -1    0    0    0    0  0.00000000000E+00  0.00000000000E+00  0.99999998245E-14  0.12500000000E+03  0.12500000000E+03 0.  0.
        -13    1    3    3    0    0  0.17677236852E+02 -0.24687839969E+02 -0.35503742380E+02  0.46717245553E+02  0.10566000000E+00 0. -1.
         23    2    1    0    0    0 -0.12226963009E+02 -0.20678488165E+02  0.80177447814E+01  0.99674464891E+02  0.96403403584E+02 0.  0.
         13    1    3    3    0    0 -0.29904199860E+02  0.40093518044E+01  0.43521487161E+02  0.52957219337E+02  0.10566000000E+00 0.  1.
         22    1    1    0    0    0  0.12226963009E+02  0.20678488165E+02 -0.80177447814E+01  0.25325535109E+02  0.00000000000E+00 0.  1.
</event>
<event>
 5    1  0.8943334E-005  0.9118800E+02  0.7818608E-02  0.1130116E+00
         25   -1    0    0    0    0  0.00000000000E+00  0.00000000000E+00  0.99999998245E-14  0.12500000000E+03  0.12500000000E+03 0.  0.
        -13    1    3    3    0    0  0.32592036213E+02 -0.46493325897E+02  0.16808961889E+02  0.59215053333E+02  0.10566000000E+00 0. -1.
         23    2    1    0    0    0  0.20239640234E+02 -0.12800238380E+02  0.17874623666E+02  0.95117039795E+02  0.90300941018E+02 0.  0.
         13    1    3    3    0    0 -0.12352395979E+02  0.33693087517E+02  0.10656617778E+01  0.35901986462E+02  0.10566000000E+00 0.  1.
         22    1    1    0    0    0 -0.20239640234E+02  0.12800238380E+02 -0.17874623666E+02  0.29882960205E+02  0.00000000000E+00 0. -1.
</event>
<event>
 5    1  0.8943334E-005  0.9118800E+02  0.7818608E-02  0.1130116E+00
         25   -1    0    0    0    0  0.00000000000E+00  0.00000000000E+00  0.99999998245E-14  0.12500000000E+03  0.12500000000E+03 0.  0.
        -13    1    3    3    0    0  0.93449988954E+01  0.29142669658E+02 -0.23306946124E+02  0.38468806854E+02  0.10566000000E+00 0. -1.
         23    2    1    0    0    0 -0.46668028435E+01 -0.25425061754E+02 -0.14101595514E+02  0.95553984819E+02  0.90903774426E+02 0.  0.
         13    1    3    3    0    0 -0.14011801739E+02 -0.54567731412E+02  0.92053506102E+01  0.57085177965E+02  0.10566000000E+00 0.  1.
         22    1    1    0    0    0  0.46668028435E+01  0.25425061754E+02  0.14101595514E+02  0.29446015181E+02  0.00000000000E+00 0.  1.
</event>
<event>
 5    1  0.8943334E-005  0.9118800E+02  0.7818608E-02  0.1130116E+00
         25   -1    0    0    0    0  0.00000000000E+00  0.00000000000E+00  0.99999998245E-14  0.12500000000E+03  0.12500000000E+03 0.  0.
        -13    1    3    3    0    0 -0.14534487478E+02 -0.44224181763E+02 -0.35332720421E+02  0.58441781931E+02  0.10566000000E+00 0. -1.
         23    2    1    0    0    0  0.85603434634E+01 -0.18831316486E+02 -0.20638278978E+02  0.95779518827E+02  0.91213374605E+02 0.  0.
         13    1    3    3    0    0  0.23094830941E+02  0.25392865277E+02  0.14694441443E+02  0.37337736896E+02  0.10566000000E+00 0.  1.
         22    1    1    0    0    0 -0.85603434634E+01  0.18831316486E+02  0.20638278978E+02  0.29220481173E+02  0.00000000000E+00 0. -1.
</event>
<event>
 5    1  0.8943334E-005  0.9118800E+02  0.7818608E-02  0.1130116E+00
         25   -1    0    0    0    0  0.00000000000E+00  0.00000000000E+00  0.99999998245E-14  0.12500000000E+03  0.12500000000E+03 0.  0.
        -13    1    3    3    0    0 -0.15795919722E+02  0.34350530527E+02  0.55346434202E+01  0.38211431133E+02  0.10566000000E+00 0. -1.
         23    2    1    0    0    0 -0.61438169935E+01 -0.21751186226E+02 -0.14020169984E+02  0.98402523506E+02  0.94739806187E+02 0.  0.
         13    1    3    3    0    0  0.96521027289E+01 -0.56101716753E+02 -0.19554813404E+02  0.60191092373E+02  0.10566000000E+00 0.  1.
         22    1    1    0    0    0  0.61438169935E+01  0.21751186226E+02  0.14020169984E+02  0.26597476494E+02  0.00000000000E+00 0.  1.
</event>
<event>
 5    1  0.8943334E-005  0.9118800E+02  0.7818608E-02  0.1130116E+00
         25   -1    0    0    0    0  0.00000000000E+00  0.00000000000E+00  0.99999998245E-14  0.12500000000E+03  0.12500000000E+03 0.  0.
        -13    1    3    3    0    0  0.15965200730E+02  0.45120563417E+02  0.28716606908E+02  0.55815836049E+02  0.10566000000E+00 0.  1.
         23    2    1    0    0    0  0.20798241562E+02  0.76988981561E+01  0.21260100897E+02  0.94278154759E+02  0.89132141732E+02 0.  0.
         13    1    3    3    0    0  0.48330408319E+01 -0.37421665261E+02 -0.74565060115E+01  0.38462318710E+02  0.10566000000E+00 0. -1.
         22    1    1    0    0    0 -0.20798241562E+02 -0.76988981561E+01 -0.21260100897E+02  0.30721845241E+02  0.00000000000E+00 0.  1.
</event>
<event>
 5    1  0.8943334E-005  0.9118800E+02  0.7818608E-02  0.1130116E+00
         25   -1    0    0    0    0  0.00000000000E+00  0.00000000000E+00  0.99999998245E-14  0.12500000000E+03  0.12500000000E+03 0.  0.
        -13    1    3    3    0    0  0.39673640438E+02 -0.22981688757E+02 -0.34643227388E+02  0.57465817071E+02  0.10566000000E+00 0.  1.
         23    2    1    0    0    0  0.26626260457E+02  0.49564707142E+01 -0.14758812913E+02  0.94156088016E+02  0.88960789138E+02 0.  0.
         13    1    3    3    0    0 -0.13047379981E+02  0.27938159471E+02  0.19884414475E+02  0.36690270945E+02  0.10566000000E+00 0. -1.
         22    1    1    0    0    0 -0.26626260457E+02 -0.49564707142E+01  0.14758812913E+02  0.30843911984E+02  0.00000000000E+00 0.  1.
</event>
<event>
 5    1  0.8943334E-005  0.9118800E+02  0.7818608E-02  0.1130116E+00
         25   -1    0    0    0    0  0.00000000000E+00  0.00000000000E+00  0.99999998245E-14  0.12500000000E+03  0.12500000000E+03 0.  0.
        -13    1    3    3    0    0  0.79637465248E+01 -0.41871279281E+02  0.10593205676E+02  0.43918702826E+02  0.10566000000E+00 0.  1.
         23    2    1    0    0    0 -0.65300024273E+01 -0.13283714447E+02 -0.27540698861E+02  0.93733594787E+02  0.88365144127E+02 0.  0.
         13    1    3    3    0    0 -0.14493748952E+02  0.28587564834E+02 -0.38133904537E+02  0.49814891961E+02  0.10566000000E+00 0. -1.
         22    1    1    0    0    0  0.65300024273E+01  0.13283714447E+02  0.27540698861E+02  0.31266405213E+02  0.00000000000E+00 0. -1.
</event>
<event>
 5    1  0.8943334E-005  0.9118800E+02  0.7818608E-02  0.1130116E+00
         25   -1    0    0    0    0  0.00000000000E+00  0.00000000000E+00  0.99999998245E-14  0.12500000000E+03  0.12500000000E+03 0.  0.
        -13    1    3    3    0    0  0.21011849902E+02  0.32375568855E+02 -0.44249906563E+02  0.58717464948E+02  0.10566000000E+00 0. -1.
         23    2    1    0    0    0  0.22755223371E+02  0.14114041395E+02 -0.12358601924E+02  0.95508621655E+02  0.90841375010E+02 0.  0.
         13    1    3    3    0    0  0.17433734691E+01 -0.18261527460E+02  0.31891304639E+02  0.36791156707E+02  0.10566000000E+00 0.  1.
         22    1    1    0    0    0 -0.22755223371E+02 -0.14114041395E+02  0.12358601924E+02  0.29491378345E+02  0.00000000000E+00 0. -1.
</event>
<event>
 5    1  0.8943334E-005  0.9118800E+02  0.7818608E-02  0.1130116E+00
         25   -1    0    0    0    0  0.00000000000E+00  0.00000000000E+00  0.99999998245E-14  0.12500000000E+03  0.12500000000E+03 0.  0.
        -13    1    3    3    0    0 -0.28790249003E+02 -0.27766341504E+02  0.41622052545E+02  0.57725683887E+02  0.10566000000E+00 0. -1.
         23    2    1    0    0    0 -0.28522004314E+02 -0.98999174109E+01  0.11612090278E+02  0.92652608522E+02  0.86822532389E+02 0.  0.
         13    1    3    3    0    0  0.26824468876E+00  0.17866424093E+02 -0.30009962267E+02  0.34926924634E+02  0.10566000000E+00 0.  1.
         22    1    1    0    0    0  0.28522004314E+02  0.98999174109E+01 -0.11612090278E+02  0.32347391478E+02  0.00000000000E+00 0. -1.
</event>
<event>
 5    1  0.8943334E-005  0.9118800E+02  0.7818608E-02  0.1130116E+00
         25   -1    0    0    0    0  0.00000000000E+00  0.00000000000E+00  0.99999998245E-14  0.12500000000E+03  0.12500000000E+03 0.  0.
        -13    1    3    3    0    0 -0.21373489902E+02 -0.45552547421E+00  0.57955447732E+02  0.61772798706E+02  0.10566000000E+00 0.  1.
         23    2    1    0    0    0 -0.16369689787E+02 -0.41554866843E+01  0.28559054982E+02  0.91820873508E+02  0.85616694500E+02 0.  0.
         13    1    3    3    0    0  0.50038001158E+01 -0.36999612101E+01 -0.29396392751E+02  0.30048074802E+02  0.10566000000E+00 0. -1.
         22    1    1    0    0    0  0.16369689787E+02  0.41554866843E+01 -0.28559054982E+02  0.33179126492E+02  0.00000000000E+00 0.  1.
</event>
<event>
 5    1  0.8943334E-005  0.9118800E+02  0.7818608E-02  0.1130116E+00
         25   -1    0    0    0    0  0.00000000000E+00  0.00000000000E+00  0.99999998245E-14  0.12500000000E+03  0.12500000000E+03 0.  0.
        -13    1    3    3    0    0  0.43383037727E+02  0.59532643134E+01 -0.17373074367E+02  0.47110128374E+02  0.10566000000E+00 0.  1.
         23    2    1    0    0    0  0.83388934016E+01  0.28053590855E+02  0.66295630409E+01  0.94991797636E+02  0.90127406536E+02 0.  0.
         13    1    3    3    0    0 -0.35044144325E+02  0.22100326542E+02  0.24002637408E+02  0.47881669262E+02  0.10566000000E+00 0. -1.
         22    1    1    0    0    0 -0.83388934016E+01 -0.28053590855E+02 -0.66295630409E+01  0.30008202364E+02  0.00000000000E+00 0. -1.
</event>
<event>
 5    1  0.8943334E-005  0.9118800E+02  0.7818608E-02  0.1130116E+00
         25   -1    0    0    0    0  0.00000000000E+00  0.00000000000E+00  0.99999998245E-14  0.12500000000E+03  0.12500000000E+03 0.  0.
        -13    1    3    3    0    0  0.28331728721E+02  0.49473542932E+02  0.20130114835E-01  0.57011664349E+02  0.10566000000E+00 0.  1.
         23    2    1    0    0    0 -0.27108061987E+01  0.26839596315E+02 -0.91596377846E+01  0.96511206327E+02  0.92210637032E+02 0.  0.
         13    1    3    3    0    0 -0.31042534920E+02 -0.22633946618E+02 -0.91797678995E+01  0.39499541978E+02  0.10566000000E+00 0. -1.
         22    1    1    0    0    0  0.27108061987E+01 -0.26839596315E+02  0.91596377846E+01  0.28488793673E+02  0.00000000000E+00 0.  1.
</event>
<event>
 4    1  0.8943334E-005  0.9118800E+02  0.7818608E-02  0.1130116E+00
         25   -1    0    0    0    0  0.00000000000E+00  0.00000000000E+00  0.99999998245E-14  0.12500000000E+03  0.12500000000E+03 0.  0.
        -13    1    1    0    0    0 -0.18232532732E+02 -0.92878946124E+01 -0.16391108728E+02  0.26217739138E+02  0.10566000000E+00 0. -1.
         13    1    1    0    0    0 -0.31462936523E+02 -0.22416058295E+01  0.32493898209E+02  0.45285822905E+02  0.10566000000E+00 0.  1.
         22    1    1    0    0    0  0.49695469255E+02  0.11529500442E+02 -0.16102789482E+02  0.53496437956E+02  0.00000000000E+00 0.  1.
</event>
<event>
 5    1  0.8943334E-005  0.9118800E+02  0.7818608E-02  0.1130116E+00
         25   -1    0    0    0    0  0.00000000000E+00  0.00000000000E+00  0.99999998245E-14  0.12500000000E+03  0.12500000000E+03 0.  0.
        -13    1    3    3    0    0 -0.15660898272E+02 -0.40983103044E+02  0.42897118929E+02  0.61360023193E+02  0.10566000000E+00 0.  1.
         23    2    1    0    0    0 -0.14842103629E+02 -0.20069312174E+02  0.16371005421E+02  0.95149118108E+02  0.90345334838E+02 0.  0.
         13    1    3    3    0    0  0.81879464279E+00  0.20913790870E+02 -0.26526113509E+02  0.33789094915E+02  0.10566000000E+00 0. -1.
         22    1    1    0    0    0  0.14842103629E+02  0.20069312174E+02 -0.16371005421E+02  0.29850881892E+02  0.00000000000E+00 0.  1.
</event>
<event>
 5    1  0.8943334E-005  0.9118800E+02  0.7818608E-02  0.1130116E+00
         25   -1    0    0    0    0  0.00000000000E+00  0.00000000000E+00  0.99999998245E-14  0.12500000000E+03  0.12500000000E+03 0.  0.
        -13    1    3    3    0    0  0.20525540807E+02  0.24603433466E+02 -0.20451015220E+02  0.38011602851E+02  0.10566000000E+00 0.  1.
         23    2    1    0    0    0 -0.12954927622E+02  0.61288157847E+01  0.24246615472E+02  0.96834579810E+02  0.92647962484E+02 0.  0.
         13    1    3    3    0    0 -0.33480468429E+02 -0.18474617681E+02  0.44697630693E+02  0.58822976959E+02  0.10566000000E+00 0. -1.
         22    1    1    0    0    0  0.12954927622E+02 -0.61288157847E+01 -0.24246615472E+02  0.28165420190E+02  0.00000000000E+00 0. -1.
</event>
<event>
 5    1  0.8943334E-005  0.9118800E+02  0.7818608E-02  0.1130116E+00
         25   -1    0    0    0    0  0.00000000000E+00  0.00000000000E+00  0.99999998245E-14  0.12500000000E+03  0.12500000000E+03 0.  0.
        -13    1    3    3    0    0  0.48343074979E+02 -0.34868587331E+02  0.12674289623E+02  0.60938658193E+02  0.10566000000E+00 0. -1.
         23    2    1    0    0    0  0.14315535468E+02 -0.20313161741E+02 -0.27212764984E+00  0.10014777376E+03  0.97015171184E+02 0.  0.
         13    1    3    3    0    0 -0.34027539511E+02  0.14555425590E+02 -0.12946417273E+02  0.39209115566E+02  0.10566000000E+00 0.  1.
         22    1    1    0    0    0 -0.14315535468E+02  0.20313161741E+02  0.27212764984E+00  0.24852226241E+02  0.00000000000E+00 0. -1.
</event>
<event>
 5    1  0.8943334E-005  0.9118800E+02  0.7818608E-02  0.1130116E+00
         25   -1    0    0    0    0  0.00000000000E+00  0.00000000000E+00  0.99999998245E-14  0.12500000000E+03  0.12500000000E+03 0.  0.
        -13    1    3    3    0    0 -0.32429843522E+02  0.31883340508E+01  0.89152228629E+01  0.33783910188E+02  0.10566000000E+00 0. -1.
         23    2    1    0    0    0  0.22956539647E+02  0.12645076172E+01 -0.18383762666E+02  0.95562533705E+02  0.90915529072E+02 0.  0.
         13    1    3    3    0    0  0.55386383169E+02 -0.19238264335E+01 -0.27298985529E+02  0.61778623517E+02  0.10566000000E+00 0.  1.
         22    1    1    0    0    0 -0.22956539647E+02 -0.12645076172E+01  0.18383762666E+02  0.29437466295E+02  0.00000000000E+00 0.  1.
</event>
<event>
 5    1  0.8943334E-005  0.9118800E+02  0.7818608E-02  0.1130116E+00
         25   -1    0    0    0    0  0.00000000000E+00  0.00000000000E+00  0.99999998245E-14  0.12500000000E+03  0.12500000000E+03 0.  0.
        -13    1    3    3    0    0  0.48622435685E+01 -0.55424657084E+02  0.18253108332E+02  0.58555282881E+02  0.10566000000E+00 0.  1.
         23    2    1    0    0    0 -0.63818921152E+01 -0.29563595662E+02 -0.40187970716E+01  0.94489584314E+02  0.89428161552E+02 0.  0.
         13    1    3    3    0    0 -0.11244135684E+02  0.25861061422E+02 -0.22271905404E+02  0.35934301433E+02  0.10566000000E+00 0. -1.
         22    1    1    0    0    0  0.63818921152E+01  0.29563595662E+02  0.40187970716E+01  0.30510415686E+02  0.00000000000E+00 0.  1.
</event>
<event>
 5    1  0.8943334E-005  0.9118800E+02  0.7818608E-02  0.1130116E+00
         25   -1    0    0    0    0  0.00000000000E+00  0.00000000000E+00  0.99999998245E-14  0.12500000000E+03  0.12500000000E+03 0.  0.
        -13    1    3    3    0    0 -0.43725469782E+02 -0.32917893889E+01  0.21750403731E+02  0.48947357554E+02  0.10566000000E+00 0.  1.
         23    2    1    0    0    0 -0.21415751160E+02 -0.40946800125E+01 -0.19433502048E+02  0.95792778222E+02  0.91231543643E+02 0.  0.
         13    1    3    3    0    0  0.22309718622E+02 -0.80289062362E+00 -0.41183905779E+02  0.46845420668E+02  0.10566000000E+00 0. -1.
         22    1    1    0    0    0  0.21415751160E+02  0.40946800125E+01  0.19433502048E+02  0.29207221778E+02  0.00000000000E+00 0. -1.
</event>
<event>
 5    1  0.8943334E-005  0.9118800E+02  0.7818608E-02  0.1130116E+00
         25   -1    0    0    0    0  0.00000000000E+00  0.00000000000E+00  0.99999998245E-14  0.12500000000E+03  0.12500000000E+03 0.  0.
        -13    1    3    3    0    0 -0.42690641795E+02  0.14220099621E+02  0.34310852565E+02  0.56585757023E+02  0.10566000000E+00 0. -1.
         23    2    1    0    0    0 -0.29869509789E+02  0.96200790171E+00  0.48738504584E+00  0.95111028482E+02  0.90292619413E+02 0.  0.
         13    1    3    3    0    0  0.12821132006E+02 -0.13258091719E+02 -0.33823467519E+02  0.38525271459E+02  0.10566000000E+00 0.  1.
         22    1    1    0    0    0  0.29869509789E+02 -0.96200790171E+00 -0.48738504584E+00  0.29888971518E+02  0.00000000000E+00 0. -1.
</event>
<event>
 5    1  0.8943334E-005  0.9118800E+02  0.7818608E-02  0.1130116E+00
         25   -1    0    0    0    0  0.00000000000E+00  0.00000000000E+00  0.99999998245E-14  0.12500000000E+03  0.12500000000E+03 0.  0.
        -13    1    3    3    0    0 -0.97764954004E+01  0.30884320888E+02  0.14452575731E+01  0.32427165657E+02  0.10566000000E+00 0. -1.
         23    2    1    0    0    0  0.78652564462E+00 -0.30209486917E+02 -0.32553796494E+01  0.94605440963E+02  0.89589956138E+02 0.  0.
         13    1    3    3    0    0  0.10563021045E+02 -0.61093807805E+02 -0.47006372225E+01  0.62178275306E+02  0.10566000000E+00 0.  1.
         22    1    1    0    0    0 -0.78652564462E+00  0.30209486917E+02  0.32553796494E+01  0.30394559037E+02  0.00000000000E+00 0.  1.
</event>
<event>
 5    1  0.8943334E-005  0.9118800E+02  0.7818608E-02  0.1130116E+00
         25   -1    0    0    0    0  0.00000000000E+00  0.00000000000E+00  0.99999998245E-14  0.12500000000E+03  0.12500000000E+03 0.  0.
        -13    1    3    3    0    0  0.26964905626E+02 -0.17905541478E+02  0.76306507135E+01  0.33255864827E+02  0.10566000000E+00 0.  1.
         23    2    1    0    0    0  0.24598869051E+01 -0.50260204865E+02 -0.63183643636E+00  0.74675667377E+02  0.55171703293E+02 0.  0.
         13    1    3    3    0    0 -0.24505018720E+02 -0.32354663387E+02 -0.82624871499E+01  0.41419802550E+02  0.10566000000E+00 0. -1.
         22    1    1    0    0    0 -0.24598869051E+01  0.50260204865E+02  0.63183643636E+00  0.50324332623E+02  0.00000000000E+00 0.  1.
</event>
<event>
 5    1  0.8943334E-005  0.9118800E+02  0.7818608E-02  0.1130116E+00
         25   -1    0    0    0    0  0.00000000000E+00  0.00000000000E+00  0.99999998245E-14  0.12500000000E+03  0.12500000000E+03 0.  0.
        -13    1    3    3    0    0 -0.60743572694E+01  0.60039826155E+02  0.10828350588E+02  0.61310218409E+02  0.10566000000E+00 0.  1.
         23    2    1    0    0    0 -0.10977263487E+02  0.26343486443E+02  0.25923315865E+01  0.96343416556E+02  0.91982901340E+02 0.  0.
         13    1    3    3    0    0 -0.49029062174E+01 -0.33696339712E+02 -0.82360190020E+01  0.35033198146E+02  0.10566000000E+00 0. -1.
         22    1    1    0    0    0  0.10977263487E+02 -0.26343486443E+02 -0.25923315865E+01  0.28656583444E+02  0.00000000000E+00 0.  1.
</event>
<event>
 5    1  0.8943334E-005  0.9118800E+02  0.7818608E-02  0.1130116E+00
         25   -1    0    0    0    0  0.00000000000E+00  0.00000000000E+00  0.99999998245E-14  0.12500000000E+03  0.12500000000E+03 0.  0.
        -13    1    3    3    0    0 -0.58144617716E+02  0.21446951525E+02  0.20163301070E+01  0.62006814546E+02  0.10566000000E+00 0.  1.
         23    2    1    0    0    0 -0.29792664262E+02  0.70113861300E+01 -0.31219014811E+01  0.94234619323E+02  0.89071066182E+02 0.  0.
         13    1    3    3    0    0  0.28351953453E+02 -0.14435565395E+02 -0.51382315881E+01  0.32227804777E+02  0.10566000000E+00 0. -1.
         22    1    1    0    0    0  0.29792664262E+02 -0.70113861300E+01  0.31219014811E+01  0.30765380677E+02  0.00000000000E+00 0.  1.
</event>
<event>
 5    1  0.8943334E-005  0.9118800E+02  0.7818608E-02  0.1130116E+00
         25   -1    0    0    0    0  0.00000000000E+00  0.00000000000E+00  0.99999998245E-14  0.12500000000E+03  0.12500000000E+03 0.  0.
        -13    1    3    3    0    0  0.37720429169E+02  0.40477154101E+02  0.70517641730E+01  0.55776064067E+02  0.10566000000E+00 0. -1.
         23    2    1    0    0    0  0.25810837843E+01  0.32605493574E+02  0.11075254208E+01  0.92273759500E+02  0.86275372354E+02 0.  0.
         13    1    3    3    0    0 -0.35139345385E+02 -0.78716605270E+01 -0.59442387521E+01  0.36497695432E+02  0.10566000000E+00 0.  1.
         22    1    1    0    0    0 -0.25810837843E+01 -0.32605493574E+02 -0.11075254208E+01  0.32726240500E+02  0.00000000000E+00 0. -1.
</event>
<event>
 5    1  0.8943334E-005  0.9118800E+02  0.7818608E-02  0.1130116E+00
         25   -1    0    0    0    0  0.00000000000E+00  0.00000000000E+00  0.99999998245E-14  0.12500000000E+03  0.12500000000E+03 0.  0.
        -13    1    3    3    0    0 -0.73923067930E+01  0.23348615210E+02 -0.45844065277E+02  0.51975893615E+02  0.10566000000E+00 0.  1.
         23    2    1    0    0    0  0.13347526282E+02 -0.90225069896E+01 -0.23699830797E+02  0.96342643701E+02  0.91981851064E+02 0.  0.
         13    1    3    3    0    0  0.20739833075E+02 -0.32371122200E+02  0.22144234480E+02  0.44366750086E+02  0.10566000000E+00 0. -1.
         22    1    1    0    0    0 -0.13347526282E+02  0.90225069896E+01  0.23699830797E+02  0.28657356299E+02  0.00000000000E+00 0.  1.
</event>
<event>
 5    1  0.8943334E-005  0.9118800E+02  0.7818608E-02  0.1130116E+00
         25   -1    0    0    0    0  0.00000000000E+00  0.00000000000E+00  0.99999998245E-14  0.12500000000E+03  0.12500000000E+03 0.  0.
        -13    1    3    3    0    0  0.50615648692E+02  0.22367821066E+02  0.38145003532E+01  0.55469134559E+02  0.10566000000E+00 0.  1.
         23    2    1    0    0    0  0.22051811812E+02 -0.14129456008E+01  0.19230365141E+02  0.95706899056E+02  0.91113801172E+02 0.  0.
         13    1    3    3    0    0 -0.28563836880E+02 -0.23780766667E+02  0.15415864788E+02  0.40237764497E+02  0.10566000000E+00 0. -1.
         22    1    1    0    0    0 -0.22051811812E+02  0.14129456008E+01 -0.19230365141E+02  0.29293100944E+02  0.00000000000E+00 0.  1.
</event>
<event>
 5    1  0.8943334E-005  0.9118800E+02  0.7818608E-02  0.1130116E+00
         25   -1    0    0    0    0  0.00000000000E+00  0.00000000000E+00  0.99999998245E-14  0.12500000000E+03  0.12500000000E+03 0.  0.
        -13    1    3    3    0    0  0.12808110202E+02 -0.15196044647E+02  0.36429586273E+02  0.41498112968E+02  0.10566000000E+00 0.  1.
         23    2    1    0    0    0  0.87537350416E+01  0.27003986754E+02  0.12548435887E+01  0.96584901721E+02  0.92310483858E+02 0.  0.
         13    1    3    3    0    0 -0.40543751603E+01  0.42200031401E+02 -0.35174742684E+02  0.55086788753E+02  0.10566000000E+00 0. -1.
         22    1    1    0    0    0 -0.87537350416E+01 -0.27003986754E+02 -0.12548435887E+01  0.28415098279E+02  0.00000000000E+00 0.  1.
</event>
<event>
 5    1  0.8943334E-005  0.9118800E+02  0.7818608E-02  0.1130116E+00
         25   -1    0    0    0    0  0.00000000000E+00  0.00000000000E+00  0.99999998245E-14  0.12500000000E+03  0.12500000000E+03 0.  0.
        -13    1    3    3    0    0  0.48539647180E+02 -0.22591930383E+02  0.13925099019E+02  0.55320992521E+02  0.10566000000E+00 0.  1.
         23    2    1    0    0    0  0.96272227630E+01 -0.27221168112E+02  0.86323166059E+01  0.94863770947E+02  0.89949667797E+02 0.  0.
         13    1    3    3    0    0 -0.38912424417E+02 -0.46292377294E+01 -0.52927824132E+01  0.39542778426E+02  0.10566000000E+00 0. -1.
         22    1    1    0    0    0 -0.96272227630E+01  0.27221168112E+02 -0.86323166059E+01  0.30136229053E+02  0.00000000000E+00 0.  1.
</event>
<event>
 5    1  0.8943334E-005  0.9118800E+02  0.7818608E-02  0.1130116E+00
         25   -1    0    0    0    0  0.00000000000E+00  0.00000000000E+00  0.99999998245E-14  0.12500000000E+03  0.12500000000E+03 0.  0.
        -13    1    3    3    0    0  0.23194160660E+01 -0.27496402875E+02  0.41766319777E+02  0.50058650538E+02  0.10566000000E+00 0.  1.
         23    2    1    0    0    0  0.16936921318E+02  0.10188924583E+02  0.23147790714E+02  0.94561640931E+02  0.89528823475E+02 0.  0.
         13    1    3    3    0    0  0.14617505252E+02  0.37685327458E+02 -0.18618529063E+02  0.44502990393E+02  0.10566000000E+00 0. -1.
         22    1    1    0    0    0 -0.16936921318E+02 -0.10188924583E+02 -0.23147790714E+02  0.30438359069E+02  0.00000000000E+00 0. -1.
</event>
<event>
 5    1  0.8943334E-005  0.9118800E+02  0.7818608E-02  0.1130116E+00
         25   -1    0    0    0    0  0.00000000000E+00  0.00000000000E+00  0.99999998245E-14  0.12500000000E+03  0.12500000000E+03 0.  0.
        -13    1    3    3    0    0 -0.25929073522E+02 -0.31390012945E+01 -0.43787998531E+02  0.50985980056E+02  0.10566000000E+00 0. -1.
         23    2    1    0    0    0 -0.28278217144E+02 -0.51049647577E+01  0.13548506430E+01  0.96232764292E+02  0.91832407531E+02 0.  0.
         13    1    3    3    0    0 -0.23491436215E+01 -0.19659634633E+01  0.45142849174E+02  0.45246784236E+02  0.10566000000E+00 0.  1.
         22    1    1    0    0    0  0.28278217144E+02  0.51049647577E+01 -0.13548506430E+01  0.28767235708E+02  0.00000000000E+00 0. -1.
</event>
<event>
 5    1  0.8943334E-005  0.9118800E+02  0.7818608E-02  0.1130116E+00
         25   -1    0    0    0    0  0.00000000000E+00  0.00000000000E+00  0.99999998245E-14  0.12500000000E+03  0.12500000000E+03 0.  0.
        -13    1    3    3    0    0  0.20009515685E+02  0.17324909375E+02  0.21003719037E+02  0.33789060067E+02  0.10566000000E+00 0.  1.
         23    2    1    0    0    0 -0.16770185320E+02 -0.19258469999E+02 -0.13522309105E+02  0.96103968683E+02  0.91656926474E+02 0.  0.
         13    1    3    3    0    0 -0.36779701006E+02 -0.36583379373E+02 -0.34526028142E+02  0.62314908615E+02  0.10566000000E+00 0. -1.
         22    1    1    0    0    0  0.16770185320E+02  0.19258469999E+02  0.13522309105E+02  0.28896031317E+02  0.00000000000E+00 0. -1.
</event>
<event>
 5    1  0.8943334E-005  0.9118800E+02  0.7818608E-02  0.1130116E+00
         25   -1    0    0    0    0  0.00000000000E+00  0.00000000000E+00  0.99999998245E-14  0.12500000000E+03  0.12500000000E+03 0.  0.
        -13    1    3    3    0    0 -0.39431773694E+02 -0.12062048708E+02 -0.16062338051E+02  0.44253448039E+02  0.10566000000E+00 0.  1.
         23    2    1    0    0    0 -0.54445670932E+01 -0.15944330128E+02  0.23199849127E+02  0.96327749067E+02  0.91961607569E+02 0.  0.
         13    1    3    3    0    0  0.33987206600E+02 -0.38822814195E+01  0.39262187178E+02  0.52074301028E+02  0.10566000000E+00 0. -1.
         22    1    1    0    0    0  0.54445670932E+01  0.15944330128E+02 -0.23199849127E+02  0.28672250933E+02  0.00000000000E+00 0. -1.
</event>
<event>
 5    1  0.8943334E-005  0.9118800E+02  0.7818608E-02  0.1130116E+00
         25   -1    0    0    0    0  0.00000000000E+00  0.00000000000E+00  0.99999998245E-14  0.12500000000E+03  0.12500000000E+03 0.  0.
        -13    1    3    3    0    0 -0.19104941083E+02  0.20996045577E+02 -0.17184544306E+02  0.33183616902E+02  0.10566000000E+00 0. -1.
         23    2    1    0    0    0  0.15355276542E+02 -0.35675614876E+01  0.26601789268E+02  0.94078046554E+02  0.88851064363E+02 0.  0.
         13    1    3    3    0    0  0.34460217625E+02 -0.24563607064E+02  0.43786333574E+02  0.60894429652E+02  0.10566000000E+00 0.  1.
         22    1    1    0    0    0 -0.15355276542E+02  0.35675614876E+01 -0.26601789268E+02  0.30921953446E+02  0.00000000000E+00 0.  1.
</event>
<event>
 5    1  0.8943334E-005  0.9118800E+02  0.7818608E-02  0.1130116E+00
         25   -1    0    0    0    0  0.00000000000E+00  0.00000000000E+00  0.99999998245E-14  0.12500000000E+03  0.12500000000E+03 0.  0.
        -13    1    3    3    0    0  0.21594655755E+02 -0.18168380770E+02  0.45455770615E+02  0.53503807932E+02  0.10566000000E+00 0. -1.
         23    2    1    0    0    0 -0.13679714481E+02 -0.13339204120E+02  0.20460970005E+02  0.97004996010E+02  0.92877602265E+02 0.  0.
         13    1    3    3    0    0 -0.35274370236E+02  0.48291766499E+01 -0.24994800610E+02  0.43501188079E+02  0.10566000000E+00 0.  1.
         22    1    1    0    0    0  0.13679714481E+02  0.13339204120E+02 -0.20460970005E+02  0.27995003990E+02  0.00000000000E+00 0.  1.
</event>
<event>
 5    1  0.8943334E-005  0.9118800E+02  0.7818608E-02  0.1130116E+00
         25   -1    0    0    0    0  0.00000000000E+00  0.00000000000E+00  0.99999998245E-14  0.12500000000E+03  0.12500000000E+03 0.  0.
        -13    1    3    3    0    0 -0.20427434273E+02  0.22244233234E+02 -0.20908184639E+02  0.36732129425E+02  0.10566000000E+00 0. -1.
         23    2    1    0    0    0  0.25090987836E+02 -0.10489420181E+02 -0.16986861427E+02  0.92935392292E+02  0.87228711288E+02 0.  0.
         13    1    3    3    0    0  0.45518422109E+02 -0.32733653414E+02  0.39213232125E+01  0.56203262867E+02  0.10566000000E+00 0.  1.
         22    1    1    0    0    0 -0.25090987836E+02  0.10489420181E+02  0.16986861427E+02  0.32064607708E+02  0.00000000000E+00 0. -1.
</event>
<event>
 5    1  0.8943334E-005  0.9118800E+02  0.7818608E-02  0.1130116E+00
         25   -1    0    0    0    0  0.00000000000E+00  0.00000000000E+00  0.99999998245E-14  0.12500000000E+03  0.12500000000E+03 0.  0.
        -13    1    3    3    0    0  0.18932594091E+02  0.45223051220E+01  0.45932805514E+02  0.49887154148E+02  0.10566000000E+00 0. -1.
         23    2    1    0    0    0  0.24331541173E+02  0.16533889462E+02  0.22675707804E+01  0.95495165246E+02  0.90822856768E+02 0.  0.
         13    1    3    3    0    0  0.53989470824E+01  0.12011584340E+02 -0.43665234733E+02  0.45608011098E+02  0.10566000000E+00 0.  1.
         22    1    1    0    0    0 -0.24331541173E+02 -0.16533889462E+02 -0.22675707804E+01  0.29504834754E+02  0.00000000000E+00 0. -1.
</event>
<event>
 5    1  0.8943334E-005  0.9118800E+02  0.7818608E-02  0.1130116E+00
         25   -1    0    0    0    0  0.00000000000E+00  0.00000000000E+00  0.99999998245E-14  0.12500000000E+03  0.12500000000E+03 0.  0.
        -13    1    3    3    0    0 -0.56177920270E+02  0.21252911865E+02  0.12811086770E+02  0.61414819848E+02  0.10566000000E+00 0.  1.
         23    2    1    0    0    0 -0.22269715471E+02  0.11626717778E+02  0.13106826399E+02  0.96664338869E+02  0.92417989143E+02 0.  0.
         13    1    3    3    0    0  0.33908204799E+02 -0.96261940867E+01  0.29573962883E+00  0.35249519022E+02  0.10566000000E+00 0. -1.
         22    1    1    0    0    0  0.22269715471E+02 -0.11626717778E+02 -0.13106826399E+02  0.28335661131E+02  0.00000000000E+00 0.  1.
</event>
<event>
 5    1  0.8943334E-005  0.9118800E+02  0.7818608E-02  0.1130116E+00
         25   -1    0    0    0    0  0.00000000000E+00  0.00000000000E+00  0.99999998245E-14  0.12500000000E+03  0.12500000000E+03 0.  0.
        -13    1    3    3    0    0 -0.33598380202E+02 -0.21212797661E+02  0.91953706241E+01  0.40784800376E+02  0.10566000000E+00 0. -1.
         23    2    1    0    0    0  0.84407201587E+01  0.72782789065E+01  0.27940860677E+02  0.94918264744E+02  0.90025364126E+02 0.  0.
         13    1    3    3    0    0  0.42039100361E+02  0.28491076567E+02  0.18745490053E+02  0.54133464368E+02  0.10566000000E+00 0.  1.
         22    1    1    0    0    0 -0.84407201587E+01 -0.72782789065E+01 -0.27940860677E+02  0.30081735256E+02  0.00000000000E+00 0.  1.
</event>
<event>
 5    1  0.8943334E-005  0.9118800E+02  0.7818608E-02  0.1130116E+00
         25   -1    0    0    0    0  0.00000000000E+00  0.00000000000E+00  0.99999998245E-14  0.12500000000E+03  0.12500000000E+03 0.  0.
        -13    1    3    3    0    0  0.65893223519E+01  0.47772143503E+02 -0.15859395232E+02  0.50765425686E+02  0.10566000000E+00 0.  1.
         23    2    1    0    0    0 -0.24969075016E+01  0.67553910519E+01 -0.29263548321E+02  0.94863226522E+02  0.89948911225E+02 0.  0.
         13    1    3    3    0    0 -0.90862298534E+01 -0.41016752451E+02 -0.13404153089E+02  0.44097800836E+02  0.10566000000E+00 0. -1.
         22    1    1    0    0    0  0.24969075016E+01 -0.67553910519E+01  0.29263548321E+02  0.30136773478E+02  0.00000000000E+00 0. -1.
</event>
<event>
 5    1  0.8943334E-005  0.9118800E+02  0.7818608E-02  0.1130116E+00
         25   -1    0    0    0    0  0.00000000000E+00  0.00000000000E+00  0.99999998245E-14  0.12500000000E+03  0.12500000000E+03 0.  0.
        -13    1    3    3    0    0  0.36510267089E+02  0.55206774689E+01 -0.35154853960E+02  0.50983844536E+02  0.10566000000E+00 0. -1.
         23    2    1    0    0    0  0.24630122712E+02 -0.17354585030E+02  0.36087730885E+00  0.94867711690E+02  0.89955143947E+02 0.  0.
         13    1    3    3    0    0 -0.11880144377E+02 -0.22875262499E+02  0.35515731269E+02  0.43883867154E+02  0.10566000000E+00 0.  1.
         22    1    1    0    0    0 -0.24630122712E+02  0.17354585030E+02 -0.36087730885E+00  0.30132288310E+02  0.00000000000E+00 0.  1.
</event>
<event>
 5    1  0.8943334E-005  0.9118800E+02  0.7818608E-02  0.1130116E+00
         25   -1    0    0    0    0  0.00000000000E+00  0.00000000000E+00  0.99999998245E-14  0.12500000000E+03  0.12500000000E+03 0.  0.
        -13    1    3    3    0    0  0.34706484406E+02 -0.23047344289E+02  0.44740927338E+02  0.61134948121E+02  0.10566000000E+00 0.  1.
         23    2    1    0    0    0  0.15343861195E+02 -0.17384172822E+02  0.13969768314E+02  0.97929758630E+02  0.94113971639E+02 0.  0.
         13    1    3    3    0    0 -0.19362623211E+02  0.56631714678E+01 -0.30771159024E+02  0.36794810509E+02  0.10566000000E+00 0. -1.
         22    1    1    0    0    0 -0.15343861195E+02  0.17384172822E+02 -0.13969768314E+02  0.27070241370E+02  0.00000000000E+00 0.  1.
</event>
<event>
 5    1  0.8943334E-005  0.9118800E+02  0.7818608E-02  0.1130116E+00
         25   -1    0    0    0    0  0.00000000000E+00  0.00000000000E+00  0.99999998245E-14  0.12500000000E+03  0.12500000000E+03 0.  0.
        -13    1    3    3    0    0 -0.90052512226E+01 -0.27203069983E+02  0.33296454202E+02  0.43929108715E+02  0.10566000000E+00 0.  1.
         23    2    1    0    0    0 -0.26460297055E+02  0.62240482232E+01 -0.46453867602E+01  0.97423457166E+02  0.93439094021E+02 0.  0.
         13    1    3    3    0    0 -0.17455045832E+02  0.33427118206E+02 -0.37941840962E+02  0.53494348451E+02  0.10566000000E+00 0. -1.
         22    1    1    0    0    0  0.26460297055E+02 -0.62240482232E+01  0.46453867602E+01  0.27576542834E+02  0.00000000000E+00 0. -1.
</event>
<event>
 5    1  0.8943334E-005  0.9118800E+02  0.7818608E-02  0.1130116E+00
         25   -1    0    0    0    0  0.00000000000E+00  0.00000000000E+00  0.99999998245E-14  0.12500000000E+03  0.12500000000E+03 0.  0.
        -13    1    3    3    0    0 -0.51149243621E+02 -0.34289018637E+02 -0.60413930851E+01  0.61874805184E+02  0.10566000000E+00 0. -1.
         23    2    1    0    0    0 -0.22867186787E+02 -0.18937151001E+02 -0.84081330522E+01  0.94141927782E+02  0.88940890177E+02 0.  0.
         13    1    3    3    0    0  0.28282056834E+02  0.15351867636E+02 -0.23667399671E+01  0.32267122598E+02  0.10566000000E+00 0.  1.
         22    1    1    0    0    0  0.22867186787E+02  0.18937151001E+02  0.84081330522E+01  0.30858072218E+02  0.00000000000E+00 0. -1.
</event>
<event>
 5    1  0.8943334E-005  0.9118800E+02  0.7818608E-02  0.1130116E+00
         25   -1    0    0    0    0  0.00000000000E+00  0.00000000000E+00  0.99999998245E-14  0.12500000000E+03  0.12500000000E+03 0.  0.
        -13    1    3    3    0    0  0.26245630740E+02  0.10728001830E+02 -0.18533031657E+02  0.33873405241E+02  0.10566000000E+00 0.  1.
         23    2    1    0    0    0 -0.30957822334E+02  0.34290062625E+01 -0.23710232246E+01  0.93762737016E+02  0.88406358674E+02 0.  0.
         13    1    3    3    0    0 -0.57203453073E+02 -0.72989955674E+01  0.16162008433E+02  0.59889331775E+02  0.10566000000E+00 0. -1.
         22    1    1    0    0    0  0.30957822334E+02 -0.34290062625E+01  0.23710232246E+01  0.31237262984E+02  0.00000000000E+00 0. -1.
</event>
<event>
 5    1  0.8943334E-005  0.9118800E+02  0.7818608E-02  0.1130116E+00
         25   -1    0    0    0    0  0.00000000000E+00  0.00000000000E+00  0.99999998245E-14  0.12500000000E+03  0.12500000000E+03 0.  0.
        -13    1    3    3    0    0  0.22802609918E+02  0.56169104954E+01  0.48351123511E+02  0.53752683759E+02  0.10566000000E+00 0.  1.
         23    2    1    0    0    0 -0.16057709463E+01 -0.17314427356E+02  0.24866074194E+02  0.94657133609E+02  0.89662051070E+02 0.  0.
         13    1    3    3    0    0 -0.24408380864E+02 -0.22931337851E+02 -0.23485049316E+02  0.40904449849E+02  0.10566000000E+00 0. -1.
         22    1    1    0    0    0  0.16057709463E+01  0.17314427356E+02 -0.24866074194E+02  0.30342866391E+02  0.00000000000E+00 0.  1.
</event>
<event>
 5    1  0.8943334E-005  0.9118800E+02  0.7818608E-02  0.1130116E+00
         25   -1    0    0    0    0  0.00000000000E+00  0.00000000000E+00  0.99999998245E-14  0.12500000000E+03  0.12500000000E+03 0.  0.
        -13    1    3    3    0    0  0.52233117899E+01 -0.52985364021E+02 -0.28330413868E+02  0.60310490799E+02  0.10566000000E+00 0.  1.
         23    2    1    0    0    0 -0.74737464351E+01 -0.28800372862E+02 -0.85316585214E+01  0.94046687417E+02  0.88806935845E+02 0.  0.
         13    1    3    3    0    0 -0.12697058225E+02  0.24184991159E+02  0.19798755346E+02  0.33736196618E+02  0.10566000000E+00 0. -1.
         22    1    1    0    0    0  0.74737464351E+01  0.28800372862E+02  0.85316585214E+01  0.30953312583E+02  0.00000000000E+00 0.  1.
</event>
<event>
 5    1  0.8943334E-005  0.9118800E+02  0.7818608E-02  0.1130116E+00
         25   -1    0    0    0    0  0.00000000000E+00  0.00000000000E+00  0.99999998245E-14  0.12500000000E+03  0.12500000000E+03 0.  0.
        -13    1    3    3    0    0  0.29097201762E+01 -0.52841667184E+02 -0.28061649357E+02  0.59901382212E+02  0.10566000000E+00 0.  1.
         23    2    1    0    0    0  0.85899956912E+01 -0.17991163167E+02 -0.21247978062E+02  0.95863312649E+02  0.91328134560E+02 0.  0.
         13    1    3    3    0    0  0.56802755150E+01  0.34850504017E+02  0.68136712943E+01  0.35961930437E+02  0.10566000000E+00 0. -1.
         22    1    1    0    0    0 -0.85899956912E+01  0.17991163167E+02  0.21247978062E+02  0.29136687351E+02  0.00000000000E+00 0.  1.
</event>
<event>
 5    1  0.8943334E-005  0.9118800E+02  0.7818608E-02  0.1130116E+00
         25   -1    0    0    0    0  0.00000000000E+00  0.00000000000E+00  0.99999998245E-14  0.12500000000E+03  0.12500000000E+03 0.  0.
        -13    1    3    3    0    0 -0.26619065251E+02 -0.24590857480E+02  0.14045055359E+02  0.38865918881E+02  0.10566000000E+00 0. -1.
         23    2    1    0    0    0  0.71680250835E+01  0.17064937811E+02  0.25282710959E+02  0.93666181855E+02  0.88269731300E+02 0.  0.
         13    1    3    3    0    0  0.33787090334E+02  0.41655795291E+02  0.11237655600E+02  0.54800262974E+02  0.10566000000E+00 0.  1.
         22    1    1    0    0    0 -0.71680250835E+01 -0.17064937811E+02 -0.25282710959E+02  0.31333818145E+02  0.00000000000E+00 0.  1.
</event>
<event>
 5    1  0.8943334E-005  0.9118800E+02  0.7818608E-02  0.1130116E+00
         25   -1    0    0    0    0  0.00000000000E+00  0.00000000000E+00  0.99999998245E-14  0.12500000000E+03  0.12500000000E+03 0.  0.
        -13    1    3    3    0    0 -0.10118476333E+02  0.30136261709E+02  0.16275303478E+02  0.35713785859E+02  0.10566000000E+00 0.  1.
         23    2    1    0    0    0  0.24343139628E+02 -0.54511359650E+01 -0.16479743885E+02  0.95102085545E+02  0.90280238072E+02 0.  0.
         13    1    3    3    0    0  0.34461615960E+02 -0.35587397674E+02 -0.32755047363E+02  0.59388299686E+02  0.10566000000E+00 0. -1.
         22    1    1    0    0    0 -0.24343139628E+02  0.54511359650E+01  0.16479743885E+02  0.29897914455E+02  0.00000000000E+00 0. -1.
</event>
<event>
 5    1  0.8943334E-005  0.9118800E+02  0.7818608E-02  0.1130116E+00
         25   -1    0    0    0    0  0.00000000000E+00  0.00000000000E+00  0.99999998245E-14  0.12500000000E+03  0.12500000000E+03 0.  0.
        -13    1    3    3    0    0  0.45575178712E+01 -0.34405421026E+02 -0.72366536893E+01  0.35452563882E+02  0.10566000000E+00 0.  1.
         23    2    1    0    0    0 -0.25389875415E+02  0.12098148625E+02 -0.17732317487E+02  0.91751751065E+02  0.85515716487E+02 0.  0.
         13    1    3    3    0    0 -0.29947393286E+02  0.46503569651E+02 -0.10495663798E+02  0.56299187184E+02  0.10566000000E+00 0. -1.
         22    1    1    0    0    0  0.25389875415E+02 -0.12098148625E+02  0.17732317487E+02  0.33248248935E+02  0.00000000000E+00 0. -1.
</event>
<event>
 5    1  0.8943334E-005  0.9118800E+02  0.7818608E-02  0.1130116E+00
         25   -1    0    0    0    0  0.00000000000E+00  0.00000000000E+00  0.99999998245E-14  0.12500000000E+03  0.12500000000E+03 0.  0.
        -13    1    3    3    0    0 -0.49469235089E+02 -0.43452998531E+01 -0.34068103426E+01  0.49776544395E+02  0.10566000000E+00 0.  1.
         23    2    1    0    0    0 -0.97768094996E+01 -0.43167612692E+01 -0.27007012898E+02  0.95955221166E+02  0.91453842409E+02 0.  0.
         13    1    3    3    0    0  0.39692425590E+02  0.28538583875E-01 -0.23600202556E+02  0.46178676771E+02  0.10566000000E+00 0. -1.
         22    1    1    0    0    0  0.97768094996E+01  0.43167612692E+01  0.27007012898E+02  0.29044778834E+02  0.00000000000E+00 0.  1.
</event>
<event>
 5    1  0.8943334E-005  0.9118800E+02  0.7818608E-02  0.1130116E+00
         25   -1    0    0    0    0  0.00000000000E+00  0.00000000000E+00  0.99999998245E-14  0.12500000000E+03  0.12500000000E+03 0.  0.
        -13    1    3    3    0    0  0.27815357126E+02 -0.32838403636E+02 -0.40246553430E+02  0.58922415705E+02  0.10566000000E+00 0. -1.
         23    2    1    0    0    0 -0.68138988658E+00 -0.15757454457E+02 -0.24912928170E+02  0.95514144864E+02  0.90848974765E+02 0.  0.
         13    1    3    3    0    0 -0.28496747013E+02  0.17080949180E+02  0.15333625260E+02  0.36591729159E+02  0.10566000000E+00 0.  1.
         22    1    1    0    0    0  0.68138988658E+00  0.15757454457E+02  0.24912928170E+02  0.29485855136E+02  0.00000000000E+00 0. -1.
</event>
<event>
 5    1  0.8943334E-005  0.9118800E+02  0.7818608E-02  0.1130116E+00
         25   -1    0    0    0    0  0.00000000000E+00  0.00000000000E+00  0.99999998245E-14  0.12500000000E+03  0.12500000000E+03 0.  0.
        -13    1    3    3    0    0 -0.28762388974E+02 -0.76839128005E+01 -0.49534917906E+02  0.57793051411E+02  0.10566000000E+00 0. -1.
         23    2    1    0    0    0 -0.89799346227E+01  0.13024195959E+02 -0.24526138377E+02  0.95814380769E+02  0.91261137360E+02 0.  0.
         13    1    3    3    0    0  0.19782454351E+02  0.20708108759E+02  0.25008779529E+02  0.38021329358E+02  0.10566000000E+00 0.  1.
         22    1    1    0    0    0  0.89799346227E+01 -0.13024195959E+02  0.24526138377E+02  0.29185619231E+02  0.00000000000E+00 0. -1.
</event>
<event>
 5    1  0.8943334E-005  0.9118800E+02  0.7818608E-02  0.1130116E+00
         25   -1    0    0    0    0  0.00000000000E+00  0.00000000000E+00  0.99999998245E-14  0.12500000000E+03  0.12500000000E+03 0.  0.
        -13    1    3    3    0    0  0.21723421255E+02 -0.18147941644E+02  0.29173463936E+02  0.40649194075E+02  0.10566000000E+00 0.  1.
         23    2    1    0    0    0 -0.16972751306E+02  0.18563825922E+02  0.14482332966E+02  0.95975391684E+02  0.91481407516E+02 0.  0.
         13    1    3    3    0    0 -0.38696172560E+02  0.36711767566E+02 -0.14691130970E+02  0.55326197609E+02  0.10566000000E+00 0. -1.
         22    1    1    0    0    0  0.16972751306E+02 -0.18563825922E+02 -0.14482332966E+02  0.29024608316E+02  0.00000000000E+00 0. -1.
</event>
<event>
 5    1  0.8943334E-005  0.9118800E+02  0.7818608E-02  0.1130116E+00
         25   -1    0    0    0    0  0.00000000000E+00  0.00000000000E+00  0.99999998245E-14  0.12500000000E+03  0.12500000000E+03 0.  0.
        -13    1    3    3    0    0  0.18688208449E+02  0.25850553868E+02  0.30801601863E+02  0.44342418875E+02  0.10566000000E+00 0. -1.
         23    2    1    0    0    0  0.21192523207E+02  0.14186082298E+02 -0.17483777194E+02  0.94079934738E+02  0.88853720712E+02 0.  0.
         13    1    3    3    0    0  0.25043147584E+01 -0.11664471570E+02 -0.48285379058E+02  0.49737515863E+02  0.10566000000E+00 0.  1.
         22    1    1    0    0    0 -0.21192523207E+02 -0.14186082298E+02  0.17483777194E+02  0.30920065262E+02  0.00000000000E+00 0.  1.
</event>
<event>
 5    1  0.8943334E-005  0.9118800E+02  0.7818608E-02  0.1130116E+00
         25   -1    0    0    0    0  0.00000000000E+00  0.00000000000E+00  0.99999998245E-14  0.12500000000E+03  0.12500000000E+03 0.  0.
        -13    1    3    3    0    0 -0.95999388996E+01 -0.34286545466E+00  0.41610149729E+02  0.42704708266E+02  0.10566000000E+00 0. -1.
         23    2    1    0    0    0 -0.18172471163E+02  0.24641596856E+02 -0.26712007499E+01  0.94265942064E+02  0.89115012853E+02 0.  0.
         13    1    3    3    0    0 -0.85725322632E+01  0.24984462311E+02 -0.44281350479E+02  0.51561233797E+02  0.10566000000E+00 0.  1.
         22    1    1    0    0    0  0.18172471163E+02 -0.24641596856E+02  0.26712007499E+01  0.30734057936E+02  0.00000000000E+00 0.  1.
</event>
<event>
 5    1  0.8943334E-005  0.9118800E+02  0.7818608E-02  0.1130116E+00
         25   -1    0    0    0    0  0.00000000000E+00  0.00000000000E+00  0.99999998245E-14  0.12500000000E+03  0.12500000000E+03 0.  0.
        -13    1    3    3    0    0 -0.10397818952E+02  0.37288757280E+02  0.16290212025E+02  0.41999383689E+02  0.10566000000E+00 0.  1.
         23    2    1    0    0    0  0.25096763406E+02  0.76228562513E+01 -0.11928058146E+02  0.96186217847E+02  0.91769027791E+02 0.  0.
         13    1    3    3    0    0  0.35494582357E+02 -0.29665901028E+02 -0.28218270171E+02  0.54186834157E+02  0.10566000000E+00 0. -1.
         22    1    1    0    0    0 -0.25096763406E+02 -0.76228562513E+01  0.11928058146E+02  0.28813782153E+02  0.00000000000E+00 0. -1.
</event>
<event>
 5    1  0.8943334E-005  0.9118800E+02  0.7818608E-02  0.1130116E+00
         25   -1    0    0    0    0  0.00000000000E+00  0.00000000000E+00  0.99999998245E-14  0.12500000000E+03  0.12500000000E+03 0.  0.
        -13    1    3    3    0    0  0.36086266857E+02 -0.94148974196E+01  0.17489179980E+02  0.41191522544E+02  0.10566000000E+00 0. -1.
         23    2    1    0    0    0  0.21651154899E+02  0.31689170351E+02  0.90860826206E+01  0.85559755029E+02  0.75927193792E+02 0.  0.
         13    1    3    3    0    0 -0.14435111957E+02  0.41104067771E+02 -0.84030973599E+01  0.44368232484E+02  0.10566000000E+00 0.  1.
         22    1    1    0    0    0 -0.21651154899E+02 -0.31689170351E+02 -0.90860826206E+01  0.39440244971E+02  0.00000000000E+00 0. -1.
</event>
<event>
 5    1  0.8943334E-005  0.9118800E+02  0.7818608E-02  0.1130116E+00
         25   -1    0    0    0    0  0.00000000000E+00  0.00000000000E+00  0.99999998245E-14  0.12500000000E+03  0.12500000000E+03 0.  0.
        -13    1    3    3    0    0  0.20081811828E+02  0.12403274894E+02  0.34727297951E+02  0.41989484177E+02  0.10566000000E+00 0.  1.
         23    2    1    0    0    0 -0.20056961111E+02  0.22359416729E+02  0.16993881212E+01  0.94914901937E+02  0.90020694755E+02 0.  0.
         13    1    3    3    0    0 -0.40138772939E+02  0.99561418350E+01 -0.33027909830E+02  0.52925417760E+02  0.10566000000E+00 0. -1.
         22    1    1    0    0    0  0.20056961111E+02 -0.22359416729E+02 -0.16993881212E+01  0.30085098063E+02  0.00000000000E+00 0. -1.
</event>
<event>
 5    1  0.8943334E-005  0.9118800E+02  0.7818608E-02  0.1130116E+00
         25   -1    0    0    0    0  0.00000000000E+00  0.00000000000E+00  0.99999998245E-14  0.12500000000E+03  0.12500000000E+03 0.  0.
        -13    1    3    3    0    0 -0.11317002808E+02 -0.38557760444E+02  0.45548320987E+02  0.60740728937E+02  0.10566000000E+00 0. -1.
         23    2    1    0    0    0 -0.51502905682E+01 -0.90052198543E+01  0.26761219689E+02  0.96298391041E+02  0.91921693633E+02 0.  0.
         13    1    3    3    0    0  0.61667122399E+01  0.29552540590E+02 -0.18787101298E+02  0.35557662105E+02  0.10566000000E+00 0.  1.
         22    1    1    0    0    0  0.51502905682E+01  0.90052198543E+01 -0.26761219689E+02  0.28701608959E+02  0.00000000000E+00 0. -1.
</event>
<event>
 5    1  0.8943334E-005  0.9118800E+02  0.7818608E-02  0.1130116E+00
         25   -1    0    0    0    0  0.00000000000E+00  0.00000000000E+00  0.99999998245E-14  0.12500000000E+03  0.12500000000E+03 0.  0.
        -13    1    3    3    0    0  0.18762890118E+02  0.36166190442E+02 -0.77820655144E+01  0.41480249329E+02  0.10566000000E+00 0. -1.
         23    2    1    0    0    0  0.10344473620E+02 -0.37504334985E+01  0.27477605277E+02  0.95401137224E+02  0.90693353152E+02 0.  0.
         13    1    3    3    0    0 -0.84184164985E+01 -0.39916623940E+02  0.35259670791E+02  0.53920887896E+02  0.10566000000E+00 0.  1.
         22    1    1    0    0    0 -0.10344473620E+02  0.37504334985E+01 -0.27477605277E+02  0.29598862776E+02  0.00000000000E+00 0.  1.
</event>
<event>
 5    1  0.8943334E-005  0.9118800E+02  0.7818608E-02  0.1130116E+00
         25   -1    0    0    0    0  0.00000000000E+00  0.00000000000E+00  0.99999998245E-14  0.12500000000E+03  0.12500000000E+03 0.  0.
        -13    1    3    3    0    0 -0.51260850241E+02 -0.31420049324E+02 -0.12862917265E+02  0.61484632808E+02  0.10566000000E+00 0. -1.
         23    2    1    0    0    0 -0.21216489860E+02 -0.16324338943E+02 -0.13293665716E+02  0.95111121933E+02  0.90292748786E+02 0.  0.
         13    1    3    3    0    0  0.30044360381E+02  0.15095710381E+02 -0.43074845096E+00  0.33626489125E+02  0.10566000000E+00 0.  1.
         22    1    1    0    0    0  0.21216489860E+02  0.16324338943E+02  0.13293665716E+02  0.29888878067E+02  0.00000000000E+00 0. -1.
</event>
<event>
 5    1  0.8943334E-005  0.9118800E+02  0.7818608E-02  0.1130116E+00
         25   -1    0    0    0    0  0.00000000000E+00  0.00000000000E+00  0.99999998245E-14  0.12500000000E+03  0.12500000000E+03 0.  0.
        -13    1    3    3    0    0  0.11000197816E+02 -0.37232341297E+02 -0.34523315352E+02  0.51953075533E+02  0.10566000000E+00 0. -1.
         23    2    1    0    0    0  0.22308400152E+02  0.21902536264E+01 -0.18319632715E+02  0.96050546273E+02  0.91584041012E+02 0.  0.
         13    1    3    3    0    0  0.11308202337E+02  0.39422594923E+02  0.16203682637E+02  0.44097470739E+02  0.10566000000E+00 0.  1.
         22    1    1    0    0    0 -0.22308400152E+02 -0.21902536264E+01  0.18319632715E+02  0.28949453727E+02  0.00000000000E+00 0.  1.
</event>
<event>
 5    1  0.8943334E-005  0.9118800E+02  0.7818608E-02  0.1130116E+00
         25   -1    0    0    0    0  0.00000000000E+00  0.00000000000E+00  0.99999998245E-14  0.12500000000E+03  0.12500000000E+03 0.  0.
        -13    1    3    3    0    0  0.41561600430E+02  0.16028479717E+02 -0.14023400921E+02  0.46700596675E+02  0.10566000000E+00 0.  1.
         23    2    1    0    0    0 -0.19505161277E+01  0.28828138710E+02  0.46206547051E+01  0.95738821887E+02  0.91157585925E+02 0.  0.
         13    1    3    3    0    0 -0.43512116558E+02  0.12799658993E+02  0.18644055626E+02  0.49038225212E+02  0.10566000000E+00 0. -1.
         22    1    1    0    0    0  0.19505161277E+01 -0.28828138710E+02 -0.46206547051E+01  0.29261178113E+02  0.00000000000E+00 0.  1.
</event>
<event>
 5    1  0.8943334E-005  0.9118800E+02  0.7818608E-02  0.1130116E+00
         25   -1    0    0    0    0  0.00000000000E+00  0.00000000000E+00  0.99999998245E-14  0.12500000000E+03  0.12500000000E+03 0.  0.
        -13    1    3    3    0    0 -0.49112261491E+00  0.46019400868E+02 -0.21883462146E+02  0.50960019007E+02  0.10566000000E+00 0. -1.
         23    2    1    0    0    0  0.23555407559E+02  0.89619426024E+01 -0.15006663100E+02  0.95667874644E+02  0.91060247425E+02 0.  0.
         13    1    3    3    0    0  0.24046530174E+02 -0.37057458266E+02  0.68767990461E+01  0.44707855637E+02  0.10566000000E+00 0.  1.
         22    1    1    0    0    0 -0.23555407559E+02 -0.89619426024E+01  0.15006663100E+02  0.29332125356E+02  0.00000000000E+00 0.  1.
</event>
<event>
 5    1  0.8943334E-005  0.9118800E+02  0.7818608E-02  0.1130116E+00
         25   -1    0    0    0    0  0.00000000000E+00  0.00000000000E+00  0.99999998245E-14  0.12500000000E+03  0.12500000000E+03 0.  0.
        -13    1    3    3    0    0 -0.13524573284E+02 -0.21791737835E+02  0.26431607431E+02  0.36829810695E+02  0.10566000000E+00 0.  1.
         23    2    1    0    0    0  0.24378177468E+02 -0.86456618434E+01 -0.15486849320E+02  0.94852271940E+02  0.89933686597E+02 0.  0.
         13    1    3    3    0    0  0.37902750751E+02  0.13146075991E+02 -0.41918456751E+02  0.58022461245E+02  0.10566000000E+00 0. -1.
         22    1    1    0    0    0 -0.24378177468E+02  0.86456618434E+01  0.15486849320E+02  0.30147728060E+02  0.00000000000E+00 0. -1.
</event>
<event>
 5    1  0.8943334E-005  0.9118800E+02  0.7818608E-02  0.1130116E+00
         25   -1    0    0    0    0  0.00000000000E+00  0.00000000000E+00  0.99999998245E-14  0.12500000000E+03  0.12500000000E+03 0.  0.
        -13    1    3    3    0    0  0.12497509371E+02 -0.70630076344E+01 -0.45324529230E+02  0.47543642386E+02  0.10566000000E+00 0. -1.
         23    2    1    0    0    0 -0.19228278176E+01  0.25828031647E+02 -0.12319389512E+02  0.96319835364E+02  0.91950850138E+02 0.  0.
         13    1    3    3    0    0 -0.14420337189E+02  0.32891039281E+02  0.33005139718E+02  0.48776192979E+02  0.10566000000E+00 0.  1.
         22    1    1    0    0    0  0.19228278176E+01 -0.25828031647E+02  0.12319389512E+02  0.28680164636E+02  0.00000000000E+00 0.  1.
</event>
<event>
 5    1  0.8943334E-005  0.9118800E+02  0.7818608E-02  0.1130116E+00
         25   -1    0    0    0    0  0.00000000000E+00  0.00000000000E+00  0.99999998245E-14  0.12500000000E+03  0.12500000000E+03 0.  0.
        -13    1    3    3    0    0 -0.13251130832E+01 -0.22139184005E+02 -0.40426400753E+02  0.46110784368E+02  0.10566000000E+00 0. -1.
         23    2    1    0    0    0  0.13416907246E+02 -0.28928374057E+02  0.34812318315E+01  0.92922231986E+02  0.87209850342E+02 0.  0.
         13    1    3    3    0    0  0.14742020329E+02 -0.67891900521E+01  0.43907632585E+02  0.46811447619E+02  0.10566000000E+00 0.  1.
         22    1    1    0    0    0 -0.13416907246E+02  0.28928374057E+02 -0.34812318315E+01  0.32077768014E+02  0.00000000000E+00 0. -1.
</event>
<event>
 5    1  0.8943334E-005  0.9118800E+02  0.7818608E-02  0.1130116E+00
         25   -1    0    0    0    0  0.00000000000E+00  0.00000000000E+00  0.99999998245E-14  0.12500000000E+03  0.12500000000E+03 0.  0.
        -13    1    3    3    0    0 -0.27374651446E+02  0.77465212605E+01 -0.28720196365E+02  0.40425746459E+02  0.10566000000E+00 0. -1.
         23    2    1    0    0    0 -0.90102859721E+00  0.23434040324E+02  0.17350106539E+02  0.95828227765E+02  0.91280101562E+02 0.  0.
         13    1    3    3    0    0  0.26473622849E+02  0.15687519064E+02  0.46070302904E+02  0.55402481306E+02  0.10566000000E+00 0.  1.
         22    1    1    0    0    0  0.90102859721E+00 -0.23434040324E+02 -0.17350106539E+02  0.29171772235E+02  0.00000000000E+00 0.  1.
</event>
<event>
 5    1  0.8943334E-005  0.9118800E+02  0.7818608E-02  0.1130116E+00
         25   -1    0    0    0    0  0.00000000000E+00  0.00000000000E+00  0.99999998245E-14  0.12500000000E+03  0.12500000000E+03 0.  0.
        -13    1    3    3    0    0  0.24767172935E+01  0.48349236596E+02 -0.56336291306E+01  0.48739427051E+02  0.10566000000E+00 0. -1.
         23    2    1    0    0    0  0.20924123242E+02  0.47290576519E+01 -0.17213987450E+02  0.97495377049E+02  0.93535256787E+02 0.  0.
         13    1    3    3    0    0  0.18447405949E+02 -0.43620178945E+02 -0.11580358320E+02  0.48755949998E+02  0.10566000000E+00 0.  1.
         22    1    1    0    0    0 -0.20924123242E+02 -0.47290576519E+01  0.17213987450E+02  0.27504622951E+02  0.00000000000E+00 0. -1.
</event>
<event>
 5    1  0.8943334E-005  0.9118800E+02  0.7818608E-02  0.1130116E+00
         25   -1    0    0    0    0  0.00000000000E+00  0.00000000000E+00  0.99999998245E-14  0.12500000000E+03  0.12500000000E+03 0.  0.
        -13    1    3    3    0    0 -0.30135358092E+02 -0.45632369880E+02 -0.11217764484E+02  0.55823851463E+02  0.10566000000E+00 0. -1.
         23    2    1    0    0    0 -0.22366691673E+02 -0.52265295079E+01 -0.15647113116E+02  0.97207597154E+02  0.93149875408E+02 0.  0.
         13    1    3    3    0    0  0.77686664190E+01  0.40405840372E+02 -0.44293486315E+01  0.41383745691E+02  0.10566000000E+00 0.  1.
         22    1    1    0    0    0  0.22366691673E+02  0.52265295079E+01  0.15647113116E+02  0.27792402846E+02  0.00000000000E+00 0. -1.
</event>
<event>
 5    1  0.8943334E-005  0.9118800E+02  0.7818608E-02  0.1130116E+00
         25   -1    0    0    0    0  0.00000000000E+00  0.00000000000E+00  0.99999998245E-14  0.12500000000E+03  0.12500000000E+03 0.  0.
        -13    1    3    3    0    0  0.99687185681E+01 -0.37318950900E+02  0.48177754473E+02  0.61751005144E+02  0.10566000000E+00 0.  1.
         23    2    1    0    0    0  0.79532094417E+01 -0.12006073097E+02  0.25088369437E+02  0.96072061728E+02  0.91613402033E+02 0.  0.
         13    1    3    3    0    0 -0.20155091264E+01  0.25312877803E+02 -0.23089385036E+02  0.34321056584E+02  0.10566000000E+00 0. -1.
         22    1    1    0    0    0 -0.79532094417E+01  0.12006073097E+02 -0.25088369437E+02  0.28927938272E+02  0.00000000000E+00 0.  1.
</event>
<event>
 5    1  0.8943334E-005  0.9118800E+02  0.7818608E-02  0.1130116E+00
         25   -1    0    0    0    0  0.00000000000E+00  0.00000000000E+00  0.99999998245E-14  0.12500000000E+03  0.12500000000E+03 0.  0.
        -13    1    3    3    0    0  0.36085295314E+02 -0.42412807934E+01  0.32456488271E+02  0.48719316452E+02  0.10566000000E+00 0. -1.
         23    2    1    0    0    0  0.11749564449E+02 -0.28302447507E+02  0.24086656278E+01  0.94261059392E+02  0.89108163756E+02 0.  0.
         13    1    3    3    0    0 -0.24335730864E+02 -0.24061166713E+02 -0.30047822644E+02  0.45541742939E+02  0.10566000000E+00 0.  1.
         22    1    1    0    0    0 -0.11749564449E+02  0.28302447507E+02 -0.24086656278E+01  0.30738940608E+02  0.00000000000E+00 0. -1.
</event>
<event>
 5    1  0.8943334E-005  0.9118800E+02  0.7818608E-02  0.1130116E+00
         25   -1    0    0    0    0  0.00000000000E+00  0.00000000000E+00  0.99999998245E-14  0.12500000000E+03  0.12500000000E+03 0.  0.
        -13    1    3    3    0    0 -0.13718131310E+02  0.33632521896E+02 -0.44755585010E+02  0.57640326243E+02  0.10566000000E+00 0. -1.
         23    2    1    0    0    0 -0.21869218033E+02  0.90359407199E+01 -0.15542743148E+02  0.96689440369E+02  0.92451933957E+02 0.  0.
         13    1    3    3    0    0 -0.81510867223E+01 -0.24596581177E+02  0.29212841862E+02  0.39049114126E+02  0.10566000000E+00 0.  1.
         22    1    1    0    0    0  0.21869218033E+02 -0.90359407199E+01  0.15542743148E+02  0.28310559631E+02  0.00000000000E+00 0. -1.
</event>
<event>
 5    1  0.8943334E-005  0.9118800E+02  0.7818608E-02  0.1130116E+00
         25   -1    0    0    0    0  0.00000000000E+00  0.00000000000E+00  0.99999998245E-14  0.12500000000E+03  0.12500000000E+03 0.  0.
        -13    1    3    3    0    0 -0.34685352102E+02  0.37269947942E+02 -0.71022024929E+01  0.51405983254E+02  0.10566000000E+00 0.  1.
         23    2    1    0    0    0 -0.24942737488E+02  0.41341256879E+01  0.17880810139E+02  0.94033009190E+02  0.88787681001E+02 0.  0.
         13    1    3    3    0    0  0.97426146143E+01 -0.33135822254E+02  0.24983012632E+02  0.42627025936E+02  0.10566000000E+00 0. -1.
         22    1    1    0    0    0  0.24942737488E+02 -0.41341256879E+01 -0.17880810139E+02  0.30966990810E+02  0.00000000000E+00 0.  1.
</event>
<event>
 5    1  0.8943334E-005  0.9118800E+02  0.7818608E-02  0.1130116E+00
         25   -1    0    0    0    0  0.00000000000E+00  0.00000000000E+00  0.99999998245E-14  0.12500000000E+03  0.12500000000E+03 0.  0.
        -13    1    3    3    0    0  0.28258712429E+02 -0.50669818773E+02  0.17677854910E+02  0.60650664307E+02  0.10566000000E+00 0. -1.
         23    2    1    0    0    0  0.50470609267E+01 -0.26872067178E+02  0.14514792760E+02  0.94044224653E+02  0.88803469321E+02 0.  0.
         13    1    3    3    0    0 -0.23211651502E+02  0.23797751594E+02 -0.31630621500E+01  0.33393560347E+02  0.10566000000E+00 0.  1.
         22    1    1    0    0    0 -0.50470609267E+01  0.26872067178E+02 -0.14514792760E+02  0.30955775347E+02  0.00000000000E+00 0. -1.
</event>
<event>
 5    1  0.8943334E-005  0.9118800E+02  0.7818608E-02  0.1130116E+00
         25   -1    0    0    0    0  0.00000000000E+00  0.00000000000E+00  0.99999998245E-14  0.12500000000E+03  0.12500000000E+03 0.  0.
        -13    1    3    3    0    0 -0.39537799839E+02 -0.12522866925E+02  0.38332783206E+02  0.56475421597E+02  0.10566000000E+00 0. -1.
         23    2    1    0    0    0 -0.29202639306E+02 -0.77664631239E+01  0.18114123964E+01  0.94728011186E+02  0.89760808800E+02 0.  0.
         13    1    3    3    0    0  0.10335160533E+02  0.47564038012E+01 -0.36521370810E+02  0.38252589589E+02  0.10566000000E+00 0.  1.
         22    1    1    0    0    0  0.29202639306E+02  0.77664631239E+01 -0.18114123964E+01  0.30271988814E+02  0.00000000000E+00 0. -1.
</event>
<event>
 5    1  0.8943334E-005  0.9118800E+02  0.7818608E-02  0.1130116E+00
         25   -1    0    0    0    0  0.00000000000E+00  0.00000000000E+00  0.99999998245E-14  0.12500000000E+03  0.12500000000E+03 0.  0.
        -13    1    3    3    0    0 -0.24298593481E+02 -0.39611554454E+02  0.25506681547E+02  0.53010365581E+02  0.10566000000E+00 0. -1.
         23    2    1    0    0    0 -0.22958460708E+02 -0.13556588797E+02 -0.95230394023E+01  0.96688159768E+02  0.92450202498E+02 0.  0.
         13    1    3    3    0    0  0.13401327738E+01  0.26054965657E+02 -0.35029720949E+02  0.43677794187E+02  0.10566000000E+00 0.  1.
         22    1    1    0    0    0  0.22958460708E+02  0.13556588797E+02  0.95230394023E+01  0.28311840232E+02  0.00000000000E+00 0. -1.
</event>
<event>
 5    1  0.8943334E-005  0.9118800E+02  0.7818608E-02  0.1130116E+00
         25   -1    0    0    0    0  0.00000000000E+00  0.00000000000E+00  0.99999998245E-14  0.12500000000E+03  0.12500000000E+03 0.  0.
        -13    1    3    3    0    0 -0.45589257158E+02 -0.27959120914E+02 -0.19694144394E+02  0.56990905397E+02  0.10566000000E+00 0.  1.
         23    2    1    0    0    0 -0.98702213259E+01 -0.26580688191E+02 -0.28607616206E+01  0.96501961282E+02  0.92198103671E+02 0.  0.
         13    1    3    3    0    0  0.35719035832E+02  0.13784327234E+01  0.16833382774E+02  0.39511055885E+02  0.10566000000E+00 0. -1.
         22    1    1    0    0    0  0.98702213259E+01  0.26580688191E+02  0.28607616206E+01  0.28498038718E+02  0.00000000000E+00 0.  1.
</event>
<event>
 5    1  0.8943334E-005  0.9118800E+02  0.7818608E-02  0.1130116E+00
         25   -1    0    0    0    0  0.00000000000E+00  0.00000000000E+00  0.99999998245E-14  0.12500000000E+03  0.12500000000E+03 0.  0.
        -13    1    3    3    0    0 -0.54289630611E+01 -0.42110801424E+02 -0.31321358253E+02  0.52762030698E+02  0.10566000000E+00 0. -1.
         23    2    1    0    0    0 -0.25362844412E+02 -0.13262111973E+02 -0.67094955834E+01  0.95603149461E+02  0.90971354641E+02 0.  0.
         13    1    3    3    0    0 -0.19933881351E+02  0.28848689451E+02  0.24611862669E+02  0.42841118763E+02  0.10566000000E+00 0.  1.
         22    1    1    0    0    0  0.25362844412E+02  0.13262111973E+02  0.67094955834E+01  0.29396850539E+02  0.00000000000E+00 0. -1.
</event>
<event>
 5    1  0.8943334E-005  0.9118800E+02  0.7818608E-02  0.1130116E+00
         25   -1    0    0    0    0  0.00000000000E+00  0.00000000000E+00  0.99999998245E-14  0.12500000000E+03  0.12500000000E+03 0.  0.
        -13    1    3    3    0    0  0.45585349137E+02 -0.19420789906E+02  0.30325826054E+02  0.58093528266E+02  0.10566000000E+00 0. -1.
         23    2    1    0    0    0  0.20198484292E+02  0.71988200824E+01  0.18346253945E+02  0.96779673777E+02  0.92573854000E+02 0.  0.
         13    1    3    3    0    0 -0.25386864845E+02  0.26619609989E+02 -0.11979572108E+02  0.38686145511E+02  0.10566000000E+00 0.  1.
         22    1    1    0    0    0 -0.20198484292E+02 -0.71988200824E+01 -0.18346253945E+02  0.28220326223E+02  0.00000000000E+00 0. -1.
</event>
<event>
 5    1  0.8943334E-005  0.9118800E+02  0.7818608E-02  0.1130116E+00
         25   -1    0    0    0    0  0.00000000000E+00  0.00000000000E+00  0.99999998245E-14  0.12500000000E+03  0.12500000000E+03 0.  0.
        -13    1    3    3    0    0  0.32679050357E+02  0.15734578269E+02  0.21798686209E+02  0.42316559052E+02  0.10566000000E+00 0. -1.
         23    2    1    0    0    0  0.23427787439E+01 -0.26602005617E+02  0.13566598997E+02  0.95046570757E+02  0.90203340787E+02 0.  0.
         13    1    3    3    0    0 -0.30336271613E+02 -0.42336583885E+02 -0.82320872124E+01  0.52730011705E+02  0.10566000000E+00 0.  1.
         22    1    1    0    0    0 -0.23427787439E+01  0.26602005617E+02 -0.13566598997E+02  0.29953429243E+02  0.00000000000E+00 0.  1.
</event>
<event>
 5    1  0.8943334E-005  0.9118800E+02  0.7818608E-02  0.1130116E+00
         25   -1    0    0    0    0  0.00000000000E+00  0.00000000000E+00  0.99999998245E-14  0.12500000000E+03  0.12500000000E+03 0.  0.
        -13    1    3    3    0    0 -0.56694666642E+01 -0.52321011982E+02  0.45345316043E+01  0.52822384346E+02  0.10566000000E+00 0. -1.
         23    2    1    0    0    0 -0.14400496281E+02 -0.22362920503E+02 -0.19340886425E+02  0.92113157733E+02  0.86042369989E+02 0.  0.
         13    1    3    3    0    0 -0.87310296172E+01  0.29958091479E+02 -0.23875418030E+02  0.39290773387E+02  0.10566000000E+00 0.  1.
         22    1    1    0    0    0  0.14400496281E+02  0.22362920503E+02  0.19340886425E+02  0.32886842267E+02  0.00000000000E+00 0. -1.
</event>
<event>
 5    1  0.8943334E-005  0.9118800E+02  0.7818608E-02  0.1130116E+00
         25   -1    0    0    0    0  0.00000000000E+00  0.00000000000E+00  0.99999998245E-14  0.12500000000E+03  0.12500000000E+03 0.  0.
        -13    1    3    3    0    0  0.35172002911E+02  0.10885725298E+02 -0.33172268687E+02  0.49557838713E+02  0.10566000000E+00 0.  1.
         23    2    1    0    0    0 -0.34019479482E+01 -0.15065283860E+02 -0.23236803492E+02  0.97098654796E+02  0.93003568206E+02 0.  0.
         13    1    3    3    0    0 -0.38573950859E+02 -0.25951009158E+02  0.99354651951E+01  0.47540816083E+02  0.10566000000E+00 0. -1.
         22    1    1    0    0    0  0.34019479482E+01  0.15065283860E+02  0.23236803492E+02  0.27901345204E+02  0.00000000000E+00 0.  1.
</event>
<event>
 5    1  0.8943334E-005  0.9118800E+02  0.7818608E-02  0.1130116E+00
         25   -1    0    0    0    0  0.00000000000E+00  0.00000000000E+00  0.99999998245E-14  0.12500000000E+03  0.12500000000E+03 0.  0.
        -13    1    3    3    0    0  0.17153541023E+02  0.24814147717E+02 -0.17102645074E+02  0.34677046142E+02  0.10566000000E+00 0. -1.
         23    2    1    0    0    0  0.17587262221E+02 -0.16864915545E+02 -0.36867965413E+02  0.80807420957E+02  0.67652459226E+02 0.  0.
         13    1    3    3    0    0  0.43372119783E+00 -0.41679063263E+02 -0.19765320339E+02  0.46130374816E+02  0.10566000000E+00 0.  1.
         22    1    1    0    0    0 -0.17587262221E+02  0.16864915545E+02  0.36867965413E+02  0.44192579043E+02  0.00000000000E+00 0.  1.
</event>
<event>
 5    1  0.8943334E-005  0.9118800E+02  0.7818608E-02  0.1130116E+00
         25   -1    0    0    0    0  0.00000000000E+00  0.00000000000E+00  0.99999998245E-14  0.12500000000E+03  0.12500000000E+03 0.  0.
        -13    1    3    3    0    0 -0.20073928155E+01 -0.27149380460E+02  0.35410895305E+02  0.44666107460E+02  0.10566000000E+00 0.  1.
         23    2    1    0    0    0 -0.15863929287E+02 -0.36887184148E+02 -0.10112988338E+01  0.84833455064E+02  0.74721909545E+02 0.  0.
         13    1    3    3    0    0 -0.13856536471E+02 -0.97378036872E+01 -0.36422194139E+02  0.40167347604E+02  0.10566000000E+00 0. -1.
         22    1    1    0    0    0  0.15863929287E+02  0.36887184148E+02  0.10112988338E+01  0.40166544936E+02  0.00000000000E+00 0.  1.
</event>
<event>
 5    1  0.8943334E-005  0.9118800E+02  0.7818608E-02  0.1130116E+00
         25   -1    0    0    0    0  0.00000000000E+00  0.00000000000E+00  0.99999998245E-14  0.12500000000E+03  0.12500000000E+03 0.  0.
        -13    1    3    3    0    0  0.25078689719E+02  0.20592984383E+02  0.50469533693E+02  0.60001638969E+02  0.10566000000E+00 0.  1.
         23    2    1    0    0    0  0.23128766806E+02  0.15345872098E+02  0.20489609149E+02  0.90499859022E+02  0.83665792027E+02 0.  0.
         13    1    3    3    0    0 -0.19499229130E+01 -0.52471122846E+01 -0.29979924544E+02  0.30498220053E+02  0.10566000000E+00 0. -1.
         22    1    1    0    0    0 -0.23128766806E+02 -0.15345872098E+02 -0.20489609149E+02  0.34500140978E+02  0.00000000000E+00 0.  1.
</event>
<event>
 5    1  0.8943334E-005  0.9118800E+02  0.7818608E-02  0.1130116E+00
         25   -1    0    0    0    0  0.00000000000E+00  0.00000000000E+00  0.99999998245E-14  0.12500000000E+03  0.12500000000E+03 0.  0.
        -13    1    3    3    0    0  0.10783275133E+02  0.52484010381E+02  0.16344887387E+02  0.56018004927E+02  0.10566000000E+00 0.  1.
         23    2    1    0    0    0  0.23220951054E+02  0.18447497246E+02  0.11263946344E+01  0.95321868533E+02  0.90584033546E+02 0.  0.
         13    1    3    3    0    0  0.12437675921E+02 -0.34036513135E+02 -0.15218492752E+02  0.39303863607E+02  0.10566000000E+00 0. -1.
         22    1    1    0    0    0 -0.23220951054E+02 -0.18447497246E+02 -0.11263946344E+01  0.29678131467E+02  0.00000000000E+00 0.  1.
</event>
<event>
 5    1  0.8943334E-005  0.9118800E+02  0.7818608E-02  0.1130116E+00
         25   -1    0    0    0    0  0.00000000000E+00  0.00000000000E+00  0.99999998245E-14  0.12500000000E+03  0.12500000000E+03 0.  0.
        -13    1    3    3    0    0  0.34903897352E+02 -0.28204653690E+02  0.16716093882E+02  0.47887613209E+02  0.10566000000E+00 0.  1.
         23    2    1    0    0    0  0.60288294859E+01  0.73521454216E+01  0.28309354474E+02  0.95136638200E+02  0.90328066236E+02 0.  0.
         13    1    3    3    0    0 -0.28875067866E+02  0.35556799112E+02  0.11593260593E+02  0.47249024991E+02  0.10566000000E+00 0. -1.
         22    1    1    0    0    0 -0.60288294859E+01 -0.73521454216E+01 -0.28309354474E+02  0.29863361800E+02  0.00000000000E+00 0. -1.
</event>
<event>
 5    1  0.8943334E-005  0.9118800E+02  0.7818608E-02  0.1130116E+00
         25   -1    0    0    0    0  0.00000000000E+00  0.00000000000E+00  0.99999998245E-14  0.12500000000E+03  0.12500000000E+03 0.  0.
        -13    1    3    3    0    0  0.59141708962E+02  0.11148297814E+02  0.89107569859E+01  0.60839452966E+02  0.10566000000E+00 0. -1.
         23    2    1    0    0    0  0.27889478512E+02 -0.49333518767E+01  0.24911427107E+01  0.96568208561E+02  0.92287876453E+02 0.  0.
         13    1    3    3    0    0 -0.31252230450E+02 -0.16081649691E+02 -0.64196142752E+01  0.35728755595E+02  0.10566000000E+00 0.  1.
         22    1    1    0    0    0 -0.27889478512E+02  0.49333518767E+01 -0.24911427107E+01  0.28431791439E+02  0.00000000000E+00 0. -1.
</event>
<event>
 5    1  0.8943334E-005  0.9118800E+02  0.7818608E-02  0.1130116E+00
         25   -1    0    0    0    0  0.00000000000E+00  0.00000000000E+00  0.99999998245E-14  0.12500000000E+03  0.12500000000E+03 0.  0.
        -13    1    3    3    0    0 -0.28660669574E+02 -0.10667844347E+02  0.45430289783E+02  0.54764580499E+02  0.10566000000E+00 0.  1.
         23    2    1    0    0    0 -0.83785256201E+01 -0.25914063524E+02  0.16890998858E+02  0.92952469326E+02  0.87253179492E+02 0.  0.
         13    1    3    3    0    0  0.20282143954E+02 -0.15246219177E+02 -0.28539290925E+02  0.38187888827E+02  0.10566000000E+00 0. -1.
         22    1    1    0    0    0  0.83785256201E+01  0.25914063524E+02 -0.16890998858E+02  0.32047530674E+02  0.00000000000E+00 0.  1.
</event>
<event>
 5    1  0.8943334E-005  0.9118800E+02  0.7818608E-02  0.1130116E+00
         25   -1    0    0    0    0  0.00000000000E+00  0.00000000000E+00  0.99999998245E-14  0.12500000000E+03  0.12500000000E+03 0.  0.
        -13    1    3    3    0    0 -0.13715398040E+02 -0.31646225193E+02 -0.23158431071E+02  0.41544191003E+02  0.10566000000E+00 0.  1.
         23    2    1    0    0    0 -0.12351565984E+02 -0.12072452985E+02  0.25609056061E+02  0.94111020482E+02  0.88897441586E+02 0.  0.
         13    1    3    3    0    0  0.13638320564E+01  0.19573772208E+02  0.48767487132E+02  0.52566829479E+02  0.10566000000E+00 0. -1.
         22    1    1    0    0    0  0.12351565984E+02  0.12072452985E+02 -0.25609056061E+02  0.30888979518E+02  0.00000000000E+00 0. -1.
</event>
<event>
 5    1  0.8943334E-005  0.9118800E+02  0.7818608E-02  0.1130116E+00
         25   -1    0    0    0    0  0.00000000000E+00  0.00000000000E+00  0.99999998245E-14  0.12500000000E+03  0.12500000000E+03 0.  0.
        -13    1    3    3    0    0 -0.26550375936E+02  0.92034156555E+01 -0.35949215838E-01  0.28100494274E+02  0.10566000000E+00 0.  1.
         23    2    1    0    0    0  0.33087674665E+02  0.84037109784E+01 -0.11774738598E+02  0.88888214639E+02  0.81222248551E+02 0.  0.
         13    1    3    3    0    0  0.59638050600E+02 -0.79970467708E+00 -0.11738789382E+02  0.60787720365E+02  0.10566000000E+00 0. -1.
         22    1    1    0    0    0 -0.33087674665E+02 -0.84037109784E+01  0.11774738598E+02  0.36111785361E+02  0.00000000000E+00 0. -1.
</event>
<event>
 5    1  0.8943334E-005  0.9118800E+02  0.7818608E-02  0.1130116E+00
         25   -1    0    0    0    0  0.00000000000E+00  0.00000000000E+00  0.99999998245E-14  0.12500000000E+03  0.12500000000E+03 0.  0.
        -13    1    3    3    0    0  0.17239064433E+01 -0.44722143322E+02 -0.53205358678E+01  0.45070624831E+02  0.10566000000E+00 0. -1.
         23    2    1    0    0    0  0.95739614686E+01  0.76293376294E+01 -0.21356967989E+02  0.10038318435E+03  0.97318015231E+02 0.  0.
         13    1    3    3    0    0  0.78500550253E+01  0.52351480951E+02 -0.16036432121E+02  0.55312559522E+02  0.10566000000E+00 0.  1.
         22    1    1    0    0    0 -0.95739614686E+01 -0.76293376294E+01  0.21356967989E+02  0.24616815646E+02  0.00000000000E+00 0.  1.
</event>
<event>
 5    1  0.8943334E-005  0.9118800E+02  0.7818608E-02  0.1130116E+00
         25   -1    0    0    0    0  0.00000000000E+00  0.00000000000E+00  0.99999998245E-14  0.12500000000E+03  0.12500000000E+03 0.  0.
        -13    1    3    3    0    0 -0.25156671505E+02  0.28050091868E+02  0.28925062878E+02  0.47500907375E+02  0.10566000000E+00 0. -1.
         23    2    1    0    0    0 -0.12526721926E+02  0.19084853895E+02 -0.17367466737E+02  0.96315870045E+02  0.91945459438E+02 0.  0.
         13    1    3    3    0    0  0.12629949578E+02 -0.89652379727E+01 -0.46292529615E+02  0.48814962670E+02  0.10566000000E+00 0.  1.
         22    1    1    0    0    0  0.12526721926E+02 -0.19084853895E+02  0.17367466737E+02  0.28684129955E+02  0.00000000000E+00 0. -1.
</event>
<event>
 5    1  0.8943334E-005  0.9118800E+02  0.7818608E-02  0.1130116E+00
         25   -1    0    0    0    0  0.00000000000E+00  0.00000000000E+00  0.99999998245E-14  0.12500000000E+03  0.12500000000E+03 0.  0.
        -13    1    3    3    0    0 -0.11610272893E+02 -0.76450968755E+01 -0.58453720537E+02  0.60084062376E+02  0.10566000000E+00 0. -1.
         23    2    1    0    0    0  0.67575203207E+01 -0.21339118908E+01 -0.28354958143E+02  0.95772935280E+02  0.91204351979E+02 0.  0.
         13    1    3    3    0    0  0.18367793214E+02  0.55111849847E+01  0.30098762394E+02  0.35688872904E+02  0.10566000000E+00 0.  1.
         22    1    1    0    0    0 -0.67575203207E+01  0.21339118908E+01  0.28354958143E+02  0.29227064720E+02  0.00000000000E+00 0. -1.
</event>
<event>
 5    1  0.8943334E-005  0.9118800E+02  0.7818608E-02  0.1130116E+00
         25   -1    0    0    0    0  0.00000000000E+00  0.00000000000E+00  0.99999998245E-14  0.12500000000E+03  0.12500000000E+03 0.  0.
        -13    1    3    3    0    0  0.20517347238E+02  0.45242904700E+02 -0.19584313694E+02  0.53398862069E+02  0.10566000000E+00 0. -1.
         23    2    1    0    0    0  0.86001789087E+01  0.46369051369E+01 -0.26931720615E+02  0.96350714812E+02  0.91992818758E+02 0.  0.
         13    1    3    3    0    0 -0.11917168330E+02 -0.40605999563E+02 -0.73474069207E+01  0.42951852743E+02  0.10566000000E+00 0.  1.
         22    1    1    0    0    0 -0.86001789087E+01 -0.46369051369E+01  0.26931720615E+02  0.28649285188E+02  0.00000000000E+00 0. -1.
</event>
<event>
 5    1  0.8943334E-005  0.9118800E+02  0.7818608E-02  0.1130116E+00
         25   -1    0    0    0    0  0.00000000000E+00  0.00000000000E+00  0.99999998245E-14  0.12500000000E+03  0.12500000000E+03 0.  0.
        -13    1    3    3    0    0 -0.46397580537E+02  0.27365758699E+01  0.28398464128E+02  0.54467497244E+02  0.10566000000E+00 0. -1.
         23    2    1    0    0    0 -0.24888089270E+02  0.12094560355E+02 -0.65555016347E+01  0.96562876739E+02  0.92280654445E+02 0.  0.
         13    1    3    3    0    0  0.21509491267E+02  0.93579844848E+01 -0.34953965763E+02  0.42095379494E+02  0.10566000000E+00 0.  1.
         22    1    1    0    0    0  0.24888089270E+02 -0.12094560355E+02  0.65555016347E+01  0.28437123261E+02  0.00000000000E+00 0. -1.
</event>
<event>
 5    1  0.8943334E-005  0.9118800E+02  0.7818608E-02  0.1130116E+00
         25   -1    0    0    0    0  0.00000000000E+00  0.00000000000E+00  0.99999998245E-14  0.12500000000E+03  0.12500000000E+03 0.  0.
        -13    1    3    3    0    0 -0.17962629055E+02 -0.11579117646E+02 -0.25020560167E+02  0.32905495029E+02  0.10566000000E+00 0.  1.
         23    2    1    0    0    0  0.12701825996E+01  0.62711906911E+01  0.30245761036E+02  0.94084837746E+02  0.88860618029E+02 0.  0.
         13    1    3    3    0    0  0.19232811654E+02  0.17850308337E+02  0.55266321203E+02  0.61179342717E+02  0.10566000000E+00 0. -1.
         22    1    1    0    0    0 -0.12701825996E+01 -0.62711906911E+01 -0.30245761036E+02  0.30915162254E+02  0.00000000000E+00 0. -1.
</event>
<event>
 5    1  0.8943334E-005  0.9118800E+02  0.7818608E-02  0.1130116E+00
         25   -1    0    0    0    0  0.00000000000E+00  0.00000000000E+00  0.99999998245E-14  0.12500000000E+03  0.12500000000E+03 0.  0.
        -13    1    3    3    0    0  0.15106248648E+02  0.24285270450E+02  0.22657981841E+02  0.36487921483E+02  0.10566000000E+00 0. -1.
         23    2    1    0    0    0 -0.31464492246E+01 -0.28960982443E+02  0.10168862214E+02  0.94144783172E+02  0.88944903131E+02 0.  0.
         13    1    3    3    0    0 -0.18252697873E+02 -0.53246252892E+02 -0.12489119627E+02  0.57656861689E+02  0.10566000000E+00 0.  1.
         22    1    1    0    0    0  0.31464492246E+01  0.28960982443E+02 -0.10168862214E+02  0.30855216828E+02  0.00000000000E+00 0.  1.
</event>
<event>
 5    1  0.8943334E-005  0.9118800E+02  0.7818608E-02  0.1130116E+00
         25   -1    0    0    0    0  0.00000000000E+00  0.00000000000E+00  0.99999998245E-14  0.12500000000E+03  0.12500000000E+03 0.  0.
        -13    1    3    3    0    0  0.35216059282E+02 -0.24083713194E+02  0.67957822214E+01  0.43201734833E+02  0.10566000000E+00 0. -1.
         23    2    1    0    0    0 -0.19580510199E+02 -0.17519558945E+02  0.35706863681E+01  0.98484323007E+02  0.94847671303E+02 0.  0.
         13    1    3    3    0    0 -0.54796569481E+02  0.65641542495E+01 -0.32250958533E+01  0.55282588173E+02  0.10566000000E+00 0.  1.
         22    1    1    0    0    0  0.19580510199E+02  0.17519558945E+02 -0.35706863681E+01  0.26515676993E+02  0.00000000000E+00 0.  1.
</event>
<event>
 5    1  0.8943334E-005  0.9118800E+02  0.7818608E-02  0.1130116E+00
         25   -1    0    0    0    0  0.00000000000E+00  0.00000000000E+00  0.99999998245E-14  0.12500000000E+03  0.12500000000E+03 0.  0.
        -13    1    3    3    0    0 -0.84635972281E+01  0.18184517224E+02 -0.43294586799E+02  0.47715213033E+02  0.10566000000E+00 0.  1.
         23    2    1    0    0    0  0.24318849508E+02  0.14004335183E+02 -0.85577591366E+01  0.95661235767E+02  0.91051133665E+02 0.  0.
         13    1    3    3    0    0  0.32782446736E+02 -0.41801820411E+01  0.34736827662E+02  0.47946022734E+02  0.10566000000E+00 0. -1.
         22    1    1    0    0    0 -0.24318849508E+02 -0.14004335183E+02  0.85577591366E+01  0.29338764233E+02  0.00000000000E+00 0.  1.
</event>
<event>
 5    1  0.8943334E-005  0.9118800E+02  0.7818608E-02  0.1130116E+00
         25   -1    0    0    0    0  0.00000000000E+00  0.00000000000E+00  0.99999998245E-14  0.12500000000E+03  0.12500000000E+03 0.  0.
        -13    1    3    3    0    0  0.31900244677E+02 -0.83454188844E+01  0.22362450448E+02  0.39841711571E+02  0.10566000000E+00 0.  1.
         23    2    1    0    0    0 -0.15041221793E+02  0.21194257594E+02  0.12448064281E+02  0.96183525332E+02  0.91765360202E+02 0.  0.
         13    1    3    3    0    0 -0.46941466470E+02  0.29539676478E+02 -0.99143861673E+01  0.56341813761E+02  0.10566000000E+00 0. -1.
         22    1    1    0    0    0  0.15041221793E+02 -0.21194257594E+02 -0.12448064281E+02  0.28816474668E+02  0.00000000000E+00 0. -1.
</event>
<event>
 5    1  0.8943334E-005  0.9118800E+02  0.7818608E-02  0.1130116E+00
         25   -1    0    0    0    0  0.00000000000E+00  0.00000000000E+00  0.99999998245E-14  0.12500000000E+03  0.12500000000E+03 0.  0.
        -13    1    3    3    0    0  0.59631387917E+01  0.32015983003E+02  0.27846611758E+01  0.32685588472E+02  0.10566000000E+00 0.  1.
         23    2    1    0    0    0 -0.33333986961E+01 -0.27764470149E+02 -0.11360983186E+02  0.94816406966E+02  0.89883823581E+02 0.  0.
         13    1    3    3    0    0 -0.92965374878E+01 -0.59780453151E+02 -0.14145644362E+02  0.62130818494E+02  0.10566000000E+00 0. -1.
         22    1    1    0    0    0  0.33333986961E+01  0.27764470149E+02  0.11360983186E+02  0.30183593034E+02  0.00000000000E+00 0. -1.
</event>
<event>
 5    1  0.8943334E-005  0.9118800E+02  0.7818608E-02  0.1130116E+00
         25   -1    0    0    0    0  0.00000000000E+00  0.00000000000E+00  0.99999998245E-14  0.12500000000E+03  0.12500000000E+03 0.  0.
        -13    1    3    3    0    0 -0.87995014516E+01  0.32102541605E+02 -0.17687455776E+02  0.37694318659E+02  0.10566000000E+00 0. -1.
         23    2    1    0    0    0 -0.21625361548E+02 -0.11010937969E+02  0.17730430203E+02  0.94945629731E+02  0.90063352329E+02 0.  0.
         13    1    3    3    0    0 -0.12825860097E+02 -0.43113479574E+02  0.35417885979E+02  0.57251311072E+02  0.10566000000E+00 0.  1.
         22    1    1    0    0    0  0.21625361548E+02  0.11010937969E+02 -0.17730430203E+02  0.30054370269E+02  0.00000000000E+00 0.  1.
</event>
<event>
 5    1  0.8943334E-005  0.9118800E+02  0.7818608E-02  0.1130116E+00
         25   -1    0    0    0    0  0.00000000000E+00  0.00000000000E+00  0.99999998245E-14  0.12500000000E+03  0.12500000000E+03 0.  0.
        -13    1    3    3    0    0  0.38162988553E+02  0.33202531782E+02  0.18237569339E+02  0.53772129505E+02  0.10566000000E+00 0.  1.
         23    2    1    0    0    0  0.42491068105E+00  0.30269149548E+02  0.29872610492E+01  0.94580833476E+02  0.89555616066E+02 0.  0.
         13    1    3    3    0    0 -0.37738077872E+02 -0.29333822336E+01 -0.15250308290E+02  0.40808703971E+02  0.10566000000E+00 0. -1.
         22    1    1    0    0    0 -0.42491068105E+00 -0.30269149548E+02 -0.29872610492E+01  0.30419166524E+02  0.00000000000E+00 0.  1.
</event>
<event>
 5    1  0.8943334E-005  0.9118800E+02  0.7818608E-02  0.1130116E+00
         25   -1    0    0    0    0  0.00000000000E+00  0.00000000000E+00  0.99999998245E-14  0.12500000000E+03  0.12500000000E+03 0.  0.
        -13    1    3    3    0    0 -0.32709780807E+02 -0.46374806309E+02  0.11917275794E+02  0.57987800846E+02  0.10566000000E+00 0.  1.
         23    2    1    0    0    0 -0.33698574619E+01 -0.25104782064E+02  0.16874152397E+02  0.94564115901E+02  0.89532278956E+02 0.  0.
         13    1    3    3    0    0  0.29339923345E+02  0.21270024245E+02  0.49568766028E+01  0.36576315054E+02  0.10566000000E+00 0. -1.
         22    1    1    0    0    0  0.33698574619E+01  0.25104782064E+02 -0.16874152397E+02  0.30435884099E+02  0.00000000000E+00 0.  1.
</event>
<event>
 5    1  0.8943334E-005  0.9118800E+02  0.7818608E-02  0.1130116E+00
         25   -1    0    0    0    0  0.00000000000E+00  0.00000000000E+00  0.99999998245E-14  0.12500000000E+03  0.12500000000E+03 0.  0.
        -13    1    3    3    0    0 -0.17979687304E+02  0.54538463544E+02 -0.24072201734E+02  0.62267127938E+02  0.10566000000E+00 0.  1.
         23    2    1    0    0    0 -0.11916308913E+02  0.23999649986E+02 -0.11218687171E+02  0.95951066123E+02  0.91448163081E+02 0.  0.
         13    1    3    3    0    0  0.60633783916E+01 -0.30538813558E+02  0.12853514563E+02  0.33683938186E+02  0.10566000000E+00 0. -1.
         22    1    1    0    0    0  0.11916308913E+02 -0.23999649986E+02  0.11218687171E+02  0.29048933877E+02  0.00000000000E+00 0.  1.
</event>
<event>
 5    1  0.8943334E-005  0.9118800E+02  0.7818608E-02  0.1130116E+00
         25   -1    0    0    0    0  0.00000000000E+00  0.00000000000E+00  0.99999998245E-14  0.12500000000E+03  0.12500000000E+03 0.  0.
        -13    1    3    3    0    0  0.58885363774E+01 -0.24099280514E+02  0.29233336118E+02  0.38341221767E+02  0.10566000000E+00 0.  1.
         23    2    1    0    0    0 -0.75988179907E+01 -0.18161929448E+02 -0.24219396441E+02  0.93788193259E+02  0.88442344579E+02 0.  0.
         13    1    3    3    0    0 -0.13487354368E+02  0.59373510668E+01 -0.53452732559E+02  0.55446971491E+02  0.10566000000E+00 0. -1.
         22    1    1    0    0    0  0.75988179907E+01  0.18161929448E+02  0.24219396441E+02  0.31211806741E+02  0.00000000000E+00 0. -1.
</event>
<event>
 5    1  0.8943334E-005  0.9118800E+02  0.7818608E-02  0.1130116E+00
         25   -1    0    0    0    0  0.00000000000E+00  0.00000000000E+00  0.99999998245E-14  0.12500000000E+03  0.12500000000E+03 0.  0.
        -13    1    3    3    0    0  0.18441656818E+01 -0.36331215449E+02  0.10190165899E+02  0.37778417227E+02  0.10566000000E+00 0.  1.
         23    2    1    0    0    0 -0.11810689821E+02  0.21115421317E+02  0.14173657126E+02  0.96959922116E+02  0.92816919411E+02 0.  0.
         13    1    3    3    0    0 -0.13654855503E+02  0.57446636766E+02  0.39834912265E+01  0.59181504889E+02  0.10566000000E+00 0. -1.
         22    1    1    0    0    0  0.11810689821E+02 -0.21115421317E+02 -0.14173657126E+02  0.28040077884E+02  0.00000000000E+00 0. -1.
</event>
<event>
 5    1  0.8943334E-005  0.9118800E+02  0.7818608E-02  0.1130116E+00
         25   -1    0    0    0    0  0.00000000000E+00  0.00000000000E+00  0.99999998245E-14  0.12500000000E+03  0.12500000000E+03 0.  0.
        -13    1    3    3    0    0  0.24921666429E+02  0.10406191574E+02  0.22778061483E+02  0.35330291955E+02  0.10566000000E+00 0.  1.
         23    2    1    0    0    0 -0.22379904910E+02 -0.17422006435E+02 -0.39348117486E+01  0.96366641910E+02  0.92014457981E+02 0.  0.
         13    1    3    3    0    0 -0.47301571339E+02 -0.27828198009E+02 -0.26712873231E+02  0.61036349955E+02  0.10566000000E+00 0. -1.
         22    1    1    0    0    0  0.22379904910E+02  0.17422006435E+02  0.39348117486E+01  0.28633358090E+02  0.00000000000E+00 0. -1.
</event>
<event>
 5    1  0.8943334E-005  0.9118800E+02  0.7818608E-02  0.1130116E+00
         25   -1    0    0    0    0  0.00000000000E+00  0.00000000000E+00  0.99999998245E-14  0.12500000000E+03  0.12500000000E+03 0.  0.
        -13    1    3    3    0    0 -0.21415568560E+02 -0.32930933291E+02 -0.30160085135E+02  0.49524891151E+02  0.10566000000E+00 0. -1.
         23    2    1    0    0    0 -0.15451364655E+02 -0.26716606476E+02  0.11498435206E+02  0.92064673321E+02  0.85971904307E+02 0.  0.
         13    1    3    3    0    0  0.59642039052E+01  0.62143268146E+01  0.41658520341E+02  0.42539782170E+02  0.10566000000E+00 0.  1.
         22    1    1    0    0    0  0.15451364655E+02  0.26716606476E+02 -0.11498435206E+02  0.32935326679E+02  0.00000000000E+00 0. -1.
</event>
<event>
 5    1  0.8943334E-005  0.9118800E+02  0.7818608E-02  0.1130116E+00
         25   -1    0    0    0    0  0.00000000000E+00  0.00000000000E+00  0.99999998245E-14  0.12500000000E+03  0.12500000000E+03 0.  0.
        -13    1    3    3    0    0  0.38512080916E+02 -0.11772287688E+02 -0.13583667897E+02  0.42500521543E+02  0.10566000000E+00 0. -1.
         23    2    1    0    0    0  0.78312592230E+01  0.27287744406E+02  0.61606055114E+01  0.95949996970E+02  0.91446701649E+02 0.  0.
         13    1    3    3    0    0 -0.30680821693E+02  0.39060032094E+02  0.19744273409E+02  0.53449475427E+02  0.10566000000E+00 0.  1.
         22    1    1    0    0    0 -0.78312592230E+01 -0.27287744406E+02 -0.61606055114E+01  0.29050003030E+02  0.00000000000E+00 0.  1.
</event>
<event>
 5    1  0.8943334E-005  0.9118800E+02  0.7818608E-02  0.1130116E+00
         25   -1    0    0    0    0  0.00000000000E+00  0.00000000000E+00  0.99999998245E-14  0.12500000000E+03  0.12500000000E+03 0.  0.
        -13    1    3    3    0    0  0.26053642708E+02  0.83147177575E+01  0.22663727542E+02  0.35518763209E+02  0.10566000000E+00 0. -1.
         23    2    1    0    0    0 -0.12947543644E+02  0.12648974035E+02 -0.23002839548E+02  0.95729433593E+02  0.91144711302E+02 0.  0.
         13    1    3    3    0    0 -0.39001186352E+02  0.43342562770E+01 -0.45666567090E+02  0.60210670384E+02  0.10566000000E+00 0.  1.
         22    1    1    0    0    0  0.12947543644E+02 -0.12648974035E+02  0.23002839548E+02  0.29270566407E+02  0.00000000000E+00 0. -1.
</event>
<event>
 5    1  0.8943334E-005  0.9118800E+02  0.7818608E-02  0.1130116E+00
         25   -1    0    0    0    0  0.00000000000E+00  0.00000000000E+00  0.99999998245E-14  0.12500000000E+03  0.12500000000E+03 0.  0.
        -13    1    3    3    0    0  0.42231985253E+01 -0.61868664356E+01 -0.38713806410E+02  0.39432000873E+02  0.10566000000E+00 0.  1.
         23    2    1    0    0    0 -0.15912935973E+02  0.25167756170E+02  0.26502805057E+01  0.95105828851E+02  0.90285420820E+02 0.  0.
         13    1    3    3    0    0 -0.20136134499E+02  0.31354622606E+02  0.41364086915E+02  0.55673827978E+02  0.10566000000E+00 0. -1.
         22    1    1    0    0    0  0.15912935973E+02 -0.25167756170E+02 -0.26502805057E+01  0.29894171149E+02  0.00000000000E+00 0. -1.
</event>
<event>
 5    1  0.8943334E-005  0.9118800E+02  0.7818608E-02  0.1130116E+00
         25   -1    0    0    0    0  0.00000000000E+00  0.00000000000E+00  0.99999998245E-14  0.12500000000E+03  0.12500000000E+03 0.  0.
        -13    1    3    3    0    0  0.20717982008E+02  0.40460140428E+02  0.10204410984E+02  0.46587540282E+02  0.10566000000E+00 0.  1.
         23    2    1    0    0    0 -0.22793624127E+02  0.14895879227E+02  0.49258765528E+01  0.97328701176E+02  0.93312246217E+02 0.  0.
         13    1    3    3    0    0 -0.43511606135E+02 -0.25564261201E+02 -0.52785344310E+01  0.50741160895E+02  0.10566000000E+00 0. -1.
         22    1    1    0    0    0  0.22793624127E+02 -0.14895879227E+02 -0.49258765528E+01  0.27671298824E+02  0.00000000000E+00 0. -1.
</event>
<event>
 5    1  0.8943334E-005  0.9118800E+02  0.7818608E-02  0.1130116E+00
         25   -1    0    0    0    0  0.00000000000E+00  0.00000000000E+00  0.99999998245E-14  0.12500000000E+03  0.12500000000E+03 0.  0.
        -13    1    3    3    0    0  0.27302280528E+02 -0.25756117764E+02  0.36566661876E+02  0.52401565331E+02  0.10566000000E+00 0.  1.
         23    2    1    0    0    0  0.19067589481E+02  0.12373237926E+02  0.19778368868E+02  0.94869386656E+02  0.89957471419E+02 0.  0.
         13    1    3    3    0    0 -0.82346910470E+01  0.38129355690E+02 -0.16788293008E+02  0.42467821325E+02  0.10566000000E+00 0. -1.
         22    1    1    0    0    0 -0.19067589481E+02 -0.12373237926E+02 -0.19778368868E+02  0.30130613344E+02  0.00000000000E+00 0.  1.
</event>
<event>
 5    1  0.8943334E-005  0.9118800E+02  0.7818608E-02  0.1130116E+00
         25   -1    0    0    0    0  0.00000000000E+00  0.00000000000E+00  0.99999998245E-14  0.12500000000E+03  0.12500000000E+03 0.  0.
        -13    1    3    3    0    0 -0.10039995868E+02  0.10141303258E+02  0.40306847432E+02  0.42758632611E+02  0.10566000000E+00 0.  1.
         23    2    1    0    0    0 -0.67922460696E+01  0.16793761911E+02 -0.16770213512E+02  0.10031386812E+03  0.97228941323E+02 0.  0.
         13    1    3    3    0    0  0.32477497987E+01  0.66524586534E+01 -0.57077060944E+02  0.57555235513E+02  0.10566000000E+00 0. -1.
         22    1    1    0    0    0  0.67922460696E+01 -0.16793761911E+02  0.16770213512E+02  0.24686131877E+02  0.00000000000E+00 0. -1.
</event>
<event>
 5    1  0.8943334E-005  0.9118800E+02  0.7818608E-02  0.1130116E+00
         25   -1    0    0    0    0  0.00000000000E+00  0.00000000000E+00  0.99999998245E-14  0.12500000000E+03  0.12500000000E+03 0.  0.
        -13    1    3    3    0    0  0.22925784579E+01 -0.18373119718E+02 -0.32008185727E+02  0.36977865835E+02  0.10566000000E+00 0.  1.
         23    2    1    0    0    0  0.35028824057E+02  0.11820883314E+02 -0.97441176811E+01  0.86767819490E+02  0.77890659726E+02 0.  0.
         13    1    3    3    0    0  0.32736245599E+02  0.30194003031E+02  0.22264068046E+02  0.49789953655E+02  0.10566000000E+00 0. -1.
         22    1    1    0    0    0 -0.35028824057E+02 -0.11820883314E+02  0.97441176811E+01  0.38232180510E+02  0.00000000000E+00 0. -1.
</event>
<event>
 5    1  0.8943334E-005  0.9118800E+02  0.7818608E-02  0.1130116E+00
         25   -1    0    0    0    0  0.00000000000E+00  0.00000000000E+00  0.99999998245E-14  0.12500000000E+03  0.12500000000E+03 0.  0.
        -13    1    3    3    0    0 -0.27399244626E+02  0.51008837902E+02  0.23530800450E+01  0.57949704917E+02  0.10566000000E+00 0.  1.
         23    2    1    0    0    0  0.27639468268E+01  0.29206633944E+02 -0.28300231692E+01  0.95526691744E+02  0.90866236502E+02 0.  0.
         13    1    3    3    0    0  0.30163191453E+02 -0.21802203959E+02 -0.51831032142E+01  0.37576986827E+02  0.10566000000E+00 0. -1.
         22    1    1    0    0    0 -0.27639468268E+01 -0.29206633944E+02  0.28300231692E+01  0.29473308256E+02  0.00000000000E+00 0.  1.
</event>
<event>
 5    1  0.8943334E-005  0.9118800E+02  0.7818608E-02  0.1130116E+00
         25   -1    0    0    0    0  0.00000000000E+00  0.00000000000E+00  0.99999998245E-14  0.12500000000E+03  0.12500000000E+03 0.  0.
        -13    1    3    3    0    0 -0.52380461161E+02 -0.11106731048E+02  0.91083955297E+00  0.53552898883E+02  0.10566000000E+00 0.  1.
         23    2    1    0    0    0 -0.17208911722E+02 -0.47499819981E+01 -0.22499130482E+02  0.96278582137E+02  0.91894752484E+02 0.  0.
         13    1    3    3    0    0  0.35171549439E+02  0.63567490494E+01 -0.23409970035E+02  0.42725683254E+02  0.10566000000E+00 0. -1.
         22    1    1    0    0    0  0.17208911722E+02  0.47499819981E+01  0.22499130482E+02  0.28721417863E+02  0.00000000000E+00 0. -1.
</event>
<event>
 5    1  0.8943334E-005  0.9118800E+02  0.7818608E-02  0.1130116E+00
         25   -1    0    0    0    0  0.00000000000E+00  0.00000000000E+00  0.99999998245E-14  0.12500000000E+03  0.12500000000E+03 0.  0.
        -13    1    3    3    0    0 -0.31896105838E+02  0.16275908907E+02  0.10416771143E+02  0.37293257614E+02  0.10566000000E+00 0.  1.
         23    2    1    0    0    0  0.13665352552E+02 -0.23112212279E+02  0.26251567594E+01  0.98022089317E+02  0.94236523330E+02 0.  0.
         13    1    3    3    0    0  0.45561458390E+02 -0.39388121186E+02 -0.77916143836E+01  0.60728831703E+02  0.10566000000E+00 0. -1.
         22    1    1    0    0    0 -0.13665352552E+02  0.23112212279E+02 -0.26251567594E+01  0.26977910683E+02  0.00000000000E+00 0. -1.
</event>
<event>
 5    1  0.8943334E-005  0.9118800E+02  0.7818608E-02  0.1130116E+00
         25   -1    0    0    0    0  0.00000000000E+00  0.00000000000E+00  0.99999998245E-14  0.12500000000E+03  0.12500000000E+03 0.  0.
        -13    1    3    3    0    0  0.31943860764E+02 -0.32385509547E+02  0.30241308757E+02  0.54623981808E+02  0.10566000000E+00 0.  1.
         23    2    1    0    0    0  0.11049412353E+01 -0.58807762138E+01  0.29086648509E+02  0.95304250380E+02  0.90559718391E+02 0.  0.
         13    1    3    3    0    0 -0.30838919529E+02  0.26504733334E+02 -0.11546602486E+01  0.40680268572E+02  0.10566000000E+00 0. -1.
         22    1    1    0    0    0 -0.11049412353E+01  0.58807762138E+01 -0.29086648509E+02  0.29695749620E+02  0.00000000000E+00 0.  1.
</event>
<event>
 5    1  0.8943334E-005  0.9118800E+02  0.7818608E-02  0.1130116E+00
         25   -1    0    0    0    0  0.00000000000E+00  0.00000000000E+00  0.99999998245E-14  0.12500000000E+03  0.12500000000E+03 0.  0.
        -13    1    3    3    0    0 -0.25794067598E+02 -0.42394182890E+02 -0.37934597654E+02  0.62463153374E+02  0.10566000000E+00 0.  1.
         23    2    1    0    0    0 -0.12538823188E+02 -0.19043291006E+02 -0.19026816671E+02  0.95303387871E+02  0.90558527858E+02 0.  0.
         13    1    3    3    0    0  0.13255244410E+02  0.23350891884E+02  0.18907780983E+02  0.32840234498E+02  0.10566000000E+00 0. -1.
         22    1    1    0    0    0  0.12538823188E+02  0.19043291006E+02  0.19026816671E+02  0.29696612129E+02  0.00000000000E+00 0.  1.
</event>
<event>
 5    1  0.8943334E-005  0.9118800E+02  0.7818608E-02  0.1130116E+00
         25   -1    0    0    0    0  0.00000000000E+00  0.00000000000E+00  0.99999998245E-14  0.12500000000E+03  0.12500000000E+03 0.  0.
        -13    1    3    3    0    0 -0.95147897368E+01 -0.39573185317E+02  0.32240250243E+02  0.51923146280E+02  0.10566000000E+00 0.  1.
         23    2    1    0    0    0 -0.21590951603E+02 -0.15315245458E+02 -0.50821702514E+01  0.98045327139E+02  0.94267342090E+02 0.  0.
         13    1    3    3    0    0 -0.12076161866E+02  0.24257939859E+02 -0.37322420494E+02  0.46122180859E+02  0.10566000000E+00 0. -1.
         22    1    1    0    0    0  0.21590951603E+02  0.15315245458E+02  0.50821702514E+01  0.26954672861E+02  0.00000000000E+00 0. -1.
</event>
<event>
 5    1  0.8943334E-005  0.9118800E+02  0.7818608E-02  0.1130116E+00
         25   -1    0    0    0    0  0.00000000000E+00  0.00000000000E+00  0.99999998245E-14  0.12500000000E+03  0.12500000000E+03 0.  0.
        -13    1    3    3    0    0 -0.32089711665E+02 -0.34621630748E+01 -0.31465726277E+02  0.45075927745E+02  0.10566000000E+00 0.  1.
         23    2    1    0    0    0  0.13084359732E+02 -0.20986731082E+02 -0.13993394310E+02  0.96584186877E+02  0.92309515865E+02 0.  0.
         13    1    3    3    0    0  0.45174071397E+02 -0.17524568007E+02  0.17472331967E+02  0.51508259132E+02  0.10566000000E+00 0. -1.
         22    1    1    0    0    0 -0.13084359732E+02  0.20986731082E+02  0.13993394310E+02  0.28415813123E+02  0.00000000000E+00 0. -1.
</event>
<event>
 5    1  0.8943334E-005  0.9118800E+02  0.7818608E-02  0.1130116E+00
         25   -1    0    0    0    0  0.00000000000E+00  0.00000000000E+00  0.99999998245E-14  0.12500000000E+03  0.12500000000E+03 0.  0.
        -13    1    3    3    0    0 -0.18970750344E+02 -0.23624898587E+02 -0.51243721104E+02  0.59531128987E+02  0.10566000000E+00 0.  1.
         23    2    1    0    0    0 -0.11325608794E+02  0.12137780458E+01 -0.29365340641E+02  0.93502922316E+02  0.88038233620E+02 0.  0.
         13    1    3    3    0    0  0.76451415498E+01  0.24838676633E+02  0.21878380464E+02  0.33971793328E+02  0.10566000000E+00 0. -1.
         22    1    1    0    0    0  0.11325608794E+02 -0.12137780458E+01  0.29365340641E+02  0.31497077684E+02  0.00000000000E+00 0.  1.
</event>
<event>
 5    1  0.8943334E-005  0.9118800E+02  0.7818608E-02  0.1130116E+00
         25   -1    0    0    0    0  0.00000000000E+00  0.00000000000E+00  0.99999998245E-14  0.12500000000E+03  0.12500000000E+03 0.  0.
        -13    1    3    3    0    0  0.10924088832E+02 -0.30912413878E+02  0.48420364534E+02  0.58476114049E+02  0.10566000000E+00 0.  1.
         23    2    1    0    0    0  0.34527551295E+01  0.92813090057E+00  0.27429892968E+02  0.97338077196E+02  0.93324805379E+02 0.  0.
         13    1    3    3    0    0 -0.74713337023E+01  0.31840544779E+02 -0.20990471566E+02  0.38861963148E+02  0.10566000000E+00 0. -1.
         22    1    1    0    0    0 -0.34527551295E+01 -0.92813090057E+00 -0.27429892968E+02  0.27661922804E+02  0.00000000000E+00 0.  1.
</event>
<event>
 5    1  0.8943334E-005  0.9118800E+02  0.7818608E-02  0.1130116E+00
         25   -1    0    0    0    0  0.00000000000E+00  0.00000000000E+00  0.99999998245E-14  0.12500000000E+03  0.12500000000E+03 0.  0.
        -13    1    3    3    0    0  0.14422515052E+02  0.22857571690E+02 -0.31831909083E+02  0.41758341967E+02  0.10566000000E+00 0. -1.
         23    2    1    0    0    0  0.23965005682E+02 -0.40587908490E+00  0.16266668922E+02  0.96032936756E+02  0.91560003216E+02 0.  0.
         13    1    3    3    0    0  0.95424906306E+01 -0.23263450775E+02  0.48098578004E+02  0.54274594789E+02  0.10566000000E+00 0.  1.
         22    1    1    0    0    0 -0.23965005682E+02  0.40587908490E+00 -0.16266668922E+02  0.28967063244E+02  0.00000000000E+00 0. -1.
</event>
<event>
 5    1  0.8943334E-005  0.9118800E+02  0.7818608E-02  0.1130116E+00
         25   -1    0    0    0    0  0.00000000000E+00  0.00000000000E+00  0.99999998245E-14  0.12500000000E+03  0.12500000000E+03 0.  0.
        -13    1    3    3    0    0  0.49426365876E+02  0.15802435066E+02  0.22210357404E+01  0.51938682709E+02  0.10566000000E+00 0. -1.
         23    2    1    0    0    0  0.13279016577E+02  0.10043255100E+02  0.24935389376E+02  0.95017123260E+02  0.90162524449E+02 0.  0.
         13    1    3    3    0    0 -0.36147349299E+02 -0.57591799658E+01  0.22714353636E+02  0.43078440551E+02  0.10566000000E+00 0.  1.
         22    1    1    0    0    0 -0.13279016577E+02 -0.10043255100E+02 -0.24935389376E+02  0.29982876740E+02  0.00000000000E+00 0.  1.
</event>
<event>
 5    1  0.8943334E-005  0.9118800E+02  0.7818608E-02  0.1130116E+00
         25   -1    0    0    0    0  0.00000000000E+00  0.00000000000E+00  0.99999998245E-14  0.12500000000E+03  0.12500000000E+03 0.  0.
        -13    1    3    3    0    0  0.95469151985E+01 -0.34658411709E+02 -0.28254900042E+01  0.36060278005E+02  0.10566000000E+00 0. -1.
         23    2    1    0    0    0  0.93833884752E+01  0.25159564579E+02  0.82784761250E+01  0.96900447761E+02  0.92736788494E+02 0.  0.
         13    1    3    3    0    0 -0.16352672326E+00  0.59817976288E+02  0.11103966129E+02  0.60840169756E+02  0.10566000000E+00 0.  1.
         22    1    1    0    0    0 -0.93833884752E+01 -0.25159564579E+02 -0.82784761250E+01  0.28099552239E+02  0.00000000000E+00 0.  1.
</event>
<event>
 5    1  0.8943334E-005  0.9118800E+02  0.7818608E-02  0.1130116E+00
         25   -1    0    0    0    0  0.00000000000E+00  0.00000000000E+00  0.99999998245E-14  0.12500000000E+03  0.12500000000E+03 0.  0.
        -13    1    3    3    0    0  0.44412065963E+02 -0.30886202276E+02  0.56304742481E+01  0.54388440854E+02  0.10566000000E+00 0.  1.
         23    2    1    0    0    0  0.18299499553E+02 -0.39603078070E+01  0.22680154077E+02  0.95590050820E+02  0.90953354556E+02 0.  0.
         13    1    3    3    0    0 -0.26112566411E+02  0.26925894469E+02  0.17049679829E+02  0.41201609967E+02  0.10566000000E+00 0. -1.
         22    1    1    0    0    0 -0.18299499553E+02  0.39603078070E+01 -0.22680154077E+02  0.29409949180E+02  0.00000000000E+00 0.  1.
</event>
<event>
 5    1  0.8943334E-005  0.9118800E+02  0.7818608E-02  0.1130116E+00
         25   -1    0    0    0    0  0.00000000000E+00  0.00000000000E+00  0.99999998245E-14  0.12500000000E+03  0.12500000000E+03 0.  0.
        -13    1    3    3    0    0 -0.44052550225E+02  0.67066852183E+01  0.36179811961E+02  0.57398578079E+02  0.10566000000E+00 0.  1.
         23    2    1    0    0    0 -0.13609512967E+02 -0.12487669050E+02  0.22475552155E+02  0.95908572290E+02  0.91390060032E+02 0.  0.
         13    1    3    3    0    0  0.30443037258E+02 -0.19194354269E+02 -0.13704259806E+02  0.38509994211E+02  0.10566000000E+00 0. -1.
         22    1    1    0    0    0  0.13609512967E+02  0.12487669050E+02 -0.22475552155E+02  0.29091427710E+02  0.00000000000E+00 0.  1.
</event>
<event>
 5    1  0.8943334E-005  0.9118800E+02  0.7818608E-02  0.1130116E+00
         25   -1    0    0    0    0  0.00000000000E+00  0.00000000000E+00  0.99999998245E-14  0.12500000000E+03  0.12500000000E+03 0.  0.
        -13    1    3    3    0    0  0.46788563166E+02 -0.31683844192E+02  0.33395954371E+01  0.56605650669E+02  0.10566000000E+00 0.  1.
         23    2    1    0    0    0  0.72754517172E+01 -0.25800680582E+02  0.84800311760E+01  0.96883843703E+02  0.92714405169E+02 0.  0.
         13    1    3    3    0    0 -0.39513111449E+02  0.58831636103E+01  0.51404357389E+01  0.40278193034E+02  0.10566000000E+00 0. -1.
         22    1    1    0    0    0 -0.72754517172E+01  0.25800680582E+02 -0.84800311760E+01  0.28116156297E+02  0.00000000000E+00 0.  1.
</event>
<event>
 5    1  0.8943334E-005  0.9118800E+02  0.7818608E-02  0.1130116E+00
         25   -1    0    0    0    0  0.00000000000E+00  0.00000000000E+00  0.99999998245E-14  0.12500000000E+03  0.12500000000E+03 0.  0.
        -13    1    3    3    0    0  0.32023942291E+02 -0.12374098709E+02 -0.29043361345E+02  0.44968646866E+02  0.10566000000E+00 0.  1.
         23    2    1    0    0    0  0.12002670605E+02  0.23571215331E+02 -0.28498875061E+02  0.86117456699E+02  0.76839860585E+02 0.  0.
         13    1    3    3    0    0 -0.20021271686E+02  0.35945314039E+02  0.54448628400E+00  0.41148809832E+02  0.10566000000E+00 0. -1.
         22    1    1    0    0    0 -0.12002670605E+02 -0.23571215331E+02  0.28498875061E+02  0.38882543301E+02  0.00000000000E+00 0.  1.
</event>
<event>
 5    1  0.8943334E-005  0.9118800E+02  0.7818608E-02  0.1130116E+00
         25   -1    0    0    0    0  0.00000000000E+00  0.00000000000E+00  0.99999998245E-14  0.12500000000E+03  0.12500000000E+03 0.  0.
        -13    1    3    3    0    0  0.35899944603E+02  0.10069765239E+02  0.14852800086E+02  0.40135059847E+02  0.10566000000E+00 0.  1.
         23    2    1    0    0    0 -0.15866121914E+02  0.12943701637E+02  0.24708879499E+02  0.92909472383E+02  0.87191559773E+02 0.  0.
         13    1    3    3    0    0 -0.51766066517E+02  0.28739363979E+01  0.98560794127E+01  0.52774412536E+02  0.10566000000E+00 0. -1.
         22    1    1    0    0    0  0.15866121914E+02 -0.12943701637E+02 -0.24708879499E+02  0.32090527617E+02  0.00000000000E+00 0. -1.
</event>
<event>
 5    1  0.8943334E-005  0.9118800E+02  0.7818608E-02  0.1130116E+00
         25   -1    0    0    0    0  0.00000000000E+00  0.00000000000E+00  0.99999998245E-14  0.12500000000E+03  0.12500000000E+03 0.  0.
        -13    1    3    3    0    0 -0.20976991983E+02 -0.14981420007E+02  0.25781316788E+02  0.36457709712E+02  0.10566000000E+00 0. -1.
         23    2    1    0    0    0 -0.92317822052E+01  0.56622486979E+01 -0.27852943359E+02  0.95115667705E+02  0.90299041668E+02 0.  0.
         13    1    3    3    0    0  0.11745209778E+02  0.20643668705E+02 -0.53634260147E+02  0.58657957993E+02  0.10566000000E+00 0.  1.
         22    1    1    0    0    0  0.92317822052E+01 -0.56622486979E+01  0.27852943359E+02  0.29884332295E+02  0.00000000000E+00 0.  1.
</event>
<event>
 5    1  0.8943334E-005  0.9118800E+02  0.7818608E-02  0.1130116E+00
         25   -1    0    0    0    0  0.00000000000E+00  0.00000000000E+00  0.99999998245E-14  0.12500000000E+03  0.12500000000E+03 0.  0.
        -13    1    3    3    0    0 -0.31517058271E+02 -0.74868863701E+01  0.16015437888E+02  0.36137014879E+02  0.10566000000E+00 0. -1.
         23    2    1    0    0    0  0.26798456372E+02 -0.13034902811E+01  0.13817896618E+02  0.94820692225E+02  0.89889782825E+02 0.  0.
         13    1    3    3    0    0  0.58315514643E+02  0.61833960890E+01 -0.21975412702E+01  0.58683677346E+02  0.10566000000E+00 0.  1.
         22    1    1    0    0    0 -0.26798456372E+02  0.13034902811E+01 -0.13817896618E+02  0.30179307775E+02  0.00000000000E+00 0.  1.
</event>
<event>
 5    1  0.8943334E-005  0.9118800E+02  0.7818608E-02  0.1130116E+00
         25   -1    0    0    0    0  0.00000000000E+00  0.00000000000E+00  0.99999998245E-14  0.12500000000E+03  0.12500000000E+03 0.  0.
        -13    1    3    3    0    0  0.24262339594E+02  0.32659365673E+02 -0.44111047429E+02  0.60009090629E+02  0.10566000000E+00 0.  1.
         23    2    1    0    0    0  0.17654272185E+00  0.19152516340E+02 -0.24608547648E+02  0.93816179406E+02  0.88481889964E+02 0.  0.
         13    1    3    3    0    0 -0.24085796872E+02 -0.13506849333E+02  0.19502499781E+02  0.33807088778E+02  0.10566000000E+00 0. -1.
         22    1    1    0    0    0 -0.17654272185E+00 -0.19152516340E+02  0.24608547648E+02  0.31183820594E+02  0.00000000000E+00 0.  1.
</event>
<event>
 5    1  0.8943334E-005  0.9118800E+02  0.7818608E-02  0.1130116E+00
         25   -1    0    0    0    0  0.00000000000E+00  0.00000000000E+00  0.99999998245E-14  0.12500000000E+03  0.12500000000E+03 0.  0.
        -13    1    3    3    0    0  0.16800399752E+02  0.52562682806E+02 -0.10007322089E+02  0.56082499187E+02  0.10566000000E+00 0.  1.
         23    2    1    0    0    0  0.24420428402E+02  0.13658365426E+02 -0.85082224214E+01  0.95754519696E+02  0.91179109033E+02 0.  0.
         13    1    3    3    0    0  0.76200286495E+01 -0.38904317380E+02  0.14990996674E+01  0.39672020509E+02  0.10566000000E+00 0. -1.
         22    1    1    0    0    0 -0.24420428402E+02 -0.13658365426E+02  0.85082224214E+01  0.29245480304E+02  0.00000000000E+00 0.  1.
</event>
<event>
 5    1  0.8943334E-005  0.9118800E+02  0.7818608E-02  0.1130116E+00
         25   -1    0    0    0    0  0.00000000000E+00  0.00000000000E+00  0.99999998245E-14  0.12500000000E+03  0.12500000000E+03 0.  0.
        -13    1    3    3    0    0  0.22715910044E+02 -0.21199534204E+02 -0.20405229850E+02  0.37172804426E+02  0.10566000000E+00 0. -1.
         23    2    1    0    0    0  0.30649390256E+00  0.55587370865E+00  0.29200783201E+02  0.95792318242E+02  0.91230913404E+02 0.  0.
         13    1    3    3    0    0 -0.22409416142E+02  0.21755407913E+02  0.49606013051E+02  0.58619513817E+02  0.10566000000E+00 0.  1.
         22    1    1    0    0    0 -0.30649390256E+00 -0.55587370865E+00 -0.29200783201E+02  0.29207681758E+02  0.00000000000E+00 0.  1.
</event>
<event>
 5    1  0.8943334E-005  0.9118800E+02  0.7818608E-02  0.1130116E+00
         25   -1    0    0    0    0  0.00000000000E+00  0.00000000000E+00  0.99999998245E-14  0.12500000000E+03  0.12500000000E+03 0.  0.
        -13    1    3    3    0    0 -0.30530627199E+02  0.25920357384E+01 -0.22532012901E+02  0.38033414464E+02  0.10566000000E+00 0.  1.
         23    2    1    0    0    0  0.90419631345E+01  0.27669324331E+02  0.90296204678E+01  0.94522423783E+02  0.89474051801E+02 0.  0.
         13    1    3    3    0    0  0.39572590333E+02  0.25077288593E+02  0.31561633369E+02  0.56489009319E+02  0.10566000000E+00 0. -1.
         22    1    1    0    0    0 -0.90419631345E+01 -0.27669324331E+02 -0.90296204678E+01  0.30477576217E+02  0.00000000000E+00 0. -1.
</event>
<event>
 5    1  0.8943334E-005  0.9118800E+02  0.7818608E-02  0.1130116E+00
         25   -1    0    0    0    0  0.00000000000E+00  0.00000000000E+00  0.99999998245E-14  0.12500000000E+03  0.12500000000E+03 0.  0.
        -13    1    3    3    0    0 -0.28952478187E+02  0.25900027141E+02  0.46963290911E+02  0.60947676381E+02  0.10566000000E+00 0. -1.
         23    2    1    0    0    0 -0.67058218686E+01  0.19146685535E+02  0.20919757521E+02  0.95858965896E+02  0.91322185005E+02 0.  0.
         13    1    3    3    0    0  0.22246656318E+02 -0.67533416058E+01 -0.26043533390E+02  0.34911289515E+02  0.10566000000E+00 0.  1.
         22    1    1    0    0    0  0.67058218686E+01 -0.19146685535E+02 -0.20919757521E+02  0.29141034104E+02  0.00000000000E+00 0. -1.
</event>
<event>
 5    1  0.8943334E-005  0.9118800E+02  0.7818608E-02  0.1130116E+00
         25   -1    0    0    0    0  0.00000000000E+00  0.00000000000E+00  0.99999998245E-14  0.12500000000E+03  0.12500000000E+03 0.  0.
        -13    1    3    3    0    0 -0.16524225582E+02  0.29096993797E+02  0.93056207940E+01  0.34731697648E+02  0.10566000000E+00 0.  1.
         23    2    1    0    0    0  0.37985108587E+01 -0.27552683200E+02 -0.53538395781E+01  0.96676111946E+02  0.92433911453E+02 0.  0.
         13    1    3    3    0    0  0.20322736441E+02 -0.56649676997E+02 -0.14659460372E+02  0.61944414298E+02  0.10566000000E+00 0. -1.
         22    1    1    0    0    0 -0.37985108587E+01  0.27552683200E+02  0.53538395781E+01  0.28323888054E+02  0.00000000000E+00 0. -1.
</event>
<event>
 5    1  0.8943334E-005  0.9118800E+02  0.7818608E-02  0.1130116E+00
         25   -1    0    0    0    0  0.00000000000E+00  0.00000000000E+00  0.99999998245E-14  0.12500000000E+03  0.12500000000E+03 0.  0.
        -13    1    3    3    0    0  0.30120111284E+02 -0.11304901896E+02 -0.31876834752E+02  0.45289796516E+02  0.10566000000E+00 0. -1.
         23    2    1    0    0    0  0.12650838467E+02 -0.28833709437E+02  0.82643552423E+01  0.92446565751E+02  0.86525380310E+02 0.  0.
         13    1    3    3    0    0 -0.17469272817E+02 -0.17528807541E+02  0.40141189994E+02  0.47156769235E+02  0.10566000000E+00 0.  1.
         22    1    1    0    0    0 -0.12650838467E+02  0.28833709437E+02 -0.82643552423E+01  0.32553434249E+02  0.00000000000E+00 0.  1.
</event>
<event>
 5    1  0.8943334E-005  0.9118800E+02  0.7818608E-02  0.1130116E+00
         25   -1    0    0    0    0  0.00000000000E+00  0.00000000000E+00  0.99999998245E-14  0.12500000000E+03  0.12500000000E+03 0.  0.
        -13    1    3    3    0    0  0.29547547500E+02 -0.12815775677E+02  0.33730394925E+02  0.46637456784E+02  0.10566000000E+00 0. -1.
         23    2    1    0    0    0 -0.14483420944E+02 -0.94704527441E+01  0.29239766090E+02  0.91023200881E+02  0.84444065630E+02 0.  0.
         13    1    3    3    0    0 -0.44030968444E+02  0.33453229330E+01 -0.44906288352E+01  0.44385744097E+02  0.10566000000E+00 0.  1.
         22    1    1    0    0    0  0.14483420944E+02  0.94704527441E+01 -0.29239766090E+02  0.33976799119E+02  0.00000000000E+00 0. -1.
</event>
<event>
 5    1  0.8943334E-005  0.9118800E+02  0.7818608E-02  0.1130116E+00
         25   -1    0    0    0    0  0.00000000000E+00  0.00000000000E+00  0.99999998245E-14  0.12500000000E+03  0.12500000000E+03 0.  0.
        -13    1    3    3    0    0 -0.23598494162E+02  0.43789624247E+02 -0.29455703416E+02  0.57810636964E+02  0.10566000000E+00 0. -1.
         23    2    1    0    0    0 -0.24856084225E+02  0.12400637535E+02 -0.72163808021E+01  0.96300228465E+02  0.91924192225E+02 0.  0.
         13    1    3    3    0    0 -0.12575900623E+01 -0.31388986712E+02  0.22239322614E+02  0.38489591501E+02  0.10566000000E+00 0.  1.
         22    1    1    0    0    0  0.24856084225E+02 -0.12400637535E+02  0.72163808021E+01  0.28699771535E+02  0.00000000000E+00 0. -1.
</event>
<event>
 5    1  0.8943334E-005  0.9118800E+02  0.7818608E-02  0.1130116E+00
         25   -1    0    0    0    0  0.00000000000E+00  0.00000000000E+00  0.99999998245E-14  0.12500000000E+03  0.12500000000E+03 0.  0.
        -13    1    3    3    0    0  0.31990219285E+02  0.12770750972E+02  0.14036005977E+02  0.37195252897E+02  0.10566000000E+00 0. -1.
         23    2    1    0    0    0 -0.88918720659E+01 -0.22380694275E+02 -0.13132151743E+02  0.97569829120E+02  0.93634701260E+02 0.  0.
         13    1    3    3    0    0 -0.40882091351E+02 -0.35151445247E+02 -0.27168157720E+02  0.60374576223E+02  0.10566000000E+00 0.  1.
         22    1    1    0    0    0  0.88918720659E+01  0.22380694275E+02  0.13132151743E+02  0.27430170880E+02  0.00000000000E+00 0.  1.
</event>
<event>
 5    1  0.8943334E-005  0.9118800E+02  0.7818608E-02  0.1130116E+00
         25   -1    0    0    0    0  0.00000000000E+00  0.00000000000E+00  0.99999998245E-14  0.12500000000E+03  0.12500000000E+03 0.  0.
        -13    1    3    3    0    0  0.14615853677E+02  0.39046761043E+01 -0.40075861934E+02  0.42836381126E+02  0.10566000000E+00 0.  1.
         23    2    1    0    0    0  0.20360999832E+02 -0.19567262768E+02  0.71359524666E+01  0.95873209857E+02  0.91341679776E+02 0.  0.
         13    1    3    3    0    0  0.57451461555E+01 -0.23471938872E+02  0.47211814401E+02  0.53036828731E+02  0.10566000000E+00 0. -1.
         22    1    1    0    0    0 -0.20360999832E+02  0.19567262768E+02 -0.71359524666E+01  0.29126790143E+02  0.00000000000E+00 0.  1.
</event>
<event>
 5    1  0.8943334E-005  0.9118800E+02  0.7818608E-02  0.1130116E+00
         25   -1    0    0    0    0  0.00000000000E+00  0.00000000000E+00  0.99999998245E-14  0.12500000000E+03  0.12500000000E+03 0.  0.
        -13    1    3    3    0    0 -0.99165512335E+01  0.49987179683E+02  0.27388310539E+02  0.57854877402E+02  0.10566000000E+00 0. -1.
         23    2    1    0    0    0  0.12363148527E+02  0.24095781238E+02  0.13652109333E+02  0.94671231410E+02  0.89681702997E+02 0.  0.
         13    1    3    3    0    0  0.22279699760E+02 -0.25891398445E+02 -0.13736201206E+02  0.36816354008E+02  0.10566000000E+00 0.  1.
         22    1    1    0    0    0 -0.12363148527E+02 -0.24095781238E+02 -0.13652109333E+02  0.30328768590E+02  0.00000000000E+00 0. -1.
</event>
<event>
 5    1  0.8943334E-005  0.9118800E+02  0.7818608E-02  0.1130116E+00
         25   -1    0    0    0    0  0.00000000000E+00  0.00000000000E+00  0.99999998245E-14  0.12500000000E+03  0.12500000000E+03 0.  0.
        -13    1    3    3    0    0 -0.36222217143E+02  0.59736529997E+00  0.13776846658E+02  0.38758463952E+02  0.10566000000E+00 0.  1.
         23    2    1    0    0    0  0.66052311922E+01 -0.41354410358E+01 -0.26279306730E+02  0.97589547361E+02  0.93661020922E+02 0.  0.
         13    1    3    3    0    0  0.42827448335E+02 -0.47328063358E+01 -0.40056153388E+02  0.58831083409E+02  0.10566000000E+00 0. -1.
         22    1    1    0    0    0 -0.66052311922E+01  0.41354410358E+01  0.26279306730E+02  0.27410452639E+02  0.00000000000E+00 0. -1.
</event>
<event>
 5    1  0.8943334E-005  0.9118800E+02  0.7818608E-02  0.1130116E+00
         25   -1    0    0    0    0  0.00000000000E+00  0.00000000000E+00  0.99999998245E-14  0.12500000000E+03  0.12500000000E+03 0.  0.
        -13    1    3    3    0    0 -0.96949727978E+01 -0.16798316090E+02 -0.33987985706E+02  0.39132726169E+02  0.10566000000E+00 0.  1.
         23    2    1    0    0    0  0.13690081231E+02  0.25610545725E+02 -0.51227168388E+01  0.95511686989E+02  0.90845592888E+02 0.  0.
         13    1    3    3    0    0  0.23385054029E+02  0.42408861815E+02  0.28865268867E+02  0.56378960820E+02  0.10566000000E+00 0. -1.
         22    1    1    0    0    0 -0.13690081231E+02 -0.25610545725E+02  0.51227168388E+01  0.29488313011E+02  0.00000000000E+00 0.  1.
</event>
<event>
 5    1  0.8943334E-005  0.9118800E+02  0.7818608E-02  0.1130116E+00
         25   -1    0    0    0    0  0.00000000000E+00  0.00000000000E+00  0.99999998245E-14  0.12500000000E+03  0.12500000000E+03 0.  0.
        -13    1    3    3    0    0  0.94169609315E-01  0.51154567923E+02 -0.35471680773E+01  0.51277599911E+02  0.10566000000E+00 0.  1.
         23    2    1    0    0    0  0.44360224628E+01  0.13619800482E+02  0.23313800940E+02  0.97637423828E+02  0.93724895076E+02 0.  0.
         13    1    3    3    0    0  0.43418528535E+01 -0.37534767440E+02  0.26860969018E+02  0.46359823917E+02  0.10566000000E+00 0. -1.
         22    1    1    0    0    0 -0.44360224628E+01 -0.13619800482E+02 -0.23313800940E+02  0.27362576172E+02  0.00000000000E+00 0.  1.
</event>
<event>
 5    1  0.8943334E-005  0.9118800E+02  0.7818608E-02  0.1130116E+00
         25   -1    0    0    0    0  0.00000000000E+00  0.00000000000E+00  0.99999998245E-14  0.12500000000E+03  0.12500000000E+03 0.  0.
        -13    1    3    3    0    0  0.16711019333E+02  0.17398217625E+02 -0.25438732921E+02  0.35058471734E+02  0.10566000000E+00 0. -1.
         23    2    1    0    0    0  0.90772032861E+01 -0.13695900396E+02  0.25168139412E+02  0.94943244543E+02  0.90060041837E+02 0.  0.
         13    1    3    3    0    0 -0.76338160465E+01 -0.31094118020E+02  0.50606872334E+02  0.59884772809E+02  0.10566000000E+00 0.  1.
         22    1    1    0    0    0 -0.90772032861E+01  0.13695900396E+02 -0.25168139412E+02  0.30056755457E+02  0.00000000000E+00 0.  1.
</event>
<event>
 5    1  0.8943334E-005  0.9118800E+02  0.7818608E-02  0.1130116E+00
         25   -1    0    0    0    0  0.00000000000E+00  0.00000000000E+00  0.99999998245E-14  0.12500000000E+03  0.12500000000E+03 0.  0.
        -13    1    3    3    0    0  0.58698368429E+01  0.39533276585E+01  0.26096789811E+02  0.27039552264E+02  0.10566000000E+00 0. -1.
         23    2    1    0    0    0 -0.27694227245E+02 -0.19339610605E+02 -0.17642682626E+02  0.86891536225E+02  0.78088949643E+02 0.  0.
         13    1    3    3    0    0 -0.33564064088E+02 -0.23292938263E+02 -0.43739472437E+02  0.59851983961E+02  0.10566000000E+00 0.  1.
         22    1    1    0    0    0  0.27694227245E+02  0.19339610605E+02  0.17642682626E+02  0.38108463775E+02  0.00000000000E+00 0.  1.
</event>
<event>
 5    1  0.8943334E-005  0.9118800E+02  0.7818608E-02  0.1130116E+00
         25   -1    0    0    0    0  0.00000000000E+00  0.00000000000E+00  0.99999998245E-14  0.12500000000E+03  0.12500000000E+03 0.  0.
        -13    1    3    3    0    0  0.27003936566E+02 -0.64214277236E+01  0.15880987973E+02  0.31979122363E+02  0.10566000000E+00 0.  1.
         23    2    1    0    0    0 -0.22587224555E+02  0.62604061234E+01 -0.19752666771E+02  0.94348030365E+02  0.89230082323E+02 0.  0.
         13    1    3    3    0    0 -0.49591161121E+02  0.12681833847E+02 -0.35633654744E+02  0.62368908003E+02  0.10566000000E+00 0. -1.
         22    1    1    0    0    0  0.22587224555E+02 -0.62604061234E+01  0.19752666771E+02  0.30651969635E+02  0.00000000000E+00 0. -1.
</event>
<event>
 5    1  0.8943334E-005  0.9118800E+02  0.7818608E-02  0.1130116E+00
         25   -1    0    0    0    0  0.00000000000E+00  0.00000000000E+00  0.99999998245E-14  0.12500000000E+03  0.12500000000E+03 0.  0.
        -13    1    3    3    0    0  0.14954441824E+02  0.26990715478E+02 -0.53153584929E+02  0.61460953516E+02  0.10566000000E+00 0. -1.
         23    2    1    0    0    0  0.88911977798E+01  0.71981647206E+01 -0.31815762031E+02  0.91190094840E+02  0.84690753392E+02 0.  0.
         13    1    3    3    0    0 -0.60632440443E+01 -0.19792550757E+02  0.21337822898E+02  0.29729141324E+02  0.10566000000E+00 0.  1.
         22    1    1    0    0    0 -0.88911977798E+01 -0.71981647206E+01  0.31815762031E+02  0.33809905160E+02  0.00000000000E+00 0. -1.
</event>
<event>
 5    1  0.8943334E-005  0.9118800E+02  0.7818608E-02  0.1130116E+00
         25   -1    0    0    0    0  0.00000000000E+00  0.00000000000E+00  0.99999998245E-14  0.12500000000E+03  0.12500000000E+03 0.  0.
        -13    1    3    3    0    0  0.67685992393E+01  0.39433838402E+02 -0.19345100321E+02  0.44441935345E+02  0.10566000000E+00 0.  1.
         23    2    1    0    0    0 -0.13612133143E+02  0.21953135625E+02  0.20177426925E+02  0.92222585676E+02  0.86201197317E+02 0.  0.
         13    1    3    3    0    0 -0.20380732382E+02 -0.17480702777E+02  0.39522527246E+02  0.47780650330E+02  0.10566000000E+00 0. -1.
         22    1    1    0    0    0  0.13612133143E+02 -0.21953135625E+02 -0.20177426925E+02  0.32777414324E+02  0.00000000000E+00 0. -1.
</event>
<event>
 5    1  0.8943334E-005  0.9118800E+02  0.7818608E-02  0.1130116E+00
         25   -1    0    0    0    0  0.00000000000E+00  0.00000000000E+00  0.99999998245E-14  0.12500000000E+03  0.12500000000E+03 0.  0.
        -13    1    3    3    0    0  0.86117315402E+01 -0.33758236296E+02 -0.20777366495E+02  0.40564646682E+02  0.10566000000E+00 0.  1.
         23    2    1    0    0    0 -0.59663391119E+01  0.20341740890E+02 -0.18858040558E+02  0.96627313865E+02  0.92367897379E+02 0.  0.
         13    1    3    3    0    0 -0.14578070652E+02  0.54099977186E+02  0.19193259374E+01  0.56062667182E+02  0.10566000000E+00 0. -1.
         22    1    1    0    0    0  0.59663391119E+01 -0.20341740890E+02  0.18858040558E+02  0.28372686135E+02  0.00000000000E+00 0. -1.
</event>
<event>
 5    1  0.8943334E-005  0.9118800E+02  0.7818608E-02  0.1130116E+00
         25   -1    0    0    0    0  0.00000000000E+00  0.00000000000E+00  0.99999998245E-14  0.12500000000E+03  0.12500000000E+03 0.  0.
        -13    1    3    3    0    0 -0.50879955717E+01 -0.60867833641E+02 -0.82050656770E+01  0.61628849883E+02  0.10566000000E+00 0. -1.
         23    2    1    0    0    0 -0.73762035914E+01 -0.27472168380E+02 -0.91591795270E+01  0.95116576760E+02  0.90300300055E+02 0.  0.
         13    1    3    3    0    0 -0.22882080197E+01  0.33395665261E+02 -0.95411384994E+00  0.33487726878E+02  0.10566000000E+00 0.  1.
         22    1    1    0    0    0  0.73762035914E+01  0.27472168380E+02  0.91591795270E+01  0.29883423240E+02  0.00000000000E+00 0. -1.
</event>
<event>
 5    1  0.8943334E-005  0.9118800E+02  0.7818608E-02  0.1130116E+00
         25   -1    0    0    0    0  0.00000000000E+00  0.00000000000E+00  0.99999998245E-14  0.12500000000E+03  0.12500000000E+03 0.  0.
        -13    1    3    3    0    0 -0.25061084609E+02 -0.16873645911E+02 -0.11295777406E+02  0.32254978520E+02  0.10566000000E+00 0.  1.
         23    2    1    0    0    0  0.29181873253E+02  0.97938948303E+01  0.20342975677E+01  0.94151329541E+02  0.88954102689E+02 0.  0.
         13    1    3    3    0    0  0.54242957862E+02  0.26667540742E+02  0.13330074974E+02  0.61896351020E+02  0.10566000000E+00 0. -1.
         22    1    1    0    0    0 -0.29181873253E+02 -0.97938948303E+01 -0.20342975677E+01  0.30848670459E+02  0.00000000000E+00 0. -1.
</event>
<event>
 5    1  0.8943334E-005  0.9118800E+02  0.7818608E-02  0.1130116E+00
         25   -1    0    0    0    0  0.00000000000E+00  0.00000000000E+00  0.99999998245E-14  0.12500000000E+03  0.12500000000E+03 0.  0.
        -13    1    3    3    0    0  0.34620189260E+02  0.71265032220E+01  0.11890043636E+02  0.37292477180E+02  0.10566000000E+00 0.  1.
         23    2    1    0    0    0 -0.23825894590E+02  0.32581591288E+01  0.16167994924E+02  0.96022544732E+02  0.91545814667E+02 0.  0.
         13    1    3    3    0    0 -0.58446083850E+02 -0.38683440932E+01  0.42779512885E+01  0.58730067552E+02  0.10566000000E+00 0. -1.
         22    1    1    0    0    0  0.23825894590E+02 -0.32581591288E+01 -0.16167994924E+02  0.28977455268E+02  0.00000000000E+00 0. -1.
</event>
<event>
 5    1  0.8943334E-005  0.9118800E+02  0.7818608E-02  0.1130116E+00
         25   -1    0    0    0    0  0.00000000000E+00  0.00000000000E+00  0.99999998245E-14  0.12500000000E+03  0.12500000000E+03 0.  0.
        -13    1    3    3    0    0  0.16852678914E+02 -0.60496957185E+01 -0.51298834613E+02  0.54334088762E+02  0.10566000000E+00 0.  1.
         23    2    1    0    0    0 -0.88847741910E+01  0.12734686673E+02 -0.24622795351E+02  0.95889975816E+02  0.91364620910E+02 0.  0.
         13    1    3    3    0    0 -0.25737453105E+02  0.18784382391E+02  0.26676039262E+02  0.41555887054E+02  0.10566000000E+00 0. -1.
         22    1    1    0    0    0  0.88847741910E+01 -0.12734686673E+02  0.24622795351E+02  0.29110024184E+02  0.00000000000E+00 0.  1.
</event>
<event>
 5    1  0.8943334E-005  0.9118800E+02  0.7818608E-02  0.1130116E+00
         25   -1    0    0    0    0  0.00000000000E+00  0.00000000000E+00  0.99999998245E-14  0.12500000000E+03  0.12500000000E+03 0.  0.
        -13    1    3    3    0    0 -0.42330046907E+02  0.66864155002E+01 -0.32097674211E+02  0.53542626730E+02  0.10566000000E+00 0.  1.
         23    2    1    0    0    0 -0.16822132166E+01 -0.29345859743E+01 -0.29405758133E+02  0.95400333658E+02  0.90692245614E+02 0.  0.
         13    1    3    3    0    0  0.40647833690E+02 -0.96210014744E+01  0.26919160780E+01  0.41857706928E+02  0.10566000000E+00 0. -1.
         22    1    1    0    0    0  0.16822132166E+01  0.29345859743E+01  0.29405758133E+02  0.29599666342E+02  0.00000000000E+00 0. -1.
</event>
<event>
 5    1  0.8943334E-005  0.9118800E+02  0.7818608E-02  0.1130116E+00
         25   -1    0    0    0    0  0.00000000000E+00  0.00000000000E+00  0.99999998245E-14  0.12500000000E+03  0.12500000000E+03 0.  0.
        -13    1    3    3    0    0 -0.17564890841E+02 -0.37722477327E+02  0.95644698251E+01  0.42696615006E+02  0.10566000000E+00 0. -1.
         23    2    1    0    0    0 -0.43092547915E+02 -0.11188907429E+02  0.11603105929E+01  0.80463434619E+02  0.67013869123E+02 0.  0.
         13    1    3    3    0    0 -0.25527657074E+02  0.26533569898E+02 -0.84041592322E+01  0.37766819613E+02  0.10566000000E+00 0.  1.
         22    1    1    0    0    0  0.43092547915E+02  0.11188907429E+02 -0.11603105929E+01  0.44536565381E+02  0.00000000000E+00 0.  1.
</event>
<event>
 5    1  0.8943334E-005  0.9118800E+02  0.7818608E-02  0.1130116E+00
         25   -1    0    0    0    0  0.00000000000E+00  0.00000000000E+00  0.99999998245E-14  0.12500000000E+03  0.12500000000E+03 0.  0.
        -13    1    3    3    0    0  0.26399192489E+02 -0.33282595239E+02 -0.44610088693E+02  0.61601296149E+02  0.10566000000E+00 0.  1.
         23    2    1    0    0    0  0.56627256704E+01 -0.13416081956E+02 -0.23920764574E+02  0.96995345121E+02  0.92864612637E+02 0.  0.
         13    1    3    3    0    0 -0.20736466818E+02  0.19866513283E+02  0.20689324119E+02  0.35394048973E+02  0.10566000000E+00 0. -1.
         22    1    1    0    0    0 -0.56627256704E+01  0.13416081956E+02  0.23920764574E+02  0.28004654879E+02  0.00000000000E+00 0.  1.
</event>
<event>
 5    1  0.8943334E-005  0.9118800E+02  0.7818608E-02  0.1130116E+00
         25   -1    0    0    0    0  0.00000000000E+00  0.00000000000E+00  0.99999998245E-14  0.12500000000E+03  0.12500000000E+03 0.  0.
        -13    1    3    3    0    0 -0.32907653404E+02  0.39110348798E+01  0.14083927380E+02  0.36008027172E+02  0.10566000000E+00 0. -1.
         23    2    1    0    0    0  0.12925085701E+02  0.32460145369E+01 -0.25276216540E+02  0.96425858309E+02  0.92094867269E+02 0.  0.
         13    1    3    3    0    0  0.45832739104E+02 -0.66502034296E+00 -0.39360143920E+02  0.60417831137E+02  0.10566000000E+00 0.  1.
         22    1    1    0    0    0 -0.12925085701E+02 -0.32460145369E+01  0.25276216540E+02  0.28574141691E+02  0.00000000000E+00 0.  1.
</event>
<event>
 5    1  0.8943334E-005  0.9118800E+02  0.7818608E-02  0.1130116E+00
         25   -1    0    0    0    0  0.00000000000E+00  0.00000000000E+00  0.99999998245E-14  0.12500000000E+03  0.12500000000E+03 0.  0.
        -13    1    3    3    0    0 -0.36029546640E+02  0.16411662404E+02  0.94188341327E+01  0.40696394120E+02  0.10566000000E+00 0.  1.
         23    2    1    0    0    0 -0.63907937909E+01  0.19191255823E+02 -0.29213168541E+02  0.89467539326E+02  0.82108981430E+02 0.  0.
         13    1    3    3    0    0  0.29638752849E+02  0.27795934194E+01 -0.38632002674E+02  0.48771145205E+02  0.10566000000E+00 0. -1.
         22    1    1    0    0    0  0.63907937909E+01 -0.19191255823E+02  0.29213168541E+02  0.35532460674E+02  0.00000000000E+00 0. -1.
</event>
<event>
 5    1  0.8943334E-005  0.9118800E+02  0.7818608E-02  0.1130116E+00
         25   -1    0    0    0    0  0.00000000000E+00  0.00000000000E+00  0.99999998245E-14  0.12500000000E+03  0.12500000000E+03 0.  0.
        -13    1    3    3    0    0 -0.23416638261E+02  0.30951754621E+02 -0.18949063245E+02  0.43190603416E+02  0.10566000000E+00 0. -1.
         23    2    1    0    0    0  0.13137078579E+02 -0.30915464615E+01 -0.27964707650E+02  0.93948987665E+02  0.88669312144E+02 0.  0.
         13    1    3    3    0    0  0.36553716840E+02 -0.34043301082E+02 -0.90156444045E+01  0.50758384248E+02  0.10566000000E+00 0.  1.
         22    1    1    0    0    0 -0.13137078579E+02  0.30915464615E+01  0.27964707650E+02  0.31051012335E+02  0.00000000000E+00 0.  1.
</event>
<event>
 5    1  0.8943334E-005  0.9118800E+02  0.7818608E-02  0.1130116E+00
         25   -1    0    0    0    0  0.00000000000E+00  0.00000000000E+00  0.99999998245E-14  0.12500000000E+03  0.12500000000E+03 0.  0.
        -13    1    3    3    0    0  0.18144289010E+02  0.27111518468E+02  0.42478714948E+02  0.53560265543E+02  0.10566000000E+00 0.  1.
         23    2    1    0    0    0 -0.92535496796E+01  0.57892536045E+01  0.33990096326E+02  0.89300276090E+02  0.81853949340E+02 0.  0.
         13    1    3    3    0    0 -0.27397838690E+02 -0.21322264864E+02 -0.84886186219E+01  0.35740010547E+02  0.10566000000E+00 0. -1.
         22    1    1    0    0    0  0.92535496796E+01 -0.57892536045E+01 -0.33990096326E+02  0.35699723910E+02  0.00000000000E+00 0.  1.
</event>
<event>
 5    1  0.8943334E-005  0.9118800E+02  0.7818608E-02  0.1130116E+00
         25   -1    0    0    0    0  0.00000000000E+00  0.00000000000E+00  0.99999998245E-14  0.12500000000E+03  0.12500000000E+03 0.  0.
        -13    1    3    3    0    0  0.54848328715E+02  0.12555749837E+02 -0.31012574405E+01  0.56352595135E+02  0.10566000000E+00 0. -1.
         23    2    1    0    0    0  0.16869483297E+02  0.12863665612E+02  0.15580514299E+02  0.98678795895E+02  0.95103622296E+02 0.  0.
         13    1    3    3    0    0 -0.37978845418E+02  0.30791577530E+00  0.18681771740E+02  0.42326200760E+02  0.10566000000E+00 0.  1.
         22    1    1    0    0    0 -0.16869483297E+02 -0.12863665612E+02 -0.15580514299E+02  0.26321204105E+02  0.00000000000E+00 0. -1.
</event>
<event>
 5    1  0.8943334E-005  0.9118800E+02  0.7818608E-02  0.1130116E+00
         25   -1    0    0    0    0  0.00000000000E+00  0.00000000000E+00  0.99999998245E-14  0.12500000000E+03  0.12500000000E+03 0.  0.
        -13    1    3    3    0    0  0.16154359609E+02 -0.89110849735E+00 -0.28828753300E+02  0.33058517656E+02  0.10566000000E+00 0. -1.
         23    2    1    0    0    0 -0.31556567441E+01 -0.10035353226E+02  0.28703188813E+02  0.94429760683E+02  0.89344502744E+02 0.  0.
         13    1    3    3    0    0 -0.19310016353E+02 -0.91442447288E+01  0.57531942114E+02  0.61371243027E+02  0.10566000000E+00 0.  1.
         22    1    1    0    0    0  0.31556567441E+01  0.10035353226E+02 -0.28703188813E+02  0.30570239317E+02  0.00000000000E+00 0.  1.
</event>
<event>
 5    1  0.8943334E-005  0.9118800E+02  0.7818608E-02  0.1130116E+00
         25   -1    0    0    0    0  0.00000000000E+00  0.00000000000E+00  0.99999998245E-14  0.12500000000E+03  0.12500000000E+03 0.  0.
        -13    1    3    3    0    0 -0.38577218031E+02 -0.27174863294E+02  0.25744844630E+02  0.53753912742E+02  0.10566000000E+00 0.  1.
         23    2    1    0    0    0 -0.11666899498E+02 -0.25022079814E+02 -0.73178772301E+01  0.96438271248E+02  0.92111713761E+02 0.  0.
         13    1    3    3    0    0  0.26910318533E+02  0.21527834795E+01 -0.33062721860E+02  0.42684358506E+02  0.10566000000E+00 0. -1.
         22    1    1    0    0    0  0.11666899498E+02  0.25022079814E+02  0.73178772301E+01  0.28561728752E+02  0.00000000000E+00 0.  1.
</event>
<event>
 5    1  0.8943334E-005  0.9118800E+02  0.7818608E-02  0.1130116E+00
         25   -1    0    0    0    0  0.00000000000E+00  0.00000000000E+00  0.99999998245E-14  0.12500000000E+03  0.12500000000E+03 0.  0.
        -13    1    3    3    0    0  0.32276396029E+02  0.25538220075E+02  0.41360443139E+02  0.58349497392E+02  0.10566000000E+00 0.  1.
         23    2    1    0    0    0  0.28591145363E+02  0.11750816625E+02  0.10494240790E+02  0.92355484775E+02  0.86393698808E+02 0.  0.
         13    1    3    3    0    0 -0.36852506656E+01 -0.13787403450E+02 -0.30866202349E+02  0.34005987382E+02  0.10566000000E+00 0. -1.
         22    1    1    0    0    0 -0.28591145363E+02 -0.11750816625E+02 -0.10494240790E+02  0.32644515225E+02  0.00000000000E+00 0.  1.
</event>
<event>
 5    1  0.8943334E-005  0.9118800E+02  0.7818608E-02  0.1130116E+00
         25   -1    0    0    0    0  0.00000000000E+00  0.00000000000E+00  0.99999998245E-14  0.12500000000E+03  0.12500000000E+03 0.  0.
        -13    1    3    3    0    0  0.13985325783E+02 -0.16328969304E+02 -0.48843951489E+02  0.53366350230E+02  0.10566000000E+00 0.  1.
         23    2    1    0    0    0  0.21735206754E+02 -0.18378151381E+02 -0.73840719055E+01  0.95594215217E+02  0.90959077635E+02 0.  0.
         13    1    3    3    0    0  0.77498809716E+01 -0.20491820772E+01  0.41459879583E+02  0.42227864987E+02  0.10566000000E+00 0. -1.
         22    1    1    0    0    0 -0.21735206754E+02  0.18378151381E+02  0.73840719055E+01  0.29405784783E+02  0.00000000000E+00 0.  1.
</event>
<event>
 5    1  0.8943334E-005  0.9118800E+02  0.7818608E-02  0.1130116E+00
         25   -1    0    0    0    0  0.00000000000E+00  0.00000000000E+00  0.99999998245E-14  0.12500000000E+03  0.12500000000E+03 0.  0.
        -13    1    3    3    0    0 -0.18213699350E+02  0.16993563632E+02 -0.40349046755E+02  0.47419160547E+02  0.10566000000E+00 0.  1.
         23    2    1    0    0    0 -0.13225489279E+02  0.36987123617E+02 -0.93841323242E+01  0.84614076467E+02  0.74354012109E+02 0.  0.
         13    1    3    3    0    0  0.49882100709E+01  0.19993559985E+02  0.30964914430E+02  0.37194915920E+02  0.10566000000E+00 0. -1.
         22    1    1    0    0    0  0.13225489279E+02 -0.36987123617E+02  0.93841323242E+01  0.40385923533E+02  0.00000000000E+00 0.  1.
</event>
<event>
 5    1  0.8943334E-005  0.9118800E+02  0.7818608E-02  0.1130116E+00
         25   -1    0    0    0    0  0.00000000000E+00  0.00000000000E+00  0.99999998245E-14  0.12500000000E+03  0.12500000000E+03 0.  0.
        -13    1    3    3    0    0 -0.40536666297E+01  0.25961847091E+02  0.42595126395E+02  0.50048033669E+02  0.10566000000E+00 0.  1.
         23    2    1    0    0    0 -0.25766076287E+02  0.13138710520E+02  0.45051764648E+01  0.95728631458E+02  0.91143611211E+02 0.  0.
         13    1    3    3    0    0 -0.21712409657E+02 -0.12823136570E+02 -0.38089949930E+02  0.45680597789E+02  0.10566000000E+00 0. -1.
         22    1    1    0    0    0  0.25766076287E+02 -0.13138710520E+02 -0.45051764648E+01  0.29271368542E+02  0.00000000000E+00 0.  1.
</event>
<event>
 5    1  0.8943334E-005  0.9118800E+02  0.7818608E-02  0.1130116E+00
         25   -1    0    0    0    0  0.00000000000E+00  0.00000000000E+00  0.99999998245E-14  0.12500000000E+03  0.12500000000E+03 0.  0.
        -13    1    3    3    0    0  0.21192102456E+02 -0.47166605096E+02 -0.51375277690E+01  0.51963440979E+02  0.10566000000E+00 0.  1.
         23    2    1    0    0    0  0.64937070183E+00 -0.17950360735E+02  0.21839783653E+02  0.96722565837E+02  0.92496710532E+02 0.  0.
         13    1    3    3    0    0 -0.20542731754E+02  0.29216244361E+02  0.26977311422E+02  0.44759124858E+02  0.10566000000E+00 0. -1.
         22    1    1    0    0    0 -0.64937070183E+00  0.17950360735E+02 -0.21839783653E+02  0.28277434163E+02  0.00000000000E+00 0.  1.
</event>
<event>
 5    1  0.8943334E-005  0.9118800E+02  0.7818608E-02  0.1130116E+00
         25   -1    0    0    0    0  0.00000000000E+00  0.00000000000E+00  0.99999998245E-14  0.12500000000E+03  0.12500000000E+03 0.  0.
        -13    1    3    3    0    0  0.21637572677E+02 -0.22179286064E+02 -0.36431206365E+02  0.47826240108E+02  0.10566000000E+00 0.  1.
         23    2    1    0    0    0 -0.13611811153E+02  0.64448420623E+01 -0.26821021129E+02  0.94239886761E+02  0.89078458060E+02 0.  0.
         13    1    3    3    0    0 -0.35249383829E+02  0.28624128127E+02  0.96101852357E+01  0.46413646653E+02  0.10566000000E+00 0. -1.
         22    1    1    0    0    0  0.13611811153E+02 -0.64448420623E+01  0.26821021129E+02  0.30760113239E+02  0.00000000000E+00 0.  1.
</event>
<event>
 5    1  0.8943334E-005  0.9118800E+02  0.7818608E-02  0.1130116E+00
         25   -1    0    0    0    0  0.00000000000E+00  0.00000000000E+00  0.99999998245E-14  0.12500000000E+03  0.12500000000E+03 0.  0.
        -13    1    3    3    0    0  0.79422631829E+01  0.33828452198E+02 -0.40072220616E+02  0.53039963723E+02  0.10566000000E+00 0. -1.
         23    2    1    0    0    0  0.19748805711E+02  0.22542684964E+02 -0.14255849702E+01  0.94996329143E+02  0.90133691180E+02 0.  0.
         13    1    3    3    0    0  0.11806542528E+02 -0.11285767235E+02  0.38646635645E+02  0.41956365420E+02  0.10566000000E+00 0.  1.
         22    1    1    0    0    0 -0.19748805711E+02 -0.22542684964E+02  0.14255849702E+01  0.30003670857E+02  0.00000000000E+00 0.  1.
</event>
<event>
 5    1  0.8943334E-005  0.9118800E+02  0.7818608E-02  0.1130116E+00
         25   -1    0    0    0    0  0.00000000000E+00  0.00000000000E+00  0.99999998245E-14  0.12500000000E+03  0.12500000000E+03 0.  0.
        -13    1    3    3    0    0 -0.24647073883E+02 -0.31222202306E+01  0.28804847469E+02  0.38038886838E+02  0.10566000000E+00 0.  1.
         23    2    1    0    0    0 -0.17664542773E+02  0.26018215303E+01 -0.25931999103E+02  0.93515493904E+02  0.88056081425E+02 0.  0.
         13    1    3    3    0    0  0.69825311100E+01  0.57240417609E+01 -0.54736846572E+02  0.55476607065E+02  0.10566000000E+00 0. -1.
         22    1    1    0    0    0  0.17664542773E+02 -0.26018215303E+01  0.25931999103E+02  0.31484506096E+02  0.00000000000E+00 0. -1.
</event>
<event>
 5    1  0.8943334E-005  0.9118800E+02  0.7818608E-02  0.1130116E+00
         25   -1    0    0    0    0  0.00000000000E+00  0.00000000000E+00  0.99999998245E-14  0.12500000000E+03  0.12500000000E+03 0.  0.
        -13    1    3    3    0    0  0.24820020775E+02 -0.21279173000E+02  0.53079371288E+02  0.62339934674E+02  0.10566000000E+00 0.  1.
         23    2    1    0    0    0  0.11915788243E+02 -0.65228637270E+01  0.24286972946E+02  0.97172121613E+02  0.93102257777E+02 0.  0.
         13    1    3    3    0    0 -0.12904232533E+02  0.14756309273E+02 -0.28792398341E+02  0.34832186938E+02  0.10566000000E+00 0. -1.
         22    1    1    0    0    0 -0.11915788243E+02  0.65228637270E+01 -0.24286972946E+02  0.27827878387E+02  0.00000000000E+00 0.  1.
</event>
<event>
 5    1  0.8943334E-005  0.9118800E+02  0.7818608E-02  0.1130116E+00
         25   -1    0    0    0    0  0.00000000000E+00  0.00000000000E+00  0.99999998245E-14  0.12500000000E+03  0.12500000000E+03 0.  0.
        -13    1    3    3    0    0 -0.23481210290E+02  0.30404732502E+02 -0.21340006759E+02  0.43945671546E+02  0.10566000000E+00 0. -1.
         23    2    1    0    0    0 -0.19867041848E+02 -0.19296871235E+02 -0.26138236893E+01  0.97180929823E+02  0.93114083016E+02 0.  0.
         13    1    3    3    0    0  0.36141684420E+01 -0.49701603736E+02  0.18726183069E+02  0.53235258277E+02  0.10566000000E+00 0.  1.
         22    1    1    0    0    0  0.19867041848E+02  0.19296871235E+02  0.26138236893E+01  0.27819070177E+02  0.00000000000E+00 0.  1.
</event>
<event>
 5    1  0.8943334E-005  0.9118800E+02  0.7818608E-02  0.1130116E+00
         25   -1    0    0    0    0  0.00000000000E+00  0.00000000000E+00  0.99999998245E-14  0.12500000000E+03  0.12500000000E+03 0.  0.
        -13    1    3    3    0    0 -0.36638352976E+02  0.18450688412E+02 -0.17662873002E+02  0.44663016673E+02  0.10566000000E+00 0.  1.
         23    2    1    0    0    0  0.15576607595E+02  0.48785261407E+01 -0.20628690951E+02  0.98694608693E+02  0.95124403668E+02 0.  0.
         13    1    3    3    0    0  0.52214960570E+02 -0.13572162271E+02 -0.29658179490E+01  0.54031592020E+02  0.10566000000E+00 0. -1.
         22    1    1    0    0    0 -0.15576607595E+02 -0.48785261407E+01  0.20628690951E+02  0.26305391307E+02  0.00000000000E+00 0. -1.
</event>
<event>
 5    1  0.8943334E-005  0.9118800E+02  0.7818608E-02  0.1130116E+00
         25   -1    0    0    0    0  0.00000000000E+00  0.00000000000E+00  0.99999998245E-14  0.12500000000E+03  0.12500000000E+03 0.  0.
        -13    1    3    3    0    0  0.23776727226E+02  0.17835400190E+02 -0.17882680002E+02  0.34687687522E+02  0.10566000000E+00 0.  1.
         23    2    1    0    0    0 -0.15038566021E+02 -0.25752119643E+01  0.24798732966E+02  0.95883555482E+02  0.91355836543E+02 0.  0.
         13    1    3    3    0    0 -0.38815293247E+02 -0.20410612155E+02  0.42681412968E+02  0.61195867960E+02  0.10566000000E+00 0. -1.
         22    1    1    0    0    0  0.15038566021E+02  0.25752119643E+01 -0.24798732966E+02  0.29116444518E+02  0.00000000000E+00 0. -1.
</event>
<event>
 5    1  0.8943334E-005  0.9118800E+02  0.7818608E-02  0.1130116E+00
         25   -1    0    0    0    0  0.00000000000E+00  0.00000000000E+00  0.99999998245E-14  0.12500000000E+03  0.12500000000E+03 0.  0.
        -13    1    3    3    0    0  0.28617560671E+02  0.22970849611E+01 -0.16906389794E+01  0.28759534110E+02  0.10566000000E+00 0. -1.
         23    2    1    0    0    0 -0.32291922859E+02 -0.52407697117E+01  0.90280474716E+01  0.91062710917E+02  0.84502530905E+02 0.  0.
         13    1    3    3    0    0 -0.60909483530E+02 -0.75378546728E+01  0.10718686451E+02  0.62303176807E+02  0.10566000000E+00 0.  1.
         22    1    1    0    0    0  0.32291922859E+02  0.52407697117E+01 -0.90280474716E+01  0.33937289083E+02  0.00000000000E+00 0.  1.
</event>
<event>
 5    1  0.8943334E-005  0.9118800E+02  0.7818608E-02  0.1130116E+00
         25   -1    0    0    0    0  0.00000000000E+00  0.00000000000E+00  0.99999998245E-14  0.12500000000E+03  0.12500000000E+03 0.  0.
        -13    1    3    3    0    0  0.21094074603E+02 -0.75533828877E+01 -0.28107588688E+02  0.35945253960E+02  0.10566000000E+00 0.  1.
         23    2    1    0    0    0 -0.34394601069E+01 -0.99227479846E+01  0.26845818403E+02  0.96173124014E+02  0.91751190747E+02 0.  0.
         13    1    3    3    0    0 -0.24533534710E+02 -0.23693650969E+01  0.54953407091E+02  0.60227870054E+02  0.10566000000E+00 0. -1.
         22    1    1    0    0    0  0.34394601069E+01  0.99227479846E+01 -0.26845818403E+02  0.28826875986E+02  0.00000000000E+00 0. -1.
</event>
<event>
 5    1  0.8943334E-005  0.9118800E+02  0.7818608E-02  0.1130116E+00
         25   -1    0    0    0    0  0.00000000000E+00  0.00000000000E+00  0.99999998245E-14  0.12500000000E+03  0.12500000000E+03 0.  0.
        -13    1    3    3    0    0  0.31791087741E+02 -0.36118169009E+02  0.30922996709E+02  0.57196488370E+02  0.10566000000E+00 0. -1.
         23    2    1    0    0    0  0.20670091114E+02 -0.21020370545E+00  0.19744764356E+02  0.96414119364E+02  0.92078932667E+02 0.  0.
         13    1    3    3    0    0 -0.11120996626E+02  0.35907965304E+02 -0.11178232354E+02  0.39217630994E+02  0.10566000000E+00 0.  1.
         22    1    1    0    0    0 -0.20670091114E+02  0.21020370545E+00 -0.19744764356E+02  0.28585880636E+02  0.00000000000E+00 0. -1.
</event>
<event>
 5    1  0.8943334E-005  0.9118800E+02  0.7818608E-02  0.1130116E+00
         25   -1    0    0    0    0  0.00000000000E+00  0.00000000000E+00  0.99999998245E-14  0.12500000000E+03  0.12500000000E+03 0.  0.
        -13    1    3    3    0    0  0.55491998978E+02  0.21253514418E+02  0.12245032588E+02  0.60671457975E+02  0.10566000000E+00 0. -1.
         23    2    1    0    0    0  0.24181554447E+02  0.16338460804E+02 -0.26598073933E+01  0.95695265702E+02  0.91097839851E+02 0.  0.
         13    1    3    3    0    0 -0.31310444532E+02 -0.49150536132E+01 -0.14904839981E+02  0.35023807727E+02  0.10566000000E+00 0.  1.
         22    1    1    0    0    0 -0.24181554447E+02 -0.16338460804E+02  0.26598073933E+01  0.29304734298E+02  0.00000000000E+00 0. -1.
</event>
<event>
 5    1  0.8943334E-005  0.9118800E+02  0.7818608E-02  0.1130116E+00
         25   -1    0    0    0    0  0.00000000000E+00  0.00000000000E+00  0.99999998245E-14  0.12500000000E+03  0.12500000000E+03 0.  0.
        -13    1    3    3    0    0 -0.28848186919E+02 -0.27878156683E+02 -0.23481981583E+01  0.40186250225E+02  0.10566000000E+00 0.  1.
         23    2    1    0    0    0  0.36413627133E+01  0.55663290384E+01 -0.29915918997E+02  0.94353536079E+02  0.89237794795E+02 0.  0.
         13    1    3    3    0    0  0.32489549632E+02  0.33444485722E+02 -0.27567720839E+02  0.54167285854E+02  0.10566000000E+00 0. -1.
         22    1    1    0    0    0 -0.36413627133E+01 -0.55663290384E+01  0.29915918997E+02  0.30646463921E+02  0.00000000000E+00 0. -1.
</event>
<event>
 5    1  0.8943334E-005  0.9118800E+02  0.7818608E-02  0.1130116E+00
         25   -1    0    0    0    0  0.00000000000E+00  0.00000000000E+00  0.99999998245E-14  0.12500000000E+03  0.12500000000E+03 0.  0.
        -13    1    3    3    0    0 -0.27728181615E+02 -0.91525487501E+01  0.54526260765E+02  0.61852610950E+02  0.10566000000E+00 0. -1.
         23    2    1    0    0    0 -0.10120194602E+02  0.11610643507E+01  0.27181771467E+02  0.95972166645E+02  0.91477000723E+02 0.  0.
         13    1    3    3    0    0  0.17607987013E+02  0.10313613101E+02 -0.27344489298E+02  0.34119555695E+02  0.10566000000E+00 0.  1.
         22    1    1    0    0    0  0.10120194602E+02 -0.11610643507E+01 -0.27181771467E+02  0.29027833355E+02  0.00000000000E+00 0. -1.
</event>
<event>
 5    1  0.8943334E-005  0.9118800E+02  0.7818608E-02  0.1130116E+00
         25   -1    0    0    0    0  0.00000000000E+00  0.00000000000E+00  0.99999998245E-14  0.12500000000E+03  0.12500000000E+03 0.  0.
        -13    1    3    3    0    0  0.59520107820E+02  0.17582007435E+02  0.73197157094E+01  0.62492876573E+02  0.10566000000E+00 0. -1.
         23    2    1    0    0    0  0.24215375024E+02  0.73683723328E+01  0.36107608252E+01  0.99432151203E+02  0.96088697570E+02 0.  0.
         13    1    3    3    0    0 -0.35304732796E+02 -0.10213635102E+02 -0.37089548842E+01  0.36939274629E+02  0.10566000000E+00 0.  1.
         22    1    1    0    0    0 -0.24215375024E+02 -0.73683723328E+01 -0.36107608252E+01  0.25567848797E+02  0.00000000000E+00 0. -1.
</event>
<event>
 5    1  0.8943334E-005  0.9118800E+02  0.7818608E-02  0.1130116E+00
         25   -1    0    0    0    0  0.00000000000E+00  0.00000000000E+00  0.99999998245E-14  0.12500000000E+03  0.12500000000E+03 0.  0.
        -13    1    3    3    0    0  0.12684106435E+02 -0.62511301448E+01  0.42689425387E+02  0.44970672533E+02  0.10566000000E+00 0. -1.
         23    2    1    0    0    0 -0.26868180305E+02 -0.57812497982E+01  0.12113462874E+02  0.94965720503E+02  0.90091232235E+02 0.  0.
         13    1    3    3    0    0 -0.39552286740E+02  0.46988034664E+00 -0.30575962512E+02  0.49995047970E+02  0.10566000000E+00 0.  1.
         22    1    1    0    0    0  0.26868180305E+02  0.57812497982E+01 -0.12113462874E+02  0.30034279497E+02  0.00000000000E+00 0.  1.
</event>
<event>
 5    1  0.8943334E-005  0.9118800E+02  0.7818608E-02  0.1130116E+00
         25   -1    0    0    0    0  0.00000000000E+00  0.00000000000E+00  0.99999998245E-14  0.12500000000E+03  0.12500000000E+03 0.  0.
        -13    1    3    3    0    0  0.35722712450E+02  0.19002828295E+02  0.98918542664E+01  0.41654286848E+02  0.10566000000E+00 0.  1.
         23    2    1    0    0    0  0.37316825088E+01 -0.26147001356E+02  0.93194505364E+01  0.96992085180E+02  0.92860224505E+02 0.  0.
         13    1    3    3    0    0 -0.31991029941E+02 -0.45149829651E+02 -0.57240372996E+00  0.55337798332E+02  0.10566000000E+00 0. -1.
         22    1    1    0    0    0 -0.37316825088E+01  0.26147001356E+02 -0.93194505364E+01  0.28007914820E+02  0.00000000000E+00 0. -1.
</event>
<event>
 5    1  0.8943334E-005  0.9118800E+02  0.7818608E-02  0.1130116E+00
         25   -1    0    0    0    0  0.00000000000E+00  0.00000000000E+00  0.99999998245E-14  0.12500000000E+03  0.12500000000E+03 0.  0.
        -13    1    3    3    0    0  0.38511914235E+02  0.27420077301E+01  0.48795592901E+02  0.62223043922E+02  0.10566000000E+00 0.  1.
         23    2    1    0    0    0  0.17935518872E+02 -0.28713164421E+01  0.22024076632E+02  0.96452018516E+02  0.92130367572E+02 0.  0.
         13    1    3    3    0    0 -0.20576395362E+02 -0.56133241722E+01 -0.26771516269E+02  0.34228974594E+02  0.10566000000E+00 0. -1.
         22    1    1    0    0    0 -0.17935518872E+02  0.28713164421E+01 -0.22024076632E+02  0.28547981484E+02  0.00000000000E+00 0.  1.
</event>
<event>
 5    1  0.8943334E-005  0.9118800E+02  0.7818608E-02  0.1130116E+00
         25   -1    0    0    0    0  0.00000000000E+00  0.00000000000E+00  0.99999998245E-14  0.12500000000E+03  0.12500000000E+03 0.  0.
        -13    1    3    3    0    0  0.17100170979E+02  0.26133603303E+02 -0.94407305394E+01  0.32626976971E+02  0.10566000000E+00 0.  1.
         23    2    1    0    0    0 -0.15519847707E+02 -0.94436733866E+01  0.26545172620E+02  0.92833327351E+02  0.87082327930E+02 0.  0.
         13    1    3    3    0    0 -0.32620018686E+02 -0.35577276690E+02  0.35985903160E+02  0.60206350379E+02  0.10566000000E+00 0. -1.
         22    1    1    0    0    0  0.15519847707E+02  0.94436733866E+01 -0.26545172620E+02  0.32166672649E+02  0.00000000000E+00 0. -1.
</event>
<event>
 5    1  0.8943334E-005  0.9118800E+02  0.7818608E-02  0.1130116E+00
         25   -1    0    0    0    0  0.00000000000E+00  0.00000000000E+00  0.99999998245E-14  0.12500000000E+03  0.12500000000E+03 0.  0.
        -13    1    3    3    0    0 -0.14645340615E+02  0.49946377538E+02 -0.42120480473E+00  0.52051082682E+02  0.10566000000E+00 0. -1.
         23    2    1    0    0    0 -0.20979981056E+02  0.10879528872E+02 -0.17936723453E+02  0.95330995942E+02  0.90596627892E+02 0.  0.
         13    1    3    3    0    0 -0.63346404407E+01 -0.39066848666E+02 -0.17515518648E+02  0.43279913259E+02  0.10566000000E+00 0.  1.
         22    1    1    0    0    0  0.20979981056E+02 -0.10879528872E+02  0.17936723453E+02  0.29669004058E+02  0.00000000000E+00 0.  1.
</event>
<event>
 5    1  0.8943334E-005  0.9118800E+02  0.7818608E-02  0.1130116E+00
         25   -1    0    0    0    0  0.00000000000E+00  0.00000000000E+00  0.99999998245E-14  0.12500000000E+03  0.12500000000E+03 0.  0.
        -13    1    3    3    0    0  0.12621028480E+02  0.20453847985E+02  0.37614377911E+02  0.44637460131E+02  0.10566000000E+00 0. -1.
         23    2    1    0    0    0 -0.93880798528E+01  0.28110653951E+02 -0.66182864181E+01  0.94633132793E+02  0.89628584716E+02 0.  0.
         13    1    3    3    0    0 -0.22009108333E+02  0.76568059660E+01 -0.44232664329E+02  0.49995672662E+02  0.10566000000E+00 0.  1.
         22    1    1    0    0    0  0.93880798528E+01 -0.28110653951E+02  0.66182864181E+01  0.30366867207E+02  0.00000000000E+00 0.  1.
</event>
<event>
 5    1  0.8943334E-005  0.9118800E+02  0.7818608E-02  0.1130116E+00
         25   -1    0    0    0    0  0.00000000000E+00  0.00000000000E+00  0.99999998245E-14  0.12500000000E+03  0.12500000000E+03 0.  0.
        -13    1    3    3    0    0  0.21099838263E+02 -0.29038368354E+02 -0.10129655522E+02  0.37296797401E+02  0.10566000000E+00 0. -1.
         23    2    1    0    0    0 -0.20234628323E+02  0.11785582815E+02 -0.17372834120E+02  0.95842573656E+02  0.91299744873E+02 0.  0.
         13    1    3    3    0    0 -0.41334466586E+02  0.40823951169E+02 -0.72431785981E+01  0.58545776255E+02  0.10566000000E+00 0.  1.
         22    1    1    0    0    0  0.20234628323E+02 -0.11785582815E+02  0.17372834120E+02  0.29157426344E+02  0.00000000000E+00 0.  1.
</event>
<event>
 5    1  0.8943334E-005  0.9118800E+02  0.7818608E-02  0.1130116E+00
         25   -1    0    0    0    0  0.00000000000E+00  0.00000000000E+00  0.99999998245E-14  0.12500000000E+03  0.12500000000E+03 0.  0.
        -13    1    3    3    0    0  0.56510261571E+01 -0.43511054795E+02 -0.35798677883E+02  0.56627753692E+02  0.10566000000E+00 0.  1.
         23    2    1    0    0    0 -0.12959065660E+02 -0.26210878199E+02 -0.71935904582E+01  0.94888619055E+02  0.89984191743E+02 0.  0.
         13    1    3    3    0    0 -0.18610091817E+02  0.17300176596E+02  0.28605087425E+02  0.38260865362E+02  0.10566000000E+00 0. -1.
         22    1    1    0    0    0  0.12959065660E+02  0.26210878199E+02  0.71935904582E+01  0.30111380945E+02  0.00000000000E+00 0.  1.
</event>
<event>
 5    1  0.8943334E-005  0.9118800E+02  0.7818608E-02  0.1130116E+00
         25   -1    0    0    0    0  0.00000000000E+00  0.00000000000E+00  0.99999998245E-14  0.12500000000E+03  0.12500000000E+03 0.  0.
        -13    1    3    3    0    0 -0.40505196678E+02  0.44773579762E+02 -0.61869540575E+01  0.60692948249E+02  0.10566000000E+00 0.  1.
         23    2    1    0    0    0 -0.25566562033E+02  0.13002582313E+02 -0.54204255771E+01  0.95809295068E+02  0.91254171231E+02 0.  0.
         13    1    3    3    0    0  0.14938634646E+02 -0.31770997449E+02  0.76652848041E+00  0.35116346819E+02  0.10566000000E+00 0. -1.
         22    1    1    0    0    0  0.25566562033E+02 -0.13002582313E+02  0.54204255771E+01  0.29190704932E+02  0.00000000000E+00 0.  1.
</event>
<event>
 5    1  0.8943334E-005  0.9118800E+02  0.7818608E-02  0.1130116E+00
         25   -1    0    0    0    0  0.00000000000E+00  0.00000000000E+00  0.99999998245E-14  0.12500000000E+03  0.12500000000E+03 0.  0.
        -13    1    3    3    0    0 -0.34799436105E+02  0.84425958003E+01  0.23632734926E+02  0.42904492786E+02  0.10566000000E+00 0.  1.
         23    2    1    0    0    0  0.44574691283E+01  0.24835884404E+02 -0.10719454656E+02  0.97584732479E+02  0.93654594760E+02 0.  0.
         13    1    3    3    0    0  0.39256905233E+02  0.16393288603E+02 -0.34352189582E+02  0.54680239693E+02  0.10566000000E+00 0. -1.
         22    1    1    0    0    0 -0.44574691283E+01 -0.24835884404E+02  0.10719454656E+02  0.27415267521E+02  0.00000000000E+00 0. -1.
</event>
<event>
 5    1  0.8943334E-005  0.9118800E+02  0.7818608E-02  0.1130116E+00
         25   -1    0    0    0    0  0.00000000000E+00  0.00000000000E+00  0.99999998245E-14  0.12500000000E+03  0.12500000000E+03 0.  0.
        -13    1    3    3    0    0  0.22090272509E+02  0.31641971881E+02 -0.43584097671E+02  0.58213222363E+02  0.10566000000E+00 0. -1.
         23    2    1    0    0    0  0.21614900281E+02  0.12811307859E+02 -0.77349856532E+01  0.98710010912E+02  0.95144641089E+02 0.  0.
         13    1    3    3    0    0 -0.47537222733E+00 -0.18830664023E+02  0.35849112018E+02  0.40496788549E+02  0.10566000000E+00 0.  1.
         22    1    1    0    0    0 -0.21614900281E+02 -0.12811307859E+02  0.77349856532E+01  0.26289989088E+02  0.00000000000E+00 0. -1.
</event>
<event>
 5    1  0.8943334E-005  0.9118800E+02  0.7818608E-02  0.1130116E+00
         25   -1    0    0    0    0  0.00000000000E+00  0.00000000000E+00  0.99999998245E-14  0.12500000000E+03  0.12500000000E+03 0.  0.
        -13    1    3    3    0    0 -0.22796618336E+02 -0.46540247531E+01  0.33169385747E+02  0.40516232165E+02  0.10566000000E+00 0.  1.
         23    2    1    0    0    0 -0.17063028841E+01  0.29100223139E+02 -0.47217588999E+01  0.95469855006E+02  0.90788015462E+02 0.  0.
         13    1    3    3    0    0  0.21090315452E+02  0.33754247892E+02 -0.37891144647E+02  0.54953622841E+02  0.10566000000E+00 0. -1.
         22    1    1    0    0    0  0.17063028841E+01 -0.29100223139E+02  0.47217588999E+01  0.29530144994E+02  0.00000000000E+00 0. -1.
</event>
<event>
 5    1  0.8943334E-005  0.9118800E+02  0.7818608E-02  0.1130116E+00
         25   -1    0    0    0    0  0.00000000000E+00  0.00000000000E+00  0.99999998245E-14  0.12500000000E+03  0.12500000000E+03 0.  0.
        -13    1    3    3    0    0 -0.57483301641E+02  0.20496676142E+00  0.74045747417E+01  0.57958699693E+02  0.10566000000E+00 0.  1.
         23    2    1    0    0    0 -0.22325259115E+02 -0.14397190276E+02  0.11103460241E+02  0.96207933181E+02  0.91798601815E+02 0.  0.
         13    1    3    3    0    0  0.35158042526E+02 -0.14602157037E+02  0.36988854992E+01  0.38249233488E+02  0.10566000000E+00 0. -1.
         22    1    1    0    0    0  0.22325259115E+02  0.14397190276E+02 -0.11103460241E+02  0.28792066819E+02  0.00000000000E+00 0.  1.
</event>
<event>
 5    1  0.8943334E-005  0.9118800E+02  0.7818608E-02  0.1130116E+00
         25   -1    0    0    0    0  0.00000000000E+00  0.00000000000E+00  0.99999998245E-14  0.12500000000E+03  0.12500000000E+03 0.  0.
        -13    1    3    3    0    0 -0.65391749282E+01  0.19740020751E+02  0.28123242789E+02  0.34976523226E+02  0.10566000000E+00 0. -1.
         23    2    1    0    0    0  0.29115670124E+02  0.28496243310E+01 -0.13894052077E+02  0.92613470567E+02  0.86766166458E+02 0.  0.
         13    1    3    3    0    0  0.35654845052E+02 -0.16890396420E+02 -0.42017294866E+02  0.57636947341E+02  0.10566000000E+00 0.  1.
         22    1    1    0    0    0 -0.29115670124E+02 -0.28496243310E+01  0.13894052077E+02  0.32386529433E+02  0.00000000000E+00 0.  1.
</event>
<event>
 5    1  0.8943334E-005  0.9118800E+02  0.7818608E-02  0.1130116E+00
         25   -1    0    0    0    0  0.00000000000E+00  0.00000000000E+00  0.99999998245E-14  0.12500000000E+03  0.12500000000E+03 0.  0.
        -13    1    3    3    0    0 -0.33235346234E+02 -0.12607941723E+02  0.11269608247E+02  0.37290262373E+02  0.10566000000E+00 0. -1.
         23    2    1    0    0    0  0.56488896840E+01  0.59147184504E+01 -0.28155556678E+02  0.95680565816E+02  0.91077667153E+02 0.  0.
         13    1    3    3    0    0  0.38884235918E+02  0.18522660173E+02 -0.39425164925E+02  0.58390303443E+02  0.10566000000E+00 0.  1.
         22    1    1    0    0    0 -0.56488896840E+01 -0.59147184504E+01  0.28155556678E+02  0.29319434184E+02  0.00000000000E+00 0.  1.
</event>
<event>
 5    1  0.8943334E-005  0.9118800E+02  0.7818608E-02  0.1130116E+00
         25   -1    0    0    0    0  0.00000000000E+00  0.00000000000E+00  0.99999998245E-14  0.12500000000E+03  0.12500000000E+03 0.  0.
        -13    1    3    3    0    0 -0.14347965191E+02 -0.27300734779E+02 -0.13962039849E+02  0.33854747752E+02  0.10566000000E+00 0.  1.
         23    2    1    0    0    0  0.15908285619E+02  0.25008833889E+02 -0.46611686340E+01  0.94995969989E+02  0.90133193094E+02 0.  0.
         13    1    3    3    0    0  0.30256250810E+02  0.52309568668E+02  0.93008712148E+01  0.61141222237E+02  0.10566000000E+00 0. -1.
         22    1    1    0    0    0 -0.15908285619E+02 -0.25008833889E+02  0.46611686340E+01  0.30004030011E+02  0.00000000000E+00 0. -1.
</event>
<event>
 5    1  0.8943334E-005  0.9118800E+02  0.7818608E-02  0.1130116E+00
         25   -1    0    0    0    0  0.00000000000E+00  0.00000000000E+00  0.99999998245E-14  0.12500000000E+03  0.12500000000E+03 0.  0.
        -13    1    3    3    0    0 -0.27023980425E+02  0.24512112978E+02 -0.36270633793E+02  0.51446178094E+02  0.10566000000E+00 0.  1.
         23    2    1    0    0    0  0.13181577167E+02  0.17849060264E+02 -0.19298049323E+02  0.95593238250E+02  0.90957735034E+02 0.  0.
         13    1    3    3    0    0  0.40205557592E+02 -0.66630527148E+01  0.16972584470E+02  0.44147060156E+02  0.10566000000E+00 0. -1.
         22    1    1    0    0    0 -0.13181577167E+02 -0.17849060264E+02  0.19298049323E+02  0.29406761750E+02  0.00000000000E+00 0. -1.
</event>
<event>
 5    1  0.8943334E-005  0.9118800E+02  0.7818608E-02  0.1130116E+00
         25   -1    0    0    0    0  0.00000000000E+00  0.00000000000E+00  0.99999998245E-14  0.12500000000E+03  0.12500000000E+03 0.  0.
        -13    1    3    3    0    0  0.98688168005E+01 -0.15206297410E+02  0.48989626842E+02  0.52236191746E+02  0.10566000000E+00 0. -1.
         23    2    1    0    0    0  0.25911135549E+02 -0.11325100895E+02  0.92820998570E+01  0.95237570102E+02  0.90467632474E+02 0.  0.
         13    1    3    3    0    0  0.16042318748E+02  0.38811965148E+01 -0.39707526985E+02  0.43001378356E+02  0.10566000000E+00 0.  1.
         22    1    1    0    0    0 -0.25911135549E+02  0.11325100895E+02 -0.92820998570E+01  0.29762429898E+02  0.00000000000E+00 0. -1.
</event>
<event>
 5    1  0.8943334E-005  0.9118800E+02  0.7818608E-02  0.1130116E+00
         25   -1    0    0    0    0  0.00000000000E+00  0.00000000000E+00  0.99999998245E-14  0.12500000000E+03  0.12500000000E+03 0.  0.
        -13    1    3    3    0    0 -0.30943772522E+02 -0.59403789360E+01  0.20783533966E+02  0.37746146928E+02  0.10566000000E+00 0.  1.
         23    2    1    0    0    0 -0.65312276907E+01  0.79770727092E+01 -0.28618366544E+02  0.94581230666E+02  0.89556170454E+02 0.  0.
         13    1    3    3    0    0  0.24412544831E+02  0.13917451645E+02 -0.49401900510E+02  0.56835083738E+02  0.10566000000E+00 0. -1.
         22    1    1    0    0    0  0.65312276907E+01 -0.79770727092E+01  0.28618366544E+02  0.30418769334E+02  0.00000000000E+00 0. -1.
</event>
<event>
 5    1  0.8943334E-005  0.9118800E+02  0.7818608E-02  0.1130116E+00
         25   -1    0    0    0    0  0.00000000000E+00  0.00000000000E+00  0.99999998245E-14  0.12500000000E+03  0.12500000000E+03 0.  0.
        -13    1    3    3    0    0  0.40489405443E+01 -0.38373775075E+02 -0.11577483001E+02  0.40286347684E+02  0.10566000000E+00 0.  1.
         23    2    1    0    0    0 -0.82040006821E+01  0.74119867812E+01  0.23351377662E+02  0.99163397787E+02  0.95738442888E+02 0.  0.
         13    1    3    3    0    0 -0.12252941226E+02  0.45785761857E+02  0.34928860663E+02  0.58877050102E+02  0.10566000000E+00 0. -1.
         22    1    1    0    0    0  0.82040006821E+01 -0.74119867812E+01 -0.23351377662E+02  0.25836602213E+02  0.00000000000E+00 0. -1.
</event>
<event>
 5    1  0.8943334E-005  0.9118800E+02  0.7818608E-02  0.1130116E+00
         25   -1    0    0    0    0  0.00000000000E+00  0.00000000000E+00  0.99999998245E-14  0.12500000000E+03  0.12500000000E+03 0.  0.
        -13    1    3    3    0    0  0.25277887797E+02 -0.33966850362E+02 -0.64680490341E+01  0.42831826453E+02  0.10566000000E+00 0.  1.
         23    2    1    0    0    0  0.82267073661E+01  0.10678052847E+02 -0.26981480267E+02  0.94838769851E+02  0.89914917910E+02 0.  0.
         13    1    3    3    0    0 -0.17051180431E+02  0.44644903209E+02 -0.20513431233E+02  0.52006943398E+02  0.10566000000E+00 0. -1.
         22    1    1    0    0    0 -0.82267073661E+01 -0.10678052847E+02  0.26981480267E+02  0.30161230149E+02  0.00000000000E+00 0.  1.
</event>
<event>
 5    1  0.8943334E-005  0.9118800E+02  0.7818608E-02  0.1130116E+00
         25   -1    0    0    0    0  0.00000000000E+00  0.00000000000E+00  0.99999998245E-14  0.12500000000E+03  0.12500000000E+03 0.  0.
        -13    1    3    3    0    0  0.26476916884E+02  0.16147512643E+02  0.37244741143E+02  0.48465979811E+02  0.10566000000E+00 0. -1.
         23    2    1    0    0    0 -0.15484802638E+02  0.13347374625E+01  0.26554221449E+02  0.94231715784E+02  0.89066991339E+02 0.  0.
         13    1    3    3    0    0 -0.41961719522E+02 -0.14812775180E+02 -0.10690519694E+02  0.45765735973E+02  0.10566000000E+00 0.  1.
         22    1    1    0    0    0  0.15484802638E+02 -0.13347374625E+01 -0.26554221449E+02  0.30768284216E+02  0.00000000000E+00 0.  1.
</event>
<event>
 5    1  0.8943334E-005  0.9118800E+02  0.7818608E-02  0.1130116E+00
         25   -1    0    0    0    0  0.00000000000E+00  0.00000000000E+00  0.99999998245E-14  0.12500000000E+03  0.12500000000E+03 0.  0.
        -13    1    3    3    0    0 -0.17162200800E+02  0.42196811723E+02  0.30549168506E+02  0.54848654645E+02  0.10566000000E+00 0.  1.
         23    2    1    0    0    0  0.12449672531E+02  0.19112266286E+02  0.21900402643E+02  0.93378793435E+02  0.87861813996E+02 0.  0.
         13    1    3    3    0    0  0.29611873331E+02 -0.23084545437E+02 -0.86487658636E+01  0.38530138790E+02  0.10566000000E+00 0. -1.
         22    1    1    0    0    0 -0.12449672531E+02 -0.19112266286E+02 -0.21900402643E+02  0.31621206565E+02  0.00000000000E+00 0.  1.
</event>
<event>
 5    1  0.8943334E-005  0.9118800E+02  0.7818608E-02  0.1130116E+00
         25   -1    0    0    0    0  0.00000000000E+00  0.00000000000E+00  0.99999998245E-14  0.12500000000E+03  0.12500000000E+03 0.  0.
        -13    1    3    3    0    0  0.37456841086E+02  0.15317319008E+02 -0.38636998560E+02  0.55950549841E+02  0.10566000000E+00 0.  1.
         23    2    1    0    0    0  0.13327498892E+00  0.35600473661E+01 -0.28370594950E+02  0.96406602908E+02  0.92068728279E+02 0.  0.
         13    1    3    3    0    0 -0.37323566097E+02 -0.11757271642E+02  0.10266403610E+02  0.40456053067E+02  0.10566000000E+00 0. -1.
         22    1    1    0    0    0 -0.13327498892E+00 -0.35600473661E+01  0.28370594950E+02  0.28593397092E+02  0.00000000000E+00 0. -1.
</event>
<event>
 5    1  0.8943334E-005  0.9118800E+02  0.7818608E-02  0.1130116E+00
         25   -1    0    0    0    0  0.00000000000E+00  0.00000000000E+00  0.99999998245E-14  0.12500000000E+03  0.12500000000E+03 0.  0.
        -13    1    3    3    0    0  0.23919144899E+01 -0.25738834017E+02 -0.56575157976E+02  0.62201032914E+02  0.10566000000E+00 0.  1.
         23    2    1    0    0    0 -0.23427908312E+01 -0.98556467275E+01 -0.27849316565E+02  0.95365444588E+02  0.90644145685E+02 0.  0.
         13    1    3    3    0    0 -0.47347053211E+01  0.15883187290E+02  0.28725841410E+02  0.33164411675E+02  0.10566000000E+00 0. -1.
         22    1    1    0    0    0  0.23427908312E+01  0.98556467275E+01  0.27849316565E+02  0.29634555412E+02  0.00000000000E+00 0.  1.
</event>
<event>
 5    1  0.8943334E-005  0.9118800E+02  0.7818608E-02  0.1130116E+00
         25   -1    0    0    0    0  0.00000000000E+00  0.00000000000E+00  0.99999998245E-14  0.12500000000E+03  0.12500000000E+03 0.  0.
        -13    1    3    3    0    0 -0.60376570942E+01 -0.30174177715E+02 -0.18001340820E+02  0.35650999135E+02  0.10566000000E+00 0. -1.
         23    2    1    0    0    0  0.61650254394E+01  0.31470405326E+01  0.29362102348E+02  0.94833056882E+02  0.89906975372E+02 0.  0.
         13    1    3    3    0    0  0.12202682534E+02  0.33321218247E+02  0.47363443168E+02  0.59182057748E+02  0.10566000000E+00 0.  1.
         22    1    1    0    0    0 -0.61650254394E+01 -0.31470405326E+01 -0.29362102348E+02  0.30166943118E+02  0.00000000000E+00 0.  1.
</event>
<event>
 5    1  0.8943334E-005  0.9118800E+02  0.7818608E-02  0.1130116E+00
         25   -1    0    0    0    0  0.00000000000E+00  0.00000000000E+00  0.99999998245E-14  0.12500000000E+03  0.12500000000E+03 0.  0.
        -13    1    3    3    0    0  0.33900988805E+02 -0.88053542628E+01 -0.49860319052E+02  0.60933356100E+02  0.10566000000E+00 0. -1.
         23    2    1    0    0    0  0.19882041573E+02  0.43829633168E+01 -0.19993764702E+02  0.96464818706E+02  0.92147732888E+02 0.  0.
         13    1    3    3    0    0 -0.14018947232E+02  0.13188317580E+02  0.29866554350E+02  0.35531462605E+02  0.10566000000E+00 0.  1.
         22    1    1    0    0    0 -0.19882041573E+02 -0.43829633168E+01  0.19993764702E+02  0.28535181294E+02  0.00000000000E+00 0. -1.
</event>
<event>
 5    1  0.8943334E-005  0.9118800E+02  0.7818608E-02  0.1130116E+00
         25   -1    0    0    0    0  0.00000000000E+00  0.00000000000E+00  0.99999998245E-14  0.12500000000E+03  0.12500000000E+03 0.  0.
        -13    1    3    3    0    0 -0.51440611208E+02 -0.24250474034E+02  0.16330509409E+02  0.59168561533E+02  0.10566000000E+00 0. -1.
         23    2    1    0    0    0 -0.19785842780E+02 -0.21771932859E+02  0.17179901119E+02  0.90931750303E+02  0.84308585422E+02 0.  0.
         13    1    3    3    0    0  0.31654768427E+02  0.24785411750E+01  0.84939171038E+00  0.31763188770E+02  0.10566000000E+00 0.  1.
         22    1    1    0    0    0  0.19785842780E+02  0.21771932859E+02 -0.17179901119E+02  0.34068249697E+02  0.00000000000E+00 0. -1.
</event>
<event>
 5    1  0.8943334E-005  0.9118800E+02  0.7818608E-02  0.1130116E+00
         25   -1    0    0    0    0  0.00000000000E+00  0.00000000000E+00  0.99999998245E-14  0.12500000000E+03  0.12500000000E+03 0.  0.
        -13    1    3    3    0    0 -0.31475962518E+02 -0.20569031452E+02  0.79112794308E+01  0.38424221235E+02  0.10566000000E+00 0. -1.
         23    2    1    0    0    0  0.88253531565E+00  0.27859530637E+02  0.65578662384E+00  0.97118781017E+02  0.93030614607E+02 0.  0.
         13    1    3    3    0    0  0.32358497833E+02  0.48428562089E+02 -0.72554928070E+01  0.58694559781E+02  0.10566000000E+00 0.  1.
         22    1    1    0    0    0 -0.88253531565E+00 -0.27859530637E+02 -0.65578662384E+00  0.27881218983E+02  0.00000000000E+00 0.  1.
</event>
<event>
 5    1  0.8943334E-005  0.9118800E+02  0.7818608E-02  0.1130116E+00
         25   -1    0    0    0    0  0.00000000000E+00  0.00000000000E+00  0.99999998245E-14  0.12500000000E+03  0.12500000000E+03 0.  0.
        -13    1    3    3    0    0 -0.42667774924E+02  0.51035540753E+01 -0.26754258294E+01  0.43055247631E+02  0.10566000000E+00 0.  1.
         23    2    1    0    0    0 -0.15796722183E+01 -0.71853099065E+01  0.28171839727E+02  0.95883396551E+02  0.91355619082E+02 0.  0.
         13    1    3    3    0    0  0.41088102706E+02 -0.12288863982E+02  0.30847265557E+02  0.52828148920E+02  0.10566000000E+00 0. -1.
         22    1    1    0    0    0  0.15796722183E+01  0.71853099065E+01 -0.28171839727E+02  0.29116603449E+02  0.00000000000E+00 0. -1.
</event>
<event>
 5    1  0.8943334E-005  0.9118800E+02  0.7818608E-02  0.1130116E+00
         25   -1    0    0    0    0  0.00000000000E+00  0.00000000000E+00  0.99999998245E-14  0.12500000000E+03  0.12500000000E+03 0.  0.
        -13    1    3    3    0    0 -0.14367482192E+02 -0.10995991329E+02 -0.59182156668E+02  0.61885985504E+02  0.10566000000E+00 0.  1.
         23    2    1    0    0    0 -0.11191621261E+02 -0.86516428095E+00 -0.27619504258E+02  0.95186615235E+02  0.90397200227E+02 0.  0.
         13    1    3    3    0    0  0.31758609317E+01  0.10130827048E+02  0.31562652410E+02  0.33300629732E+02  0.10566000000E+00 0. -1.
         22    1    1    0    0    0  0.11191621261E+02  0.86516428095E+00  0.27619504258E+02  0.29813384765E+02  0.00000000000E+00 0.  1.
</event>
<event>
 5    1  0.8943334E-005  0.9118800E+02  0.7818608E-02  0.1130116E+00
         25   -1    0    0    0    0  0.00000000000E+00  0.00000000000E+00  0.99999998245E-14  0.12500000000E+03  0.12500000000E+03 0.  0.
        -13    1    3    3    0    0  0.13025817507E+02  0.53861698490E+02 -0.16335789769E+01  0.55438562664E+02  0.10566000000E+00 0.  1.
         23    2    1    0    0    0 -0.56860013470E+01  0.23758018056E+02  0.16762178364E+02  0.95373244241E+02  0.90654900918E+02 0.  0.
         13    1    3    3    0    0 -0.18711818854E+02 -0.30103680434E+02  0.18395757341E+02  0.39934681577E+02  0.10566000000E+00 0. -1.
         22    1    1    0    0    0  0.56860013470E+01 -0.23758018056E+02 -0.16762178364E+02  0.29626755759E+02  0.00000000000E+00 0.  1.
</event>
<event>
 5    1  0.8943334E-005  0.9118800E+02  0.7818608E-02  0.1130116E+00
         25   -1    0    0    0    0  0.00000000000E+00  0.00000000000E+00  0.99999998245E-14  0.12500000000E+03  0.12500000000E+03 0.  0.
        -13    1    3    3    0    0  0.55538074510E+01  0.29324680328E+02  0.34107267217E+02  0.45322163392E+02  0.10566000000E+00 0. -1.
         23    2    1    0    0    0  0.29774765657E+02  0.16413168142E+01  0.45574328709E+00  0.95176547940E+02  0.90383278238E+02 0.  0.
         13    1    3    3    0    0  0.24220958206E+02 -0.27683363513E+02 -0.33651523929E+02  0.49854384548E+02  0.10566000000E+00 0.  1.
         22    1    1    0    0    0 -0.29774765657E+02 -0.16413168142E+01 -0.45574328709E+00  0.29823452060E+02  0.00000000000E+00 0.  1.
</event>
<event>
 5    1  0.8943334E-005  0.9118800E+02  0.7818608E-02  0.1130116E+00
         25   -1    0    0    0    0  0.00000000000E+00  0.00000000000E+00  0.99999998245E-14  0.12500000000E+03  0.12500000000E+03 0.  0.
        -13    1    3    3    0    0  0.10045027316E+00 -0.35591619888E+01  0.34614475601E+02  0.34797281640E+02  0.10566000000E+00 0.  1.
         23    2    1    0    0    0 -0.14040168729E+02  0.52779976119E+01 -0.24530001986E+02  0.96247528903E+02  0.91852502556E+02 0.  0.
         13    1    3    3    0    0 -0.14140619002E+02  0.88371596007E+01 -0.59144477588E+02  0.61450247263E+02  0.10566000000E+00 0. -1.
         22    1    1    0    0    0  0.14040168729E+02 -0.52779976119E+01  0.24530001986E+02  0.28752471097E+02  0.00000000000E+00 0. -1.
</event>
<event>
 5    1  0.8943334E-005  0.9118800E+02  0.7818608E-02  0.1130116E+00
         25   -1    0    0    0    0  0.00000000000E+00  0.00000000000E+00  0.99999998245E-14  0.12500000000E+03  0.12500000000E+03 0.  0.
        -13    1    3    3    0    0 -0.39317873926E+01  0.45618354742E+02 -0.28652135334E+02  0.54013417450E+02  0.10566000000E+00 0.  1.
         23    2    1    0    0    0 -0.45599542838E+01  0.25678729689E+02  0.96434173288E+01  0.97193780564E+02  0.93131332757E+02 0.  0.
         13    1    3    3    0    0 -0.62816689120E+00 -0.19939625052E+02  0.38295552663E+02  0.43180363114E+02  0.10566000000E+00 0. -1.
         22    1    1    0    0    0  0.45599542838E+01 -0.25678729689E+02 -0.96434173288E+01  0.27806219436E+02  0.00000000000E+00 0.  1.
</event>
<event>
 5    1  0.8943334E-005  0.9118800E+02  0.7818608E-02  0.1130116E+00
         25   -1    0    0    0    0  0.00000000000E+00  0.00000000000E+00  0.99999998245E-14  0.12500000000E+03  0.12500000000E+03 0.  0.
        -13    1    3    3    0    0  0.14426478441E+01  0.21451907072E+02  0.43976936242E+02  0.48951482461E+02  0.10566000000E+00 0.  1.
         23    2    1    0    0    0  0.88371625185E+01  0.30251481452E+02  0.96865328737E+00  0.93469287026E+02  0.87990464010E+02 0.  0.
         13    1    3    3    0    0  0.73945146744E+01  0.87995743801E+01 -0.43008282955E+02  0.44517804565E+02  0.10566000000E+00 0. -1.
         22    1    1    0    0    0 -0.88371625185E+01 -0.30251481452E+02 -0.96865328737E+00  0.31530712974E+02  0.00000000000E+00 0. -1.
</event>
<event>
 5    1  0.8943334E-005  0.9118800E+02  0.7818608E-02  0.1130116E+00
         25   -1    0    0    0    0  0.00000000000E+00  0.00000000000E+00  0.99999998245E-14  0.12500000000E+03  0.12500000000E+03 0.  0.
        -13    1    3    3    0    0  0.25116001128E+02  0.44650611300E+02  0.20683095519E+02  0.55247553850E+02  0.10566000000E+00 0.  1.
         23    2    1    0    0    0  0.16974012983E+02  0.37998669162E+02 -0.50800121956E+01  0.83073606180E+02  0.71717512123E+02 0.  0.
         13    1    3    3    0    0 -0.81419881456E+01 -0.66519421375E+01 -0.25763107714E+02  0.27826052330E+02  0.10566000000E+00 0. -1.
         22    1    1    0    0    0 -0.16974012983E+02 -0.37998669162E+02  0.50800121956E+01  0.41926393820E+02  0.00000000000E+00 0.  1.
</event>
<event>
 5    1  0.8943334E-005  0.9118800E+02  0.7818608E-02  0.1130116E+00
         25   -1    0    0    0    0  0.00000000000E+00  0.00000000000E+00  0.99999998245E-14  0.12500000000E+03  0.12500000000E+03 0.  0.
        -13    1    3    3    0    0  0.10913280974E+02  0.33699251703E+02 -0.22457640355E+01  0.35493575293E+02  0.10566000000E+00 0.  1.
         23    2    1    0    0    0  0.13147631023E+02 -0.26312634507E+02 -0.10507600294E+00  0.95585276183E+02  0.90946792389E+02 0.  0.
         13    1    3    3    0    0  0.22343500497E+01 -0.60011886210E+02  0.21406880326E+01  0.60091700891E+02  0.10566000000E+00 0. -1.
         22    1    1    0    0    0 -0.13147631023E+02  0.26312634507E+02  0.10507600294E+00  0.29414723817E+02  0.00000000000E+00 0. -1.
</event>
<event>
 5    1  0.8943334E-005  0.9118800E+02  0.7818608E-02  0.1130116E+00
         25   -1    0    0    0    0  0.00000000000E+00  0.00000000000E+00  0.99999998245E-14  0.12500000000E+03  0.12500000000E+03 0.  0.
        -13    1    3    3    0    0 -0.27700509124E+02  0.27526370034E+02  0.44377378003E+02  0.59113298804E+02  0.10566000000E+00 0.  1.
         23    2    1    0    0    0 -0.24716667134E+02  0.82453081806E+01  0.13457988210E+02  0.95673967403E+02  0.91068610677E+02 0.  0.
         13    1    3    3    0    0  0.29838419901E+01 -0.19281061854E+02 -0.30919389792E+02  0.36560668599E+02  0.10566000000E+00 0. -1.
         22    1    1    0    0    0  0.24716667134E+02 -0.82453081806E+01 -0.13457988210E+02  0.29326032597E+02  0.00000000000E+00 0.  1.
</event>
<event>
 5    1  0.8943334E-005  0.9118800E+02  0.7818608E-02  0.1130116E+00
         25   -1    0    0    0    0  0.00000000000E+00  0.00000000000E+00  0.99999998245E-14  0.12500000000E+03  0.12500000000E+03 0.  0.
        -13    1    3    3    0    0  0.33467438532E+02 -0.22535674281E+02 -0.15746341118E+02  0.43311482078E+02  0.10566000000E+00 0.  1.
         23    2    1    0    0    0 -0.19094387861E+02 -0.17551082691E+02 -0.12501800969E+02  0.96208835055E+02  0.91799829868E+02 0.  0.
         13    1    3    3    0    0 -0.52561826393E+02  0.49845915894E+01  0.32445401495E+01  0.52897352977E+02  0.10566000000E+00 0. -1.
         22    1    1    0    0    0  0.19094387861E+02  0.17551082691E+02  0.12501800969E+02  0.28791164945E+02  0.00000000000E+00 0. -1.
</event>
<event>
 5    1  0.8943334E-005  0.9118800E+02  0.7818608E-02  0.1130116E+00
         25   -1    0    0    0    0  0.00000000000E+00  0.00000000000E+00  0.99999998245E-14  0.12500000000E+03  0.12500000000E+03 0.  0.
        -13    1    3    3    0    0 -0.12403268240E+02 -0.34324062161E+02 -0.23275325969E+02  0.43286652322E+02  0.10566000000E+00 0.  1.
         23    2    1    0    0    0 -0.10458495544E+02 -0.98569290208E+01  0.24270301245E+02  0.96793853484E+02  0.92592998499E+02 0.  0.
         13    1    3    3    0    0  0.19447726967E+01  0.24467133140E+02  0.47545627214E+02  0.53507201162E+02  0.10566000000E+00 0. -1.
         22    1    1    0    0    0  0.10458495544E+02  0.98569290208E+01 -0.24270301245E+02  0.28206146516E+02  0.00000000000E+00 0. -1.
</event>
<event>
 5    1  0.8943334E-005  0.9118800E+02  0.7818608E-02  0.1130116E+00
         25   -1    0    0    0    0  0.00000000000E+00  0.00000000000E+00  0.99999998245E-14  0.12500000000E+03  0.12500000000E+03 0.  0.
        -13    1    3    3    0    0  0.46499219984E+02  0.35289263733E+01  0.13436002229E+02  0.48530074185E+02  0.10566000000E+00 0.  1.
         23    2    1    0    0    0  0.39384041986E+01  0.46640567445E+01  0.30126869375E+02  0.94260892803E+02  0.89107930066E+02 0.  0.
         13    1    3    3    0    0 -0.42560815786E+02  0.11351303712E+01  0.16690867146E+02  0.45730818617E+02  0.10566000000E+00 0. -1.
         22    1    1    0    0    0 -0.39384041986E+01 -0.46640567445E+01 -0.30126869375E+02  0.30739107197E+02  0.00000000000E+00 0.  1.
</event>
<event>
 5    1  0.8943334E-005  0.9118800E+02  0.7818608E-02  0.1130116E+00
         25   -1    0    0    0    0  0.00000000000E+00  0.00000000000E+00  0.99999998245E-14  0.12500000000E+03  0.12500000000E+03 0.  0.
        -13    1    3    3    0    0 -0.11388792483E+02 -0.47311217124E+02 -0.35413912206E+02  0.60184817037E+02  0.10566000000E+00 0.  1.
         23    2    1    0    0    0 -0.19657242166E+01 -0.28123502511E+02 -0.66295343909E+01  0.96038884838E+02  0.91568123327E+02 0.  0.
         13    1    3    3    0    0  0.94230682667E+01  0.19187714613E+02  0.28784377816E+02  0.35854067801E+02  0.10566000000E+00 0. -1.
         22    1    1    0    0    0  0.19657242166E+01  0.28123502511E+02  0.66295343909E+01  0.28961115162E+02  0.00000000000E+00 0.  1.
</event>
<event>
 5    1  0.8943334E-005  0.9118800E+02  0.7818608E-02  0.1130116E+00
         25   -1    0    0    0    0  0.00000000000E+00  0.00000000000E+00  0.99999998245E-14  0.12500000000E+03  0.12500000000E+03 0.  0.
        -13    1    3    3    0    0 -0.54823416558E+02  0.25419723061E+02  0.15137707384E+02  0.62297116085E+02  0.10566000000E+00 0.  1.
         23    2    1    0    0    0 -0.24536503591E+02  0.14490326648E+02  0.93318345967E+01  0.95015125283E+02  0.90159754441E+02 0.  0.
         13    1    3    3    0    0  0.30286912968E+02 -0.10929396412E+02 -0.58058727877E+01  0.32718009198E+02  0.10566000000E+00 0. -1.
         22    1    1    0    0    0  0.24536503591E+02 -0.14490326648E+02 -0.93318345967E+01  0.29984874717E+02  0.00000000000E+00 0.  1.
</event>
<event>
 5    1  0.8943334E-005  0.9118800E+02  0.7818608E-02  0.1130116E+00
         25   -1    0    0    0    0  0.00000000000E+00  0.00000000000E+00  0.99999998245E-14  0.12500000000E+03  0.12500000000E+03 0.  0.
        -13    1    3    3    0    0  0.12065174016E+02 -0.45013296836E+02  0.32747743320E+02  0.56957801684E+02  0.10566000000E+00 0.  1.
         23    2    1    0    0    0  0.22584055753E+02 -0.13570842597E+02  0.12194697847E+02  0.95966949891E+02  0.91469871940E+02 0.  0.
         13    1    3    3    0    0  0.10518881737E+02  0.31442454239E+02 -0.20553045473E+02  0.39009148207E+02  0.10566000000E+00 0. -1.
         22    1    1    0    0    0 -0.22584055753E+02  0.13570842597E+02 -0.12194697847E+02  0.29033050109E+02  0.00000000000E+00 0.  1.
</event>
<event>
 5    1  0.8943334E-005  0.9118800E+02  0.7818608E-02  0.1130116E+00
         25   -1    0    0    0    0  0.00000000000E+00  0.00000000000E+00  0.99999998245E-14  0.12500000000E+03  0.12500000000E+03 0.  0.
        -13    1    3    3    0    0 -0.34776722155E+01 -0.31562655817E+02 -0.10698375828E+02  0.33507638765E+02  0.10566000000E+00 0.  1.
         23    2    1    0    0    0  0.19049237545E+01  0.27088502838E+02  0.10184005460E+02  0.95997764091E+02  0.91511972019E+02 0.  0.
         13    1    3    3    0    0  0.53825959700E+01  0.58651158655E+02  0.20882381288E+02  0.62490125326E+02  0.10566000000E+00 0. -1.
         22    1    1    0    0    0 -0.19049237545E+01 -0.27088502838E+02 -0.10184005460E+02  0.29002235909E+02  0.00000000000E+00 0. -1.
</event>
<event>
 5    1  0.8943334E-005  0.9118800E+02  0.7818608E-02  0.1130116E+00
         25   -1    0    0    0    0  0.00000000000E+00  0.00000000000E+00  0.99999998245E-14  0.12500000000E+03  0.12500000000E+03 0.  0.
        -13    1    3    3    0    0 -0.31554359674E+02 -0.15879034887E+02  0.61543717344E+01  0.35856782049E+02  0.10566000000E+00 0.  1.
         23    2    1    0    0    0  0.43332553414E+01  0.15608741282E+02  0.31255286194E+02  0.89796266940E+02  0.82607909640E+02 0.  0.
         13    1    3    3    0    0  0.35887615016E+02  0.31487776169E+02  0.25100914460E+02  0.53939484891E+02  0.10566000000E+00 0. -1.
         22    1    1    0    0    0 -0.43332553414E+01 -0.15608741282E+02 -0.31255286194E+02  0.35203733060E+02  0.00000000000E+00 0. -1.
</event>
<event>
 5    1  0.8943334E-005  0.9118800E+02  0.7818608E-02  0.1130116E+00
         25   -1    0    0    0    0  0.00000000000E+00  0.00000000000E+00  0.99999998245E-14  0.12500000000E+03  0.12500000000E+03 0.  0.
        -13    1    3    3    0    0 -0.34393980548E+02 -0.32768535957E+02  0.17553840724E+02  0.50644558789E+02  0.10566000000E+00 0. -1.
         23    2    1    0    0    0 -0.18259891311E+02 -0.19251902875E+02 -0.18681295028E+02  0.92549265356E+02  0.86673619626E+02 0.  0.
         13    1    3    3    0    0  0.16134089237E+02  0.13516633082E+02 -0.36235135753E+02  0.41904706567E+02  0.10566000000E+00 0.  1.
         22    1    1    0    0    0  0.18259891311E+02  0.19251902875E+02  0.18681295028E+02  0.32450734644E+02  0.00000000000E+00 0. -1.
</event>
<event>
 5    1  0.8943334E-005  0.9118800E+02  0.7818608E-02  0.1130116E+00
         25   -1    0    0    0    0  0.00000000000E+00  0.00000000000E+00  0.99999998245E-14  0.12500000000E+03  0.12500000000E+03 0.  0.
        -13    1    3    3    0    0 -0.30607927867E+02 -0.54501533598E+01 -0.12357131384E+02  0.33455332610E+02  0.10566000000E+00 0.  1.
         23    2    1    0    0    0  0.29737572725E+02 -0.14474784153E+00 -0.96788790367E-01  0.95261917486E+02  0.90501267237E+02 0.  0.
         13    1    3    3    0    0  0.60345500593E+02  0.53054055183E+01  0.12260342594E+02  0.61806584876E+02  0.10566000000E+00 0. -1.
         22    1    1    0    0    0 -0.29737572725E+02  0.14474784153E+00  0.96788790367E-01  0.29738082514E+02  0.00000000000E+00 0. -1.
</event>
<event>
 5    1  0.8943334E-005  0.9118800E+02  0.7818608E-02  0.1130116E+00
         25   -1    0    0    0    0  0.00000000000E+00  0.00000000000E+00  0.99999998245E-14  0.12500000000E+03  0.12500000000E+03 0.  0.
        -13    1    3    3    0    0  0.39417037231E+02 -0.36265898912E+02 -0.26239741306E+02  0.59644391487E+02  0.10566000000E+00 0.  1.
         23    2    1    0    0    0  0.12109457565E+02 -0.24994747115E+02 -0.33332341864E+01  0.97027034551E+02  0.92907258262E+02 0.  0.
         13    1    3    3    0    0 -0.27307579666E+02  0.11271151797E+02  0.22906507119E+02  0.37382643064E+02  0.10566000000E+00 0. -1.
         22    1    1    0    0    0 -0.12109457565E+02  0.24994747115E+02  0.33332341864E+01  0.27972965449E+02  0.00000000000E+00 0.  1.
</event>
<event>
 5    1  0.8943334E-005  0.9118800E+02  0.7818608E-02  0.1130116E+00
         25   -1    0    0    0    0  0.00000000000E+00  0.00000000000E+00  0.99999998245E-14  0.12500000000E+03  0.12500000000E+03 0.  0.
        -13    1    3    3    0    0  0.46620976845E+02 -0.49172190782E+01  0.32214939468E+02  0.56881526126E+02  0.10566000000E+00 0. -1.
         23    2    1    0    0    0  0.10478956056E+02  0.90327922045E+01  0.25199557530E+02  0.96252520898E+02  0.91859295797E+02 0.  0.
         13    1    3    3    0    0 -0.36142020789E+02  0.13950011283E+02 -0.70153819384E+01  0.39370994771E+02  0.10566000000E+00 0.  1.
         22    1    1    0    0    0 -0.10478956056E+02 -0.90327922045E+01 -0.25199557530E+02  0.28747479102E+02  0.00000000000E+00 0. -1.
</event>
<event>
 5    1  0.8943334E-005  0.9118800E+02  0.7818608E-02  0.1130116E+00
         25   -1    0    0    0    0  0.00000000000E+00  0.00000000000E+00  0.99999998245E-14  0.12500000000E+03  0.12500000000E+03 0.  0.
        -13    1    3    3    0    0 -0.82022486287E+00  0.33685575565E+02 -0.34527193865E+02  0.48244471707E+02  0.10566000000E+00 0.  1.
         23    2    1    0    0    0  0.23691254982E+02  0.26631641608E+02 -0.23870516126E+01  0.89275807738E+02  0.81816574938E+02 0.  0.
         13    1    3    3    0    0  0.24511479845E+02 -0.70539339573E+01  0.32140142253E+02  0.41031336032E+02  0.10566000000E+00 0. -1.
         22    1    1    0    0    0 -0.23691254982E+02 -0.26631641608E+02  0.23870516126E+01  0.35724192262E+02  0.00000000000E+00 0.  1.
</event>
<event>
 5    1  0.8943334E-005  0.9118800E+02  0.7818608E-02  0.1130116E+00
         25   -1    0    0    0    0  0.00000000000E+00  0.00000000000E+00  0.99999998245E-14  0.12500000000E+03  0.12500000000E+03 0.  0.
        -13    1    3    3    0    0  0.28245860984E+02 -0.71600362967E+01  0.48970537878E+02  0.56984379672E+02  0.10566000000E+00 0. -1.
         23    2    1    0    0    0  0.25685556582E+02 -0.12430483916E+01  0.85734136356E+01  0.97892871646E+02  0.94064966441E+02 0.  0.
         13    1    3    3    0    0 -0.25603044021E+01  0.59169879051E+01 -0.40397124242E+02  0.40908491974E+02  0.10566000000E+00 0.  1.
         22    1    1    0    0    0 -0.25685556582E+02  0.12430483916E+01 -0.85734136356E+01  0.27107128354E+02  0.00000000000E+00 0. -1.
</event>
<event>
 5    1  0.8943334E-005  0.9118800E+02  0.7818608E-02  0.1130116E+00
         25   -1    0    0    0    0  0.00000000000E+00  0.00000000000E+00  0.99999998245E-14  0.12500000000E+03  0.12500000000E+03 0.  0.
        -13    1    3    3    0    0  0.21030032562E+02  0.26929690973E+02  0.11943806612E+02  0.36195803706E+02  0.10566000000E+00 0. -1.
         23    2    1    0    0    0 -0.27535462223E+02  0.39078481281E+01 -0.11592476989E+02  0.94869310005E+02  0.89957364908E+02 0.  0.
         13    1    3    3    0    0 -0.48565494785E+02 -0.23021842845E+02 -0.23536283601E+02  0.58673506300E+02  0.10566000000E+00 0.  1.
         22    1    1    0    0    0  0.27535462223E+02 -0.39078481281E+01  0.11592476989E+02  0.30130689995E+02  0.00000000000E+00 0.  1.
</event>
<event>
 5    1  0.8943334E-005  0.9118800E+02  0.7818608E-02  0.1130116E+00
         25   -1    0    0    0    0  0.00000000000E+00  0.00000000000E+00  0.99999998245E-14  0.12500000000E+03  0.12500000000E+03 0.  0.
        -13    1    3    3    0    0  0.21215339559E+02 -0.21018217009E+01 -0.44772899058E+02  0.49589635421E+02  0.10566000000E+00 0. -1.
         23    2    1    0    0    0  0.12327793553E+02 -0.25745744941E+02 -0.60528939444E+01  0.95820291270E+02  0.91269232590E+02 0.  0.
         13    1    3    3    0    0 -0.88875460066E+01 -0.23643923241E+02  0.38720005114E+02  0.46230655849E+02  0.10566000000E+00 0.  1.
         22    1    1    0    0    0 -0.12327793553E+02  0.25745744941E+02  0.60528939444E+01  0.29179708730E+02  0.00000000000E+00 0. -1.
</event>
<event>
 5    1  0.8943334E-005  0.9118800E+02  0.7818608E-02  0.1130116E+00
         25   -1    0    0    0    0  0.00000000000E+00  0.00000000000E+00  0.99999998245E-14  0.12500000000E+03  0.12500000000E+03 0.  0.
        -13    1    3    3    0    0 -0.42136664568E+02 -0.38213226750E+02  0.13993736506E+01  0.56900954387E+02  0.10566000000E+00 0.  1.
         23    2    1    0    0    0 -0.90801536951E+01 -0.24494437384E+02  0.14630590122E+02  0.95058710429E+02  0.90220161866E+02 0.  0.
         13    1    3    3    0    0  0.33056510873E+02  0.13718789366E+02  0.13231216472E+02  0.38157756041E+02  0.10566000000E+00 0. -1.
         22    1    1    0    0    0  0.90801536951E+01  0.24494437384E+02 -0.14630590122E+02  0.29941289571E+02  0.00000000000E+00 0.  1.
</event>
<event>
 5    1  0.8943334E-005  0.9118800E+02  0.7818608E-02  0.1130116E+00
         25   -1    0    0    0    0  0.00000000000E+00  0.00000000000E+00  0.99999998245E-14  0.12500000000E+03  0.12500000000E+03 0.  0.
        -13    1    3    3    0    0 -0.54132026032E+02 -0.80856585846E+01  0.17566491291E+02  0.57482579078E+02  0.10566000000E+00 0.  1.
         23    2    1    0    0    0 -0.23423903067E+02 -0.17694869917E+02 -0.27161649594E+01  0.95518392032E+02  0.90854818298E+02 0.  0.
         13    1    3    3    0    0  0.30708122965E+02 -0.96092113327E+01 -0.20282656250E+02  0.38035812954E+02  0.10566000000E+00 0. -1.
         22    1    1    0    0    0  0.23423903067E+02  0.17694869917E+02  0.27161649594E+01  0.29481607968E+02  0.00000000000E+00 0.  1.
</event>
<event>
 5    1  0.8943334E-005  0.9118800E+02  0.7818608E-02  0.1130116E+00
         25   -1    0    0    0    0  0.00000000000E+00  0.00000000000E+00  0.99999998245E-14  0.12500000000E+03  0.12500000000E+03 0.  0.
        -13    1    3    3    0    0  0.31985262195E+02 -0.15519631622E+02 -0.46513362255E+02  0.58544171321E+02  0.10566000000E+00 0. -1.
         23    2    1    0    0    0  0.11006906269E+02  0.79479924642E+01 -0.24613540863E+02  0.96890411535E+02  0.92723259670E+02 0.  0.
         13    1    3    3    0    0 -0.20978355925E+02  0.23467624086E+02  0.21899821392E+02  0.38346240215E+02  0.10566000000E+00 0.  1.
         22    1    1    0    0    0 -0.11006906269E+02 -0.79479924642E+01  0.24613540863E+02  0.28109588465E+02  0.00000000000E+00 0. -1.
</event>
<event>
 5    1  0.8943334E-005  0.9118800E+02  0.7818608E-02  0.1130116E+00
         25   -1    0    0    0    0  0.00000000000E+00  0.00000000000E+00  0.99999998245E-14  0.12500000000E+03  0.12500000000E+03 0.  0.
        -13    1    3    3    0    0 -0.37535256326E+01  0.55839275986E+01  0.41723777878E+02  0.42262915263E+02  0.10566000000E+00 0. -1.
         23    2    1    0    0    0 -0.10348155557E+02 -0.26507948019E+02 -0.15048029600E+01  0.96504034258E+02  0.92200914120E+02 0.  0.
         13    1    3    3    0    0 -0.65946299245E+01 -0.32091875618E+02 -0.43228580838E+02  0.54241118995E+02  0.10566000000E+00 0.  1.
         22    1    1    0    0    0  0.10348155557E+02  0.26507948019E+02  0.15048029600E+01  0.28495965742E+02  0.00000000000E+00 0. -1.
</event>
<event>
 5    1  0.8943334E-005  0.9118800E+02  0.7818608E-02  0.1130116E+00
         25   -1    0    0    0    0  0.00000000000E+00  0.00000000000E+00  0.99999998245E-14  0.12500000000E+03  0.12500000000E+03 0.  0.
        -13    1    3    3    0    0  0.18516776093E+02  0.25241332892E+02  0.77433580165E+01  0.32248513771E+02  0.10566000000E+00 0. -1.
         23    2    1    0    0    0  0.70162590715E+01 -0.20630408060E+02 -0.26540638735E+02  0.90659832083E+02  0.83904457694E+02 0.  0.
         13    1    3    3    0    0 -0.11500517021E+02 -0.45871740952E+02 -0.34283996751E+02  0.58411318313E+02  0.10566000000E+00 0.  1.
         22    1    1    0    0    0 -0.70162590715E+01  0.20630408060E+02  0.26540638735E+02  0.34340167917E+02  0.00000000000E+00 0.  1.
</event>
<event>
 5    1  0.8943334E-005  0.9118800E+02  0.7818608E-02  0.1130116E+00
         25   -1    0    0    0    0  0.00000000000E+00  0.00000000000E+00  0.99999998245E-14  0.12500000000E+03  0.12500000000E+03 0.  0.
        -13    1    3    3    0    0 -0.74199723528E+01  0.37993030012E+02 -0.89796361900E+01  0.39738788977E+02  0.10566000000E+00 0. -1.
         23    2    1    0    0    0  0.54521609091E+01 -0.22379855835E+02 -0.33181260274E+01  0.10172782850E+03  0.99030081925E+02 0.  0.
         13    1    3    3    0    0  0.12872133262E+02 -0.60372885847E+02  0.56615101626E+01  0.61989039528E+02  0.10566000000E+00 0.  1.
         22    1    1    0    0    0 -0.54521609091E+01  0.22379855835E+02  0.33181260274E+01  0.23272171495E+02  0.00000000000E+00 0.  1.
</event>
<event>
 5    1  0.8943334E-005  0.9118800E+02  0.7818608E-02  0.1130116E+00
         25   -1    0    0    0    0  0.00000000000E+00  0.00000000000E+00  0.99999998245E-14  0.12500000000E+03  0.12500000000E+03 0.  0.
        -13    1    3    3    0    0 -0.35733884434E+02 -0.29320030509E+02 -0.17872491437E+02  0.49558165825E+02  0.10566000000E+00 0. -1.
         23    2    1    0    0    0 -0.14035776885E+02  0.11694791300E+02 -0.22302467280E+02  0.96169959711E+02  0.91746879662E+02 0.  0.
         13    1    3    3    0    0  0.21698107549E+02  0.41014821809E+02 -0.44299758426E+01  0.46611793885E+02  0.10566000000E+00 0.  1.
         22    1    1    0    0    0  0.14035776885E+02 -0.11694791300E+02  0.22302467280E+02  0.28830040289E+02  0.00000000000E+00 0.  1.
</event>
<event>
 5    1  0.8943334E-005  0.9118800E+02  0.7818608E-02  0.1130116E+00
         25   -1    0    0    0    0  0.00000000000E+00  0.00000000000E+00  0.99999998245E-14  0.12500000000E+03  0.12500000000E+03 0.  0.
        -13    1    3    3    0    0  0.41706995741E+02  0.53975600656E+01  0.13795806742E+01  0.42077565938E+02  0.10566000000E+00 0.  1.
         23    2    1    0    0    0 -0.60953618989E+01  0.27334539216E+02  0.97711265403E+01  0.95338486473E+02  0.90606962306E+02 0.  0.
         13    1    3    3    0    0 -0.47802357640E+02  0.21936979150E+02  0.83915458660E+01  0.53260920535E+02  0.10566000000E+00 0. -1.
         22    1    1    0    0    0  0.60953618989E+01 -0.27334539216E+02 -0.97711265403E+01  0.29661513527E+02  0.00000000000E+00 0. -1.
</event>
<event>
 5    1  0.8943334E-005  0.9118800E+02  0.7818608E-02  0.1130116E+00
         25   -1    0    0    0    0  0.00000000000E+00  0.00000000000E+00  0.99999998245E-14  0.12500000000E+03  0.12500000000E+03 0.  0.
        -13    1    3    3    0    0 -0.11259215884E+02 -0.56342682432E+01 -0.60040713201E+02  0.61346665163E+02  0.10566000000E+00 0.  1.
         23    2    1    0    0    0 -0.13447185908E+02 -0.31350670152E+00 -0.27563909496E+02  0.94329261469E+02  0.89203785611E+02 0.  0.
         13    1    3    3    0    0 -0.21879700242E+01  0.53207615416E+01  0.32476803704E+02  0.32982596306E+02  0.10566000000E+00 0. -1.
         22    1    1    0    0    0  0.13447185908E+02  0.31350670152E+00  0.27563909496E+02  0.30670738531E+02  0.00000000000E+00 0.  1.
</event>
<event>
 5    1  0.8943334E-005  0.9118800E+02  0.7818608E-02  0.1130116E+00
         25   -1    0    0    0    0  0.00000000000E+00  0.00000000000E+00  0.99999998245E-14  0.12500000000E+03  0.12500000000E+03 0.  0.
        -13    1    3    3    0    0 -0.59381517996E+01 -0.18951134831E+02 -0.40487701521E+02  0.45096255905E+02  0.10566000000E+00 0.  1.
         23    2    1    0    0    0  0.86053849862E+01  0.22941747618E+02 -0.15690909473E+02  0.95903933692E+02  0.91383715305E+02 0.  0.
         13    1    3    3    0    0  0.14543536786E+02  0.41892882449E+02  0.24796792048E+02  0.50807677786E+02  0.10566000000E+00 0. -1.
         22    1    1    0    0    0 -0.86053849862E+01 -0.22941747618E+02  0.15690909473E+02  0.29096066308E+02  0.00000000000E+00 0. -1.
</event>
<event>
 5    1  0.8943334E-005  0.9118800E+02  0.7818608E-02  0.1130116E+00
         25   -1    0    0    0    0  0.00000000000E+00  0.00000000000E+00  0.99999998245E-14  0.12500000000E+03  0.12500000000E+03 0.  0.
        -13    1    3    3    0    0  0.33918209678E+01 -0.24227604795E+02 -0.24058433062E+02  0.34311815006E+02  0.10566000000E+00 0.  1.
         23    2    1    0    0    0 -0.20301244487E+01  0.12064472892E+02  0.25933484297E+02  0.96325647013E+02  0.91958750281E+02 0.  0.
         13    1    3    3    0    0 -0.54219454165E+01  0.36292077686E+02  0.49991917359E+02  0.62013832007E+02  0.10566000000E+00 0. -1.
         22    1    1    0    0    0  0.20301244487E+01 -0.12064472892E+02 -0.25933484297E+02  0.28674352987E+02  0.00000000000E+00 0. -1.
</event>
<event>
 5    1  0.8943334E-005  0.9118800E+02  0.7818608E-02  0.1130116E+00
         25   -1    0    0    0    0  0.00000000000E+00  0.00000000000E+00  0.99999998245E-14  0.12500000000E+03  0.12500000000E+03 0.  0.
        -13    1    3    3    0    0 -0.28151153347E+02 -0.41467216665E+02 -0.27279211160E+02  0.57062982907E+02  0.10566000000E+00 0.  1.
         23    2    1    0    0    0  0.29224654212E+01 -0.28026848295E+02 -0.97929257747E+01  0.95168030157E+02  0.90371497383E+02 0.  0.
         13    1    3    3    0    0  0.31073618768E+02  0.13440368370E+02  0.17486285385E+02  0.38105047249E+02  0.10566000000E+00 0. -1.
         22    1    1    0    0    0 -0.29224654212E+01  0.28026848295E+02  0.97929257747E+01  0.29831969843E+02  0.00000000000E+00 0.  1.
</event>
<event>
 5    1  0.8943334E-005  0.9118800E+02  0.7818608E-02  0.1130116E+00
         25   -1    0    0    0    0  0.00000000000E+00  0.00000000000E+00  0.99999998245E-14  0.12500000000E+03  0.12500000000E+03 0.  0.
        -13    1    3    3    0    0 -0.47576122873E+01  0.25885329189E+02  0.24097909325E+02  0.35684808249E+02  0.10566000000E+00 0. -1.
         23    2    1    0    0    0 -0.21182066371E+01 -0.12600388601E+02 -0.24281900013E+02  0.97561573287E+02  0.93623679279E+02 0.  0.
         13    1    3    3    0    0  0.26394056502E+01 -0.38485717790E+02 -0.48379809338E+02  0.61876765038E+02  0.10566000000E+00 0.  1.
         22    1    1    0    0    0  0.21182066371E+01  0.12600388601E+02  0.24281900013E+02  0.27438426713E+02  0.00000000000E+00 0.  1.
</event>
<event>
 5    1  0.8943334E-005  0.9118800E+02  0.7818608E-02  0.1130116E+00
         25   -1    0    0    0    0  0.00000000000E+00  0.00000000000E+00  0.99999998245E-14  0.12500000000E+03  0.12500000000E+03 0.  0.
        -13    1    3    3    0    0 -0.18554505956E+02  0.39695640604E+02  0.28322125216E+01  0.43909522498E+02  0.10566000000E+00 0.  1.
         23    2    1    0    0    0  0.22147432597E+02  0.45464591147E+01  0.13402290744E+02  0.98716916880E+02  0.95153713643E+02 0.  0.
         13    1    3    3    0    0  0.40701938552E+02 -0.35149181489E+02  0.10570078222E+02  0.54807394382E+02  0.10566000000E+00 0. -1.
         22    1    1    0    0    0 -0.22147432597E+02 -0.45464591147E+01 -0.13402290744E+02  0.26283083120E+02  0.00000000000E+00 0. -1.
</event>
<event>
 5    1  0.8943334E-005  0.9118800E+02  0.7818608E-02  0.1130116E+00
         25   -1    0    0    0    0  0.00000000000E+00  0.00000000000E+00  0.99999998245E-14  0.12500000000E+03  0.12500000000E+03 0.  0.
        -13    1    3    3    0    0 -0.18748120729E+02  0.34532742241E+02 -0.12889522057E+02  0.41353999328E+02  0.10566000000E+00 0. -1.
         23    2    1    0    0    0 -0.20421291196E+02 -0.64886859160E+01  0.21304171525E+02  0.94784111739E+02  0.89838899898E+02 0.  0.
         13    1    3    3    0    0 -0.16731704667E+01 -0.41021428157E+02  0.34193693582E+02  0.53430112411E+02  0.10566000000E+00 0.  1.
         22    1    1    0    0    0  0.20421291196E+02  0.64886859160E+01 -0.21304171525E+02  0.30215888261E+02  0.00000000000E+00 0. -1.
</event>
<event>
 5    1  0.8943334E-005  0.9118800E+02  0.7818608E-02  0.1130116E+00
         25   -1    0    0    0    0  0.00000000000E+00  0.00000000000E+00  0.99999998245E-14  0.12500000000E+03  0.12500000000E+03 0.  0.
        -13    1    3    3    0    0  0.35982104386E+02  0.27092320897E+02  0.86595818883E+01  0.45866166290E+02  0.10566000000E+00 0.  1.
         23    2    1    0    0    0 -0.11673825289E+02  0.14116032422E+02  0.21357212750E+02  0.96863349441E+02  0.92686770147E+02 0.  0.
         13    1    3    3    0    0 -0.47655929675E+02 -0.12976288475E+02  0.12697630862E+02  0.50997183151E+02  0.10566000000E+00 0. -1.
         22    1    1    0    0    0  0.11673825289E+02 -0.14116032422E+02 -0.21357212750E+02  0.28136650559E+02  0.00000000000E+00 0. -1.
</event>
<event>
 5    1  0.8943334E-005  0.9118800E+02  0.7818608E-02  0.1130116E+00
         25   -1    0    0    0    0  0.00000000000E+00  0.00000000000E+00  0.99999998245E-14  0.12500000000E+03  0.12500000000E+03 0.  0.
        -13    1    3    3    0    0 -0.20313724678E+02  0.42874368010E+02 -0.43949010092E+01  0.47646460115E+02  0.10566000000E+00 0.  1.
         23    2    1    0    0    0 -0.20169078349E+02  0.33498008240E+01  0.21838166597E+02  0.95084813099E+02  0.90256319860E+02 0.  0.
         13    1    3    3    0    0  0.14464632912E+00 -0.39524567186E+02  0.26233067606E+02  0.47438352984E+02  0.10566000000E+00 0. -1.
         22    1    1    0    0    0  0.20169078349E+02 -0.33498008240E+01 -0.21838166597E+02  0.29915186901E+02  0.00000000000E+00 0.  1.
</event>
<event>
 5    1  0.8943334E-005  0.9118800E+02  0.7818608E-02  0.1130116E+00
         25   -1    0    0    0    0  0.00000000000E+00  0.00000000000E+00  0.99999998245E-14  0.12500000000E+03  0.12500000000E+03 0.  0.
        -13    1    3    3    0    0  0.33661595202E+02 -0.32692509062E+02  0.18594169129E+02  0.50474324463E+02  0.10566000000E+00 0. -1.
         23    2    1    0    0    0 -0.83229175320E+01 -0.28801707829E+02  0.67790815196E+01  0.94262965719E+02  0.89110837892E+02 0.  0.
         13    1    3    3    0    0 -0.41984512735E+02  0.38908012331E+01 -0.11815087610E+02  0.43788641256E+02  0.10566000000E+00 0.  1.
         22    1    1    0    0    0  0.83229175320E+01  0.28801707829E+02 -0.67790815196E+01  0.30737034281E+02  0.00000000000E+00 0.  1.
</event>
<event>
 5    1  0.8943334E-005  0.9118800E+02  0.7818608E-02  0.1130116E+00
         25   -1    0    0    0    0  0.00000000000E+00  0.00000000000E+00  0.99999998245E-14  0.12500000000E+03  0.12500000000E+03 0.  0.
        -13    1    3    3    0    0 -0.47529851201E+02  0.12781433548E+02 -0.93097146620E+01  0.50091254225E+02  0.10566000000E+00 0.  1.
         23    2    1    0    0    0 -0.15087899664E+01  0.26274392753E+02 -0.46392850790E+01  0.98276543492E+02  0.94573441690E+02 0.  0.
         13    1    3    3    0    0  0.46021061234E+02  0.13492959205E+02  0.46704295830E+01  0.48185289267E+02  0.10566000000E+00 0. -1.
         22    1    1    0    0    0  0.15087899664E+01 -0.26274392753E+02  0.46392850790E+01  0.26723456508E+02  0.00000000000E+00 0.  1.
</event>
<event>
 5    1  0.8943334E-005  0.9118800E+02  0.7818608E-02  0.1130116E+00
         25   -1    0    0    0    0  0.00000000000E+00  0.00000000000E+00  0.99999998245E-14  0.12500000000E+03  0.12500000000E+03 0.  0.
        -13    1    3    3    0    0  0.97137570149E+01 -0.32651341242E+02  0.54896399956E+01  0.34505281793E+02  0.10566000000E+00 0.  1.
         23    2    1    0    0    0 -0.49272732470E+01  0.26738146723E+02  0.10447271666E+02  0.95873517255E+02  0.91342100445E+02 0.  0.
         13    1    3    3    0    0 -0.14641030262E+02  0.59389487965E+02  0.49576316707E+01  0.61368235462E+02  0.10566000000E+00 0. -1.
         22    1    1    0    0    0  0.49272732470E+01 -0.26738146723E+02 -0.10447271666E+02  0.29126482745E+02  0.00000000000E+00 0. -1.
</event>
<event>
 5    1  0.8943334E-005  0.9118800E+02  0.7818608E-02  0.1130116E+00
         25   -1    0    0    0    0  0.00000000000E+00  0.00000000000E+00  0.99999998245E-14  0.12500000000E+03  0.12500000000E+03 0.  0.
        -13    1    3    3    0    0  0.18627691190E+02  0.25667568890E+02  0.41967163922E+02  0.52602937023E+02  0.10566000000E+00 0. -1.
         23    2    1    0    0    0 -0.71343868547E+01  0.28049780052E+02  0.86375669335E+01  0.94795742034E+02  0.89855080594E+02 0.  0.
         13    1    3    3    0    0 -0.25762078045E+02  0.23822111617E+01 -0.33329596988E+02  0.42192805010E+02  0.10566000000E+00 0.  1.
         22    1    1    0    0    0  0.71343868547E+01 -0.28049780052E+02 -0.86375669335E+01  0.30204257966E+02  0.00000000000E+00 0.  1.
</event>
<event>
 5    1  0.8943334E-005  0.9118800E+02  0.7818608E-02  0.1130116E+00
         25   -1    0    0    0    0  0.00000000000E+00  0.00000000000E+00  0.99999998245E-14  0.12500000000E+03  0.12500000000E+03 0.  0.
        -13    1    3    3    0    0 -0.15313067675E+02 -0.55892481503E+02  0.87922361408E+01  0.58615476716E+02  0.10566000000E+00 0.  1.
         23    2    1    0    0    0  0.45853008199E+01 -0.27561040418E+02  0.14203713115E+02  0.93657035897E+02  0.88256778630E+02 0.  0.
         13    1    3    3    0    0  0.19898368495E+02  0.28331441085E+02  0.54114769740E+01  0.35041559181E+02  0.10566000000E+00 0. -1.
         22    1    1    0    0    0 -0.45853008199E+01  0.27561040418E+02 -0.14203713115E+02  0.31342964103E+02  0.00000000000E+00 0. -1.
</event>
<event>
 5    1  0.8943334E-005  0.9118800E+02  0.7818608E-02  0.1130116E+00
         25   -1    0    0    0    0  0.00000000000E+00  0.00000000000E+00  0.99999998245E-14  0.12500000000E+03  0.12500000000E+03 0.  0.
        -13    1    3    3    0    0  0.35692991489E+02 -0.22644229998E+02 -0.90801965054E+01  0.43234383611E+02  0.10566000000E+00 0. -1.
         23    2    1    0    0    0 -0.13439209073E+02 -0.22252081536E+02  0.11588365147E+02  0.96538487743E+02  0.92247612086E+02 0.  0.
         13    1    3    3    0    0 -0.49132200562E+02  0.39214846147E+00  0.20668561652E+02  0.53304104131E+02  0.10566000000E+00 0.  1.
         22    1    1    0    0    0  0.13439209073E+02  0.22252081536E+02 -0.11588365147E+02  0.28461512257E+02  0.00000000000E+00 0.  1.
</event>
<event>
 5    1  0.8943334E-005  0.9118800E+02  0.7818608E-02  0.1130116E+00
         25   -1    0    0    0    0  0.00000000000E+00  0.00000000000E+00  0.99999998245E-14  0.12500000000E+03  0.12500000000E+03 0.  0.
        -13    1    3    3    0    0  0.26550663866E+02  0.25775866419E+02  0.93397382598E+01  0.38165100762E+02  0.10566000000E+00 0.  1.
         23    2    1    0    0    0  0.79440095036E+01 -0.14783953475E+02 -0.25288516628E+02  0.94649025706E+02  0.89650746937E+02 0.  0.
         13    1    3    3    0    0 -0.18606654362E+02 -0.40559819894E+02 -0.34628254888E+02  0.56483924944E+02  0.10566000000E+00 0. -1.
         22    1    1    0    0    0 -0.79440095036E+01  0.14783953475E+02  0.25288516628E+02  0.30350974294E+02  0.00000000000E+00 0. -1.
</event>
<event>
 5    1  0.8943334E-005  0.9118800E+02  0.7818608E-02  0.1130116E+00
         25   -1    0    0    0    0  0.00000000000E+00  0.00000000000E+00  0.99999998245E-14  0.12500000000E+03  0.12500000000E+03 0.  0.
        -13    1    3    3    0    0 -0.24867050988E+02 -0.33307971700E+02  0.42076885425E+02  0.59146146575E+02  0.10566000000E+00 0. -1.
         23    2    1    0    0    0 -0.21549725455E+02 -0.50009834407E+01  0.19605713304E+02  0.95440153980E+02  0.90747112874E+02 0.  0.
         13    1    3    3    0    0  0.33173255327E+01  0.28306988259E+02 -0.22471172121E+02  0.36294007405E+02  0.10566000000E+00 0.  1.
         22    1    1    0    0    0  0.21549725455E+02  0.50009834407E+01 -0.19605713304E+02  0.29559846020E+02  0.00000000000E+00 0. -1.
</event>
<event>
 5    1  0.8943334E-005  0.9118800E+02  0.7818608E-02  0.1130116E+00
         25   -1    0    0    0    0  0.00000000000E+00  0.00000000000E+00  0.99999998245E-14  0.12500000000E+03  0.12500000000E+03 0.  0.
        -13    1    3    3    0    0 -0.20265279364E+02  0.76522803319E+00  0.27578286335E+02  0.34232151011E+02  0.10566000000E+00 0.  1.
         23    2    1    0    0    0  0.14347639103E+01 -0.19741844387E+01 -0.29521487267E+02  0.95377809633E+02  0.90661195713E+02 0.  0.
         13    1    3    3    0    0  0.21700043274E+02 -0.27394124719E+01 -0.57099773602E+02  0.61145658622E+02  0.10566000000E+00 0. -1.
         22    1    1    0    0    0 -0.14347639103E+01  0.19741844387E+01  0.29521487267E+02  0.29622190367E+02  0.00000000000E+00 0. -1.
</event>
<event>
 5    1  0.8943334E-005  0.9118800E+02  0.7818608E-02  0.1130116E+00
         25   -1    0    0    0    0  0.00000000000E+00  0.00000000000E+00  0.99999998245E-14  0.12500000000E+03  0.12500000000E+03 0.  0.
        -13    1    3    3    0    0 -0.14412932866E+02 -0.24088608653E+02  0.23107424232E+02  0.36358739242E+02  0.10566000000E+00 0. -1.
         23    2    1    0    0    0 -0.20480762505E+02  0.18465225276E+02 -0.14829196739E+02  0.93689758014E+02  0.88303111516E+02 0.  0.
         13    1    3    3    0    0 -0.60678296394E+01  0.42553833929E+02 -0.37936620971E+02  0.57331018771E+02  0.10566000000E+00 0.  1.
         22    1    1    0    0    0  0.20480762505E+02 -0.18465225276E+02  0.14829196739E+02  0.31310241986E+02  0.00000000000E+00 0.  1.
</event>
<event>
 5    1  0.8943334E-005  0.9118800E+02  0.7818608E-02  0.1130116E+00
         25   -1    0    0    0    0  0.00000000000E+00  0.00000000000E+00  0.99999998245E-14  0.12500000000E+03  0.12500000000E+03 0.  0.
        -13    1    3    3    0    0  0.29693310802E+02  0.99038781783E+01  0.62003692961E+01  0.31909798696E+02  0.10566000000E+00 0. -1.
         23    2    1    0    0    0 -0.27005827497E+02 -0.11930711072E+02  0.12388630150E+02  0.92982274558E+02  0.87295868399E+02 0.  0.
         13    1    3    3    0    0 -0.56699138299E+02 -0.21834589250E+02  0.61882608544E+01  0.61072475863E+02  0.10566000000E+00 0.  1.
         22    1    1    0    0    0  0.27005827497E+02  0.11930711072E+02 -0.12388630150E+02  0.32017725442E+02  0.00000000000E+00 0.  1.
</event>
<event>
 5    1  0.8943334E-005  0.9118800E+02  0.7818608E-02  0.1130116E+00
         25   -1    0    0    0    0  0.00000000000E+00  0.00000000000E+00  0.99999998245E-14  0.12500000000E+03  0.12500000000E+03 0.  0.
        -13    1    3    3    0    0 -0.41112827678E+02 -0.59263800735E+01  0.24849557218E+02  0.48403494072E+02  0.10566000000E+00 0.  1.
         23    2    1    0    0    0 -0.21812487369E+02  0.11111819269E+02 -0.15324686499E+02  0.96119156020E+02  0.91677636341E+02 0.  0.
         13    1    3    3    0    0  0.19300340309E+02  0.17038199343E+02 -0.40174243717E+02  0.47715661948E+02  0.10566000000E+00 0. -1.
         22    1    1    0    0    0  0.21812487369E+02 -0.11111819269E+02  0.15324686499E+02  0.28880843980E+02  0.00000000000E+00 0.  1.
</event>
<event>
 5    1  0.8943334E-005  0.9118800E+02  0.7818608E-02  0.1130116E+00
         25   -1    0    0    0    0  0.00000000000E+00  0.00000000000E+00  0.99999998245E-14  0.12500000000E+03  0.12500000000E+03 0.  0.
        -13    1    3    3    0    0 -0.38327693761E+02 -0.39034067868E+02 -0.16245103012E+02  0.57066497170E+02  0.10566000000E+00 0. -1.
         23    2    1    0    0    0 -0.29404790934E+02 -0.80507277975E+01  0.25825343885E+01  0.94403833054E+02  0.89308220582E+02 0.  0.
         13    1    3    3    0    0  0.89229028276E+01  0.30983340070E+02  0.18827637400E+02  0.37337335884E+02  0.10566000000E+00 0.  1.
         22    1    1    0    0    0  0.29404790934E+02  0.80507277975E+01 -0.25825343885E+01  0.30596166946E+02  0.00000000000E+00 0. -1.
</event>
<event>
 5    1  0.8943334E-005  0.9118800E+02  0.7818608E-02  0.1130116E+00
         25   -1    0    0    0    0  0.00000000000E+00  0.00000000000E+00  0.99999998245E-14  0.12500000000E+03  0.12500000000E+03 0.  0.
        -13    1    3    3    0    0 -0.56498143690E+02  0.32220908358E+01 -0.16523124477E+02  0.58952921185E+02  0.10566000000E+00 0.  1.
         23    2    1    0    0    0 -0.19923810836E+02  0.33747520606E+01 -0.21066081719E+02  0.95808785762E+02  0.91253473580E+02 0.  0.
         13    1    3    3    0    0  0.36574332854E+02  0.15266122473E+00 -0.45429572425E+01  0.36855864577E+02  0.10566000000E+00 0. -1.
         22    1    1    0    0    0  0.19923810836E+02 -0.33747520606E+01  0.21066081719E+02  0.29191214238E+02  0.00000000000E+00 0.  1.
</event>
<event>
 5    1  0.8943334E-005  0.9118800E+02  0.7818608E-02  0.1130116E+00
         25   -1    0    0    0    0  0.00000000000E+00  0.00000000000E+00  0.99999998245E-14  0.12500000000E+03  0.12500000000E+03 0.  0.
        -13    1    3    3    0    0  0.17180013837E+02  0.39318051046E+01 -0.36547041689E+02  0.40574738287E+02  0.10566000000E+00 0. -1.
         23    2    1    0    0    0  0.22654889984E+02  0.13160867628E+01  0.18356125187E+02  0.95812272161E+02  0.91258249162E+02 0.  0.
         13    1    3    3    0    0  0.54748761468E+01 -0.26157183418E+01  0.54903166877E+02  0.55237533873E+02  0.10566000000E+00 0.  1.
         22    1    1    0    0    0 -0.22654889984E+02 -0.13160867628E+01 -0.18356125187E+02  0.29187727839E+02  0.00000000000E+00 0. -1.
</event>
<event>
 5    1  0.8943334E-005  0.9118800E+02  0.7818608E-02  0.1130116E+00
         25   -1    0    0    0    0  0.00000000000E+00  0.00000000000E+00  0.99999998245E-14  0.12500000000E+03  0.12500000000E+03 0.  0.
        -13    1    3    3    0    0 -0.40895901149E+02 -0.19816917234E+02  0.21290067113E+02  0.50184290980E+02  0.10566000000E+00 0. -1.
         23    2    1    0    0    0 -0.15207792682E+02  0.17498336962E+02  0.18079419535E+02  0.95600439366E+02  0.90967630735E+02 0.  0.
         13    1    3    3    0    0  0.25688108466E+02  0.37315254197E+02 -0.32106475779E+01  0.45416148386E+02  0.10566000000E+00 0.  1.
         22    1    1    0    0    0  0.15207792682E+02 -0.17498336962E+02 -0.18079419535E+02  0.29399560634E+02  0.00000000000E+00 0. -1.
</event>
<event>
 5    1  0.8943334E-005  0.9118800E+02  0.7818608E-02  0.1130116E+00
         25   -1    0    0    0    0  0.00000000000E+00  0.00000000000E+00  0.99999998245E-14  0.12500000000E+03  0.12500000000E+03 0.  0.
        -13    1    3    3    0    0  0.10179080387E+02 -0.20373093587E+02 -0.52109455033E+02  0.56868999356E+02  0.10566000000E+00 0. -1.
         23    2    1    0    0    0  0.11472503522E+02 -0.23443467661E+02 -0.13512758524E+02  0.95609369589E+02  0.90979901062E+02 0.  0.
         13    1    3    3    0    0  0.12934231354E+01 -0.30703740733E+01  0.38596696509E+02  0.38740370233E+02  0.10566000000E+00 0.  1.
         22    1    1    0    0    0 -0.11472503522E+02  0.23443467661E+02  0.13512758524E+02  0.29390630411E+02  0.00000000000E+00 0. -1.
</event>
<event>
 5    1  0.8943334E-005  0.9118800E+02  0.7818608E-02  0.1130116E+00
         25   -1    0    0    0    0  0.00000000000E+00  0.00000000000E+00  0.99999998245E-14  0.12500000000E+03  0.12500000000E+03 0.  0.
        -13    1    3    3    0    0 -0.21570134801E+02 -0.21817150568E+02 -0.43172989619E+02  0.52963921408E+02  0.10566000000E+00 0. -1.
         23    2    1    0    0    0 -0.26087081310E+02 -0.88248758586E+01 -0.87021037417E+00  0.97446932815E+02  0.93470493760E+02 0.  0.
         13    1    3    3    0    0 -0.45169465093E+01  0.12992274710E+02  0.42302779245E+02  0.44483011407E+02  0.10566000000E+00 0.  1.
         22    1    1    0    0    0  0.26087081310E+02  0.88248758586E+01  0.87021037417E+00  0.27553067185E+02  0.00000000000E+00 0. -1.
</event>
<event>
 5    1  0.8943334E-005  0.9118800E+02  0.7818608E-02  0.1130116E+00
         25   -1    0    0    0    0  0.00000000000E+00  0.00000000000E+00  0.99999998245E-14  0.12500000000E+03  0.12500000000E+03 0.  0.
        -13    1    3    3    0    0  0.26606826747E+02 -0.49711946859E+02 -0.91158098043E+01  0.57116635427E+02  0.10566000000E+00 0.  1.
         23    2    1    0    0    0  0.21670666070E+02 -0.15860834353E+02  0.10046773609E+02  0.96327338906E+02  0.91961050051E+02 0.  0.
         13    1    3    3    0    0 -0.49361606770E+01  0.33851112507E+02  0.19162583413E+02  0.39210703478E+02  0.10566000000E+00 0. -1.
         22    1    1    0    0    0 -0.21670666070E+02  0.15860834353E+02 -0.10046773609E+02  0.28672661094E+02  0.00000000000E+00 0.  1.
</event>
<event>
 5    1  0.8943334E-005  0.9118800E+02  0.7818608E-02  0.1130116E+00
         25   -1    0    0    0    0  0.00000000000E+00  0.00000000000E+00  0.99999998245E-14  0.12500000000E+03  0.12500000000E+03 0.  0.
        -13    1    3    3    0    0 -0.16849515849E+02 -0.29715371844E+02  0.16092588007E+02  0.37760985964E+02  0.10566000000E+00 0. -1.
         23    2    1    0    0    0 -0.13803973302E+02  0.23096044406E+02 -0.94210316078E+01  0.96491531387E+02  0.92183961982E+02 0.  0.
         13    1    3    3    0    0  0.30455425470E+01  0.52811416250E+02 -0.25513619615E+02  0.58730545423E+02  0.10566000000E+00 0.  1.
         22    1    1    0    0    0  0.13803973302E+02 -0.23096044406E+02  0.94210316078E+01  0.28508468613E+02  0.00000000000E+00 0.  1.
</event>
<event>
 5    1  0.8943334E-005  0.9118800E+02  0.7818608E-02  0.1130116E+00
         25   -1    0    0    0    0  0.00000000000E+00  0.00000000000E+00  0.99999998245E-14  0.12500000000E+03  0.12500000000E+03 0.  0.
        -13    1    3    3    0    0 -0.82564317580E+01  0.53472397866E+02 -0.11184976912E+02  0.55250166257E+02  0.10566000000E+00 0. -1.
         23    2    1    0    0    0 -0.14430195760E+02  0.15399749018E+02 -0.21186565912E+02  0.95095930133E+02  0.90271715023E+02 0.  0.
         13    1    3    3    0    0 -0.61737640019E+01 -0.38072648848E+02 -0.10001589000E+02  0.39845763876E+02  0.10566000000E+00 0.  1.
         22    1    1    0    0    0  0.14430195760E+02 -0.15399749018E+02  0.21186565912E+02  0.29904069867E+02  0.00000000000E+00 0. -1.
</event>
<event>
 5    1  0.8943334E-005  0.9118800E+02  0.7818608E-02  0.1130116E+00
         25   -1    0    0    0    0  0.00000000000E+00  0.00000000000E+00  0.99999998245E-14  0.12500000000E+03  0.12500000000E+03 0.  0.
        -13    1    3    3    0    0 -0.11707917624E+02 -0.14637470196E+02 -0.48956513854E+02  0.52422154492E+02  0.10566000000E+00 0.  1.
         23    2    1    0    0    0  0.18855471890E+02 -0.10433851882E+02 -0.27777485630E+02  0.89843453053E+02  0.82679279528E+02 0.  0.
         13    1    3    3    0    0  0.30563389514E+02  0.42036183139E+01  0.21179028224E+02  0.37421298562E+02  0.10566000000E+00 0. -1.
         22    1    1    0    0    0 -0.18855471890E+02  0.10433851882E+02  0.27777485630E+02  0.35156546947E+02  0.00000000000E+00 0. -1.
</event>
<event>
 5    1  0.8943334E-005  0.9118800E+02  0.7818608E-02  0.1130116E+00
         25   -1    0    0    0    0  0.00000000000E+00  0.00000000000E+00  0.99999998245E-14  0.12500000000E+03  0.12500000000E+03 0.  0.
        -13    1    3    3    0    0 -0.76536387788E+00 -0.33259160652E+02  0.20794805431E+02  0.39232545751E+02  0.10566000000E+00 0. -1.
         23    2    1    0    0    0  0.72881839871E+01  0.17320467067E+02 -0.14356840581E+02  0.10135184834E+03  0.98554361071E+02 0.  0.
         13    1    3    3    0    0  0.80535478650E+01  0.50579627718E+02 -0.35151646013E+02  0.62119302594E+02  0.10566000000E+00 0.  1.
         22    1    1    0    0    0 -0.72881839871E+01 -0.17320467067E+02  0.14356840581E+02  0.23648151655E+02  0.00000000000E+00 0.  1.
</event>
<event>
 5    1  0.8943334E-005  0.9118800E+02  0.7818608E-02  0.1130116E+00
         25   -1    0    0    0    0  0.00000000000E+00  0.00000000000E+00  0.99999998245E-14  0.12500000000E+03  0.12500000000E+03 0.  0.
        -13    1    3    3    0    0  0.27195883433E+02 -0.23423705897E+02 -0.93954270338E+00  0.35905152530E+02  0.10566000000E+00 0.  1.
         23    2    1    0    0    0 -0.20440053385E+02  0.89154996531E+01 -0.18419884625E+02  0.96076409869E+02  0.91619334572E+02 0.  0.
         13    1    3    3    0    0 -0.47635936818E+02  0.32339205550E+02 -0.17480341921E+02  0.60171257340E+02  0.10566000000E+00 0. -1.
         22    1    1    0    0    0  0.20440053385E+02 -0.89154996531E+01  0.18419884625E+02  0.28923590131E+02  0.00000000000E+00 0. -1.
</event>
<event>
 5    1  0.8943334E-005  0.9118800E+02  0.7818608E-02  0.1130116E+00
         25   -1    0    0    0    0  0.00000000000E+00  0.00000000000E+00  0.99999998245E-14  0.12500000000E+03  0.12500000000E+03 0.  0.
        -13    1    3    3    0    0 -0.21207762171E+02 -0.10082714978E+02 -0.25410027182E+02  0.34599291367E+02  0.10566000000E+00 0. -1.
         23    2    1    0    0    0  0.15057651867E+02 -0.18947476019E+02  0.20154289401E+02  0.93504998674E+02  0.88041181663E+02 0.  0.
         13    1    3    3    0    0  0.36265414038E+02 -0.88647610410E+01  0.45564316584E+02  0.58905707308E+02  0.10566000000E+00 0.  1.
         22    1    1    0    0    0 -0.15057651867E+02  0.18947476019E+02 -0.20154289401E+02  0.31495001326E+02  0.00000000000E+00 0.  1.
</event>
<event>
 5    1  0.8943334E-005  0.9118800E+02  0.7818608E-02  0.1130116E+00
         25   -1    0    0    0    0  0.00000000000E+00  0.00000000000E+00  0.99999998245E-14  0.12500000000E+03  0.12500000000E+03 0.  0.
        -13    1    3    3    0    0 -0.29318509328E+02  0.74713579307E+01 -0.10576949418E+02  0.32051196570E+02  0.10566000000E+00 0.  1.
         23    2    1    0    0    0  0.30268818078E+02 -0.62143544827E+01  0.96066959886E-02  0.94099843985E+02  0.88881724760E+02 0.  0.
         13    1    3    3    0    0  0.59587327406E+02 -0.13685712413E+02  0.10586556114E+02  0.62048647415E+02  0.10566000000E+00 0. -1.
         22    1    1    0    0    0 -0.30268818078E+02  0.62143544827E+01 -0.96066959886E-02  0.30900156015E+02  0.00000000000E+00 0. -1.
</event>
<event>
 5    1  0.8943334E-005  0.9118800E+02  0.7818608E-02  0.1130116E+00
         25   -1    0    0    0    0  0.00000000000E+00  0.00000000000E+00  0.99999998245E-14  0.12500000000E+03  0.12500000000E+03 0.  0.
        -13    1    3    3    0    0  0.35044933818E+02 -0.32027039852E+02  0.10066041704E+01  0.47485819821E+02  0.10566000000E+00 0.  1.
         23    2    1    0    0    0  0.78286631504E+01 -0.19743494596E+01  0.27778353956E+02  0.96072107388E+02  0.91613464332E+02 0.  0.
         13    1    3    3    0    0 -0.27216270668E+02  0.30052690393E+02  0.26771749785E+02  0.48586287567E+02  0.10566000000E+00 0. -1.
         22    1    1    0    0    0 -0.78286631504E+01  0.19743494596E+01 -0.27778353956E+02  0.28927892612E+02  0.00000000000E+00 0. -1.
</event>
<event>
 5    1  0.8943334E-005  0.9118800E+02  0.7818608E-02  0.1130116E+00
         25   -1    0    0    0    0  0.00000000000E+00  0.00000000000E+00  0.99999998245E-14  0.12500000000E+03  0.12500000000E+03 0.  0.
        -13    1    3    3    0    0  0.29989550376E+02 -0.24098431186E+01 -0.24669330514E+02  0.38907165248E+02  0.10566000000E+00 0.  1.
         23    2    1    0    0    0  0.30333216023E+02  0.43855208571E+01  0.22761588354E+02  0.86823741778E+02  0.77980352938E+02 0.  0.
         13    1    3    3    0    0  0.34366564691E+00  0.67953639757E+01  0.47430918868E+02  0.47916576530E+02  0.10566000000E+00 0. -1.
         22    1    1    0    0    0 -0.30333216023E+02 -0.43855208571E+01 -0.22761588354E+02  0.38176258222E+02  0.00000000000E+00 0.  1.
</event>
<event>
 5    1  0.8943334E-005  0.9118800E+02  0.7818608E-02  0.1130116E+00
         25   -1    0    0    0    0  0.00000000000E+00  0.00000000000E+00  0.99999998245E-14  0.12500000000E+03  0.12500000000E+03 0.  0.
        -13    1    3    3    0    0 -0.41518631630E+02 -0.25455316263E+02  0.29063435789E+02  0.56713881567E+02  0.10566000000E+00 0. -1.
         23    2    1    0    0    0 -0.27494219332E+02  0.50162572545E+01  0.98743070503E+01  0.95358865183E+02  0.90635072107E+02 0.  0.
         13    1    3    3    0    0  0.14024412298E+02  0.30471573518E+02 -0.19189128738E+02  0.38644983617E+02  0.10566000000E+00 0.  1.
         22    1    1    0    0    0  0.27494219332E+02 -0.50162572545E+01 -0.98743070503E+01  0.29641134817E+02  0.00000000000E+00 0. -1.
</event>
<event>
 5    1  0.8943334E-005  0.9118800E+02  0.7818608E-02  0.1130116E+00
         25   -1    0    0    0    0  0.00000000000E+00  0.00000000000E+00  0.99999998245E-14  0.12500000000E+03  0.12500000000E+03 0.  0.
        -13    1    3    3    0    0  0.45750041022E+02 -0.18115509586E+01  0.13851857947E+02  0.47835479542E+02  0.10566000000E+00 0. -1.
         23    2    1    0    0    0  0.14255757865E+02  0.68108406986E+01 -0.23015016092E+02  0.97083962512E+02  0.92983819173E+02 0.  0.
         13    1    3    3    0    0 -0.31494283157E+02  0.86223916571E+01 -0.36866874039E+02  0.49248482970E+02  0.10566000000E+00 0.  1.
         22    1    1    0    0    0 -0.14255757865E+02 -0.68108406986E+01  0.23015016092E+02  0.27916037488E+02  0.00000000000E+00 0.  1.
</event>
<event>
 5    1  0.8943334E-005  0.9118800E+02  0.7818608E-02  0.1130116E+00
         25   -1    0    0    0    0  0.00000000000E+00  0.00000000000E+00  0.99999998245E-14  0.12500000000E+03  0.12500000000E+03 0.  0.
        -13    1    3    3    0    0  0.15585574830E+02 -0.35333773313E+02 -0.16285034628E+02  0.41911802589E+02  0.10566000000E+00 0.  1.
         23    2    1    0    0    0  0.14071639129E+02  0.16583259635E+02 -0.21877628067E+02  0.94151237663E+02  0.88953973580E+02 0.  0.
         13    1    3    3    0    0 -0.15139357013E+01  0.51917032948E+02 -0.55925934391E+01  0.52239435074E+02  0.10566000000E+00 0. -1.
         22    1    1    0    0    0 -0.14071639129E+02 -0.16583259635E+02  0.21877628067E+02  0.30848762337E+02  0.00000000000E+00 0.  1.
</event>
<event>
 5    1  0.8943334E-005  0.9118800E+02  0.7818608E-02  0.1130116E+00
         25   -1    0    0    0    0  0.00000000000E+00  0.00000000000E+00  0.99999998245E-14  0.12500000000E+03  0.12500000000E+03 0.  0.
        -13    1    3    3    0    0 -0.29565479067E+02  0.21619985241E+02  0.35571495077E+02  0.51057651144E+02  0.10566000000E+00 0. -1.
         23    2    1    0    0    0  0.67128210767E+01 -0.20817308846E-01  0.30693364954E+02  0.93581135407E+02  0.88149213562E+02 0.  0.
         13    1    3    3    0    0  0.36278300144E+02 -0.21640802549E+02 -0.48781301231E+01  0.42523484263E+02  0.10566000000E+00 0.  1.
         22    1    1    0    0    0 -0.67128210767E+01  0.20817308846E-01 -0.30693364954E+02  0.31418864593E+02  0.00000000000E+00 0. -1.
</event>
<event>
 5    1  0.8943334E-005  0.9118800E+02  0.7818608E-02  0.1130116E+00
         25   -1    0    0    0    0  0.00000000000E+00  0.00000000000E+00  0.99999998245E-14  0.12500000000E+03  0.12500000000E+03 0.  0.
        -13    1    3    3    0    0 -0.16891137990E+01 -0.26880109143E+02  0.34885740187E+02  0.44072887419E+02  0.10566000000E+00 0.  1.
         23    2    1    0    0    0  0.19045440550E+02  0.16214981682E+02  0.14741281300E+02  0.95966229816E+02  0.91468887902E+02 0.  0.
         13    1    3    3    0    0  0.20734554349E+02  0.43095090826E+02 -0.20144458887E+02  0.51893342398E+02  0.10566000000E+00 0. -1.
         22    1    1    0    0    0 -0.19045440550E+02 -0.16214981682E+02 -0.14741281300E+02  0.29033770184E+02  0.00000000000E+00 0. -1.
</event>
<event>
 5    1  0.8943334E-005  0.9118800E+02  0.7818608E-02  0.1130116E+00
         25   -1    0    0    0    0  0.00000000000E+00  0.00000000000E+00  0.99999998245E-14  0.12500000000E+03  0.12500000000E+03 0.  0.
        -13    1    3    3    0    0 -0.57177466139E+01  0.39492282327E+02  0.37323782173E+02  0.54638895207E+02  0.10566000000E+00 0. -1.
         23    2    1    0    0    0  0.90805670570E+01  0.27407810831E+01  0.28134344066E+02  0.95309767683E+02  0.90567333629E+02 0.  0.
         13    1    3    3    0    0  0.14798313671E+02 -0.36751501244E+02 -0.91894381075E+01  0.40670872476E+02  0.10566000000E+00 0.  1.
         22    1    1    0    0    0 -0.90805670570E+01 -0.27407810831E+01 -0.28134344066E+02  0.29690232317E+02  0.00000000000E+00 0. -1.
</event>
<event>
 5    1  0.8943334E-005  0.9118800E+02  0.7818608E-02  0.1130116E+00
         25   -1    0    0    0    0  0.00000000000E+00  0.00000000000E+00  0.99999998245E-14  0.12500000000E+03  0.12500000000E+03 0.  0.
        -13    1    3    3    0    0 -0.62197608180E+01 -0.50131659949E+02  0.36593458396E+02  0.62377569008E+02  0.10566000000E+00 0. -1.
         23    2    1    0    0    0 -0.13302782721E+01 -0.20678466836E+02  0.18016273513E+02  0.97541763672E+02  0.93597227084E+02 0.  0.
         13    1    3    3    0    0  0.48894825460E+01  0.29453193113E+02 -0.18577184883E+02  0.35164194664E+02  0.10566000000E+00 0.  1.
         22    1    1    0    0    0  0.13302782721E+01  0.20678466836E+02 -0.18016273513E+02  0.27458236328E+02  0.00000000000E+00 0. -1.
</event>
<event>
 5    1  0.8943334E-005  0.9118800E+02  0.7818608E-02  0.1130116E+00
         25   -1    0    0    0    0  0.00000000000E+00  0.00000000000E+00  0.99999998245E-14  0.12500000000E+03  0.12500000000E+03 0.  0.
        -13    1    3    3    0    0  0.41000619639E+01  0.58915473517E+02  0.15315957762E+02  0.61011746853E+02  0.10566000000E+00 0.  1.
         23    2    1    0    0    0 -0.53460999183E+01  0.24993812435E+02  0.13062641315E+02  0.96296271279E+02  0.91918811022E+02 0.  0.
         13    1    3    3    0    0 -0.94461618822E+01 -0.33921661082E+02 -0.22533164466E+01  0.35284524425E+02  0.10566000000E+00 0. -1.
         22    1    1    0    0    0  0.53460999183E+01 -0.24993812435E+02 -0.13062641315E+02  0.28703728721E+02  0.00000000000E+00 0.  1.
</event>
<event>
 5    1  0.8943334E-005  0.9118800E+02  0.7818608E-02  0.1130116E+00
         25   -1    0    0    0    0  0.00000000000E+00  0.00000000000E+00  0.99999998245E-14  0.12500000000E+03  0.12500000000E+03 0.  0.
        -13    1    3    3    0    0  0.32522737696E+02 -0.50346552356E+02  0.16781681944E+02  0.62242588429E+02  0.10566000000E+00 0.  1.
         23    2    1    0    0    0  0.18602818490E+02 -0.21437489241E+02  0.81584542584E+01  0.95467117029E+02  0.90784245644E+02 0.  0.
         13    1    3    3    0    0 -0.13919919206E+02  0.28909063116E+02 -0.86232276860E+01  0.33224528600E+02  0.10566000000E+00 0. -1.
         22    1    1    0    0    0 -0.18602818490E+02  0.21437489241E+02 -0.81584542584E+01  0.29532882971E+02  0.00000000000E+00 0.  1.
</event>
<event>
 5    1  0.8943334E-005  0.9118800E+02  0.7818608E-02  0.1130116E+00
         25   -1    0    0    0    0  0.00000000000E+00  0.00000000000E+00  0.99999998245E-14  0.12500000000E+03  0.12500000000E+03 0.  0.
        -13    1    3    3    0    0  0.32944015312E+02 -0.89765843697E+00 -0.39504029788E+02  0.51446024813E+02  0.10566000000E+00 0. -1.
         23    2    1    0    0    0 -0.56199052133E+01  0.17177516045E+02 -0.19211720629E+02  0.98623104777E+02  0.95030396159E+02 0.  0.
         13    1    3    3    0    0 -0.38563920526E+02  0.18075174482E+02  0.20292309158E+02  0.47177079964E+02  0.10566000000E+00 0.  1.
         22    1    1    0    0    0  0.56199052133E+01 -0.17177516045E+02  0.19211720629E+02  0.26376895223E+02  0.00000000000E+00 0. -1.
</event>
<event>
 4    1  0.8943334E-005  0.9118800E+02  0.7818608E-02  0.1130116E+00
         25   -1    0    0    0    0  0.00000000000E+00  0.00000000000E+00  0.99999998245E-14  0.12500000000E+03  0.12500000000E+03 0.  0.
        -13    1    1    0    0    0  0.82411365452E+01  0.24726599543E+02 -0.42657372187E+02  0.49989835191E+02  0.10566000000E+00 0.  1.
         13    1    1    0    0    0  0.40896383300E+01  0.16252421964E+02  0.37513094455E+01  0.17174103993E+02  0.10566000000E+00 0. -1.
         22    1    1    0    0    0 -0.12330774875E+02 -0.40979021507E+02  0.38906062741E+02  0.57836060816E+02  0.00000000000E+00 0.  1.
</event>
<event>
 5    1  0.8943334E-005  0.9118800E+02  0.7818608E-02  0.1130116E+00
         25   -1    0    0    0    0  0.00000000000E+00  0.00000000000E+00  0.99999998245E-14  0.12500000000E+03  0.12500000000E+03 0.  0.
        -13    1    3    3    0    0 -0.38117060321E+01 -0.36337051994E+02 -0.18789578179E+02  0.41084910401E+02  0.10566000000E+00 0.  1.
         23    2    1    0    0    0  0.23853055491E+02  0.77778998742E+01  0.66582634081E+01  0.99042410468E+02  0.95580346395E+02 0.  0.
         13    1    3    3    0    0  0.27664761523E+02  0.44114951869E+02  0.25447841587E+02  0.57957500066E+02  0.10566000000E+00 0. -1.
         22    1    1    0    0    0 -0.23853055491E+02 -0.77778998742E+01 -0.66582634081E+01  0.25957589532E+02  0.00000000000E+00 0. -1.
</event>
<event>
 5    1  0.8943334E-005  0.9118800E+02  0.7818608E-02  0.1130116E+00
         25   -1    0    0    0    0  0.00000000000E+00  0.00000000000E+00  0.99999998245E-14  0.12500000000E+03  0.12500000000E+03 0.  0.
        -13    1    3    3    0    0 -0.32885946761E+02  0.21701257745E+02  0.42078734024E+02  0.57645998155E+02  0.10566000000E+00 0. -1.
         23    2    1    0    0    0 -0.19865202642E+02  0.22510457583E+02  0.83078650854E+01  0.93849276110E+02  0.88528633942E+02 0.  0.
         13    1    3    3    0    0  0.13020744120E+02  0.80919983783E+00 -0.33770868939E+02  0.36203277956E+02  0.10566000000E+00 0.  1.
         22    1    1    0    0    0  0.19865202642E+02 -0.22510457583E+02 -0.83078650854E+01  0.31150723890E+02  0.00000000000E+00 0. -1.
</event>
<event>
 5    1  0.8943334E-005  0.9118800E+02  0.7818608E-02  0.1130116E+00
         25   -1    0    0    0    0  0.00000000000E+00  0.00000000000E+00  0.99999998245E-14  0.12500000000E+03  0.12500000000E+03 0.  0.
        -13    1    3    3    0    0  0.84363928612E+01  0.12651722493E+02 -0.31683917527E+02  0.35144282613E+02  0.10566000000E+00 0.  1.
         23    2    1    0    0    0 -0.49316319831E+01  0.78368598227E+01  0.27485933838E+02  0.95996311875E+02  0.91509988356E+02 0.  0.
         13    1    3    3    0    0 -0.13368024844E+02 -0.48148626702E+01  0.59169851364E+02  0.60852029262E+02  0.10566000000E+00 0. -1.
         22    1    1    0    0    0  0.49316319831E+01 -0.78368598227E+01 -0.27485933838E+02  0.29003688125E+02  0.00000000000E+00 0. -1.
</event>
<event>
 5    1  0.8943334E-005  0.9118800E+02  0.7818608E-02  0.1130116E+00
         25   -1    0    0    0    0  0.00000000000E+00  0.00000000000E+00  0.99999998245E-14  0.12500000000E+03  0.12500000000E+03 0.  0.
        -13    1    3    3    0    0  0.11019240112E+02  0.48930703411E+02  0.14667224441E+01  0.50177682566E+02  0.10566000000E+00 0.  1.
         23    2    1    0    0    0  0.18956819747E+02  0.13357650456E+02  0.22857014996E+02  0.92438811828E+02  0.86514177781E+02 0.  0.
         13    1    3    3    0    0  0.79375796348E+01 -0.35573052955E+02  0.21390292552E+02  0.42261129262E+02  0.10566000000E+00 0. -1.
         22    1    1    0    0    0 -0.18956819747E+02 -0.13357650456E+02 -0.22857014996E+02  0.32561188172E+02  0.00000000000E+00 0.  1.
</event>
<event>
 5    1  0.8943334E-005  0.9118800E+02  0.7818608E-02  0.1130116E+00
         25   -1    0    0    0    0  0.00000000000E+00  0.00000000000E+00  0.99999998245E-14  0.12500000000E+03  0.12500000000E+03 0.  0.
        -13    1    3    3    0    0  0.37384993798E+02 -0.31674375405E+02 -0.35317479967E+02  0.60400657064E+02  0.10566000000E+00 0. -1.
         23    2    1    0    0    0  0.13158521066E+02 -0.15046923141E+02 -0.27851174681E+02  0.90718160729E+02  0.83991310160E+02 0.  0.
         13    1    3    3    0    0 -0.24226472732E+02  0.16627452264E+02  0.74663052855E+01  0.30317503665E+02  0.10566000000E+00 0.  1.
         22    1    1    0    0    0 -0.13158521066E+02  0.15046923141E+02  0.27851174681E+02  0.34281839271E+02  0.00000000000E+00 0. -1.
</event>
<event>
 5    1  0.8943334E-005  0.9118800E+02  0.7818608E-02  0.1130116E+00
         25   -1    0    0    0    0  0.00000000000E+00  0.00000000000E+00  0.99999998245E-14  0.12500000000E+03  0.12500000000E+03 0.  0.
        -13    1    3    3    0    0  0.34041973748E+02 -0.18858377025E+02 -0.18555104794E+02  0.43113773189E+02  0.10566000000E+00 0. -1.
         23    2    1    0    0    0  0.22396640951E+02  0.19222094210E+02  0.11829304129E+02  0.93203288411E+02  0.87611769202E+02 0.  0.
         13    1    3    3    0    0 -0.11645332797E+02  0.38080471235E+02  0.30384408923E+02  0.50089515222E+02  0.10566000000E+00 0.  1.
         22    1    1    0    0    0 -0.22396640951E+02 -0.19222094210E+02 -0.11829304129E+02  0.31796711589E+02  0.00000000000E+00 0.  1.
</event>
<event>
 5    1  0.8943334E-005  0.9118800E+02  0.7818608E-02  0.1130116E+00
         25   -1    0    0    0    0  0.00000000000E+00  0.00000000000E+00  0.99999998245E-14  0.12500000000E+03  0.12500000000E+03 0.  0.
        -13    1    3    3    0    0  0.47573629723E+02 -0.68905263442E+00 -0.37438231474E+02  0.60542195025E+02  0.10566000000E+00 0.  1.
         23    2    1    0    0    0  0.24297638077E+02  0.10140711872E+02 -0.14649095820E+02  0.94870193135E+02  0.89958592051E+02 0.  0.
         13    1    3    3    0    0 -0.23275991646E+02  0.10829764506E+02  0.22789135653E+02  0.34327998110E+02  0.10566000000E+00 0. -1.
         22    1    1    0    0    0 -0.24297638077E+02 -0.10140711872E+02  0.14649095820E+02  0.30129806865E+02  0.00000000000E+00 0.  1.
</event>
<event>
 5    1  0.8943334E-005  0.9118800E+02  0.7818608E-02  0.1130116E+00
         25   -1    0    0    0    0  0.00000000000E+00  0.00000000000E+00  0.99999998245E-14  0.12500000000E+03  0.12500000000E+03 0.  0.
        -13    1    3    3    0    0 -0.15596670692E+02  0.10765596016E+02 -0.25380125204E+02  0.31675165567E+02  0.10566000000E+00 0.  1.
         23    2    1    0    0    0 -0.30761456612E+02  0.70311717168E+01  0.25203684148E+02  0.84615222135E+02  0.74355938120E+02 0.  0.
         13    1    3    3    0    0 -0.15164785920E+02 -0.37344242990E+01  0.50583809352E+02  0.52940056568E+02  0.10566000000E+00 0. -1.
         22    1    1    0    0    0  0.30761456612E+02 -0.70311717168E+01 -0.25203684148E+02  0.40384777865E+02  0.00000000000E+00 0. -1.
</event>
<event>
 5    1  0.8943334E-005  0.9118800E+02  0.7818608E-02  0.1130116E+00
         25   -1    0    0    0    0  0.00000000000E+00  0.00000000000E+00  0.99999998245E-14  0.12500000000E+03  0.12500000000E+03 0.  0.
        -13    1    3    3    0    0 -0.29389864965E+02 -0.15564466918E+02 -0.38555603999E+02  0.50917212776E+02  0.10566000000E+00 0.  1.
         23    2    1    0    0    0 -0.36655838962E+02 -0.17942965659E+02 -0.67440427153E+01  0.83634765094E+02  0.72689003801E+02 0.  0.
         13    1    3    3    0    0 -0.72659739971E+01 -0.23784987415E+01  0.31811561284E+02  0.32717552319E+02  0.10566000000E+00 0. -1.
         22    1    1    0    0    0  0.36655838962E+02  0.17942965659E+02  0.67440427153E+01  0.41365234906E+02  0.00000000000E+00 0.  1.
</event>
<event>
 5    1  0.8943334E-005  0.9118800E+02  0.7818608E-02  0.1130116E+00
         25   -1    0    0    0    0  0.00000000000E+00  0.00000000000E+00  0.99999998245E-14  0.12500000000E+03  0.12500000000E+03 0.  0.
        -13    1    3    3    0    0 -0.30481029588E+02  0.25825467691E+02 -0.66500390448E+01  0.40500396659E+02  0.10566000000E+00 0. -1.
         23    2    1    0    0    0  0.69805342938E+01  0.41894853322E+02  0.31051458198E+01  0.82414221571E+02  0.70558878908E+02 0.  0.
         13    1    3    3    0    0  0.37461563881E+02  0.16069385631E+02  0.97551848646E+01  0.41913824912E+02  0.10566000000E+00 0.  1.
         22    1    1    0    0    0 -0.69805342938E+01 -0.41894853322E+02 -0.31051458198E+01  0.42585778429E+02  0.00000000000E+00 0. -1.
</event>
<event>
 5    1  0.8943334E-005  0.9118800E+02  0.7818608E-02  0.1130116E+00
         25   -1    0    0    0    0  0.00000000000E+00  0.00000000000E+00  0.99999998245E-14  0.12500000000E+03  0.12500000000E+03 0.  0.
        -13    1    3    3    0    0 -0.26128700986E+02 -0.98508833135E+01 -0.30309162368E+02  0.41211714412E+02  0.10566000000E+00 0.  1.
         23    2    1    0    0    0  0.22736244185E+02 -0.16190588117E+02 -0.48670712645E+01  0.96666974643E+02  0.92421554092E+02 0.  0.
         13    1    3    3    0    0  0.48864945171E+02 -0.63397048033E+01  0.25442091103E+02  0.55455260231E+02  0.10566000000E+00 0. -1.
         22    1    1    0    0    0 -0.22736244185E+02  0.16190588117E+02  0.48670712645E+01  0.28333025357E+02  0.00000000000E+00 0. -1.
</event>
<event>
 5    1  0.8943334E-005  0.9118800E+02  0.7818608E-02  0.1130116E+00
         25   -1    0    0    0    0  0.00000000000E+00  0.00000000000E+00  0.99999998245E-14  0.12500000000E+03  0.12500000000E+03 0.  0.
        -13    1    3    3    0    0 -0.36555715518E+02  0.23768632996E+01 -0.18719895186E+02  0.41138977333E+02  0.10566000000E+00 0. -1.
         23    2    1    0    0    0 -0.24684820082E+01 -0.26291407182E+02  0.12751066415E+02  0.95675587137E+02  0.91070833884E+02 0.  0.
         13    1    3    3    0    0  0.34087233510E+02 -0.28668270481E+02  0.31470961602E+02  0.54536609804E+02  0.10566000000E+00 0.  1.
         22    1    1    0    0    0  0.24684820082E+01  0.26291407182E+02 -0.12751066415E+02  0.29324412863E+02  0.00000000000E+00 0.  1.
</event>
<event>
 5    1  0.8943334E-005  0.9118800E+02  0.7818608E-02  0.1130116E+00
         25   -1    0    0    0    0  0.00000000000E+00  0.00000000000E+00  0.99999998245E-14  0.12500000000E+03  0.12500000000E+03 0.  0.
        -13    1    3    3    0    0  0.15695959246E+02  0.22320796500E+02 -0.19730424010E+02  0.33673162736E+02  0.10566000000E+00 0.  1.
         23    2    1    0    0    0 -0.29106535482E+01 -0.13579938058E+02  0.26493096873E+02  0.95087280236E+02  0.90259736644E+02 0.  0.
         13    1    3    3    0    0 -0.18606612795E+02 -0.35900734558E+02  0.46223520883E+02  0.61414117500E+02  0.10566000000E+00 0. -1.
         22    1    1    0    0    0  0.29106535482E+01  0.13579938058E+02 -0.26493096873E+02  0.29912719764E+02  0.00000000000E+00 0. -1.
</event>
<event>
 5    1  0.8943334E-005  0.9118800E+02  0.7818608E-02  0.1130116E+00
         25   -1    0    0    0    0  0.00000000000E+00  0.00000000000E+00  0.99999998245E-14  0.12500000000E+03  0.12500000000E+03 0.  0.
        -13    1    3    3    0    0 -0.45049102330E+02 -0.19430532609E+02  0.71017291142E+01  0.49572300115E+02  0.10566000000E+00 0. -1.
         23    2    1    0    0    0 -0.17731795971E+02  0.58583897994E+01 -0.21503548286E+02  0.96519481952E+02  0.92221854720E+02 0.  0.
         13    1    3    3    0    0  0.27317306359E+02  0.25288922409E+02 -0.28605277400E+02  0.46947181837E+02  0.10566000000E+00 0.  1.
         22    1    1    0    0    0  0.17731795971E+02 -0.58583897994E+01  0.21503548286E+02  0.28480518048E+02  0.00000000000E+00 0.  1.
</event>
<event>
 5    1  0.8943334E-005  0.9118800E+02  0.7818608E-02  0.1130116E+00
         25   -1    0    0    0    0  0.00000000000E+00  0.00000000000E+00  0.99999998245E-14  0.12500000000E+03  0.12500000000E+03 0.  0.
        -13    1    3    3    0    0  0.10638971848E+02  0.15741957858E+02  0.49828492269E+02  0.53328104833E+02  0.10566000000E+00 0.  1.
         23    2    1    0    0    0 -0.13877179112E+02  0.20291442457E+02  0.14865071234E+02  0.96272154974E+02  0.91886009508E+02 0.  0.
         13    1    3    3    0    0 -0.24516150959E+02  0.45494845982E+01 -0.34963421035E+02  0.42944050141E+02  0.10566000000E+00 0. -1.
         22    1    1    0    0    0  0.13877179112E+02 -0.20291442457E+02 -0.14865071234E+02  0.28727845026E+02  0.00000000000E+00 0. -1.
</event>
<event>
 5    1  0.8943334E-005  0.9118800E+02  0.7818608E-02  0.1130116E+00
         25   -1    0    0    0    0  0.00000000000E+00  0.00000000000E+00  0.99999998245E-14  0.12500000000E+03  0.12500000000E+03 0.  0.
        -13    1    3    3    0    0  0.55168685402E+00  0.32841883146E+02 -0.20045822685E+02  0.38480382250E+02  0.10566000000E+00 0.  1.
         23    2    1    0    0    0 -0.98878704107E+01 -0.22741546598E+02  0.39013720792E+01  0.99896840298E+02  0.96691313335E+02 0.  0.
         13    1    3    3    0    0 -0.10439557265E+02 -0.55583429744E+02  0.23947194764E+02  0.61416458048E+02  0.10566000000E+00 0. -1.
         22    1    1    0    0    0  0.98878704107E+01  0.22741546598E+02 -0.39013720792E+01  0.25103159702E+02  0.00000000000E+00 0. -1.
</event>
<event>
 5    1  0.8943334E-005  0.9118800E+02  0.7818608E-02  0.1130116E+00
         25   -1    0    0    0    0  0.00000000000E+00  0.00000000000E+00  0.99999998245E-14  0.12500000000E+03  0.12500000000E+03 0.  0.
        -13    1    3    3    0    0 -0.12339884136E+02 -0.25327652222E+02 -0.20962104609E+02  0.35116715411E+02  0.10566000000E+00 0. -1.
         23    2    1    0    0    0 -0.76831827208E+00  0.15895366626E+02  0.23354980716E+02  0.96738575454E+02  0.92518343389E+02 0.  0.
         13    1    3    3    0    0  0.11571565864E+02  0.41223018847E+02  0.44317085325E+02  0.61621860043E+02  0.10566000000E+00 0.  1.
         22    1    1    0    0    0  0.76831827208E+00 -0.15895366626E+02 -0.23354980716E+02  0.28261424546E+02  0.00000000000E+00 0.  1.
</event>
<event>
 5    1  0.8943334E-005  0.9118800E+02  0.7818608E-02  0.1130116E+00
         25   -1    0    0    0    0  0.00000000000E+00  0.00000000000E+00  0.99999998245E-14  0.12500000000E+03  0.12500000000E+03 0.  0.
        -13    1    3    3    0    0  0.32318956064E+02 -0.25653560082E+02 -0.27829899201E+02  0.49770819960E+02  0.10566000000E+00 0. -1.
         23    2    1    0    0    0 -0.55795408069E+01 -0.59298869863E+00 -0.29238829609E+02  0.95227662703E+02  0.90453942289E+02 0.  0.
         13    1    3    3    0    0 -0.37898496871E+02  0.25060571383E+02 -0.14089304086E+01  0.45456842742E+02  0.10566000000E+00 0.  1.
         22    1    1    0    0    0  0.55795408069E+01  0.59298869863E+00  0.29238829609E+02  0.29772337297E+02  0.00000000000E+00 0.  1.
</event>
<event>
 5    1  0.8943334E-005  0.9118800E+02  0.7818608E-02  0.1130116E+00
         25   -1    0    0    0    0  0.00000000000E+00  0.00000000000E+00  0.99999998245E-14  0.12500000000E+03  0.12500000000E+03 0.  0.
        -13    1    3    3    0    0 -0.29773411910E+02 -0.24253990320E+02 -0.22872968665E+01  0.38470183183E+02  0.10566000000E+00 0.  1.
         23    2    1    0    0    0 -0.60999437718E+01  0.28243379458E+02  0.36011724124E-01  0.96105379496E+02  0.91658850495E+02 0.  0.
         13    1    3    3    0    0  0.23673468138E+02  0.52497369777E+02  0.23233085906E+01  0.57635196313E+02  0.10566000000E+00 0. -1.
         22    1    1    0    0    0  0.60999437718E+01 -0.28243379458E+02 -0.36011724124E-01  0.28894620504E+02  0.00000000000E+00 0. -1.
</event>
<event>
 5    1  0.8943334E-005  0.9118800E+02  0.7818608E-02  0.1130116E+00
         25   -1    0    0    0    0  0.00000000000E+00  0.00000000000E+00  0.99999998245E-14  0.12500000000E+03  0.12500000000E+03 0.  0.
        -13    1    3    3    0    0  0.75776614763E+01 -0.24923239282E+02  0.43702690785E+02  0.50877550606E+02  0.10566000000E+00 0.  1.
         23    2    1    0    0    0  0.16614195334E+02 -0.21369565794E+02 -0.22437111885E+01  0.97838923646E+02  0.93993249286E+02 0.  0.
         13    1    3    3    0    0  0.90365338576E+01  0.35536734876E+01 -0.45946401974E+02  0.46961373040E+02  0.10566000000E+00 0. -1.
         22    1    1    0    0    0 -0.16614195334E+02  0.21369565794E+02  0.22437111885E+01  0.27161076354E+02  0.00000000000E+00 0. -1.
</event>
<event>
 5    1  0.8943334E-005  0.9118800E+02  0.7818608E-02  0.1130116E+00
         25   -1    0    0    0    0  0.00000000000E+00  0.00000000000E+00  0.99999998245E-14  0.12500000000E+03  0.12500000000E+03 0.  0.
        -13    1    3    3    0    0  0.28344696528E+01  0.73811243750E+01 -0.39200449538E+02  0.39990019045E+02  0.10566000000E+00 0. -1.
         23    2    1    0    0    0  0.15215934777E+02 -0.29373502601E+02 -0.53084309660E+01  0.91496167898E+02  0.85141305925E+02 0.  0.
         13    1    3    3    0    0  0.12381465124E+02 -0.36754626976E+02  0.33892018572E+02  0.51506148853E+02  0.10566000000E+00 0.  1.
         22    1    1    0    0    0 -0.15215934777E+02  0.29373502601E+02  0.53084309660E+01  0.33503832102E+02  0.00000000000E+00 0.  1.
</event>
<event>
 4    1  0.8943334E-005  0.9118800E+02  0.7818608E-02  0.1130116E+00
         25   -1    0    0    0    0  0.00000000000E+00  0.00000000000E+00  0.99999998245E-14  0.12500000000E+03  0.12500000000E+03 0.  0.
        -13    1    1    0    0    0 -0.10378096256E+02 -0.34126449984E+02  0.12321155104E+02  0.37737799320E+02  0.10566000000E+00 0.  1.
         13    1    1    0    0    0 -0.84524131265E+01 -0.85385413456E+01 -0.33833769238E+02  0.35903831005E+02  0.10566000000E+00 0. -1.
         22    1    1    0    0    0  0.18830509383E+02  0.42664991329E+02  0.21512614134E+02  0.51358369674E+02  0.00000000000E+00 0. -1.
</event>
<event>
 5    1  0.8943334E-005  0.9118800E+02  0.7818608E-02  0.1130116E+00
         25   -1    0    0    0    0  0.00000000000E+00  0.00000000000E+00  0.99999998245E-14  0.12500000000E+03  0.12500000000E+03 0.  0.
        -13    1    3    3    0    0  0.42383132736E+02 -0.43233303871E+02  0.47261909459E+01  0.60727230704E+02  0.10566000000E+00 0. -1.
         23    2    1    0    0    0  0.19578080179E+02 -0.18705300395E+02  0.12603509179E+02  0.95132995966E+02  0.90323025810E+02 0.  0.
         13    1    3    3    0    0 -0.22805052557E+02  0.24528003477E+02  0.78773182329E+01  0.34405765262E+02  0.10566000000E+00 0.  1.
         22    1    1    0    0    0 -0.19578080179E+02  0.18705300395E+02 -0.12603509179E+02  0.29867004034E+02  0.00000000000E+00 0. -1.
</event>
<event>
 5    1  0.8943334E-005  0.9118800E+02  0.7818608E-02  0.1130116E+00
         25   -1    0    0    0    0  0.00000000000E+00  0.00000000000E+00  0.99999998245E-14  0.12500000000E+03  0.12500000000E+03 0.  0.
        -13    1    3    3    0    0  0.20575350514E+02  0.18740316210E+02  0.33419447272E+02  0.43490402625E+02  0.10566000000E+00 0.  1.
         23    2    1    0    0    0  0.15311033163E+02  0.10974345224E+02 -0.19881779137E+02  0.97611149508E+02  0.93689846713E+02 0.  0.
         13    1    3    3    0    0 -0.52643173513E+01 -0.77659709855E+01 -0.53301226409E+02  0.54120746884E+02  0.10566000000E+00 0. -1.
         22    1    1    0    0    0 -0.15311033163E+02 -0.10974345224E+02  0.19881779137E+02  0.27388850492E+02  0.00000000000E+00 0. -1.
</event>
<event>
 5    1  0.8943334E-005  0.9118800E+02  0.7818608E-02  0.1130116E+00
         25   -1    0    0    0    0  0.00000000000E+00  0.00000000000E+00  0.99999998245E-14  0.12500000000E+03  0.12500000000E+03 0.  0.
        -13    1    3    3    0    0  0.94789801647E+01  0.11643389184E+02 -0.23635549693E+01  0.15199247770E+02  0.10566000000E+00 0. -1.
         23    2    1    0    0    0 -0.35950541204E+01 -0.40417905920E+02  0.26880716772E+02  0.76326552749E+02  0.58793181470E+02 0.  0.
         13    1    3    3    0    0 -0.13074034285E+02 -0.52061295104E+02  0.29244271741E+02  0.61127304980E+02  0.10566000000E+00 0.  1.
         22    1    1    0    0    0  0.35950541204E+01  0.40417905920E+02 -0.26880716772E+02  0.48673447251E+02  0.00000000000E+00 0.  1.
</event>
<event>
 5    1  0.8943334E-005  0.9118800E+02  0.7818608E-02  0.1130116E+00
         25   -1    0    0    0    0  0.00000000000E+00  0.00000000000E+00  0.99999998245E-14  0.12500000000E+03  0.12500000000E+03 0.  0.
        -13    1    3    3    0    0  0.41024068665E+02  0.37117305720E+02  0.20210984729E+02  0.58899606633E+02  0.10566000000E+00 0. -1.
         23    2    1    0    0    0  0.10250669930E+02  0.26586989402E+02  0.14042702652E+01  0.96470783144E+02  0.92155823396E+02 0.  0.
         13    1    3    3    0    0 -0.30773398735E+02 -0.10530316319E+02 -0.18806714464E+02  0.37571176511E+02  0.10566000000E+00 0.  1.
         22    1    1    0    0    0 -0.10250669930E+02 -0.26586989402E+02 -0.14042702652E+01  0.28529216856E+02  0.00000000000E+00 0. -1.
</event>
<event>
 5    1  0.8943334E-005  0.9118800E+02  0.7818608E-02  0.1130116E+00
         25   -1    0    0    0    0  0.00000000000E+00  0.00000000000E+00  0.99999998245E-14  0.12500000000E+03  0.12500000000E+03 0.  0.
        -13    1    3    3    0    0 -0.25218195152E+02 -0.29849494577E+02  0.33746929980E+02  0.51631542107E+02  0.10566000000E+00 0.  1.
         23    2    1    0    0    0 -0.29559401541E+02  0.50242884832E+01  0.16445887469E+02  0.90802501424E+02  0.84116736479E+02 0.  0.
         13    1    3    3    0    0 -0.43412063893E+01  0.34873783060E+02 -0.17301042511E+02  0.39170959317E+02  0.10566000000E+00 0. -1.
         22    1    1    0    0    0  0.29559401541E+02 -0.50242884832E+01 -0.16445887469E+02  0.34197498576E+02  0.00000000000E+00 0.  1.
</event>
<event>
 5    1  0.8943334E-005  0.9118800E+02  0.7818608E-02  0.1130116E+00
         25   -1    0    0    0    0  0.00000000000E+00  0.00000000000E+00  0.99999998245E-14  0.12500000000E+03  0.12500000000E+03 0.  0.
        -13    1    3    3    0    0  0.15043128642E+02 -0.22624518212E+01  0.30436318921E+02  0.34026388011E+02  0.10566000000E+00 0.  1.
         23    2    1    0    0    0 -0.58662623704E+01  0.14306134786E+02 -0.25032377426E+02  0.95577246113E+02  0.90935754949E+02 0.  0.
         13    1    3    3    0    0 -0.20909391013E+02  0.16568586607E+02 -0.55468696347E+02  0.61550858102E+02  0.10566000000E+00 0. -1.
         22    1    1    0    0    0  0.58662623704E+01 -0.14306134786E+02  0.25032377426E+02  0.29422753887E+02  0.00000000000E+00 0. -1.
</event>
<event>
 5    1  0.8943334E-005  0.9118800E+02  0.7818608E-02  0.1130116E+00
         25   -1    0    0    0    0  0.00000000000E+00  0.00000000000E+00  0.99999998245E-14  0.12500000000E+03  0.12500000000E+03 0.  0.
        -13    1    3    3    0    0 -0.36049325715E+02 -0.39785795004E+02  0.16054201369E+02  0.56037593759E+02  0.10566000000E+00 0.  1.
         23    2    1    0    0    0 -0.16830412832E+02 -0.48851207635E+01  0.22586266565E+02  0.96412124277E+02  0.92076224235E+02 0.  0.
         13    1    3    3    0    0  0.19218912883E+02  0.34900674240E+02  0.65320651964E+01  0.40374530519E+02  0.10566000000E+00 0. -1.
         22    1    1    0    0    0  0.16830412832E+02  0.48851207635E+01 -0.22586266565E+02  0.28587875723E+02  0.00000000000E+00 0.  1.
</event>
<event>
 5    1  0.8943334E-005  0.9118800E+02  0.7818608E-02  0.1130116E+00
         25   -1    0    0    0    0  0.00000000000E+00  0.00000000000E+00  0.99999998245E-14  0.12500000000E+03  0.12500000000E+03 0.  0.
        -13    1    3    3    0    0 -0.55243952127E+02  0.70447873158E+00  0.76834350601E+01  0.55780255245E+02  0.10566000000E+00 0.  1.
         23    2    1    0    0    0 -0.22999806144E+02 -0.19036834600E+02 -0.27955664082E+01  0.95013213813E+02  0.90157104287E+02 0.  0.
         13    1    3    3    0    0  0.32244145983E+02 -0.19741313331E+02 -0.10479001468E+02  0.39232958568E+02  0.10566000000E+00 0. -1.
         22    1    1    0    0    0  0.22999806144E+02  0.19036834600E+02  0.27955664082E+01  0.29986786187E+02  0.00000000000E+00 0.  1.
</event>
<event>
 5    1  0.8943334E-005  0.9118800E+02  0.7818608E-02  0.1130116E+00
         25   -1    0    0    0    0  0.00000000000E+00  0.00000000000E+00  0.99999998245E-14  0.12500000000E+03  0.12500000000E+03 0.  0.
        -13    1    3    3    0    0  0.34313177330E+01  0.56823220889E+02 -0.60498243392E+01  0.57247392186E+02  0.10566000000E+00 0.  1.
         23    2    1    0    0    0  0.87882429873E+01  0.25038652509E+02  0.13787691433E+02  0.95095689787E+02  0.90271382214E+02 0.  0.
         13    1    3    3    0    0  0.53569252543E+01 -0.31784568380E+02  0.19837515772E+02  0.37848297601E+02  0.10566000000E+00 0. -1.
         22    1    1    0    0    0 -0.87882429873E+01 -0.25038652509E+02 -0.13787691433E+02  0.29904310213E+02  0.00000000000E+00 0. -1.
</event>
<event>
 5    1  0.8943334E-005  0.9118800E+02  0.7818608E-02  0.1130116E+00
         25   -1    0    0    0    0  0.00000000000E+00  0.00000000000E+00  0.99999998245E-14  0.12500000000E+03  0.12500000000E+03 0.  0.
        -13    1    3    3    0    0  0.14398991223E+02  0.25183995333E+02 -0.26470454568E+02  0.39271627140E+02  0.10566000000E+00 0. -1.
         23    2    1    0    0    0  0.76940336980E+01 -0.11447363311E+02  0.21165776122E+02  0.99736778507E+02  0.96484167752E+02 0.  0.
         13    1    3    3    0    0 -0.67049575255E+01 -0.36631358644E+02  0.47636230690E+02  0.60465151367E+02  0.10566000000E+00 0.  1.
         22    1    1    0    0    0 -0.76940336980E+01  0.11447363311E+02 -0.21165776122E+02  0.25263221493E+02  0.00000000000E+00 0.  1.
</event>
<event>
 5    1  0.8943334E-005  0.9118800E+02  0.7818608E-02  0.1130116E+00
         25   -1    0    0    0    0  0.00000000000E+00  0.00000000000E+00  0.99999998245E-14  0.12500000000E+03  0.12500000000E+03 0.  0.
        -13    1    3    3    0    0  0.44584964139E+02 -0.67338853784E+01  0.23849702026E+02  0.51009643111E+02  0.10566000000E+00 0. -1.
         23    2    1    0    0    0 -0.57568224838E-01 -0.80768723152E+01  0.27993711067E+02  0.95864333888E+02  0.91329532310E+02 0.  0.
         13    1    3    3    0    0 -0.44642532363E+02 -0.13429869367E+01  0.41440090405E+01  0.44854690777E+02  0.10566000000E+00 0.  1.
         22    1    1    0    0    0  0.57568224838E-01  0.80768723152E+01 -0.27993711067E+02  0.29135666112E+02  0.00000000000E+00 0. -1.
</event>
<event>
 5    1  0.8943334E-005  0.9118800E+02  0.7818608E-02  0.1130116E+00
         25   -1    0    0    0    0  0.00000000000E+00  0.00000000000E+00  0.99999998245E-14  0.12500000000E+03  0.12500000000E+03 0.  0.
        -13    1    3    3    0    0  0.45071355986E+01 -0.43473481811E+02  0.31461168038E+02  0.53852336537E+02  0.10566000000E+00 0.  1.
         23    2    1    0    0    0  0.26597703591E+01 -0.28469555123E+02 -0.73271829724E+01  0.95482588908E+02  0.90805546235E+02 0.  0.
         13    1    3    3    0    0 -0.18473652394E+01  0.15003926689E+02 -0.38788351010E+02  0.41630252372E+02  0.10566000000E+00 0. -1.
         22    1    1    0    0    0 -0.26597703591E+01  0.28469555123E+02  0.73271829724E+01  0.29517411092E+02  0.00000000000E+00 0.  1.
</event>
<event>
 5    1  0.8943334E-005  0.9118800E+02  0.7818608E-02  0.1130116E+00
         25   -1    0    0    0    0  0.00000000000E+00  0.00000000000E+00  0.99999998245E-14  0.12500000000E+03  0.12500000000E+03 0.  0.
        -13    1    3    3    0    0  0.26867570279E+02  0.35868917636E+02 -0.25668778872E+02  0.51646325696E+02  0.10566000000E+00 0. -1.
         23    2    1    0    0    0  0.25789188176E+02 -0.61931095199E+01 -0.78457097927E+01  0.97341511349E+02  0.93329404998E+02 0.  0.
         13    1    3    3    0    0 -0.10783821026E+01 -0.42062027156E+02  0.17823069079E+02  0.45695185653E+02  0.10566000000E+00 0.  1.
         22    1    1    0    0    0 -0.25789188176E+02  0.61931095199E+01  0.78457097927E+01  0.27658488651E+02  0.00000000000E+00 0. -1.
</event>
<event>
 5    1  0.8943334E-005  0.9118800E+02  0.7818608E-02  0.1130116E+00
         25   -1    0    0    0    0  0.00000000000E+00  0.00000000000E+00  0.99999998245E-14  0.12500000000E+03  0.12500000000E+03 0.  0.
        -13    1    3    3    0    0 -0.16391141620E+02  0.41684733632E+00  0.30967868027E+02  0.35040880404E+02  0.10566000000E+00 0.  1.
         23    2    1    0    0    0 -0.35252980578E+01  0.39218471577E+01 -0.28515660155E+02  0.96000836467E+02  0.91516168609E+02 0.  0.
         13    1    3    3    0    0  0.12865843563E+02  0.35049998214E+01 -0.59483528181E+02  0.60959956064E+02  0.10566000000E+00 0. -1.
         22    1    1    0    0    0  0.35252980578E+01 -0.39218471577E+01  0.28515660155E+02  0.28999163533E+02  0.00000000000E+00 0. -1.
</event>
<event>
 5    1  0.8943334E-005  0.9118800E+02  0.7818608E-02  0.1130116E+00
         25   -1    0    0    0    0  0.00000000000E+00  0.00000000000E+00  0.99999998245E-14  0.12500000000E+03  0.12500000000E+03 0.  0.
        -13    1    3    3    0    0 -0.92726301990E+01 -0.15920600654E+02 -0.41102639953E+02  0.45043150102E+02  0.10566000000E+00 0. -1.
         23    2    1    0    0    0 -0.23830121326E+02 -0.14603084167E+02  0.77181514614E+01  0.96005265796E+02  0.91522218335E+02 0.  0.
         13    1    3    3    0    0 -0.14557491127E+02  0.13175164872E+01  0.48820791414E+02  0.50962115694E+02  0.10566000000E+00 0.  1.
         22    1    1    0    0    0  0.23830121326E+02  0.14603084167E+02 -0.77181514614E+01  0.28994734204E+02  0.00000000000E+00 0. -1.
</event>
<event>
 5    1  0.8943334E-005  0.9118800E+02  0.7818608E-02  0.1130116E+00
         25   -1    0    0    0    0  0.00000000000E+00  0.00000000000E+00  0.99999998245E-14  0.12500000000E+03  0.12500000000E+03 0.  0.
        -13    1    3    3    0    0 -0.68123516314E+01  0.44842299891E+02  0.28397269607E+02  0.53513139316E+02  0.10566000000E+00 0.  1.
         23    2    1    0    0    0  0.13954378118E+01  0.28308418749E+02 -0.90370686496E+01  0.95251345769E+02  0.90486664445E+02 0.  0.
         13    1    3    3    0    0  0.82077894431E+01 -0.16533881142E+02 -0.37434338257E+02  0.41738206453E+02  0.10566000000E+00 0. -1.
         22    1    1    0    0    0 -0.13954378118E+01 -0.28308418749E+02  0.90370686496E+01  0.29748654231E+02  0.00000000000E+00 0. -1.
</event>
<event>
 5    1  0.8943334E-005  0.9118800E+02  0.7818608E-02  0.1130116E+00
         25   -1    0    0    0    0  0.00000000000E+00  0.00000000000E+00  0.99999998245E-14  0.12500000000E+03  0.12500000000E+03 0.  0.
        -13    1    3    3    0    0  0.45965305044E+02 -0.37491013723E+02 -0.18520611652E+02  0.62140241372E+02  0.10566000000E+00 0.  1.
         23    2    1    0    0    0  0.24052729386E+02 -0.13524783916E+02 -0.86984440804E+01  0.96067034367E+02  0.91606542298E+02 0.  0.
         13    1    3    3    0    0 -0.21912575657E+02  0.23966229808E+02  0.98221675712E+01  0.33926792995E+02  0.10566000000E+00 0. -1.
         22    1    1    0    0    0 -0.24052729386E+02  0.13524783916E+02  0.86984440804E+01  0.28932965633E+02  0.00000000000E+00 0.  1.
</event>
<event>
 5    1  0.8943334E-005  0.9118800E+02  0.7818608E-02  0.1130116E+00
         25   -1    0    0    0    0  0.00000000000E+00  0.00000000000E+00  0.99999998245E-14  0.12500000000E+03  0.12500000000E+03 0.  0.
        -13    1    3    3    0    0  0.29996530268E+02 -0.43684281589E+02 -0.10732652880E+02  0.54067636234E+02  0.10566000000E+00 0. -1.
         23    2    1    0    0    0  0.10979892145E+02 -0.10144143275E+02 -0.25570600131E+02  0.95380458049E+02  0.90664847170E+02 0.  0.
         13    1    3    3    0    0 -0.19016638123E+02  0.33540138314E+02 -0.14837947251E+02  0.41312821815E+02  0.10566000000E+00 0.  1.
         22    1    1    0    0    0 -0.10979892145E+02  0.10144143275E+02  0.25570600131E+02  0.29619541951E+02  0.00000000000E+00 0. -1.
</event>
<event>
 5    1  0.8943334E-005  0.9118800E+02  0.7818608E-02  0.1130116E+00
         25   -1    0    0    0    0  0.00000000000E+00  0.00000000000E+00  0.99999998245E-14  0.12500000000E+03  0.12500000000E+03 0.  0.
        -13    1    3    3    0    0 -0.31806421130E+02  0.20440362817E+02 -0.45238252117E+02  0.58957336064E+02  0.10566000000E+00 0. -1.
         23    2    1    0    0    0 -0.25802522809E+02  0.51878981367E+01 -0.11882820843E+02  0.96122917364E+02  0.91682764689E+02 0.  0.
         13    1    3    3    0    0  0.60038983215E+01 -0.15252464680E+02  0.33355431274E+02  0.37165581300E+02  0.10566000000E+00 0.  1.
         22    1    1    0    0    0  0.25802522809E+02 -0.51878981367E+01  0.11882820843E+02  0.28877082636E+02  0.00000000000E+00 0. -1.
</event>
<event>
 5    1  0.8943334E-005  0.9118800E+02  0.7818608E-02  0.1130116E+00
         25   -1    0    0    0    0  0.00000000000E+00  0.00000000000E+00  0.99999998245E-14  0.12500000000E+03  0.12500000000E+03 0.  0.
        -13    1    3    3    0    0  0.16923993429E+02 -0.27139789666E+02  0.30517221022E+01  0.32129642209E+02  0.10566000000E+00 0.  1.
         23    2    1    0    0    0 -0.25105033960E+01  0.28097713067E+02 -0.14529098766E+02  0.93268646139E+02  0.87704968700E+02 0.  0.
         13    1    3    3    0    0 -0.19434496825E+02  0.55237502733E+02 -0.17580820868E+02  0.61139003929E+02  0.10566000000E+00 0. -1.
         22    1    1    0    0    0  0.25105033960E+01 -0.28097713067E+02  0.14529098766E+02  0.31731353861E+02  0.00000000000E+00 0. -1.
</event>
<event>
 5    1  0.8943334E-005  0.9118800E+02  0.7818608E-02  0.1130116E+00
         25   -1    0    0    0    0  0.00000000000E+00  0.00000000000E+00  0.99999998245E-14  0.12500000000E+03  0.12500000000E+03 0.  0.
        -13    1    3    3    0    0  0.38705584685E+02 -0.32763529386E+02 -0.97752617124E+01  0.51644341889E+02  0.10566000000E+00 0.  1.
         23    2    1    0    0    0  0.12970838614E+02 -0.19399426898E+02  0.20768120538E+02  0.93760677840E+02  0.88403447105E+02 0.  0.
         13    1    3    3    0    0 -0.25734746070E+02  0.13364102487E+02  0.30543382250E+02  0.42116335951E+02  0.10566000000E+00 0. -1.
         22    1    1    0    0    0 -0.12970838614E+02  0.19399426898E+02 -0.20768120538E+02  0.31239322160E+02  0.00000000000E+00 0.  1.
</event>
<event>
 5    1  0.8943334E-005  0.9118800E+02  0.7818608E-02  0.1130116E+00
         25   -1    0    0    0    0  0.00000000000E+00  0.00000000000E+00  0.99999998245E-14  0.12500000000E+03  0.12500000000E+03 0.  0.
        -13    1    3    3    0    0  0.51670879845E+02  0.14774434104E+02 -0.15047608205E+02  0.55808649901E+02  0.10566000000E+00 0.  1.
         23    2    1    0    0    0  0.19341210882E+02  0.21540646480E+02  0.66089278234E+01  0.95305559171E+02  0.90561524903E+02 0.  0.
         13    1    3    3    0    0 -0.32329668962E+02  0.67662123753E+01  0.21656536029E+02  0.39496909270E+02  0.10566000000E+00 0. -1.
         22    1    1    0    0    0 -0.19341210882E+02 -0.21540646480E+02 -0.66089278234E+01  0.29694440829E+02  0.00000000000E+00 0.  1.
</event>
<event>
 5    1  0.8943334E-005  0.9118800E+02  0.7818608E-02  0.1130116E+00
         25   -1    0    0    0    0  0.00000000000E+00  0.00000000000E+00  0.99999998245E-14  0.12500000000E+03  0.12500000000E+03 0.  0.
        -13    1    3    3    0    0 -0.47620707179E+01  0.13333205829E+02 -0.32626949820E+02  0.35566567361E+02  0.10566000000E+00 0. -1.
         23    2    1    0    0    0  0.10631398158E+02 -0.60280130093E+01  0.24390909860E+02  0.97718503497E+02  0.93832967950E+02 0.  0.
         13    1    3    3    0    0  0.15393468875E+02 -0.19361218838E+02  0.57017859681E+02  0.62151936137E+02  0.10566000000E+00 0.  1.
         22    1    1    0    0    0 -0.10631398158E+02  0.60280130093E+01 -0.24390909860E+02  0.27281496503E+02  0.00000000000E+00 0.  1.
</event>
<event>
 5    1  0.8943334E-005  0.9118800E+02  0.7818608E-02  0.1130116E+00
         25   -1    0    0    0    0  0.00000000000E+00  0.00000000000E+00  0.99999998245E-14  0.12500000000E+03  0.12500000000E+03 0.  0.
        -13    1    3    3    0    0 -0.28458496251E+02  0.30035423526E+02  0.69078100234E-01  0.41376667472E+02  0.10566000000E+00 0. -1.
         23    2    1    0    0    0  0.19985836600E+02  0.17163269531E+02 -0.16196707337E+02  0.94075174792E+02  0.88847024137E+02 0.  0.
         13    1    3    3    0    0  0.48444332851E+02 -0.12872153995E+02 -0.16265785437E+02  0.52698507320E+02  0.10566000000E+00 0.  1.
         22    1    1    0    0    0 -0.19985836600E+02 -0.17163269531E+02  0.16196707337E+02  0.30924825208E+02  0.00000000000E+00 0.  1.
</event>
<event>
 5    1  0.8943334E-005  0.9118800E+02  0.7818608E-02  0.1130116E+00
         25   -1    0    0    0    0  0.00000000000E+00  0.00000000000E+00  0.99999998245E-14  0.12500000000E+03  0.12500000000E+03 0.  0.
        -13    1    3    3    0    0  0.11172439496E+02 -0.53046377459E+02 -0.16283926179E+02  0.56603171127E+02  0.10566000000E+00 0.  1.
         23    2    1    0    0    0  0.57285963050E+01 -0.25264110953E+02  0.11847407722E+02  0.96513982595E+02  0.92214400441E+02 0.  0.
         13    1    3    3    0    0 -0.54438431909E+01  0.27782266506E+02  0.28131333901E+02  0.39910811467E+02  0.10566000000E+00 0. -1.
         22    1    1    0    0    0 -0.57285963050E+01  0.25264110953E+02 -0.11847407722E+02  0.28486017405E+02  0.00000000000E+00 0.  1.
</event>
<event>
 5    1  0.8943334E-005  0.9118800E+02  0.7818608E-02  0.1130116E+00
         25   -1    0    0    0    0  0.00000000000E+00  0.00000000000E+00  0.99999998245E-14  0.12500000000E+03  0.12500000000E+03 0.  0.
        -13    1    3    3    0    0 -0.47165457178E+02  0.19569725424E+02  0.20907201521E+02  0.55178589538E+02  0.10566000000E+00 0. -1.
         23    2    1    0    0    0 -0.73716000601E+01  0.23004687235E+02 -0.11678907727E+01  0.10081487872E+03  0.97870933792E+02 0.  0.
         13    1    3    3    0    0  0.39793857118E+02  0.34349618112E+01 -0.22075092294E+02  0.45636289187E+02  0.10566000000E+00 0.  1.
         22    1    1    0    0    0  0.73716000601E+01 -0.23004687235E+02  0.11678907727E+01  0.24185121275E+02  0.00000000000E+00 0. -1.
</event>
<event>
 5    1  0.8943334E-005  0.9118800E+02  0.7818608E-02  0.1130116E+00
         25   -1    0    0    0    0  0.00000000000E+00  0.00000000000E+00  0.99999998245E-14  0.12500000000E+03  0.12500000000E+03 0.  0.
        -13    1    3    3    0    0 -0.44119682160E+02 -0.60232838505E+01 -0.30360890709E+02  0.53894537301E+02  0.10566000000E+00 0. -1.
         23    2    1    0    0    0 -0.88063972210E+01 -0.23174907669E+02 -0.14815944669E+02  0.96118497374E+02  0.91676738290E+02 0.  0.
         13    1    3    3    0    0  0.35313284939E+02 -0.17151623819E+02  0.15544946040E+02  0.42223960073E+02  0.10566000000E+00 0.  1.
         22    1    1    0    0    0  0.88063972210E+01  0.23174907669E+02  0.14815944669E+02  0.28881502626E+02  0.00000000000E+00 0. -1.
</event>
<event>
 4    1  0.8943334E-005  0.9118800E+02  0.7818608E-02  0.1130116E+00
         25   -1    0    0    0    0  0.00000000000E+00  0.00000000000E+00  0.99999998245E-14  0.12500000000E+03  0.12500000000E+03 0.  0.
        -13    1    1    0    0    0  0.30419103528E+01 -0.49971205074E+01 -0.32341278286E+01  0.66854452961E+01  0.10566000000E+00 0.  1.
         13    1    1    0    0    0 -0.42748219876E+02  0.35877938124E+02  0.27783481372E+02  0.62342359177E+02  0.10566000000E+00 0. -1.
         22    1    1    0    0    0  0.39706309524E+02 -0.30880817616E+02 -0.24549353543E+02  0.55972195526E+02  0.00000000000E+00 0. -1.
</event>
<event>
 5    1  0.8943334E-005  0.9118800E+02  0.7818608E-02  0.1130116E+00
         25   -1    0    0    0    0  0.00000000000E+00  0.00000000000E+00  0.99999998245E-14  0.12500000000E+03  0.12500000000E+03 0.  0.
        -13    1    3    3    0    0 -0.34962704956E+02 -0.38495642581E+02 -0.34250389434E+02  0.62268817043E+02  0.10566000000E+00 0. -1.
         23    2    1    0    0    0 -0.15863111829E+02 -0.15809752532E+02 -0.10490267282E+02  0.10026879907E+03  0.97170982121E+02 0.  0.
         13    1    3    3    0    0  0.19099593127E+02  0.22685890049E+02  0.23760122152E+02  0.37999982022E+02  0.10566000000E+00 0.  1.
         22    1    1    0    0    0  0.15863111829E+02  0.15809752532E+02  0.10490267282E+02  0.24731200935E+02  0.00000000000E+00 0. -1.
</event>
<event>
 5    1  0.8943334E-005  0.9118800E+02  0.7818608E-02  0.1130116E+00
         25   -1    0    0    0    0  0.00000000000E+00  0.00000000000E+00  0.99999998245E-14  0.12500000000E+03  0.12500000000E+03 0.  0.
        -13    1    3    3    0    0 -0.26401881348E+02 -0.46673137263E+02  0.51490339909E+01  0.53869887653E+02  0.10566000000E+00 0. -1.
         23    2    1    0    0    0 -0.28517018805E+02 -0.52410475998E+01 -0.18677180305E+01  0.95945270400E+02  0.91440240595E+02 0.  0.
         13    1    3    3    0    0 -0.21151374573E+01  0.41432089663E+02 -0.70167520214E+01  0.42075382747E+02  0.10566000000E+00 0.  1.
         22    1    1    0    0    0  0.28517018805E+02  0.52410475998E+01  0.18677180305E+01  0.29054729600E+02  0.00000000000E+00 0. -1.
</event>
<event>
 5    1  0.8943334E-005  0.9118800E+02  0.7818608E-02  0.1130116E+00
         25   -1    0    0    0    0  0.00000000000E+00  0.00000000000E+00  0.99999998245E-14  0.12500000000E+03  0.12500000000E+03 0.  0.
        -13    1    3    3    0    0  0.15085679973E+02  0.84225362033E+00  0.32764968911E+02  0.36081040495E+02  0.10566000000E+00 0.  1.
         23    2    1    0    0    0 -0.19835951101E+02 -0.14092644454E+02 -0.14468320774E+02  0.96690992779E+02  0.92454032875E+02 0.  0.
         13    1    3    3    0    0 -0.34921631074E+02 -0.14934898074E+02 -0.47233289685E+02  0.60609952284E+02  0.10566000000E+00 0. -1.
         22    1    1    0    0    0  0.19835951101E+02  0.14092644454E+02  0.14468320774E+02  0.28309007221E+02  0.00000000000E+00 0. -1.
</event>
<event>
 5    1  0.8943334E-005  0.9118800E+02  0.7818608E-02  0.1130116E+00
         25   -1    0    0    0    0  0.00000000000E+00  0.00000000000E+00  0.99999998245E-14  0.12500000000E+03  0.12500000000E+03 0.  0.
        -13    1    3    3    0    0 -0.33201754528E+02 -0.27900954406E+02 -0.44454404773E+02  0.62104951721E+02  0.10566000000E+00 0.  1.
         23    2    1    0    0    0 -0.17863183463E+02 -0.15511787298E+02 -0.17171428666E+02  0.95767024937E+02  0.91196251208E+02 0.  0.
         13    1    3    3    0    0  0.15338571065E+02  0.12389167108E+02  0.27282976107E+02  0.33662073217E+02  0.10566000000E+00 0. -1.
         22    1    1    0    0    0  0.17863183463E+02  0.15511787298E+02  0.17171428666E+02  0.29232975063E+02  0.00000000000E+00 0.  1.
</event>
<event>
 5    1  0.8943334E-005  0.9118800E+02  0.7818608E-02  0.1130116E+00
         25   -1    0    0    0    0  0.00000000000E+00  0.00000000000E+00  0.99999998245E-14  0.12500000000E+03  0.12500000000E+03 0.  0.
        -13    1    3    3    0    0 -0.37344320201E+02  0.35273793004E+02  0.12068339387E+02  0.52768311550E+02  0.10566000000E+00 0. -1.
         23    2    1    0    0    0  0.39471879824E+01  0.29166196340E+02  0.37502193757E+01  0.95329957073E+02  0.90595194510E+02 0.  0.
         13    1    3    3    0    0  0.41291508184E+02 -0.61075966641E+01 -0.83181200115E+01  0.42561645523E+02  0.10566000000E+00 0.  1.
         22    1    1    0    0    0 -0.39471879824E+01 -0.29166196340E+02 -0.37502193757E+01  0.29670042927E+02  0.00000000000E+00 0. -1.
</event>
<event>
 5    1  0.8943334E-005  0.9118800E+02  0.7818608E-02  0.1130116E+00
         25   -1    0    0    0    0  0.00000000000E+00  0.00000000000E+00  0.99999998245E-14  0.12500000000E+03  0.12500000000E+03 0.  0.
        -13    1    3    3    0    0 -0.37842557287E+02 -0.31740096950E+02  0.15701160406E+02  0.51826928315E+02  0.10566000000E+00 0.  1.
         23    2    1    0    0    0 -0.20856850770E+02  0.24474989215E+01 -0.13626339573E+02  0.99966510328E+02  0.96781339017E+02 0.  0.
         13    1    3    3    0    0  0.16985706517E+02  0.34187595872E+02 -0.29327499979E+02  0.48139582013E+02  0.10566000000E+00 0. -1.
         22    1    1    0    0    0  0.20856850770E+02 -0.24474989215E+01  0.13626339573E+02  0.25033489672E+02  0.00000000000E+00 0. -1.
</event>
<event>
 5    1  0.8943334E-005  0.9118800E+02  0.7818608E-02  0.1130116E+00
         25   -1    0    0    0    0  0.00000000000E+00  0.00000000000E+00  0.99999998245E-14  0.12500000000E+03  0.12500000000E+03 0.  0.
        -13    1    3    3    0    0 -0.65815921495E+01 -0.43411730588E+02  0.38144316496E+02  0.58162666315E+02  0.10566000000E+00 0.  1.
         23    2    1    0    0    0  0.13490852308E+02 -0.17642616400E+02  0.16063938963E+02  0.97589871499E+02  0.93661453516E+02 0.  0.
         13    1    3    3    0    0  0.20072444458E+02  0.25769114188E+02 -0.22080377533E+02  0.39427205184E+02  0.10566000000E+00 0. -1.
         22    1    1    0    0    0 -0.13490852308E+02  0.17642616400E+02 -0.16063938963E+02  0.27410128501E+02  0.00000000000E+00 0.  1.
</event>
<event>
 5    1  0.8943334E-005  0.9118800E+02  0.7818608E-02  0.1130116E+00
         25   -1    0    0    0    0  0.00000000000E+00  0.00000000000E+00  0.99999998245E-14  0.12500000000E+03  0.12500000000E+03 0.  0.
        -13    1    3    3    0    0  0.18524653500E+02 -0.33562918513E+02 -0.35451263560E+02  0.52215280699E+02  0.10566000000E+00 0.  1.
         23    2    1    0    0    0  0.28877299596E+02 -0.81837523170E+01 -0.27867179701E+01  0.94856376611E+02  0.89939391552E+02 0.  0.
         13    1    3    3    0    0  0.10352646096E+02  0.25379166196E+02  0.32664545590E+02  0.42641095913E+02  0.10566000000E+00 0. -1.
         22    1    1    0    0    0 -0.28877299596E+02  0.81837523170E+01  0.27867179701E+01  0.30143623389E+02  0.00000000000E+00 0.  1.
</event>
<event>
 5    1  0.8943334E-005  0.9118800E+02  0.7818608E-02  0.1130116E+00
         25   -1    0    0    0    0  0.00000000000E+00  0.00000000000E+00  0.99999998245E-14  0.12500000000E+03  0.12500000000E+03 0.  0.
        -13    1    3    3    0    0 -0.15979634353E+02  0.32998630861E+02  0.39059586595E+01  0.36871751109E+02  0.10566000000E+00 0. -1.
         23    2    1    0    0    0  0.12681020109E+02 -0.19319057363E+02  0.14863300432E+02  0.97523611080E+02  0.93572980983E+02 0.  0.
         13    1    3    3    0    0  0.28660654462E+02 -0.52317688223E+02  0.10957341772E+02  0.60651859971E+02  0.10566000000E+00 0.  1.
         22    1    1    0    0    0 -0.12681020109E+02  0.19319057363E+02 -0.14863300432E+02  0.27476388920E+02  0.00000000000E+00 0.  1.
</event>
<event>
 5    1  0.8943334E-005  0.9118800E+02  0.7818608E-02  0.1130116E+00
         25   -1    0    0    0    0  0.00000000000E+00  0.00000000000E+00  0.99999998245E-14  0.12500000000E+03  0.12500000000E+03 0.  0.
        -13    1    3    3    0    0 -0.48891499423E+02 -0.12118251260E+02  0.31890135945E+02  0.59617301717E+02  0.10566000000E+00 0. -1.
         23    2    1    0    0    0 -0.27190316116E+02  0.69352270168E+01  0.13441499476E+02  0.93885942527E+02  0.88580390785E+02 0.  0.
         13    1    3    3    0    0  0.21701183307E+02  0.19053478276E+02 -0.18448636469E+02  0.34268640810E+02  0.10566000000E+00 0.  1.
         22    1    1    0    0    0  0.27190316116E+02 -0.69352270168E+01 -0.13441499476E+02  0.31114057473E+02  0.00000000000E+00 0. -1.
</event>
<event>
 5    1  0.8943334E-005  0.9118800E+02  0.7818608E-02  0.1130116E+00
         25   -1    0    0    0    0  0.00000000000E+00  0.00000000000E+00  0.99999998245E-14  0.12500000000E+03  0.12500000000E+03 0.  0.
        -13    1    3    3    0    0  0.33175288148E+02 -0.68895350561E+01  0.14366493192E+02  0.36803161925E+02  0.10566000000E+00 0.  1.
         23    2    1    0    0    0 -0.23223240209E+02 -0.17308040420E+02 -0.42737877559E+00  0.96033298399E+02  0.91560496940E+02 0.  0.
         13    1    3    3    0    0 -0.56398528358E+02 -0.10418505364E+02 -0.14793871968E+02  0.59230136474E+02  0.10566000000E+00 0. -1.
         22    1    1    0    0    0  0.23223240209E+02  0.17308040420E+02  0.42737877559E+00  0.28966701601E+02  0.00000000000E+00 0. -1.
</event>
<event>
 5    1  0.8943334E-005  0.9118800E+02  0.7818608E-02  0.1130116E+00
         25   -1    0    0    0    0  0.00000000000E+00  0.00000000000E+00  0.99999998245E-14  0.12500000000E+03  0.12500000000E+03 0.  0.
        -13    1    3    3    0    0  0.23227810350E+02  0.34613270819E+02 -0.44099093193E+02  0.60682376971E+02  0.10566000000E+00 0.  1.
         23    2    1    0    0    0  0.94614358124E+01  0.23275541611E+02 -0.12570108984E+02  0.96905921535E+02  0.92744166306E+02 0.  0.
         13    1    3    3    0    0 -0.13766374538E+02 -0.11337729208E+02  0.31528984208E+02  0.36223544563E+02  0.10566000000E+00 0. -1.
         22    1    1    0    0    0 -0.94614358124E+01 -0.23275541611E+02  0.12570108984E+02  0.28094078465E+02  0.00000000000E+00 0.  1.
</event>
<event>
 5    1  0.8943334E-005  0.9118800E+02  0.7818608E-02  0.1130116E+00
         25   -1    0    0    0    0  0.00000000000E+00  0.00000000000E+00  0.99999998245E-14  0.12500000000E+03  0.12500000000E+03 0.  0.
        -13    1    3    3    0    0  0.20288959181E+02  0.40343123644E+02 -0.38778552936E+02  0.59523078061E+02  0.10566000000E+00 0.  1.
         23    2    1    0    0    0  0.16018291934E+02  0.76929469916E+01 -0.22713113930E+02  0.96161611447E+02  0.91735504914E+02 0.  0.
         13    1    3    3    0    0 -0.42706672474E+01 -0.32650176653E+02  0.16065439006E+02  0.36638533386E+02  0.10566000000E+00 0. -1.
         22    1    1    0    0    0 -0.16018291934E+02 -0.76929469916E+01  0.22713113930E+02  0.28838388553E+02  0.00000000000E+00 0.  1.
</event>
<event>
 5    1  0.8943334E-005  0.9118800E+02  0.7818608E-02  0.1130116E+00
         25   -1    0    0    0    0  0.00000000000E+00  0.00000000000E+00  0.99999998245E-14  0.12500000000E+03  0.12500000000E+03 0.  0.
        -13    1    3    3    0    0 -0.21920448198E+02 -0.42332035380E+02  0.32795641983E+02  0.57862531622E+02  0.10566000000E+00 0.  1.
         23    2    1    0    0    0  0.49117914265E+01 -0.15053193038E+02  0.22499312266E+02  0.97487396196E+02  0.93524590611E+02 0.  0.
         13    1    3    3    0    0  0.26832239624E+02  0.27278842343E+02 -0.10296329717E+02  0.39624864574E+02  0.10566000000E+00 0. -1.
         22    1    1    0    0    0 -0.49117914265E+01  0.15053193038E+02 -0.22499312266E+02  0.27512603804E+02  0.00000000000E+00 0. -1.
</event>
<event>
 5    1  0.8943334E-005  0.9118800E+02  0.7818608E-02  0.1130116E+00
         25   -1    0    0    0    0  0.00000000000E+00  0.00000000000E+00  0.99999998245E-14  0.12500000000E+03  0.12500000000E+03 0.  0.
        -13    1    3    3    0    0 -0.23918767099E+02 -0.25865926926E+02 -0.10346451893E+02  0.36718031348E+02  0.10566000000E+00 0.  1.
         23    2    1    0    0    0  0.28676962813E+02 -0.44976541281E+01  0.50427940227E+01  0.95537704428E+02  0.90881384821E+02 0.  0.
         13    1    3    3    0    0  0.52595729912E+02  0.21368272798E+02  0.15389245916E+02  0.58819673080E+02  0.10566000000E+00 0. -1.
         22    1    1    0    0    0 -0.28676962813E+02  0.44976541281E+01 -0.50427940227E+01  0.29462295572E+02  0.00000000000E+00 0. -1.
</event>
<event>
 5    1  0.8943334E-005  0.9118800E+02  0.7818608E-02  0.1130116E+00
         25   -1    0    0    0    0  0.00000000000E+00  0.00000000000E+00  0.99999998245E-14  0.12500000000E+03  0.12500000000E+03 0.  0.
        -13    1    3    3    0    0 -0.46012964500E+02 -0.18092890295E+02  0.30852224218E+02  0.58278782456E+02  0.10566000000E+00 0.  1.
         23    2    1    0    0    0 -0.14153440601E+02 -0.22786541660E+02  0.11811188799E+02  0.95690435989E+02  0.91091212514E+02 0.  0.
         13    1    3    3    0    0  0.31859523899E+02 -0.46936513645E+01 -0.19041035419E+02  0.37411653533E+02  0.10566000000E+00 0. -1.
         22    1    1    0    0    0  0.14153440601E+02  0.22786541660E+02 -0.11811188799E+02  0.29309564011E+02  0.00000000000E+00 0.  1.
</event>
<event>
 5    1  0.8943334E-005  0.9118800E+02  0.7818608E-02  0.1130116E+00
         25   -1    0    0    0    0  0.00000000000E+00  0.00000000000E+00  0.99999998245E-14  0.12500000000E+03  0.12500000000E+03 0.  0.
        -13    1    3    3    0    0 -0.40116948380E+01  0.28267311944E+02  0.55435783160E+02  0.62356008841E+02  0.10566000000E+00 0.  1.
         23    2    1    0    0    0  0.89896043675E+00  0.14481039892E+02  0.26170486762E+02  0.95076714358E+02  0.90245102857E+02 0.  0.
         13    1    3    3    0    0  0.49106552748E+01 -0.13786272051E+02 -0.29265296398E+02  0.32720705518E+02  0.10566000000E+00 0. -1.
         22    1    1    0    0    0 -0.89896043675E+00 -0.14481039892E+02 -0.26170486762E+02  0.29923285642E+02  0.00000000000E+00 0.  1.
</event>
<event>
 5    1  0.8943334E-005  0.9118800E+02  0.7818608E-02  0.1130116E+00
         25   -1    0    0    0    0  0.00000000000E+00  0.00000000000E+00  0.99999998245E-14  0.12500000000E+03  0.12500000000E+03 0.  0.
        -13    1    3    3    0    0  0.46824596813E+01 -0.21799992796E+02 -0.43664426591E+02  0.49028139146E+02  0.10566000000E+00 0.  1.
         23    2    1    0    0    0  0.28824509084E+02 -0.80162318647E+01 -0.84155238142E+01  0.93920531885E+02  0.88629188032E+02 0.  0.
         13    1    3    3    0    0  0.24142049403E+02  0.13783760932E+02  0.35248902777E+02  0.44892392739E+02  0.10566000000E+00 0. -1.
         22    1    1    0    0    0 -0.28824509084E+02  0.80162318647E+01  0.84155238142E+01  0.31079468115E+02  0.00000000000E+00 0. -1.
</event>
<event>
 5    1  0.8943334E-005  0.9118800E+02  0.7818608E-02  0.1130116E+00
         25   -1    0    0    0    0  0.00000000000E+00  0.00000000000E+00  0.99999998245E-14  0.12500000000E+03  0.12500000000E+03 0.  0.
        -13    1    3    3    0    0  0.29069102700E+01 -0.32235795842E+02 -0.30086442836E+02  0.44190517845E+02  0.10566000000E+00 0. -1.
         23    2    1    0    0    0 -0.85441746401E+01  0.16948603655E+02 -0.22991035298E+02  0.95186483095E+02  0.90397017505E+02 0.  0.
         13    1    3    3    0    0 -0.11451084910E+02  0.49184399498E+02  0.70954075373E+01  0.50995965250E+02  0.10566000000E+00 0.  1.
         22    1    1    0    0    0  0.85441746401E+01 -0.16948603655E+02  0.22991035298E+02  0.29813516905E+02  0.00000000000E+00 0.  1.
</event>
<event>
 5    1  0.8943334E-005  0.9118800E+02  0.7818608E-02  0.1130116E+00
         25   -1    0    0    0    0  0.00000000000E+00  0.00000000000E+00  0.99999998245E-14  0.12500000000E+03  0.12500000000E+03 0.  0.
        -13    1    3    3    0    0 -0.37458184078E+02 -0.22649539054E+02  0.70101965180E+01  0.44331379327E+02  0.10566000000E+00 0.  1.
         23    2    1    0    0    0  0.11882778953E+02 -0.18800865210E+02  0.19551829940E+02  0.95386708688E+02  0.90673464542E+02 0.  0.
         13    1    3    3    0    0  0.49340963031E+02  0.38486738443E+01  0.12541633422E+02  0.51055329361E+02  0.10566000000E+00 0. -1.
         22    1    1    0    0    0 -0.11882778953E+02  0.18800865210E+02 -0.19551829940E+02  0.29613291312E+02  0.00000000000E+00 0. -1.
</event>
<event>
 5    1  0.8943334E-005  0.9118800E+02  0.7818608E-02  0.1130116E+00
         25   -1    0    0    0    0  0.00000000000E+00  0.00000000000E+00  0.99999998245E-14  0.12500000000E+03  0.12500000000E+03 0.  0.
        -13    1    3    3    0    0  0.39547369235E+02  0.29401697056E+02  0.21787130970E+02  0.53880835583E+02  0.10566000000E+00 0.  1.
         23    2    1    0    0    0  0.27010479203E+02  0.38001746268E+01 -0.94150831224E+01  0.96144305516E+02  0.91711920593E+02 0.  0.
         13    1    3    3    0    0 -0.12536890032E+02 -0.25601522430E+02 -0.31202214093E+02  0.42263469932E+02  0.10566000000E+00 0. -1.
         22    1    1    0    0    0 -0.27010479203E+02 -0.38001746268E+01  0.94150831224E+01  0.28855694484E+02  0.00000000000E+00 0.  1.
</event>
<event>
 5    1  0.8943334E-005  0.9118800E+02  0.7818608E-02  0.1130116E+00
         25   -1    0    0    0    0  0.00000000000E+00  0.00000000000E+00  0.99999998245E-14  0.12500000000E+03  0.12500000000E+03 0.  0.
        -13    1    3    3    0    0  0.40317767796E+02  0.30896076341E+02  0.10956407609E+02  0.51962909514E+02  0.10566000000E+00 0. -1.
         23    2    1    0    0    0 -0.36580161808E+01  0.23846138764E+02  0.14851018354E+02  0.96670295404E+02  0.92426045307E+02 0.  0.
         13    1    3    3    0    0 -0.43975783977E+02 -0.70499375771E+01  0.38946107449E+01  0.44707385890E+02  0.10566000000E+00 0.  1.
         22    1    1    0    0    0  0.36580161808E+01 -0.23846138764E+02 -0.14851018354E+02  0.28329704596E+02  0.00000000000E+00 0.  1.
</event>
<event>
 5    1  0.8943334E-005  0.9118800E+02  0.7818608E-02  0.1130116E+00
         25   -1    0    0    0    0  0.00000000000E+00  0.00000000000E+00  0.99999998245E-14  0.12500000000E+03  0.12500000000E+03 0.  0.
        -13    1    3    3    0    0  0.20419675620E+02  0.25808875254E+02  0.25796844732E+02  0.41815661617E+02  0.10566000000E+00 0.  1.
         23    2    1    0    0    0 -0.26949581445E+02  0.77116201007E+01  0.55068674290E+01  0.96432980318E+02  0.92104533436E+02 0.  0.
         13    1    3    3    0    0 -0.47369257065E+02 -0.18097255153E+02 -0.20289977303E+02  0.54617318700E+02  0.10566000000E+00 0. -1.
         22    1    1    0    0    0  0.26949581445E+02 -0.77116201007E+01 -0.55068674290E+01  0.28567019682E+02  0.00000000000E+00 0. -1.
</event>
<event>
 5    1  0.8943334E-005  0.9118800E+02  0.7818608E-02  0.1130116E+00
         25   -1    0    0    0    0  0.00000000000E+00  0.00000000000E+00  0.99999998245E-14  0.12500000000E+03  0.12500000000E+03 0.  0.
        -13    1    3    3    0    0 -0.94236344289E+01 -0.39122286902E+02  0.19529670791E+02  0.44730050565E+02  0.10566000000E+00 0.  1.
         23    2    1    0    0    0 -0.31567875143E+02 -0.77092100330E+01 -0.74164010263E+01  0.91668848437E+02  0.85394450107E+02 0.  0.
         13    1    3    3    0    0 -0.22144240714E+02  0.31413076869E+02 -0.26946071817E+02  0.46938797871E+02  0.10566000000E+00 0. -1.
         22    1    1    0    0    0  0.31567875143E+02  0.77092100330E+01  0.74164010263E+01  0.33331151563E+02  0.00000000000E+00 0.  1.
</event>
<event>
 5    1  0.8943334E-005  0.9118800E+02  0.7818608E-02  0.1130116E+00
         25   -1    0    0    0    0  0.00000000000E+00  0.00000000000E+00  0.99999998245E-14  0.12500000000E+03  0.12500000000E+03 0.  0.
        -13    1    3    3    0    0  0.27293178901E+02  0.55511253773E+02 -0.52860975792E+01  0.62083579968E+02  0.10566000000E+00 0. -1.
         23    2    1    0    0    0  0.15288355030E+02  0.27051973652E+02  0.21454464444E+01  0.93852832898E+02  0.88533655886E+02 0.  0.
         13    1    3    3    0    0 -0.12004823870E+02 -0.28459280121E+02  0.74315440236E+01  0.31769252931E+02  0.10566000000E+00 0.  1.
         22    1    1    0    0    0 -0.15288355030E+02 -0.27051973652E+02 -0.21454464444E+01  0.31147167102E+02  0.00000000000E+00 0. -1.
</event>
<event>
 5    1  0.8943334E-005  0.9118800E+02  0.7818608E-02  0.1130116E+00
         25   -1    0    0    0    0  0.00000000000E+00  0.00000000000E+00  0.99999998245E-14  0.12500000000E+03  0.12500000000E+03 0.  0.
        -13    1    3    3    0    0  0.21092776912E+02  0.28958950748E+02 -0.84579288135E+01  0.36811326927E+02  0.10566000000E+00 0. -1.
         23    2    1    0    0    0  0.14082782425E+02 -0.27084708311E+02  0.25936751945E+01  0.94362876503E+02  0.89250877451E+02 0.  0.
         13    1    3    3    0    0 -0.70099944878E+01 -0.56043659059E+02  0.11051604008E+02  0.57551549576E+02  0.10566000000E+00 0.  1.
         22    1    1    0    0    0 -0.14082782425E+02  0.27084708311E+02 -0.25936751945E+01  0.30637123497E+02  0.00000000000E+00 0.  1.
</event>
<event>
 5    1  0.8943334E-005  0.9118800E+02  0.7818608E-02  0.1130116E+00
         25   -1    0    0    0    0  0.00000000000E+00  0.00000000000E+00  0.99999998245E-14  0.12500000000E+03  0.12500000000E+03 0.  0.
        -13    1    3    3    0    0  0.29961466083E+02 -0.27161961325E+02  0.32588957658E+02  0.51937586757E+02  0.10566000000E+00 0.  1.
         23    2    1    0    0    0  0.16616254736E+02 -0.12680942573E+02 -0.12152890934E+02  0.10082151816E+03  0.97879413260E+02 0.  0.
         13    1    3    3    0    0 -0.13345211347E+02  0.14481018752E+02 -0.44741848593E+02  0.48883931404E+02  0.10566000000E+00 0. -1.
         22    1    1    0    0    0 -0.16616254736E+02  0.12680942573E+02  0.12152890934E+02  0.24178481839E+02  0.00000000000E+00 0. -1.
</event>
<event>
 5    1  0.8943334E-005  0.9118800E+02  0.7818608E-02  0.1130116E+00
         25   -1    0    0    0    0  0.00000000000E+00  0.00000000000E+00  0.99999998245E-14  0.12500000000E+03  0.12500000000E+03 0.  0.
        -13    1    3    3    0    0 -0.45400434292E+02  0.24154363541E+02  0.14408402285E+02  0.53406422202E+02  0.10566000000E+00 0.  1.
         23    2    1    0    0    0 -0.29410635989E+02 -0.95016928155E+01 -0.17994257472E+01  0.94040258260E+02  0.88797886038E+02 0.  0.
         13    1    3    3    0    0  0.15989798303E+02 -0.33656056356E+02 -0.16207828032E+02  0.40633836058E+02  0.10566000000E+00 0. -1.
         22    1    1    0    0    0  0.29410635989E+02  0.95016928155E+01  0.17994257472E+01  0.30959741740E+02  0.00000000000E+00 0.  1.
</event>
<event>
 5    1  0.8943334E-005  0.9118800E+02  0.7818608E-02  0.1130116E+00
         25   -1    0    0    0    0  0.00000000000E+00  0.00000000000E+00  0.99999998245E-14  0.12500000000E+03  0.12500000000E+03 0.  0.
        -13    1    3    3    0    0 -0.40579893824E+02 -0.13692507695E+02  0.21416706266E+01  0.42881353371E+02  0.10566000000E+00 0. -1.
         23    2    1    0    0    0  0.21372762749E+01 -0.11161654779E+02 -0.27705431481E+02  0.95054358901E+02  0.90214132624E+02 0.  0.
         13    1    3    3    0    0  0.42717170099E+02  0.25308529156E+01 -0.29847102108E+02  0.52173005530E+02  0.10566000000E+00 0.  1.
         22    1    1    0    0    0 -0.21372762749E+01  0.11161654779E+02  0.27705431481E+02  0.29945641099E+02  0.00000000000E+00 0.  1.
</event>
<event>
 5    1  0.8943334E-005  0.9118800E+02  0.7818608E-02  0.1130116E+00
         25   -1    0    0    0    0  0.00000000000E+00  0.00000000000E+00  0.99999998245E-14  0.12500000000E+03  0.12500000000E+03 0.  0.
        -13    1    3    3    0    0  0.30365473432E+02  0.41714958164E+02  0.13492114215E+02  0.53331491836E+02  0.10566000000E+00 0. -1.
         23    2    1    0    0    0  0.11387252657E+02  0.13939406708E+02 -0.18095227477E+02  0.99477189812E+02  0.96147269608E+02 0.  0.
         13    1    3    3    0    0 -0.18978220776E+02 -0.27775551457E+02 -0.31587341692E+02  0.46145697976E+02  0.10566000000E+00 0.  1.
         22    1    1    0    0    0 -0.11387252657E+02 -0.13939406708E+02  0.18095227477E+02  0.25522810188E+02  0.00000000000E+00 0. -1.
</event>
<event>
 5    1  0.8943334E-005  0.9118800E+02  0.7818608E-02  0.1130116E+00
         25   -1    0    0    0    0  0.00000000000E+00  0.00000000000E+00  0.99999998245E-14  0.12500000000E+03  0.12500000000E+03 0.  0.
        -13    1    3    3    0    0 -0.45747092159E+02 -0.29784969212E+02  0.38594074766E+01  0.54725195496E+02  0.10566000000E+00 0.  1.
         23    2    1    0    0    0 -0.23775128584E+02 -0.91905605429E+01 -0.19556498428E+02  0.92872445268E+02  0.87138460608E+02 0.  0.
         13    1    3    3    0    0  0.21971963575E+02  0.20594408670E+02 -0.23415905905E+02  0.38147249772E+02  0.10566000000E+00 0. -1.
         22    1    1    0    0    0  0.23775128584E+02  0.91905605429E+01  0.19556498428E+02  0.32127554732E+02  0.00000000000E+00 0.  1.
</event>
<event>
 5    1  0.8943334E-005  0.9118800E+02  0.7818608E-02  0.1130116E+00
         25   -1    0    0    0    0  0.00000000000E+00  0.00000000000E+00  0.99999998245E-14  0.12500000000E+03  0.12500000000E+03 0.  0.
        -13    1    3    3    0    0 -0.72083000973E+01 -0.39093923809E+02  0.71360224364E+01  0.40388469262E+02  0.10566000000E+00 0.  1.
         23    2    1    0    0    0 -0.16068743128E+02  0.15116162059E+02 -0.13579391112E+02  0.99094349572E+02  0.95648248249E+02 0.  0.
         13    1    3    3    0    0 -0.88604430307E+01  0.54210085868E+02 -0.20715413548E+02  0.58705880311E+02  0.10566000000E+00 0. -1.
         22    1    1    0    0    0  0.16068743128E+02 -0.15116162059E+02  0.13579391112E+02  0.25905650428E+02  0.00000000000E+00 0. -1.
</event>
<event>
 5    1  0.8943334E-005  0.9118800E+02  0.7818608E-02  0.1130116E+00
         25   -1    0    0    0    0  0.00000000000E+00  0.00000000000E+00  0.99999998245E-14  0.12500000000E+03  0.12500000000E+03 0.  0.
        -13    1    3    3    0    0 -0.32917835376E+02 -0.19669397055E+01  0.18721250218E+02  0.37920299463E+02  0.10566000000E+00 0.  1.
         23    2    1    0    0    0  0.40154437285E+01 -0.26062163738E+02 -0.16095454178E+02  0.94106249625E+02  0.88890732960E+02 0.  0.
         13    1    3    3    0    0  0.36933279104E+02 -0.24095224032E+02 -0.34816704396E+02  0.56185950162E+02  0.10566000000E+00 0. -1.
         22    1    1    0    0    0 -0.40154437285E+01  0.26062163738E+02  0.16095454178E+02  0.30893750375E+02  0.00000000000E+00 0. -1.
</event>
<event>
 5    1  0.8943334E-005  0.9118800E+02  0.7818608E-02  0.1130116E+00
         25   -1    0    0    0    0  0.00000000000E+00  0.00000000000E+00  0.99999998245E-14  0.12500000000E+03  0.12500000000E+03 0.  0.
        -13    1    3    3    0    0  0.18994422287E+02  0.17231630251E+02 -0.28012539913E+02  0.37979345907E+02  0.10566000000E+00 0.  1.
         23    2    1    0    0    0  0.14413587732E+02 -0.28222206940E+02  0.29587702860E+01  0.93172357965E+02  0.87567628101E+02 0.  0.
         13    1    3    3    0    0 -0.45808345547E+01 -0.45453837191E+02  0.30971310199E+02  0.55193012058E+02  0.10566000000E+00 0. -1.
         22    1    1    0    0    0 -0.14413587732E+02  0.28222206940E+02 -0.29587702860E+01  0.31827642035E+02  0.00000000000E+00 0. -1.
</event>
<event>
 5    1  0.8943334E-005  0.9118800E+02  0.7818608E-02  0.1130116E+00
         25   -1    0    0    0    0  0.00000000000E+00  0.00000000000E+00  0.99999998245E-14  0.12500000000E+03  0.12500000000E+03 0.  0.
        -13    1    3    3    0    0 -0.35833406098E+02 -0.10435921938E+02 -0.98086993954E+01  0.38589677469E+02  0.10566000000E+00 0. -1.
         23    2    1    0    0    0  0.11498047975E+02 -0.19123300767E+02  0.19864629950E+02  0.95125106486E+02  0.90312106727E+02 0.  0.
         13    1    3    3    0    0  0.47331454073E+02 -0.86873788286E+01  0.29673329345E+02  0.56535429016E+02  0.10566000000E+00 0.  1.
         22    1    1    0    0    0 -0.11498047975E+02  0.19123300767E+02 -0.19864629950E+02  0.29874893514E+02  0.00000000000E+00 0.  1.
</event>
<event>
 5    1  0.8943334E-005  0.9118800E+02  0.7818608E-02  0.1130116E+00
         25   -1    0    0    0    0  0.00000000000E+00  0.00000000000E+00  0.99999998245E-14  0.12500000000E+03  0.12500000000E+03 0.  0.
        -13    1    3    3    0    0 -0.46520242229E+01 -0.46348857200E+02 -0.27313633814E+02  0.53999107856E+02  0.10566000000E+00 0. -1.
         23    2    1    0    0    0 -0.10237113944E+02 -0.26302126326E+02  0.85898182451E+01  0.95497706383E+02  0.90826354081E+02 0.  0.
         13    1    3    3    0    0 -0.55850897211E+01  0.20046730873E+02  0.35903452059E+02  0.41498598527E+02  0.10566000000E+00 0.  1.
         22    1    1    0    0    0  0.10237113944E+02  0.26302126326E+02 -0.85898182451E+01  0.29502293617E+02  0.00000000000E+00 0. -1.
</event>
<event>
 5    1  0.8943334E-005  0.9118800E+02  0.7818608E-02  0.1130116E+00
         25   -1    0    0    0    0  0.00000000000E+00  0.00000000000E+00  0.99999998245E-14  0.12500000000E+03  0.12500000000E+03 0.  0.
        -13    1    3    3    0    0  0.11955629488E+02  0.17511135172E+02 -0.41043495341E+02  0.46196932856E+02  0.10566000000E+00 0.  1.
         23    2    1    0    0    0 -0.25646617822E+02  0.10697241137E+02 -0.98792723643E+01  0.95507967244E+02  0.90840474520E+02 0.  0.
         13    1    3    3    0    0 -0.37602247309E+02 -0.68138940354E+01  0.31164222977E+02  0.49311034388E+02  0.10566000000E+00 0. -1.
         22    1    1    0    0    0  0.25646617822E+02 -0.10697241137E+02  0.98792723643E+01  0.29492032756E+02  0.00000000000E+00 0.  1.
</event>
<event>
 5    1  0.8943334E-005  0.9118800E+02  0.7818608E-02  0.1130116E+00
         25   -1    0    0    0    0  0.00000000000E+00  0.00000000000E+00  0.99999998245E-14  0.12500000000E+03  0.12500000000E+03 0.  0.
        -13    1    3    3    0    0 -0.35239176115E+02 -0.15261470143E+02 -0.27181562408E+02  0.47048490977E+02  0.10566000000E+00 0.  1.
         23    2    1    0    0    0 -0.19445764051E+02  0.15063846094E+02  0.10784816413E+02  0.98141677943E+02  0.94395018331E+02 0.  0.
         13    1    3    3    0    0  0.15793412064E+02  0.30325316237E+02  0.37966378821E+02  0.51093186966E+02  0.10566000000E+00 0. -1.
         22    1    1    0    0    0  0.19445764051E+02 -0.15063846094E+02 -0.10784816413E+02  0.26858322057E+02  0.00000000000E+00 0. -1.
</event>
<event>
 5    1  0.8943334E-005  0.9118800E+02  0.7818608E-02  0.1130116E+00
         25   -1    0    0    0    0  0.00000000000E+00  0.00000000000E+00  0.99999998245E-14  0.12500000000E+03  0.12500000000E+03 0.  0.
        -13    1    3    3    0    0 -0.50949843938E+02  0.30712836783E+02 -0.10798414356E+02  0.60463061924E+02  0.10566000000E+00 0.  1.
         23    2    1    0    0    0 -0.26779874826E+02  0.52773386563E+01 -0.11053382410E+02  0.95551922614E+02  0.90900938684E+02 0.  0.
         13    1    3    3    0    0  0.24169969112E+02 -0.25435498127E+02 -0.25496805440E+00  0.35088860691E+02  0.10566000000E+00 0. -1.
         22    1    1    0    0    0  0.26779874826E+02 -0.52773386563E+01  0.11053382410E+02  0.29448077386E+02  0.00000000000E+00 0.  1.
</event>
<event>
 5    1  0.8943334E-005  0.9118800E+02  0.7818608E-02  0.1130116E+00
         25   -1    0    0    0    0  0.00000000000E+00  0.00000000000E+00  0.99999998245E-14  0.12500000000E+03  0.12500000000E+03 0.  0.
        -13    1    3    3    0    0 -0.18684832602E+02 -0.28442129838E+02 -0.10256470092E+02  0.35542707577E+02  0.10566000000E+00 0.  1.
         23    2    1    0    0    0  0.25448441921E+02 -0.32822579622E+01  0.17984119063E+02  0.93665913896E+02  0.88269351838E+02 0.  0.
         13    1    3    3    0    0  0.44133274523E+02  0.25159871876E+02  0.28240589155E+02  0.58123206319E+02  0.10566000000E+00 0. -1.
         22    1    1    0    0    0 -0.25448441921E+02  0.32822579622E+01 -0.17984119063E+02  0.31334086104E+02  0.00000000000E+00 0. -1.
</event>
<event>
 5    1  0.8943334E-005  0.9118800E+02  0.7818608E-02  0.1130116E+00
         25   -1    0    0    0    0  0.00000000000E+00  0.00000000000E+00  0.99999998245E-14  0.12500000000E+03  0.12500000000E+03 0.  0.
        -13    1    3    3    0    0  0.33984775545E+02  0.35503860157E+02 -0.37765258933E+02  0.61981569851E+02  0.10566000000E+00 0. -1.
         23    2    1    0    0    0  0.14966180815E+02  0.20707236195E+02 -0.13821464030E+02  0.95951608186E+02  0.91448904021E+02 0.  0.
         13    1    3    3    0    0 -0.19018594729E+02 -0.14796623962E+02  0.23943794903E+02  0.33970038336E+02  0.10566000000E+00 0.  1.
         22    1    1    0    0    0 -0.14966180815E+02 -0.20707236195E+02  0.13821464030E+02  0.29048391814E+02  0.00000000000E+00 0. -1.
</event>
<event>
 5    1  0.8943334E-005  0.9118800E+02  0.7818608E-02  0.1130116E+00
         25   -1    0    0    0    0  0.00000000000E+00  0.00000000000E+00  0.99999998245E-14  0.12500000000E+03  0.12500000000E+03 0.  0.
        -13    1    3    3    0    0  0.45896330617E+02  0.36239501573E+02  0.21232850306E+02  0.62214304902E+02  0.10566000000E+00 0.  1.
         23    2    1    0    0    0  0.23535142661E+02  0.13250841433E+02  0.92257094939E+01  0.96458776228E+02  0.92139535798E+02 0.  0.
         13    1    3    3    0    0 -0.22361187956E+02 -0.22988660140E+02 -0.12007140812E+02  0.34244471326E+02  0.10566000000E+00 0. -1.
         22    1    1    0    0    0 -0.23535142661E+02 -0.13250841433E+02 -0.92257094939E+01  0.28541223772E+02  0.00000000000E+00 0.  1.
</event>
<event>
 5    1  0.8943334E-005  0.9118800E+02  0.7818608E-02  0.1130116E+00
         25   -1    0    0    0    0  0.00000000000E+00  0.00000000000E+00  0.99999998245E-14  0.12500000000E+03  0.12500000000E+03 0.  0.
        -13    1    3    3    0    0 -0.70548021569E+01  0.42647178977E+02 -0.11444319646E+02  0.44716168489E+02  0.10566000000E+00 0. -1.
         23    2    1    0    0    0 -0.29389332325E+02  0.16299251550E+01  0.66859456303E+01  0.94815709724E+02  0.89882853932E+02 0.  0.
         13    1    3    3    0    0 -0.22334530168E+02 -0.41017253822E+02  0.18130265276E+02  0.50099541235E+02  0.10566000000E+00 0.  1.
         22    1    1    0    0    0  0.29389332325E+02 -0.16299251550E+01 -0.66859456303E+01  0.30184290276E+02  0.00000000000E+00 0.  1.
</event>
<event>
 5    1  0.8943334E-005  0.9118800E+02  0.7818608E-02  0.1130116E+00
         25   -1    0    0    0    0  0.00000000000E+00  0.00000000000E+00  0.99999998245E-14  0.12500000000E+03  0.12500000000E+03 0.  0.
        -13    1    3    3    0    0  0.13198213070E+02 -0.32517376995E+01 -0.51212300919E+02  0.52985635372E+02  0.10566000000E+00 0. -1.
         23    2    1    0    0    0  0.47677567463E+01  0.22459589919E+02 -0.29118462398E+02  0.87918339625E+02  0.79715650322E+02 0.  0.
         13    1    3    3    0    0 -0.84304563237E+01  0.25711327619E+02  0.22093838521E+02  0.34932704253E+02  0.10566000000E+00 0.  1.
         22    1    1    0    0    0 -0.47677567463E+01 -0.22459589919E+02  0.29118462398E+02  0.37081660375E+02  0.00000000000E+00 0. -1.
</event>
<event>
 5    1  0.8943334E-005  0.9118800E+02  0.7818608E-02  0.1130116E+00
         25   -1    0    0    0    0  0.00000000000E+00  0.00000000000E+00  0.99999998245E-14  0.12500000000E+03  0.12500000000E+03 0.  0.
        -13    1    3    3    0    0  0.36292911838E+02  0.35384032204E+01 -0.87367972351E+01  0.37497180388E+02  0.10566000000E+00 0. -1.
         23    2    1    0    0    0 -0.14541120702E+02  0.13416328423E+02  0.20122036351E+02  0.96780531428E+02  0.92575012055E+02 0.  0.
         13    1    3    3    0    0 -0.50834032540E+02  0.98779252023E+01  0.28858833586E+02  0.59283351040E+02  0.10566000000E+00 0.  1.
         22    1    1    0    0    0  0.14541120702E+02 -0.13416328423E+02 -0.20122036351E+02  0.28219468572E+02  0.00000000000E+00 0.  1.
</event>
<event>
 5    1  0.8943334E-005  0.9118800E+02  0.7818608E-02  0.1130116E+00
         25   -1    0    0    0    0  0.00000000000E+00  0.00000000000E+00  0.99999998245E-14  0.12500000000E+03  0.12500000000E+03 0.  0.
        -13    1    3    3    0    0 -0.10514746155E+02  0.21163056084E+02 -0.49079349277E+02  0.54472272937E+02  0.10566000000E+00 0. -1.
         23    2    1    0    0    0 -0.23016983936E+01 -0.12797001631E+02 -0.24733279175E+02  0.97057269908E+02  0.92947928847E+02 0.  0.
         13    1    3    3    0    0  0.82130477610E+01 -0.33960057715E+02  0.24346070102E+02  0.42584996971E+02  0.10566000000E+00 0.  1.
         22    1    1    0    0    0  0.23016983936E+01  0.12797001631E+02  0.24733279175E+02  0.27942730092E+02  0.00000000000E+00 0. -1.
</event>
<event>
 5    1  0.8943334E-005  0.9118800E+02  0.7818608E-02  0.1130116E+00
         25   -1    0    0    0    0  0.00000000000E+00  0.00000000000E+00  0.99999998245E-14  0.12500000000E+03  0.12500000000E+03 0.  0.
        -13    1    3    3    0    0 -0.60121951729E+02  0.36726431581E+01 -0.84716893283E+01  0.60826951852E+02  0.10566000000E+00 0.  1.
         23    2    1    0    0    0 -0.18400783475E+02 -0.37148460917E+00 -0.12215283386E+02  0.10291063646E+03  0.10051198494E+03 0.  0.
         13    1    3    3    0    0  0.41721168255E+02 -0.40441277672E+01 -0.37435940573E+01  0.42083684611E+02  0.10566000000E+00 0. -1.
         22    1    1    0    0    0  0.18400783475E+02  0.37148460917E+00  0.12215283386E+02  0.22089363537E+02  0.00000000000E+00 0.  1.
</event>
<event>
 5    1  0.8943334E-005  0.9118800E+02  0.7818608E-02  0.1130116E+00
         25   -1    0    0    0    0  0.00000000000E+00  0.00000000000E+00  0.99999998245E-14  0.12500000000E+03  0.12500000000E+03 0.  0.
        -13    1    3    3    0    0  0.28871860483E+02  0.24552713274E+02 -0.32194372327E+02  0.49728350369E+02  0.10566000000E+00 0.  1.
         23    2    1    0    0    0  0.20474225801E+01  0.30251670894E+02  0.32082317520E+01  0.94509865824E+02  0.89456505945E+02 0.  0.
         13    1    3    3    0    0 -0.26824437903E+02  0.56989576204E+01  0.35402604079E+02  0.44781515455E+02  0.10566000000E+00 0. -1.
         22    1    1    0    0    0 -0.20474225801E+01 -0.30251670894E+02 -0.32082317520E+01  0.30490134176E+02  0.00000000000E+00 0. -1.
</event>
<event>
 5    1  0.8943334E-005  0.9118800E+02  0.7818608E-02  0.1130116E+00
         25   -1    0    0    0    0  0.00000000000E+00  0.00000000000E+00  0.99999998245E-14  0.12500000000E+03  0.12500000000E+03 0.  0.
        -13    1    3    3    0    0  0.23375826280E+02 -0.21584142477E+02  0.15370419453E+02  0.35335045195E+02  0.10566000000E+00 0. -1.
         23    2    1    0    0    0 -0.21440103845E+02  0.17520991783E+02  0.11743102803E+02  0.94924035022E+02  0.90033375786E+02 0.  0.
         13    1    3    3    0    0 -0.44815930125E+02  0.39105134260E+02 -0.36273166496E+01  0.59588989827E+02  0.10566000000E+00 0.  1.
         22    1    1    0    0    0  0.21440103845E+02 -0.17520991783E+02 -0.11743102803E+02  0.30075964978E+02  0.00000000000E+00 0.  1.
</event>
<event>
 5    1  0.8943334E-005  0.9118800E+02  0.7818608E-02  0.1130116E+00
         25   -1    0    0    0    0  0.00000000000E+00  0.00000000000E+00  0.99999998245E-14  0.12500000000E+03  0.12500000000E+03 0.  0.
        -13    1    3    3    0    0 -0.42952213814E+02  0.25572801062E+02  0.19128126559E+02  0.53523426791E+02  0.10566000000E+00 0.  1.
         23    2    1    0    0    0 -0.16603282794E+02  0.19347896453E+02 -0.13684777127E+02  0.96064153344E+02  0.91602610967E+02 0.  0.
         13    1    3    3    0    0  0.26348931020E+02 -0.62249046090E+01 -0.32812903687E+02  0.42540726553E+02  0.10566000000E+00 0. -1.
         22    1    1    0    0    0  0.16603282794E+02 -0.19347896453E+02  0.13684777127E+02  0.28935846656E+02  0.00000000000E+00 0.  1.
</event>
<event>
 5    1  0.8943334E-005  0.9118800E+02  0.7818608E-02  0.1130116E+00
         25   -1    0    0    0    0  0.00000000000E+00  0.00000000000E+00  0.99999998245E-14  0.12500000000E+03  0.12500000000E+03 0.  0.
        -13    1    3    3    0    0  0.33905588018E+02  0.67625764559E+01  0.15488490999E+02  0.37884374835E+02  0.10566000000E+00 0. -1.
         23    2    1    0    0    0 -0.16371872746E+02  0.10135562623E+02  0.29123033793E+02  0.90086980305E+02  0.83046643979E+02 0.  0.
         13    1    3    3    0    0 -0.50277460764E+02  0.33729861676E+01  0.13634542795E+02  0.52202605470E+02  0.10566000000E+00 0.  1.
         22    1    1    0    0    0  0.16371872746E+02 -0.10135562623E+02 -0.29123033793E+02  0.34913019695E+02  0.00000000000E+00 0. -1.
</event>
<event>
 5    1  0.8943334E-005  0.9118800E+02  0.7818608E-02  0.1130116E+00
         25   -1    0    0    0    0  0.00000000000E+00  0.00000000000E+00  0.99999998245E-14  0.12500000000E+03  0.12500000000E+03 0.  0.
        -13    1    3    3    0    0  0.14348377243E+02 -0.15064998229E+02  0.26359205158E+02  0.33580484834E+02  0.10566000000E+00 0.  1.
         23    2    1    0    0    0 -0.15118569348E+02  0.11946401942E+02 -0.21626306708E+02  0.96034765661E+02  0.91562500049E+02 0.  0.
         13    1    3    3    0    0 -0.29466946591E+02  0.27011400171E+02 -0.47985511865E+02  0.62454280827E+02  0.10566000000E+00 0. -1.
         22    1    1    0    0    0  0.15118569348E+02 -0.11946401942E+02  0.21626306708E+02  0.28965234339E+02  0.00000000000E+00 0. -1.
</event>
<event>
 5    1  0.8943334E-005  0.9118800E+02  0.7818608E-02  0.1130116E+00
         25   -1    0    0    0    0  0.00000000000E+00  0.00000000000E+00  0.99999998245E-14  0.12500000000E+03  0.12500000000E+03 0.  0.
        -13    1    3    3    0    0  0.37932553456E+02  0.66529622513E+01 -0.78524151879E+01  0.39304097836E+02  0.10566000000E+00 0. -1.
         23    2    1    0    0    0 -0.57091015993E+01  0.18197498751E+02  0.23846502886E+02  0.94464798973E+02  0.89393510633E+02 0.  0.
         13    1    3    3    0    0 -0.43641655055E+02  0.11544536499E+02  0.31698918074E+02  0.55160701138E+02  0.10566000000E+00 0.  1.
         22    1    1    0    0    0  0.57091015993E+01 -0.18197498751E+02 -0.23846502886E+02  0.30535201027E+02  0.00000000000E+00 0.  1.
</event>
<event>
 5    1  0.8943334E-005  0.9118800E+02  0.7818608E-02  0.1130116E+00
         25   -1    0    0    0    0  0.00000000000E+00  0.00000000000E+00  0.99999998245E-14  0.12500000000E+03  0.12500000000E+03 0.  0.
        -13    1    3    3    0    0 -0.41826969058E+02 -0.39088151572E+02  0.24864409455E+02  0.62414973808E+02  0.10566000000E+00 0.  1.
         23    2    1    0    0    0 -0.20722174815E+02 -0.16229922369E+02  0.11216468488E+02  0.96388322760E+02  0.92043906316E+02 0.  0.
         13    1    3    3    0    0  0.21104794243E+02  0.22858229203E+02 -0.13647940967E+02  0.33973348952E+02  0.10566000000E+00 0. -1.
         22    1    1    0    0    0  0.20722174815E+02  0.16229922369E+02 -0.11216468488E+02  0.28611677240E+02  0.00000000000E+00 0.  1.
</event>
<event>
 5    1  0.8943334E-005  0.9118800E+02  0.7818608E-02  0.1130116E+00
         25   -1    0    0    0    0  0.00000000000E+00  0.00000000000E+00  0.99999998245E-14  0.12500000000E+03  0.12500000000E+03 0.  0.
        -13    1    3    3    0    0 -0.32063025736E+02  0.32659648726E+02  0.61363366555E+01  0.46177441092E+02  0.10566000000E+00 0.  1.
         23    2    1    0    0    0 -0.24395426492E+02 -0.15801540214E+02  0.63798033586E+01  0.95242187618E+02  0.90474012316E+02 0.  0.
         13    1    3    3    0    0  0.76675992445E+01 -0.48461188939E+02  0.24346670313E+00  0.49064746526E+02  0.10566000000E+00 0. -1.
         22    1    1    0    0    0  0.24395426492E+02  0.15801540214E+02 -0.63798033586E+01  0.29757812382E+02  0.00000000000E+00 0. -1.
</event>
<event>
 5    1  0.8943334E-005  0.9118800E+02  0.7818608E-02  0.1130116E+00
         25   -1    0    0    0    0  0.00000000000E+00  0.00000000000E+00  0.99999998245E-14  0.12500000000E+03  0.12500000000E+03 0.  0.
        -13    1    3    3    0    0 -0.52661709959E+02 -0.22758016998E+02  0.11566917606E+02  0.58523395155E+02  0.10566000000E+00 0. -1.
         23    2    1    0    0    0 -0.15798740806E+02 -0.19307245971E+02  0.15298815256E+02  0.95735282228E+02  0.91152732033E+02 0.  0.
         13    1    3    3    0    0  0.36862969153E+02  0.34507710272E+01  0.37318976497E+01  0.37211887074E+02  0.10566000000E+00 0.  1.
         22    1    1    0    0    0  0.15798740806E+02  0.19307245971E+02 -0.15298815256E+02  0.29264717772E+02  0.00000000000E+00 0. -1.
</event>
<event>
 5    1  0.8943334E-005  0.9118800E+02  0.7818608E-02  0.1130116E+00
         25   -1    0    0    0    0  0.00000000000E+00  0.00000000000E+00  0.99999998245E-14  0.12500000000E+03  0.12500000000E+03 0.  0.
        -13    1    3    3    0    0  0.30260095780E+01 -0.38500656318E+02 -0.67586093877E+01  0.39206469310E+02  0.10566000000E+00 0.  1.
         23    2    1    0    0    0 -0.29050144595E+02  0.22122439565E+01  0.10796620679E+02  0.93929564818E+02  0.88641926900E+02 0.  0.
         13    1    3    3    0    0 -0.32076154173E+02  0.40712900274E+02  0.17555230067E+02  0.54723095508E+02  0.10566000000E+00 0. -1.
         22    1    1    0    0    0  0.29050144595E+02 -0.22122439565E+01 -0.10796620679E+02  0.31070435182E+02  0.00000000000E+00 0. -1.
</event>
<event>
 5    1  0.8943334E-005  0.9118800E+02  0.7818608E-02  0.1130116E+00
         25   -1    0    0    0    0  0.00000000000E+00  0.00000000000E+00  0.99999998245E-14  0.12500000000E+03  0.12500000000E+03 0.  0.
        -13    1    3    3    0    0 -0.30238489220E+02 -0.41997481380E+02  0.14318734291E+02  0.53695362819E+02  0.10566000000E+00 0. -1.
         23    2    1    0    0    0 -0.78050480377E-02 -0.14629365165E+02  0.25164646904E+02  0.95891962625E+02  0.91367339111E+02 0.  0.
         13    1    3    3    0    0  0.30230684172E+02  0.27368116215E+02  0.10845912613E+02  0.42196599805E+02  0.10566000000E+00 0.  1.
         22    1    1    0    0    0  0.78050480377E-02  0.14629365165E+02 -0.25164646904E+02  0.29108037375E+02  0.00000000000E+00 0.  1.
</event>
<event>
 5    1  0.8943334E-005  0.9118800E+02  0.7818608E-02  0.1130116E+00
         25   -1    0    0    0    0  0.00000000000E+00  0.00000000000E+00  0.99999998245E-14  0.12500000000E+03  0.12500000000E+03 0.  0.
        -13    1    3    3    0    0  0.10869190336E+02  0.27800895257E+02  0.37219278834E+02  0.47710742571E+02  0.10566000000E+00 0.  1.
         23    2    1    0    0    0 -0.23482128234E+01  0.27227419827E+02 -0.93448501193E+01  0.96117951637E+02  0.91675994182E+02 0.  0.
         13    1    3    3    0    0 -0.13217403160E+02 -0.57347543053E+00 -0.46564128954E+02  0.48407209066E+02  0.10566000000E+00 0. -1.
         22    1    1    0    0    0  0.23482128234E+01 -0.27227419827E+02  0.93448501193E+01  0.28882048363E+02  0.00000000000E+00 0. -1.
</event>
<event>
 5    1  0.8943334E-005  0.9118800E+02  0.7818608E-02  0.1130116E+00
         25   -1    0    0    0    0  0.00000000000E+00  0.00000000000E+00  0.99999998245E-14  0.12500000000E+03  0.12500000000E+03 0.  0.
        -13    1    3    3    0    0  0.24924827104E+02  0.88484280947E+01 -0.49930974361E+02  0.56503584405E+02  0.10566000000E+00 0.  1.
         23    2    1    0    0    0  0.73683360808E+01 -0.14876393510E+02 -0.24161323782E+02  0.95685003371E+02  0.91083757294E+02 0.  0.
         13    1    3    3    0    0 -0.17556491023E+02 -0.23724821604E+02  0.25769650579E+02  0.39181418966E+02  0.10566000000E+00 0. -1.
         22    1    1    0    0    0 -0.73683360808E+01  0.14876393510E+02  0.24161323782E+02  0.29314996629E+02  0.00000000000E+00 0.  1.
</event>
<event>
 5    1  0.8943334E-005  0.9118800E+02  0.7818608E-02  0.1130116E+00
         25   -1    0    0    0    0  0.00000000000E+00  0.00000000000E+00  0.99999998245E-14  0.12500000000E+03  0.12500000000E+03 0.  0.
        -13    1    3    3    0    0  0.66890361405E+01 -0.18414771916E+02  0.41751857803E+02  0.46120232255E+02  0.10566000000E+00 0. -1.
         23    2    1    0    0    0  0.54660255934E+01  0.23937232783E+02  0.15148899679E+02  0.96149389771E+02  0.91718849986E+02 0.  0.
         13    1    3    3    0    0 -0.12230105470E+01  0.42352004699E+02 -0.26602958124E+02  0.50029157516E+02  0.10566000000E+00 0.  1.
         22    1    1    0    0    0 -0.54660255934E+01 -0.23937232783E+02 -0.15148899679E+02  0.28850610229E+02  0.00000000000E+00 0.  1.
</event>
<event>
 5    1  0.8943334E-005  0.9118800E+02  0.7818608E-02  0.1130116E+00
         25   -1    0    0    0    0  0.00000000000E+00  0.00000000000E+00  0.99999998245E-14  0.12500000000E+03  0.12500000000E+03 0.  0.
        -13    1    3    3    0    0 -0.40255057774E+02  0.43011356507E+02  0.10105683931E+02  0.59771083952E+02  0.10566000000E+00 0.  1.
         23    2    1    0    0    0 -0.75122703894E+01  0.26847871623E+02  0.56113908753E+01  0.96561819245E+02  0.92279221991E+02 0.  0.
         13    1    3    3    0    0  0.32742787385E+02 -0.16163484884E+02 -0.44942930562E+01  0.36790735294E+02  0.10566000000E+00 0. -1.
         22    1    1    0    0    0  0.75122703894E+01 -0.26847871623E+02 -0.56113908753E+01  0.28438180755E+02  0.00000000000E+00 0.  1.
</event>
<event>
 5    1  0.8943334E-005  0.9118800E+02  0.7818608E-02  0.1130116E+00
         25   -1    0    0    0    0  0.00000000000E+00  0.00000000000E+00  0.99999998245E-14  0.12500000000E+03  0.12500000000E+03 0.  0.
        -13    1    3    3    0    0 -0.23733629568E+02  0.54438292648E+02 -0.38171484884E+01  0.59509618260E+02  0.10566000000E+00 0.  1.
         23    2    1    0    0    0 -0.34195617236E+01  0.39144776300E+02  0.22178455966E+01  0.85643605945E+02  0.76065113463E+02 0.  0.
         13    1    3    3    0    0  0.20314067844E+02 -0.15293516348E+02  0.60349940850E+01  0.26133987684E+02  0.10566000000E+00 0. -1.
         22    1    1    0    0    0  0.34195617236E+01 -0.39144776300E+02 -0.22178455966E+01  0.39356394055E+02  0.00000000000E+00 0.  1.
</event>
<event>
 5    1  0.8943334E-005  0.9118800E+02  0.7818608E-02  0.1130116E+00
         25   -1    0    0    0    0  0.00000000000E+00  0.00000000000E+00  0.99999998245E-14  0.12500000000E+03  0.12500000000E+03 0.  0.
        -13    1    3    3    0    0 -0.40438054631E+02  0.22856504301E+02 -0.10456831688E+02  0.47613155159E+02  0.10566000000E+00 0. -1.
         23    2    1    0    0    0 -0.17164004949E+02  0.20367694678E+00  0.24342568518E+02  0.95214010135E+02  0.90435073582E+02 0.  0.
         13    1    3    3    0    0  0.23274049683E+02 -0.22652827354E+02  0.34799400205E+02  0.47600854976E+02  0.10566000000E+00 0.  1.
         22    1    1    0    0    0  0.17164004949E+02 -0.20367694678E+00 -0.24342568518E+02  0.29785989865E+02  0.00000000000E+00 0.  1.
</event>
<event>
 5    1  0.8943334E-005  0.9118800E+02  0.7818608E-02  0.1130116E+00
         25   -1    0    0    0    0  0.00000000000E+00  0.00000000000E+00  0.99999998245E-14  0.12500000000E+03  0.12500000000E+03 0.  0.
        -13    1    3    3    0    0  0.21677033639E+02 -0.17887890084E+02  0.26618584696E+02  0.38709567478E+02  0.10566000000E+00 0. -1.
         23    2    1    0    0    0  0.10651752556E+02  0.25728521760E+02  0.30299247581E+02  0.83848316335E+02  0.73055315233E+02 0.  0.
         13    1    3    3    0    0 -0.11025281083E+02  0.43616411844E+02  0.36806628852E+01  0.45138748858E+02  0.10566000000E+00 0.  1.
         22    1    1    0    0    0 -0.10651752556E+02 -0.25728521760E+02 -0.30299247581E+02  0.41151683665E+02  0.00000000000E+00 0. -1.
</event>
<event>
 5    1  0.8943334E-005  0.9118800E+02  0.7818608E-02  0.1130116E+00
         25   -1    0    0    0    0  0.00000000000E+00  0.00000000000E+00  0.99999998245E-14  0.12500000000E+03  0.12500000000E+03 0.  0.
        -13    1    3    3    0    0  0.25368389725E+01 -0.24355308323E+02 -0.28391158770E+02  0.37492474656E+02  0.10566000000E+00 0. -1.
         23    2    1    0    0    0 -0.22584187815E+02  0.18890143764E+02  0.10706391925E+01  0.95537662365E+02  0.90881326966E+02 0.  0.
         13    1    3    3    0    0 -0.25121026787E+02  0.43245452086E+02  0.29461797962E+02  0.58045187709E+02  0.10566000000E+00 0.  1.
         22    1    1    0    0    0  0.22584187815E+02 -0.18890143764E+02 -0.10706391925E+01  0.29462337635E+02  0.00000000000E+00 0.  1.
</event>
<event>
 5    1  0.8943334E-005  0.9118800E+02  0.7818608E-02  0.1130116E+00
         25   -1    0    0    0    0  0.00000000000E+00  0.00000000000E+00  0.99999998245E-14  0.12500000000E+03  0.12500000000E+03 0.  0.
        -13    1    3    3    0    0  0.27796410496E+02 -0.32324681775E+02  0.10006763371E+02  0.43791231605E+02  0.10566000000E+00 0.  1.
         23    2    1    0    0    0 -0.48295461294E+01  0.32712719105E+01  0.28807207785E+02  0.95608148135E+02  0.90978222854E+02 0.  0.
         13    1    3    3    0    0 -0.32625956625E+02  0.35595953685E+02  0.18800444414E+02  0.51816916530E+02  0.10566000000E+00 0. -1.
         22    1    1    0    0    0  0.48295461294E+01 -0.32712719105E+01 -0.28807207785E+02  0.29391851865E+02  0.00000000000E+00 0. -1.
</event>
<event>
 5    1  0.8943334E-005  0.9118800E+02  0.7818608E-02  0.1130116E+00
         25   -1    0    0    0    0  0.00000000000E+00  0.00000000000E+00  0.99999998245E-14  0.12500000000E+03  0.12500000000E+03 0.  0.
        -13    1    3    3    0    0  0.12363172737E+02  0.28284009580E+02  0.27818301625E+02  0.41553607634E+02  0.10566000000E+00 0. -1.
         23    2    1    0    0    0 -0.25685598914E+02  0.13721341271E+02 -0.68910273287E+01  0.95074902582E+02  0.90242593300E+02 0.  0.
         13    1    3    3    0    0 -0.38048771651E+02 -0.14562668309E+02 -0.34709328954E+02  0.53521294948E+02  0.10566000000E+00 0.  1.
         22    1    1    0    0    0  0.25685598914E+02 -0.13721341271E+02  0.68910273287E+01  0.29925097418E+02  0.00000000000E+00 0.  1.
</event>
<event>
 5    1  0.8943334E-005  0.9118800E+02  0.7818608E-02  0.1130116E+00
         25   -1    0    0    0    0  0.00000000000E+00  0.00000000000E+00  0.99999998245E-14  0.12500000000E+03  0.12500000000E+03 0.  0.
        -13    1    3    3    0    0 -0.55526782659E+00 -0.44602278739E+02  0.13830283725E+02  0.46700744138E+02  0.10566000000E+00 0. -1.
         23    2    1    0    0    0  0.16933076948E+02 -0.14536358290E+02 -0.19861211443E+02  0.95125219210E+02  0.90312262747E+02 0.  0.
         13    1    3    3    0    0  0.17488344775E+02  0.30065920449E+02 -0.33691495168E+02  0.48424475073E+02  0.10566000000E+00 0.  1.
         22    1    1    0    0    0 -0.16933076948E+02  0.14536358290E+02  0.19861211443E+02  0.29874780790E+02  0.00000000000E+00 0.  1.
</event>
<event>
 5    1  0.8943334E-005  0.9118800E+02  0.7818608E-02  0.1130116E+00
         25   -1    0    0    0    0  0.00000000000E+00  0.00000000000E+00  0.99999998245E-14  0.12500000000E+03  0.12500000000E+03 0.  0.
        -13    1    3    3    0    0  0.20026870895E+02  0.45982037670E+02 -0.15763546638E+02  0.52573034084E+02  0.10566000000E+00 0. -1.
         23    2    1    0    0    0  0.26891678324E+02  0.54951341985E+01  0.23434514818E+01  0.97452756440E+02  0.93478281488E+02 0.  0.
         13    1    3    3    0    0  0.68648074281E+01 -0.40486903472E+02  0.18106998120E+02  0.44879722356E+02  0.10566000000E+00 0.  1.
         22    1    1    0    0    0 -0.26891678324E+02 -0.54951341985E+01 -0.23434514818E+01  0.27547243560E+02  0.00000000000E+00 0. -1.
</event>
<event>
 5    1  0.8943334E-005  0.9118800E+02  0.7818608E-02  0.1130116E+00
         25   -1    0    0    0    0  0.00000000000E+00  0.00000000000E+00  0.99999998245E-14  0.12500000000E+03  0.12500000000E+03 0.  0.
        -13    1    3    3    0    0  0.41319999093E+02 -0.27660583843E+01 -0.12009234389E+02  0.43118746256E+02  0.10566000000E+00 0.  1.
         23    2    1    0    0    0 -0.20642894575E+01  0.26351753642E+02 -0.13353470339E+02  0.95385959731E+02  0.90672432044E+02 0.  0.
         13    1    3    3    0    0 -0.43384288550E+02  0.29117812026E+02 -0.13442359491E+01  0.52267213476E+02  0.10566000000E+00 0. -1.
         22    1    1    0    0    0  0.20642894575E+01 -0.26351753642E+02  0.13353470339E+02  0.29614040269E+02  0.00000000000E+00 0. -1.
</event>
<event>
 5    1  0.8943334E-005  0.9118800E+02  0.7818608E-02  0.1130116E+00
         25   -1    0    0    0    0  0.00000000000E+00  0.00000000000E+00  0.99999998245E-14  0.12500000000E+03  0.12500000000E+03 0.  0.
        -13    1    3    3    0    0  0.48128150819E+02  0.38592189271E+02 -0.32644264803E+01  0.61776562046E+02  0.10566000000E+00 0.  1.
         23    2    1    0    0    0  0.18831448023E+02  0.22947025874E+02 -0.43000339740E+01  0.95005338421E+02  0.90146184640E+02 0.  0.
         13    1    3    3    0    0 -0.29296702796E+02 -0.15645163397E+02 -0.10356074937E+01  0.33228776375E+02  0.10566000000E+00 0. -1.
         22    1    1    0    0    0 -0.18831448023E+02 -0.22947025874E+02  0.43000339740E+01  0.29994661579E+02  0.00000000000E+00 0.  1.
</event>
<event>
 5    1  0.8943334E-005  0.9118800E+02  0.7818608E-02  0.1130116E+00
         25   -1    0    0    0    0  0.00000000000E+00  0.00000000000E+00  0.99999998245E-14  0.12500000000E+03  0.12500000000E+03 0.  0.
        -13    1    3    3    0    0 -0.31740972040E+02  0.21985196499E+02  0.69164691413E-01  0.38611580115E+02  0.10566000000E+00 0.  1.
         23    2    1    0    0    0  0.40964956962E+01 -0.10314882020E+02  0.28363844605E+02  0.94542065912E+02  0.89501488692E+02 0.  0.
         13    1    3    3    0    0  0.35837467736E+02 -0.32300078519E+02  0.28294679914E+02  0.55930485798E+02  0.10566000000E+00 0. -1.
         22    1    1    0    0    0 -0.40964956962E+01  0.10314882020E+02 -0.28363844605E+02  0.30457934088E+02  0.00000000000E+00 0. -1.
</event>
<event>
 5    1  0.8943334E-005  0.9118800E+02  0.7818608E-02  0.1130116E+00
         25   -1    0    0    0    0  0.00000000000E+00  0.00000000000E+00  0.99999998245E-14  0.12500000000E+03  0.12500000000E+03 0.  0.
        -13    1    3    3    0    0  0.16517632800E+02 -0.15574301007E+02 -0.22890989563E+02  0.32239721035E+02  0.10566000000E+00 0.  1.
         23    2    1    0    0    0 -0.98283732491E+01  0.19297752470E+02  0.21463488700E+02  0.94509320797E+02  0.89455744361E+02 0.  0.
         13    1    3    3    0    0 -0.26346006049E+02  0.34872053477E+02  0.44354478263E+02  0.62269599762E+02  0.10566000000E+00 0. -1.
         22    1    1    0    0    0  0.98283732491E+01 -0.19297752470E+02 -0.21463488700E+02  0.30490679203E+02  0.00000000000E+00 0. -1.
</event>
<event>
 5    1  0.8943334E-005  0.9118800E+02  0.7818608E-02  0.1130116E+00
         25   -1    0    0    0    0  0.00000000000E+00  0.00000000000E+00  0.99999998245E-14  0.12500000000E+03  0.12500000000E+03 0.  0.
        -13    1    3    3    0    0  0.19656281158E+02  0.15493543578E+02 -0.31996157556E+02  0.40622463539E+02  0.10566000000E+00 0. -1.
         23    2    1    0    0    0  0.18188507458E+02 -0.13095627941E+02  0.16658937277E+02  0.97074429891E+02  0.92971003397E+02 0.  0.
         13    1    3    3    0    0 -0.14677736997E+01 -0.28589171519E+02  0.48655094833E+02  0.56451966352E+02  0.10566000000E+00 0.  1.
         22    1    1    0    0    0 -0.18188507458E+02  0.13095627941E+02 -0.16658937277E+02  0.27925570109E+02  0.00000000000E+00 0.  1.
</event>
<event>
 5    1  0.8943334E-005  0.9118800E+02  0.7818608E-02  0.1130116E+00
         25   -1    0    0    0    0  0.00000000000E+00  0.00000000000E+00  0.99999998245E-14  0.12500000000E+03  0.12500000000E+03 0.  0.
        -13    1    3    3    0    0  0.17314161719E+02  0.15724889546E+01 -0.58082410068E+02  0.60628627239E+02  0.10566000000E+00 0. -1.
         23    2    1    0    0    0  0.11025271616E+02  0.11040876492E+02 -0.25858395833E+02  0.94798771499E+02  0.89859294871E+02 0.  0.
         13    1    3    3    0    0 -0.62888901034E+01  0.94683875370E+01  0.32224014235E+02  0.34170144260E+02  0.10566000000E+00 0.  1.
         22    1    1    0    0    0 -0.11025271616E+02 -0.11040876492E+02  0.25858395833E+02  0.30201228501E+02  0.00000000000E+00 0. -1.
</event>
<event>
 5    1  0.8943334E-005  0.9118800E+02  0.7818608E-02  0.1130116E+00
         25   -1    0    0    0    0  0.00000000000E+00  0.00000000000E+00  0.99999998245E-14  0.12500000000E+03  0.12500000000E+03 0.  0.
        -13    1    3    3    0    0 -0.10575315273E+02  0.41455455262E+02  0.37378876156E+01  0.42946187630E+02  0.10566000000E+00 0. -1.
         23    2    1    0    0    0 -0.94379277830E+01 -0.77306403129E+01  0.25490986404E+02  0.96739998791E+02  0.92520266416E+02 0.  0.
         13    1    3    3    0    0  0.11373874900E+01 -0.49186095575E+02  0.21753098789E+02  0.53793811160E+02  0.10566000000E+00 0.  1.
         22    1    1    0    0    0  0.94379277830E+01  0.77306403129E+01 -0.25490986404E+02  0.28260001209E+02  0.00000000000E+00 0.  1.
</event>
<event>
 5    1  0.8943334E-005  0.9118800E+02  0.7818608E-02  0.1130116E+00
         25   -1    0    0    0    0  0.00000000000E+00  0.00000000000E+00  0.99999998245E-14  0.12500000000E+03  0.12500000000E+03 0.  0.
        -13    1    3    3    0    0 -0.39121597671E+02 -0.93420434281E+01 -0.22448311182E+02  0.46062034462E+02  0.10566000000E+00 0.  1.
         23    2    1    0    0    0  0.93781055423E+01 -0.22098507548E+02 -0.14818887119E+02  0.96788436505E+02  0.92585685320E+02 0.  0.
         13    1    3    3    0    0  0.48499703214E+02 -0.12756464120E+02  0.76294240636E+01  0.50726402043E+02  0.10566000000E+00 0. -1.
         22    1    1    0    0    0 -0.93781055423E+01  0.22098507548E+02  0.14818887119E+02  0.28211563495E+02  0.00000000000E+00 0. -1.
</event>
<event>
 5    1  0.8943334E-005  0.9118800E+02  0.7818608E-02  0.1130116E+00
         25   -1    0    0    0    0  0.00000000000E+00  0.00000000000E+00  0.99999998245E-14  0.12500000000E+03  0.12500000000E+03 0.  0.
        -13    1    3    3    0    0 -0.38974663131E+02  0.68555563074E+01  0.20886482029E+02  0.44746835799E+02  0.10566000000E+00 0.  1.
         23    2    1    0    0    0  0.59682614424E+01 -0.15891095940E+02  0.24439760898E+02  0.95243505119E+02  0.90475832573E+02 0.  0.
         13    1    3    3    0    0  0.44942924573E+02 -0.22746652247E+02  0.35532788691E+01  0.50496669320E+02  0.10566000000E+00 0. -1.
         22    1    1    0    0    0 -0.59682614424E+01  0.15891095940E+02 -0.24439760898E+02  0.29756494881E+02  0.00000000000E+00 0. -1.
</event>
<event>
 5    1  0.8943334E-005  0.9118800E+02  0.7818608E-02  0.1130116E+00
         25   -1    0    0    0    0  0.00000000000E+00  0.00000000000E+00  0.99999998245E-14  0.12500000000E+03  0.12500000000E+03 0.  0.
        -13    1    3    3    0    0  0.52519573327E+02 -0.62771167867E+01 -0.16178631172E+02  0.55312449306E+02  0.10566000000E+00 0. -1.
         23    2    1    0    0    0  0.14137213869E+02 -0.10511317749E+02 -0.24509433562E+02  0.94816213784E+02  0.89883554925E+02 0.  0.
         13    1    3    3    0    0 -0.38382359458E+02 -0.42342009628E+01 -0.83308023902E+01  0.39503764477E+02  0.10566000000E+00 0.  1.
         22    1    1    0    0    0 -0.14137213869E+02  0.10511317749E+02  0.24509433562E+02  0.30183786216E+02  0.00000000000E+00 0. -1.
</event>
<event>
 5    1  0.8943334E-005  0.9118800E+02  0.7818608E-02  0.1130116E+00
         25   -1    0    0    0    0  0.00000000000E+00  0.00000000000E+00  0.99999998245E-14  0.12500000000E+03  0.12500000000E+03 0.  0.
        -13    1    3    3    0    0  0.20283942135E+02 -0.36052369154E+02 -0.94909030517E+01  0.42441725164E+02  0.10566000000E+00 0.  1.
         23    2    1    0    0    0 -0.22382298692E+02  0.83724336219E+00 -0.13261814701E+02  0.98970324621E+02  0.95486025969E+02 0.  0.
         13    1    3    3    0    0 -0.42666240827E+02  0.36889612516E+02 -0.37709116492E+01  0.56528599457E+02  0.10566000000E+00 0. -1.
         22    1    1    0    0    0  0.22382298692E+02 -0.83724336219E+00  0.13261814701E+02  0.26029675379E+02  0.00000000000E+00 0. -1.
</event>
<event>
 5    1  0.8943334E-005  0.9118800E+02  0.7818608E-02  0.1130116E+00
         25   -1    0    0    0    0  0.00000000000E+00  0.00000000000E+00  0.99999998245E-14  0.12500000000E+03  0.12500000000E+03 0.  0.
        -13    1    3    3    0    0 -0.60552350862E+02  0.47181214945E+01 -0.11459297493E+02  0.61807560447E+02  0.10566000000E+00 0. -1.
         23    2    1    0    0    0 -0.29632757596E+02 -0.37116439113E+01 -0.28022640161E+01  0.95004511892E+02  0.90145038537E+02 0.  0.
         13    1    3    3    0    0  0.30919593266E+02 -0.84297654057E+01  0.86570334765E+01  0.33196951444E+02  0.10566000000E+00 0.  1.
         22    1    1    0    0    0  0.29632757596E+02  0.37116439113E+01  0.28022640161E+01  0.29995488108E+02  0.00000000000E+00 0. -1.
</event>
<event>
 5    1  0.8943334E-005  0.9118800E+02  0.7818608E-02  0.1130116E+00
         25   -1    0    0    0    0  0.00000000000E+00  0.00000000000E+00  0.99999998245E-14  0.12500000000E+03  0.12500000000E+03 0.  0.
        -13    1    3    3    0    0 -0.40471383114E+02  0.21463454565E+02  0.26038339481E+02  0.52693633582E+02  0.10566000000E+00 0. -1.
         23    2    1    0    0    0 -0.11013345258E+02  0.27615190945E+02 -0.37462812736E+01  0.95034567114E+02  0.90186705109E+02 0.  0.
         13    1    3    3    0    0  0.29458037856E+02  0.61517363799E+01 -0.29784620755E+02  0.42340933532E+02  0.10566000000E+00 0.  1.
         22    1    1    0    0    0  0.11013345258E+02 -0.27615190945E+02  0.37462812736E+01  0.29965432886E+02  0.00000000000E+00 0. -1.
</event>
<event>
 5    1  0.8943334E-005  0.9118800E+02  0.7818608E-02  0.1130116E+00
         25   -1    0    0    0    0  0.00000000000E+00  0.00000000000E+00  0.99999998245E-14  0.12500000000E+03  0.12500000000E+03 0.  0.
        -13    1    3    3    0    0  0.56157729863E+02  0.17013247239E+02  0.14230521755E+02  0.60379302070E+02  0.10566000000E+00 0. -1.
         23    2    1    0    0    0  0.27363510954E+02 -0.28626234805E+01  0.10443330602E+02  0.95571790762E+02  0.90928255732E+02 0.  0.
         13    1    3    3    0    0 -0.28794218910E+02 -0.19875870720E+02 -0.37871911529E+01  0.35192488692E+02  0.10566000000E+00 0.  1.
         22    1    1    0    0    0 -0.27363510954E+02  0.28626234805E+01 -0.10443330602E+02  0.29428209238E+02  0.00000000000E+00 0. -1.
</event>
<event>
 5    1  0.8943334E-005  0.9118800E+02  0.7818608E-02  0.1130116E+00
         25   -1    0    0    0    0  0.00000000000E+00  0.00000000000E+00  0.99999998245E-14  0.12500000000E+03  0.12500000000E+03 0.  0.
        -13    1    3    3    0    0  0.41306444839E+02  0.24740823837E+02 -0.30566767195E+02  0.57032176621E+02  0.10566000000E+00 0. -1.
         23    2    1    0    0    0  0.27621053038E+02 -0.42971945310E+01 -0.92952476986E+01  0.95541723038E+02  0.90886911927E+02 0.  0.
         13    1    3    3    0    0 -0.13685391801E+02 -0.29038018368E+02  0.21271519496E+02  0.38509546417E+02  0.10566000000E+00 0.  1.
         22    1    1    0    0    0 -0.27621053038E+02  0.42971945310E+01  0.92952476986E+01  0.29458276962E+02  0.00000000000E+00 0. -1.
</event>
<event>
 5    1  0.8943334E-005  0.9118800E+02  0.7818608E-02  0.1130116E+00
         25   -1    0    0    0    0  0.00000000000E+00  0.00000000000E+00  0.99999998245E-14  0.12500000000E+03  0.12500000000E+03 0.  0.
        -13    1    3    3    0    0  0.21730159617E+01  0.48101252041E+02  0.13378540403E+02  0.49974483025E+02  0.10566000000E+00 0. -1.
         23    2    1    0    0    0  0.20026157147E+02  0.75397007399E+01  0.21087769917E+02  0.94956896009E+02  0.90078987574E+02 0.  0.
         13    1    3    3    0    0  0.17853141185E+02 -0.40561551301E+02  0.77092295145E+01  0.44982412984E+02  0.10566000000E+00 0.  1.
         22    1    1    0    0    0 -0.20026157147E+02 -0.75397007399E+01 -0.21087769917E+02  0.30043103991E+02  0.00000000000E+00 0. -1.
</event>
<event>
 5    1  0.8943334E-005  0.9118800E+02  0.7818608E-02  0.1130116E+00
         25   -1    0    0    0    0  0.00000000000E+00  0.00000000000E+00  0.99999998245E-14  0.12500000000E+03  0.12500000000E+03 0.  0.
        -13    1    3    3    0    0 -0.48236146591E+02  0.20535466097E+02 -0.84201473314E+01  0.53097469346E+02  0.10566000000E+00 0.  1.
         23    2    1    0    0    0 -0.17550085743E+02  0.16022407021E+02  0.19060433638E+02  0.94536527335E+02  0.89493753043E+02 0.  0.
         13    1    3    3    0    0  0.30686060848E+02 -0.45130590758E+01  0.27480580969E+02  0.41439057989E+02  0.10566000000E+00 0. -1.
         22    1    1    0    0    0  0.17550085743E+02 -0.16022407021E+02 -0.19060433638E+02  0.30463472665E+02  0.00000000000E+00 0.  1.
</event>
<event>
 5    1  0.8943334E-005  0.9118800E+02  0.7818608E-02  0.1130116E+00
         25   -1    0    0    0    0  0.00000000000E+00  0.00000000000E+00  0.99999998245E-14  0.12500000000E+03  0.12500000000E+03 0.  0.
        -13    1    3    3    0    0 -0.50029340570E+02  0.74226096302E+01 -0.24235143897E+02  0.56083717916E+02  0.10566000000E+00 0. -1.
         23    2    1    0    0    0 -0.25772434641E+02 -0.25684079961E+01  0.82301827175E+01  0.97823704915E+02  0.93973007980E+02 0.  0.
         13    1    3    3    0    0  0.24256905929E+02 -0.99910176263E+01  0.32465326614E+02  0.41739986999E+02  0.10566000000E+00 0.  1.
         22    1    1    0    0    0  0.25772434641E+02  0.25684079961E+01 -0.82301827175E+01  0.27176295085E+02  0.00000000000E+00 0. -1.
</event>
<event>
 5    1  0.8943334E-005  0.9118800E+02  0.7818608E-02  0.1130116E+00
         25   -1    0    0    0    0  0.00000000000E+00  0.00000000000E+00  0.99999998245E-14  0.12500000000E+03  0.12500000000E+03 0.  0.
        -13    1    3    3    0    0 -0.29098279771E+02 -0.23645616525E+01  0.29124571901E+02  0.41237760486E+02  0.10566000000E+00 0.  1.
         23    2    1    0    0    0  0.17035662613E+02 -0.22404772559E+02  0.12395746711E+02  0.94245452847E+02  0.89086268367E+02 0.  0.
         13    1    3    3    0    0  0.46133942384E+02 -0.20040210906E+02 -0.16728825190E+02  0.53007692360E+02  0.10566000000E+00 0. -1.
         22    1    1    0    0    0 -0.17035662613E+02  0.22404772559E+02 -0.12395746711E+02  0.30754547153E+02  0.00000000000E+00 0.  1.
</event>
<event>
 5    1  0.8943334E-005  0.9118800E+02  0.7818608E-02  0.1130116E+00
         25   -1    0    0    0    0  0.00000000000E+00  0.00000000000E+00  0.99999998245E-14  0.12500000000E+03  0.12500000000E+03 0.  0.
        -13    1    3    3    0    0  0.20657285008E+01 -0.17533138850E+02  0.27262118481E+02  0.32479415948E+02  0.10566000000E+00 0.  1.
         23    2    1    0    0    0  0.90066790384E+01  0.19036068478E+02 -0.22211753870E+02  0.94391926222E+02  0.89291553663E+02 0.  0.
         13    1    3    3    0    0  0.69409505376E+01  0.36569207328E+02 -0.49473872352E+02  0.61912510274E+02  0.10566000000E+00 0. -1.
         22    1    1    0    0    0 -0.90066790384E+01 -0.19036068478E+02  0.22211753870E+02  0.30608073778E+02  0.00000000000E+00 0. -1.
</event>
<event>
 5    1  0.8943334E-005  0.9118800E+02  0.7818608E-02  0.1130116E+00
         25   -1    0    0    0    0  0.00000000000E+00  0.00000000000E+00  0.99999998245E-14  0.12500000000E+03  0.12500000000E+03 0.  0.
        -13    1    3    3    0    0  0.30597126539E+02  0.14935972483E+02  0.25982451012E+02  0.42829503278E+02  0.10566000000E+00 0.  1.
         23    2    1    0    0    0  0.14714809505E+02  0.59805137144E+01 -0.24104882021E+02  0.96132414367E+02  0.91695711959E+02 0.  0.
         13    1    3    3    0    0 -0.15882317033E+02 -0.89554587689E+01 -0.50087333033E+02  0.53302911088E+02  0.10566000000E+00 0. -1.
         22    1    1    0    0    0 -0.14714809505E+02 -0.59805137144E+01  0.24104882021E+02  0.28867585633E+02  0.00000000000E+00 0. -1.
</event>
<event>
 5    1  0.8943334E-005  0.9118800E+02  0.7818608E-02  0.1130116E+00
         25   -1    0    0    0    0  0.00000000000E+00  0.00000000000E+00  0.99999998245E-14  0.12500000000E+03  0.12500000000E+03 0.  0.
        -13    1    3    3    0    0  0.28593504939E+00  0.33843247189E+02  0.12094717006E+02  0.35940791347E+02  0.10566000000E+00 0.  1.
         23    2    1    0    0    0 -0.21298466321E+02 -0.13778570546E+02 -0.15713142111E+02  0.95160822583E+02  0.90361527465E+02 0.  0.
         13    1    3    3    0    0 -0.21584401370E+02 -0.47621817735E+02 -0.27807859118E+02  0.59220031236E+02  0.10566000000E+00 0. -1.
         22    1    1    0    0    0  0.21298466321E+02  0.13778570546E+02  0.15713142111E+02  0.29839177417E+02  0.00000000000E+00 0. -1.
</event>
<event>
 5    1  0.8943334E-005  0.9118800E+02  0.7818608E-02  0.1130116E+00
         25   -1    0    0    0    0  0.00000000000E+00  0.00000000000E+00  0.99999998245E-14  0.12500000000E+03  0.12500000000E+03 0.  0.
        -13    1    3    3    0    0 -0.37613161011E+01  0.43159142049E+02 -0.36318434513E+02  0.56532281847E+02  0.10566000000E+00 0. -1.
         23    2    1    0    0    0 -0.15615980306E+02  0.24318378356E+02 -0.39290214536E+01  0.95833588216E+02  0.91287441930E+02 0.  0.
         13    1    3    3    0    0 -0.11854664205E+02 -0.18840763693E+02  0.32389413060E+02  0.39301306370E+02  0.10566000000E+00 0.  1.
         22    1    1    0    0    0  0.15615980306E+02 -0.24318378356E+02  0.39290214536E+01  0.29166411784E+02  0.00000000000E+00 0. -1.
</event>
<event>
 5    1  0.8943334E-005  0.9118800E+02  0.7818608E-02  0.1130116E+00
         25   -1    0    0    0    0  0.00000000000E+00  0.00000000000E+00  0.99999998245E-14  0.12500000000E+03  0.12500000000E+03 0.  0.
        -13    1    3    3    0    0  0.19213508057E+02 -0.22672181751E+02  0.22594254005E+02  0.37332267481E+02  0.10566000000E+00 0.  1.
         23    2    1    0    0    0 -0.24668087047E+02  0.12851790713E+02  0.11659926824E+02  0.94839812060E+02  0.89916366780E+02 0.  0.
         13    1    3    3    0    0 -0.43881595103E+02  0.35523972464E+02 -0.10934327181E+02  0.57507544578E+02  0.10566000000E+00 0. -1.
         22    1    1    0    0    0  0.24668087047E+02 -0.12851790713E+02 -0.11659926824E+02  0.30160187940E+02  0.00000000000E+00 0. -1.
</event>
<event>
 5    1  0.8943334E-005  0.9118800E+02  0.7818608E-02  0.1130116E+00
         25   -1    0    0    0    0  0.00000000000E+00  0.00000000000E+00  0.99999998245E-14  0.12500000000E+03  0.12500000000E+03 0.  0.
        -13    1    3    3    0    0 -0.20075348669E+02  0.11748499757E+02  0.28023831744E+02  0.36419681223E+02  0.10566000000E+00 0.  1.
         23    2    1    0    0    0  0.27922551759E+02 -0.39738747546E+01 -0.44230684296E+01  0.96451372859E+02  0.92129491558E+02 0.  0.
         13    1    3    3    0    0  0.47997900428E+02 -0.15722374511E+02 -0.32446900173E+02  0.60031691636E+02  0.10566000000E+00 0. -1.
         22    1    1    0    0    0 -0.27922551759E+02  0.39738747546E+01  0.44230684296E+01  0.28548627141E+02  0.00000000000E+00 0. -1.
</event>
<event>
 5    1  0.8943334E-005  0.9118800E+02  0.7818608E-02  0.1130116E+00
         25   -1    0    0    0    0  0.00000000000E+00  0.00000000000E+00  0.99999998245E-14  0.12500000000E+03  0.12500000000E+03 0.  0.
        -13    1    3    3    0    0  0.62418368125E+01 -0.24876625999E+02  0.26291052540E+02  0.36729247958E+02  0.10566000000E+00 0.  1.
         23    2    1    0    0    0 -0.12737583864E+02 -0.64033532273E+01 -0.26001432026E+02  0.95346611616E+02  0.90618170938E+02 0.  0.
         13    1    3    3    0    0 -0.18979420676E+02  0.18473272771E+02 -0.52292484566E+02  0.58617363658E+02  0.10566000000E+00 0. -1.
         22    1    1    0    0    0  0.12737583864E+02  0.64033532273E+01  0.26001432026E+02  0.29653388384E+02  0.00000000000E+00 0. -1.
</event>
<event>
 5    1  0.8943334E-005  0.9118800E+02  0.7818608E-02  0.1130116E+00
         25   -1    0    0    0    0  0.00000000000E+00  0.00000000000E+00  0.99999998245E-14  0.12500000000E+03  0.12500000000E+03 0.  0.
        -13    1    3    3    0    0 -0.20339849580E+02 -0.25659776319E+02 -0.20312964346E+01  0.32806568411E+02  0.10566000000E+00 0.  1.
         23    2    1    0    0    0  0.11674927276E+02  0.27558448127E+02 -0.30051967976E+01  0.94920053228E+02  0.90027847397E+02 0.  0.
         13    1    3    3    0    0  0.32014776855E+02  0.53218224445E+02 -0.97390036294E+00  0.62113484817E+02  0.10566000000E+00 0. -1.
         22    1    1    0    0    0 -0.11674927276E+02 -0.27558448127E+02  0.30051967976E+01  0.30079946772E+02  0.00000000000E+00 0. -1.
</event>
<event>
 5    1  0.8943334E-005  0.9118800E+02  0.7818608E-02  0.1130116E+00
         25   -1    0    0    0    0  0.00000000000E+00  0.00000000000E+00  0.99999998245E-14  0.12500000000E+03  0.12500000000E+03 0.  0.
        -13    1    3    3    0    0 -0.37177306389E+02 -0.11189039470E+02  0.15312901233E+02  0.41735390531E+02  0.10566000000E+00 0. -1.
         23    2    1    0    0    0  0.85044198778E+01  0.15756936269E+02  0.23558328437E+02  0.95409443452E+02  0.90704800662E+02 0.  0.
         13    1    3    3    0    0  0.45681726266E+02  0.26945975739E+02  0.82454272038E+01  0.53674052921E+02  0.10566000000E+00 0.  1.
         22    1    1    0    0    0 -0.85044198778E+01 -0.15756936269E+02 -0.23558328437E+02  0.29590556548E+02  0.00000000000E+00 0.  1.
</event>
<event>
 5    1  0.8943334E-005  0.9118800E+02  0.7818608E-02  0.1130116E+00
         25   -1    0    0    0    0  0.00000000000E+00  0.00000000000E+00  0.99999998245E-14  0.12500000000E+03  0.12500000000E+03 0.  0.
        -13    1    3    3    0    0 -0.16910767376E+02  0.24334557780E+02 -0.21414021384E+02  0.36561130063E+02  0.10566000000E+00 0.  1.
         23    2    1    0    0    0  0.24615785729E+02 -0.10343871883E+02  0.66136403445E+01  0.97492313234E+02  0.93531162233E+02 0.  0.
         13    1    3    3    0    0  0.41526553105E+02 -0.34678429663E+02  0.28027661728E+02  0.60931183172E+02  0.10566000000E+00 0. -1.
         22    1    1    0    0    0 -0.24615785729E+02  0.10343871883E+02 -0.66136403445E+01  0.27507686766E+02  0.00000000000E+00 0. -1.
</event>
<event>
 5    1  0.8943334E-005  0.9118800E+02  0.7818608E-02  0.1130116E+00
         25   -1    0    0    0    0  0.00000000000E+00  0.00000000000E+00  0.99999998245E-14  0.12500000000E+03  0.12500000000E+03 0.  0.
        -13    1    3    3    0    0 -0.97396790498E+00 -0.60075022321E+02  0.98975802576E+01  0.60892776085E+02  0.10566000000E+00 0.  1.
         23    2    1    0    0    0 -0.84331783816E+01 -0.29233802121E+02 -0.13137018023E+01  0.94545780317E+02  0.89506676172E+02 0.  0.
         13    1    3    3    0    0 -0.74592104766E+01  0.30841220200E+02 -0.11211282060E+02  0.33653004232E+02  0.10566000000E+00 0. -1.
         22    1    1    0    0    0  0.84331783816E+01  0.29233802121E+02  0.13137018023E+01  0.30454219683E+02  0.00000000000E+00 0.  1.
</event>
<event>
 5    1  0.8943334E-005  0.9118800E+02  0.7818608E-02  0.1130116E+00
         25   -1    0    0    0    0  0.00000000000E+00  0.00000000000E+00  0.99999998245E-14  0.12500000000E+03  0.12500000000E+03 0.  0.
        -13    1    3    3    0    0  0.25504262182E+02  0.20474180794E+02 -0.14675815975E+02  0.35847596952E+02  0.10566000000E+00 0.  1.
         23    2    1    0    0    0 -0.27704263594E+02 -0.74856096817E+00  0.58059888076E+01  0.96683996207E+02  0.92444572862E+02 0.  0.
         13    1    3    3    0    0 -0.53208525776E+02 -0.21222741763E+02  0.20481804783E+02  0.60836399255E+02  0.10566000000E+00 0. -1.
         22    1    1    0    0    0  0.27704263594E+02  0.74856096817E+00 -0.58059888076E+01  0.28316003793E+02  0.00000000000E+00 0. -1.
</event>
<event>
 5    1  0.8943334E-005  0.9118800E+02  0.7818608E-02  0.1130116E+00
         25   -1    0    0    0    0  0.00000000000E+00  0.00000000000E+00  0.99999998245E-14  0.12500000000E+03  0.12500000000E+03 0.  0.
        -13    1    3    3    0    0  0.40000312590E+02 -0.13530324909E+02  0.31865103441E+02  0.52900762572E+02  0.10566000000E+00 0.  1.
         23    2    1    0    0    0 -0.15455646704E+01 -0.17869648198E+02  0.23391078272E+02  0.95523642702E+02  0.90862041995E+02 0.  0.
         13    1    3    3    0    0 -0.41545877260E+02 -0.43393232891E+01 -0.84740251691E+01  0.42622880129E+02  0.10566000000E+00 0. -1.
         22    1    1    0    0    0  0.15455646704E+01  0.17869648198E+02 -0.23391078272E+02  0.29476357298E+02  0.00000000000E+00 0.  1.
</event>
<event>
 5    1  0.8943334E-005  0.9118800E+02  0.7818608E-02  0.1130116E+00
         25   -1    0    0    0    0  0.00000000000E+00  0.00000000000E+00  0.99999998245E-14  0.12500000000E+03  0.12500000000E+03 0.  0.
        -13    1    3    3    0    0 -0.16688963427E+02 -0.26583054860E+02 -0.20727174343E+02  0.37613923303E+02  0.10566000000E+00 0.  1.
         23    2    1    0    0    0 -0.14843561528E+02  0.21273689655E+02  0.12798050869E+02  0.96074383387E+02  0.91616569717E+02 0.  0.
         13    1    3    3    0    0  0.18454018984E+01  0.47856744515E+02  0.33525225212E+02  0.58460460084E+02  0.10566000000E+00 0. -1.
         22    1    1    0    0    0  0.14843561528E+02 -0.21273689655E+02 -0.12798050869E+02  0.28925616613E+02  0.00000000000E+00 0. -1.
</event>
<event>
 5    1  0.8943334E-005  0.9118800E+02  0.7818608E-02  0.1130116E+00
         25   -1    0    0    0    0  0.00000000000E+00  0.00000000000E+00  0.99999998245E-14  0.12500000000E+03  0.12500000000E+03 0.  0.
        -13    1    3    3    0    0 -0.28586578736E+02  0.55114619460E+02 -0.14580182583E+01  0.62104353659E+02  0.10566000000E+00 0. -1.
         23    2    1    0    0    0 -0.83667335616E+01  0.26333012930E+02 -0.21576320547E+01  0.97285650349E+02  0.93254557997E+02 0.  0.
         13    1    3    3    0    0  0.20219845175E+02 -0.28781606530E+02 -0.69961379650E+00  0.35181296690E+02  0.10566000000E+00 0.  1.
         22    1    1    0    0    0  0.83667335616E+01 -0.26333012930E+02  0.21576320547E+01  0.27714349651E+02  0.00000000000E+00 0. -1.
</event>
<event>
 5    1  0.8943334E-005  0.9118800E+02  0.7818608E-02  0.1130116E+00
         25   -1    0    0    0    0  0.00000000000E+00  0.00000000000E+00  0.99999998245E-14  0.12500000000E+03  0.12500000000E+03 0.  0.
        -13    1    3    3    0    0  0.31055956260E+02  0.37227555576E+02 -0.21433197367E+02  0.53007135622E+02  0.10566000000E+00 0.  1.
         23    2    1    0    0    0  0.80515866418E+01  0.24164469320E+01 -0.28463705243E+02  0.95320886479E+02  0.90582678365E+02 0.  0.
         13    1    3    3    0    0 -0.23004369618E+02 -0.34811108644E+02 -0.70305078759E+01  0.42313750857E+02  0.10566000000E+00 0. -1.
         22    1    1    0    0    0 -0.80515866418E+01 -0.24164469320E+01  0.28463705243E+02  0.29679113521E+02  0.00000000000E+00 0.  1.
</event>
<event>
 5    1  0.8943334E-005  0.9118800E+02  0.7818608E-02  0.1130116E+00
         25   -1    0    0    0    0  0.00000000000E+00  0.00000000000E+00  0.99999998245E-14  0.12500000000E+03  0.12500000000E+03 0.  0.
        -13    1    3    3    0    0  0.24100234895E+02  0.33729133209E+02 -0.32814244686E+01  0.41584307853E+02  0.10566000000E+00 0.  1.
         23    2    1    0    0    0 -0.11157098547E+02  0.46208942895E+01  0.26313656584E+02  0.96047590172E+02  0.91580006240E+02 0.  0.
         13    1    3    3    0    0 -0.35257333442E+02 -0.29108238919E+02  0.29595081053E+02  0.54463282319E+02  0.10566000000E+00 0. -1.
         22    1    1    0    0    0  0.11157098547E+02 -0.46208942895E+01 -0.26313656584E+02  0.28952409828E+02  0.00000000000E+00 0. -1.
</event>
<event>
 5    1  0.8943334E-005  0.9118800E+02  0.7818608E-02  0.1130116E+00
         25   -1    0    0    0    0  0.00000000000E+00  0.00000000000E+00  0.99999998245E-14  0.12500000000E+03  0.12500000000E+03 0.  0.
        -13    1    3    3    0    0 -0.18494528025E+02 -0.18700465906E+02  0.27686854197E+02  0.38188061634E+02  0.10566000000E+00 0.  1.
         23    2    1    0    0    0 -0.24380164350E+01  0.29971617382E+02  0.39470384175E+01  0.94671450992E+02  0.89682009055E+02 0.  0.
         13    1    3    3    0    0  0.16056511590E+02  0.48672083288E+02 -0.23739815780E+02  0.56483389358E+02  0.10566000000E+00 0. -1.
         22    1    1    0    0    0  0.24380164350E+01 -0.29971617382E+02 -0.39470384175E+01  0.30328549008E+02  0.00000000000E+00 0. -1.
</event>
<event>
 5    1  0.8943334E-005  0.9118800E+02  0.7818608E-02  0.1130116E+00
         25   -1    0    0    0    0  0.00000000000E+00  0.00000000000E+00  0.99999998245E-14  0.12500000000E+03  0.12500000000E+03 0.  0.
        -13    1    3    3    0    0  0.12408441074E+02 -0.53496313363E+02 -0.19210014636E+02  0.58179556373E+02  0.10566000000E+00 0.  1.
         23    2    1    0    0    0  0.20781844687E+02 -0.22519987999E+02 -0.27774966155E+01  0.94230706613E+02  0.89065575018E+02 0.  0.
         13    1    3    3    0    0  0.83734036128E+01  0.30976325365E+02  0.16432518020E+02  0.36051150241E+02  0.10566000000E+00 0. -1.
         22    1    1    0    0    0 -0.20781844687E+02  0.22519987999E+02  0.27774966155E+01  0.30769293387E+02  0.00000000000E+00 0.  1.
</event>
<event>
 5    1  0.8943334E-005  0.9118800E+02  0.7818608E-02  0.1130116E+00
         25   -1    0    0    0    0  0.00000000000E+00  0.00000000000E+00  0.99999998245E-14  0.12500000000E+03  0.12500000000E+03 0.  0.
        -13    1    3    3    0    0 -0.29737208289E+02  0.48764442577E+01 -0.37751238190E+02  0.48303710151E+02  0.10566000000E+00 0.  1.
         23    2    1    0    0    0  0.12055290481E+02 -0.12801846671E+02 -0.23059761171E+02  0.96000519107E+02  0.91515735132E+02 0.  0.
         13    1    3    3    0    0  0.41792498770E+02 -0.17678290929E+02  0.14691477019E+02  0.47696808957E+02  0.10566000000E+00 0. -1.
         22    1    1    0    0    0 -0.12055290481E+02  0.12801846671E+02  0.23059761171E+02  0.28999480893E+02  0.00000000000E+00 0.  1.
</event>
<event>
 5    1  0.8943334E-005  0.9118800E+02  0.7818608E-02  0.1130116E+00
         25   -1    0    0    0    0  0.00000000000E+00  0.00000000000E+00  0.99999998245E-14  0.12500000000E+03  0.12500000000E+03 0.  0.
        -13    1    3    3    0    0 -0.24990371762E+02  0.13181448340E+02 -0.26662735711E+02  0.38848190444E+02  0.10566000000E+00 0.  1.
         23    2    1    0    0    0  0.26567464279E+02 -0.46048010102E+01 -0.12963503200E+02  0.95081999302E+02  0.90252422823E+02 0.  0.
         13    1    3    3    0    0  0.51557836041E+02 -0.17786249350E+02  0.13699232511E+02  0.56233808857E+02  0.10566000000E+00 0. -1.
         22    1    1    0    0    0 -0.26567464279E+02  0.46048010102E+01  0.12963503200E+02  0.29918000698E+02  0.00000000000E+00 0. -1.
</event>
<event>
 5    1  0.8943334E-005  0.9118800E+02  0.7818608E-02  0.1130116E+00
         25   -1    0    0    0    0  0.00000000000E+00  0.00000000000E+00  0.99999998245E-14  0.12500000000E+03  0.12500000000E+03 0.  0.
        -13    1    3    3    0    0  0.28152515707E+02 -0.15375709528E+02  0.10829278677E+02  0.33856476851E+02  0.10566000000E+00 0. -1.
         23    2    1    0    0    0 -0.91247822267E+01  0.21510137450E+02 -0.19613002115E+02  0.94493975747E+02  0.89434299554E+02 0.  0.
         13    1    3    3    0    0 -0.37277297933E+02  0.36885846977E+02 -0.30442280791E+02  0.60637498895E+02  0.10566000000E+00 0.  1.
         22    1    1    0    0    0  0.91247822267E+01 -0.21510137450E+02  0.19613002115E+02  0.30506024253E+02  0.00000000000E+00 0.  1.
</event>
<event>
 5    1  0.8943334E-005  0.9118800E+02  0.7818608E-02  0.1130116E+00
         25   -1    0    0    0    0  0.00000000000E+00  0.00000000000E+00  0.99999998245E-14  0.12500000000E+03  0.12500000000E+03 0.  0.
        -13    1    3    3    0    0  0.18864084405E+02  0.16625448675E+02 -0.22024140131E+02  0.33426533422E+02  0.10566000000E+00 0. -1.
         23    2    1    0    0    0 -0.18981769995E+02 -0.18073703553E+01  0.23039536756E+02  0.95093572035E+02  0.90268449686E+02 0.  0.
         13    1    3    3    0    0 -0.37845854400E+02 -0.18432819030E+02  0.45063676887E+02  0.61667038612E+02  0.10566000000E+00 0.  1.
         22    1    1    0    0    0  0.18981769995E+02  0.18073703553E+01 -0.23039536756E+02  0.29906427965E+02  0.00000000000E+00 0.  1.
</event>
<event>
 5    1  0.8943334E-005  0.9118800E+02  0.7818608E-02  0.1130116E+00
         25   -1    0    0    0    0  0.00000000000E+00  0.00000000000E+00  0.99999998245E-14  0.12500000000E+03  0.12500000000E+03 0.  0.
        -13    1    3    3    0    0  0.27659435831E+02 -0.18134255628E+02  0.22323751199E+02  0.39903090723E+02  0.10566000000E+00 0. -1.
         23    2    1    0    0    0  0.97213580402E+00  0.24745743378E+02 -0.81953181795E+01  0.98914369791E+02  0.95412747826E+02 0.  0.
         13    1    3    3    0    0 -0.26687300027E+02  0.42879999006E+02 -0.30519069378E+02  0.59011279068E+02  0.10566000000E+00 0.  1.
         22    1    1    0    0    0 -0.97213580402E+00 -0.24745743378E+02  0.81953181795E+01  0.26085630209E+02  0.00000000000E+00 0.  1.
</event>
<event>
 5    1  0.8943334E-005  0.9118800E+02  0.7818608E-02  0.1130116E+00
         25   -1    0    0    0    0  0.00000000000E+00  0.00000000000E+00  0.99999998245E-14  0.12500000000E+03  0.12500000000E+03 0.  0.
        -13    1    3    3    0    0  0.40803380769E+02  0.16340855584E+02  0.31483094619E+02  0.54066032352E+02  0.10566000000E+00 0.  1.
         23    2    1    0    0    0 -0.91563877800E+00  0.14513100376E+02  0.24649528511E+02  0.96380640596E+02  0.92033472981E+02 0.  0.
         13    1    3    3    0    0 -0.41719019547E+02 -0.18277552078E+01 -0.68335661089E+01  0.42314608244E+02  0.10566000000E+00 0. -1.
         22    1    1    0    0    0  0.91563877800E+00 -0.14513100376E+02 -0.24649528511E+02  0.28619359404E+02  0.00000000000E+00 0.  1.
</event>
<event>
 5    1  0.8943334E-005  0.9118800E+02  0.7818608E-02  0.1130116E+00
         25   -1    0    0    0    0  0.00000000000E+00  0.00000000000E+00  0.99999998245E-14  0.12500000000E+03  0.12500000000E+03 0.  0.
        -13    1    3    3    0    0 -0.37664288769E+02  0.28168453708E+02  0.10848809278E+02  0.48267673028E+02  0.10566000000E+00 0.  1.
         23    2    1    0    0    0 -0.23235935990E+02 -0.13561147618E+02  0.17479660641E+02  0.92916484262E+02  0.87201611599E+02 0.  0.
         13    1    3    3    0    0  0.14428352779E+02 -0.41729601326E+02  0.66308513626E+01  0.44648811233E+02  0.10566000000E+00 0. -1.
         22    1    1    0    0    0  0.23235935990E+02  0.13561147618E+02 -0.17479660641E+02  0.32083515738E+02  0.00000000000E+00 0.  1.
</event>
<event>
 5    1  0.8943334E-005  0.9118800E+02  0.7818608E-02  0.1130116E+00
         25   -1    0    0    0    0  0.00000000000E+00  0.00000000000E+00  0.99999998245E-14  0.12500000000E+03  0.12500000000E+03 0.  0.
        -13    1    3    3    0    0  0.29141241162E+02  0.47442706782E+02  0.17514379713E+02  0.58367688185E+02  0.10566000000E+00 0.  1.
         23    2    1    0    0    0  0.36019496109E+01  0.21022579348E+02  0.20733099575E+02  0.95254675974E+02  0.90491264736E+02 0.  0.
         13    1    3    3    0    0 -0.25539291551E+02 -0.26420127434E+02  0.32187198618E+01  0.36886987789E+02  0.10566000000E+00 0. -1.
         22    1    1    0    0    0 -0.36019496109E+01 -0.21022579348E+02 -0.20733099575E+02  0.29745324026E+02  0.00000000000E+00 0.  1.
</event>
<event>
 5    1  0.8943334E-005  0.9118800E+02  0.7818608E-02  0.1130116E+00
         25   -1    0    0    0    0  0.00000000000E+00  0.00000000000E+00  0.99999998245E-14  0.12500000000E+03  0.12500000000E+03 0.  0.
        -13    1    3    3    0    0 -0.10850228989E+02 -0.33888317745E+02 -0.20536569404E+02  0.41084150175E+02  0.10566000000E+00 0. -1.
         23    2    1    0    0    0 -0.71608618473E+01 -0.78807216645E+01  0.27321239909E+02  0.95677076092E+02  0.91072877537E+02 0.  0.
         13    1    3    3    0    0  0.36893671421E+01  0.26007596080E+02  0.47857809313E+02  0.54592925916E+02  0.10566000000E+00 0.  1.
         22    1    1    0    0    0  0.71608618473E+01  0.78807216645E+01 -0.27321239909E+02  0.29322923908E+02  0.00000000000E+00 0.  1.
</event>
<event>
 5    1  0.8943334E-005  0.9118800E+02  0.7818608E-02  0.1130116E+00
         25   -1    0    0    0    0  0.00000000000E+00  0.00000000000E+00  0.99999998245E-14  0.12500000000E+03  0.12500000000E+03 0.  0.
        -13    1    3    3    0    0 -0.16931247041E+02  0.22527824703E+02 -0.51498511054E+02  0.58705006746E+02  0.10566000000E+00 0. -1.
         23    2    1    0    0    0  0.73140016363E+01  0.10562669876E+02 -0.26598127819E+02  0.95461465535E+02  0.90776463821E+02 0.  0.
         13    1    3    3    0    0  0.24245248677E+02 -0.11965154827E+02  0.24900383235E+02  0.36756458789E+02  0.10566000000E+00 0.  1.
         22    1    1    0    0    0 -0.73140016363E+01 -0.10562669876E+02  0.26598127819E+02  0.29538534465E+02  0.00000000000E+00 0. -1.
</event>
<event>
 5    1  0.8943334E-005  0.9118800E+02  0.7818608E-02  0.1130116E+00
         25   -1    0    0    0    0  0.00000000000E+00  0.00000000000E+00  0.99999998245E-14  0.12500000000E+03  0.12500000000E+03 0.  0.
        -13    1    3    3    0    0  0.65111127585E+01  0.49195070603E+02  0.17150661372E+02  0.52504341825E+02  0.10566000000E+00 0.  1.
         23    2    1    0    0    0 -0.17325865344E+01  0.77479198785E+01  0.27803220006E+02  0.96085450699E+02  0.91631668515E+02 0.  0.
         13    1    3    3    0    0 -0.82436992929E+01 -0.41447150724E+02  0.10652558635E+02  0.43581108874E+02  0.10566000000E+00 0. -1.
         22    1    1    0    0    0  0.17325865344E+01 -0.77479198785E+01 -0.27803220006E+02  0.28914549301E+02  0.00000000000E+00 0.  1.
</event>
<event>
 5    1  0.8943334E-005  0.9118800E+02  0.7818608E-02  0.1130116E+00
         25   -1    0    0    0    0  0.00000000000E+00  0.00000000000E+00  0.99999998245E-14  0.12500000000E+03  0.12500000000E+03 0.  0.
        -13    1    3    3    0    0 -0.62298963711E+01  0.30142496074E+02 -0.26283553495E+02  0.40474906136E+02  0.10566000000E+00 0.  1.
         23    2    1    0    0    0 -0.22185548114E+02 -0.17565339771E+02 -0.12246152303E+01  0.96676169241E+02  0.92433988934E+02 0.  0.
         13    1    3    3    0    0 -0.15955651743E+02 -0.47707835846E+02  0.25058938264E+02  0.56201263105E+02  0.10566000000E+00 0. -1.
         22    1    1    0    0    0  0.22185548114E+02  0.17565339771E+02  0.12246152303E+01  0.28323830759E+02  0.00000000000E+00 0. -1.
</event>
<event>
 5    1  0.8943334E-005  0.9118800E+02  0.7818608E-02  0.1130116E+00
         25   -1    0    0    0    0  0.00000000000E+00  0.00000000000E+00  0.99999998245E-14  0.12500000000E+03  0.12500000000E+03 0.  0.
        -13    1    3    3    0    0 -0.39437255687E+02  0.62690175143E+01 -0.27659843035E+02  0.48576494290E+02  0.10566000000E+00 0.  1.
         23    2    1    0    0    0 -0.18803504870E+02  0.21561884066E+02  0.10457737361E+02  0.94539354725E+02  0.89497702101E+02 0.  0.
         13    1    3    3    0    0  0.20633750817E+02  0.15292866551E+02  0.38117580396E+02  0.45962860436E+02  0.10566000000E+00 0. -1.
         22    1    1    0    0    0  0.18803504870E+02 -0.21561884066E+02 -0.10457737361E+02  0.30460645275E+02  0.00000000000E+00 0.  1.
</event>
<event>
 5    1  0.8943334E-005  0.9118800E+02  0.7818608E-02  0.1130116E+00
         25   -1    0    0    0    0  0.00000000000E+00  0.00000000000E+00  0.99999998245E-14  0.12500000000E+03  0.12500000000E+03 0.  0.
        -13    1    3    3    0    0 -0.27510389680E+02  0.29341952588E+02  0.20449428532E+01  0.40273622600E+02  0.10566000000E+00 0.  1.
         23    2    1    0    0    0  0.23734643803E+01 -0.77333935349E+01 -0.27513947809E+02  0.96321505744E+02  0.91953120861E+02 0.  0.
         13    1    3    3    0    0  0.29883854061E+02 -0.37075346123E+02 -0.29558890663E+02  0.56047883144E+02  0.10566000000E+00 0. -1.
         22    1    1    0    0    0 -0.23734643803E+01  0.77333935349E+01  0.27513947809E+02  0.28678494256E+02  0.00000000000E+00 0. -1.
</event>
<event>
 5    1  0.8943334E-005  0.9118800E+02  0.7818608E-02  0.1130116E+00
         25   -1    0    0    0    0  0.00000000000E+00  0.00000000000E+00  0.99999998245E-14  0.12500000000E+03  0.12500000000E+03 0.  0.
        -13    1    3    3    0    0  0.10909706670E+02 -0.53832796779E+02  0.11384759148E+02  0.56094702188E+02  0.10566000000E+00 0.  1.
         23    2    1    0    0    0 -0.69282195344E+01 -0.23745038629E+02  0.21198855766E+02  0.92423650125E+02  0.86492268621E+02 0.  0.
         13    1    3    3    0    0 -0.17837926204E+02  0.30087758150E+02  0.98140966181E+01  0.36328947937E+02  0.10566000000E+00 0. -1.
         22    1    1    0    0    0  0.69282195344E+01  0.23745038629E+02 -0.21198855766E+02  0.32576349875E+02  0.00000000000E+00 0.  1.
</event>
<event>
 5    1  0.8943334E-005  0.9118800E+02  0.7818608E-02  0.1130116E+00
         25   -1    0    0    0    0  0.00000000000E+00  0.00000000000E+00  0.99999998245E-14  0.12500000000E+03  0.12500000000E+03 0.  0.
        -13    1    3    3    0    0  0.66024953123E+01  0.28162292232E+02  0.23361059368E+02  0.37181418840E+02  0.10566000000E+00 0.  1.
         23    2    1    0    0    0  0.13527067710E+02 -0.24326331544E+02 -0.41694624941E+01  0.96855082435E+02  0.92675620358E+02 0.  0.
         13    1    3    3    0    0  0.69245723982E+01 -0.52488623776E+02 -0.27530521863E+02  0.59673663595E+02  0.10566000000E+00 0. -1.
         22    1    1    0    0    0 -0.13527067710E+02  0.24326331544E+02  0.41694624941E+01  0.28144917565E+02  0.00000000000E+00 0. -1.
</event>
<event>
 5    1  0.8943334E-005  0.9118800E+02  0.7818608E-02  0.1130116E+00
         25   -1    0    0    0    0  0.00000000000E+00  0.00000000000E+00  0.99999998245E-14  0.12500000000E+03  0.12500000000E+03 0.  0.
        -13    1    3    3    0    0 -0.48389822882E+02  0.93550870164E+01 -0.15152695969E+02  0.51562660625E+02  0.10566000000E+00 0.  1.
         23    2    1    0    0    0 -0.20423254463E+02  0.10176113471E+02  0.18712297275E+02  0.95490464633E+02  0.90816387058E+02 0.  0.
         13    1    3    3    0    0  0.27966568419E+02  0.82102645468E+00  0.33864993244E+02  0.43927804008E+02  0.10566000000E+00 0. -1.
         22    1    1    0    0    0  0.20423254463E+02 -0.10176113471E+02 -0.18712297275E+02  0.29509535367E+02  0.00000000000E+00 0.  1.
</event>
<event>
 5    1  0.8943334E-005  0.9118800E+02  0.7818608E-02  0.1130116E+00
         25   -1    0    0    0    0  0.00000000000E+00  0.00000000000E+00  0.99999998245E-14  0.12500000000E+03  0.12500000000E+03 0.  0.
        -13    1    3    3    0    0  0.10189728429E+02 -0.59376852385E+02 -0.51179780502E+01  0.60461938672E+02  0.10566000000E+00 0. -1.
         23    2    1    0    0    0 -0.22459977967E+01 -0.28883138022E+02  0.63651010994E+01  0.95338666919E+02  0.90607211246E+02 0.  0.
         13    1    3    3    0    0 -0.12435726226E+02  0.30493714363E+02  0.11483079150E+02  0.34876728247E+02  0.10566000000E+00 0.  1.
         22    1    1    0    0    0  0.22459977967E+01  0.28883138022E+02 -0.63651010994E+01  0.29661333081E+02  0.00000000000E+00 0. -1.
</event>
<event>
 5    1  0.8943334E-005  0.9118800E+02  0.7818608E-02  0.1130116E+00
         25   -1    0    0    0    0  0.00000000000E+00  0.00000000000E+00  0.99999998245E-14  0.12500000000E+03  0.12500000000E+03 0.  0.
        -13    1    3    3    0    0  0.11062273558E+02  0.44105700112E+01  0.30446664487E+02  0.32693081325E+02  0.10566000000E+00 0. -1.
         23    2    1    0    0    0 -0.15044911262E+02 -0.44644427494E+01 -0.25495308058E+02  0.95061874860E+02  0.90224546078E+02 0.  0.
         13    1    3    3    0    0 -0.26107184820E+02 -0.88750127606E+01 -0.55941972545E+02  0.62368793535E+02  0.10566000000E+00 0.  1.
         22    1    1    0    0    0  0.15044911262E+02  0.44644427494E+01  0.25495308058E+02  0.29938125140E+02  0.00000000000E+00 0.  1.
</event>
<event>
 5    1  0.8943334E-005  0.9118800E+02  0.7818608E-02  0.1130116E+00
         25   -1    0    0    0    0  0.00000000000E+00  0.00000000000E+00  0.99999998245E-14  0.12500000000E+03  0.12500000000E+03 0.  0.
        -13    1    3    3    0    0 -0.93471402141E+00  0.43602304683E+02 -0.40597380427E+02  0.59583497091E+02  0.10566000000E+00 0.  1.
         23    2    1    0    0    0  0.59815309912E+01  0.11456522169E+02 -0.26807783704E+02  0.95239491262E+02  0.90470286921E+02 0.  0.
         13    1    3    3    0    0  0.69162450127E+01 -0.32145782515E+02  0.13789596723E+02  0.35655994172E+02  0.10566000000E+00 0. -1.
         22    1    1    0    0    0 -0.59815309912E+01 -0.11456522169E+02  0.26807783704E+02  0.29760508738E+02  0.00000000000E+00 0.  1.
</event>
<event>
 5    1  0.8943334E-005  0.9118800E+02  0.7818608E-02  0.1130116E+00
         25   -1    0    0    0    0  0.00000000000E+00  0.00000000000E+00  0.99999998245E-14  0.12500000000E+03  0.12500000000E+03 0.  0.
        -13    1    3    3    0    0  0.41041755867E+02 -0.39699498541E+02 -0.61444813447E+01  0.57430320599E+02  0.10566000000E+00 0. -1.
         23    2    1    0    0    0  0.19620833862E+02 -0.95300652104E+00  0.78239708625E+01  0.10385526394E+03  0.10167996846E+03 0.  0.
         13    1    3    3    0    0 -0.21420922005E+02  0.38746492020E+02  0.13968452207E+02  0.46424943344E+02  0.10566000000E+00 0.  1.
         22    1    1    0    0    0 -0.19620833862E+02  0.95300652104E+00 -0.78239708625E+01  0.21144736057E+02  0.00000000000E+00 0. -1.
</event>
<event>
 5    1  0.8943334E-005  0.9118800E+02  0.7818608E-02  0.1130116E+00
         25   -1    0    0    0    0  0.00000000000E+00  0.00000000000E+00  0.99999998245E-14  0.12500000000E+03  0.12500000000E+03 0.  0.
        -13    1    3    3    0    0  0.41343728730E+02 -0.16618292741E+02  0.14797130299E+01  0.44583318334E+02  0.10566000000E+00 0. -1.
         23    2    1    0    0    0  0.23389328902E+02 -0.82354508946E+01  0.34152222645E+02  0.82795051600E+02  0.71230350974E+02 0.  0.
         13    1    3    3    0    0 -0.17954399828E+02  0.83828418468E+01  0.32672509615E+02  0.38211733266E+02  0.10566000000E+00 0.  1.
         22    1    1    0    0    0 -0.23389328902E+02  0.82354508946E+01 -0.34152222645E+02  0.42204948400E+02  0.00000000000E+00 0.  1.
</event>
<event>
 5    1  0.8943334E-005  0.9118800E+02  0.7818608E-02  0.1130116E+00
         25   -1    0    0    0    0  0.00000000000E+00  0.00000000000E+00  0.99999998245E-14  0.12500000000E+03  0.12500000000E+03 0.  0.
        -13    1    3    3    0    0  0.36324074415E+02  0.22460462118E+02  0.94558127518E+01  0.43741676917E+02  0.10566000000E+00 0.  1.
         23    2    1    0    0    0 -0.14934566989E+02  0.20149304240E+02  0.15668758166E+02  0.95427280562E+02  0.90729378596E+02 0.  0.
         13    1    3    3    0    0 -0.51258641404E+02 -0.23111578781E+01  0.62129454145E+01  0.51685603645E+02  0.10566000000E+00 0. -1.
         22    1    1    0    0    0  0.14934566989E+02 -0.20149304240E+02 -0.15668758166E+02  0.29572719438E+02  0.00000000000E+00 0. -1.
</event>
<event>
 5    1  0.8943334E-005  0.9118800E+02  0.7818608E-02  0.1130116E+00
         25   -1    0    0    0    0  0.00000000000E+00  0.00000000000E+00  0.99999998245E-14  0.12500000000E+03  0.12500000000E+03 0.  0.
        -13    1    3    3    0    0 -0.33801149536E+02  0.54409691192E+01  0.81889672693E+01  0.35202161920E+02  0.10566000000E+00 0.  1.
         23    2    1    0    0    0  0.26498282780E+02  0.86354397883E+01  0.93681445465E+01  0.95597756160E+02  0.90963943625E+02 0.  0.
         13    1    3    3    0    0  0.60299432315E+02  0.31944706690E+01  0.11791772772E+01  0.60395594239E+02  0.10566000000E+00 0. -1.
         22    1    1    0    0    0 -0.26498282780E+02 -0.86354397883E+01 -0.93681445465E+01  0.29402243840E+02  0.00000000000E+00 0. -1.
</event>
<event>
 5    1  0.8943334E-005  0.9118800E+02  0.7818608E-02  0.1130116E+00
         25   -1    0    0    0    0  0.00000000000E+00  0.00000000000E+00  0.99999998245E-14  0.12500000000E+03  0.12500000000E+03 0.  0.
        -13    1    3    3    0    0  0.29279094432E+02 -0.34314414645E+02  0.23441510904E+02  0.50835617638E+02  0.10566000000E+00 0.  1.
         23    2    1    0    0    0 -0.12299837493E+02 -0.14989710435E+02  0.20503291428E+02  0.96780106650E+02  0.92574438494E+02 0.  0.
         13    1    3    3    0    0 -0.41578931925E+02  0.19324704210E+02 -0.29382194760E+01  0.45944489012E+02  0.10566000000E+00 0. -1.
         22    1    1    0    0    0  0.12299837493E+02  0.14989710435E+02 -0.20503291428E+02  0.28219893350E+02  0.00000000000E+00 0.  1.
</event>
<event>
 5    1  0.8943334E-005  0.9118800E+02  0.7818608E-02  0.1130116E+00
         25   -1    0    0    0    0  0.00000000000E+00  0.00000000000E+00  0.99999998245E-14  0.12500000000E+03  0.12500000000E+03 0.  0.
        -13    1    3    3    0    0  0.38607784553E+02 -0.10863529732E+02 -0.31360169815E+02  0.50912166730E+02  0.10566000000E+00 0.  1.
         23    2    1    0    0    0 -0.16200759110E+01  0.79396782121E+01 -0.28456157756E+02  0.95412569386E+02  0.90709108399E+02 0.  0.
         13    1    3    3    0    0 -0.40227860464E+02  0.18803207944E+02  0.29040120591E+01  0.44500402656E+02  0.10566000000E+00 0. -1.
         22    1    1    0    0    0  0.16200759110E+01 -0.79396782121E+01  0.28456157756E+02  0.29587430614E+02  0.00000000000E+00 0.  1.
</event>
<event>
 5    1  0.8943334E-005  0.9118800E+02  0.7818608E-02  0.1130116E+00
         25   -1    0    0    0    0  0.00000000000E+00  0.00000000000E+00  0.99999998245E-14  0.12500000000E+03  0.12500000000E+03 0.  0.
        -13    1    3    3    0    0 -0.28713740879E+02 -0.67831148821E+01 -0.39364030727E+02  0.49193776454E+02  0.10566000000E+00 0.  1.
         23    2    1    0    0    0 -0.26658430491E+02  0.14191250661E+02  0.10592206135E+01  0.94781041383E+02  0.89834627766E+02 0.  0.
         13    1    3    3    0    0  0.20553103877E+01  0.20974365543E+02  0.40423251340E+02  0.45587264929E+02  0.10566000000E+00 0. -1.
         22    1    1    0    0    0  0.26658430491E+02 -0.14191250661E+02 -0.10592206135E+01  0.30218958617E+02  0.00000000000E+00 0. -1.
</event>
<event>
 5    1  0.8943334E-005  0.9118800E+02  0.7818608E-02  0.1130116E+00
         25   -1    0    0    0    0  0.00000000000E+00  0.00000000000E+00  0.99999998245E-14  0.12500000000E+03  0.12500000000E+03 0.  0.
        -13    1    3    3    0    0  0.28158416993E+02  0.28776923085E+01 -0.29751735532E+02  0.41065246763E+02  0.10566000000E+00 0. -1.
         23    2    1    0    0    0 -0.14652912790E+02 -0.23827359132E+02 -0.91140935113E+01  0.95580319564E+02  0.90939979607E+02 0.  0.
         13    1    3    3    0    0 -0.42811329783E+02 -0.26705051440E+02  0.20637642020E+02  0.54515072800E+02  0.10566000000E+00 0.  1.
         22    1    1    0    0    0  0.14652912790E+02  0.23827359132E+02  0.91140935113E+01  0.29419680436E+02  0.00000000000E+00 0.  1.
</event>
<event>
 5    1  0.8943334E-005  0.9118800E+02  0.7818608E-02  0.1130116E+00
         25   -1    0    0    0    0  0.00000000000E+00  0.00000000000E+00  0.99999998245E-14  0.12500000000E+03  0.12500000000E+03 0.  0.
        -13    1    3    3    0    0 -0.49444603228E+01  0.24740655321E+02  0.19183335513E+02  0.31694782521E+02  0.10566000000E+00 0. -1.
         23    2    1    0    0    0 -0.11777347553E+02 -0.22935327350E+02 -0.18847710601E+02  0.93063009676E+02  0.87411397535E+02 0.  0.
         13    1    3    3    0    0 -0.68328872303E+01 -0.47675982671E+02 -0.38031046114E+02  0.61368227155E+02  0.10566000000E+00 0.  1.
         22    1    1    0    0    0  0.11777347553E+02  0.22935327350E+02  0.18847710601E+02  0.31936990324E+02  0.00000000000E+00 0.  1.
</event>
<event>
 5    1  0.8943334E-005  0.9118800E+02  0.7818608E-02  0.1130116E+00
         25   -1    0    0    0    0  0.00000000000E+00  0.00000000000E+00  0.99999998245E-14  0.12500000000E+03  0.12500000000E+03 0.  0.
        -13    1    3    3    0    0 -0.94724159942E+01 -0.39895005005E+02 -0.18390662118E+01  0.41045479869E+02  0.10566000000E+00 0.  1.
         23    2    1    0    0    0  0.30928478279E+02 -0.83909643144E+01  0.43866033384E+01  0.92654655055E+02  0.86825478770E+02 0.  0.
         13    1    3    3    0    0  0.40400894273E+02  0.31504040691E+02  0.62256695502E+01  0.51609175185E+02  0.10566000000E+00 0. -1.
         22    1    1    0    0    0 -0.30928478279E+02  0.83909643144E+01 -0.43866033384E+01  0.32345344945E+02  0.00000000000E+00 0. -1.
</event>
<event>
 5    1  0.8943334E-005  0.9118800E+02  0.7818608E-02  0.1130116E+00
         25   -1    0    0    0    0  0.00000000000E+00  0.00000000000E+00  0.99999998245E-14  0.12500000000E+03  0.12500000000E+03 0.  0.
        -13    1    3    3    0    0  0.23128958049E+02 -0.33746848830E+02 -0.43283722671E+00  0.40914508656E+02  0.10566000000E+00 0.  1.
         23    2    1    0    0    0 -0.48153598234E+01 -0.16199181939E+01 -0.31163201763E+02  0.93425374598E+02  0.87928059512E+02 0.  0.
         13    1    3    3    0    0 -0.27944317873E+02  0.32126930636E+02 -0.30730364536E+02  0.52510865942E+02  0.10566000000E+00 0. -1.
         22    1    1    0    0    0  0.48153598234E+01  0.16199181939E+01  0.31163201763E+02  0.31574625402E+02  0.00000000000E+00 0. -1.
</event>
<event>
 5    1  0.8943334E-005  0.9118800E+02  0.7818608E-02  0.1130116E+00
         25   -1    0    0    0    0  0.00000000000E+00  0.00000000000E+00  0.99999998245E-14  0.12500000000E+03  0.12500000000E+03 0.  0.
        -13    1    3    3    0    0  0.17420384856E+02  0.17300095421E+02  0.22457803351E+02  0.33273521087E+02  0.10566000000E+00 0.  1.
         23    2    1    0    0    0 -0.11068224286E+02 -0.35587694060E+01 -0.27898873532E+02  0.94775546773E+02  0.89826981988E+02 0.  0.
         13    1    3    3    0    0 -0.28488609143E+02 -0.20858864827E+02 -0.50356676883E+02  0.61502025686E+02  0.10566000000E+00 0. -1.
         22    1    1    0    0    0  0.11068224286E+02  0.35587694060E+01  0.27898873532E+02  0.30224453227E+02  0.00000000000E+00 0. -1.
</event>
<event>
 5    1  0.8943334E-005  0.9118800E+02  0.7818608E-02  0.1130116E+00
         25   -1    0    0    0    0  0.00000000000E+00  0.00000000000E+00  0.99999998245E-14  0.12500000000E+03  0.12500000000E+03 0.  0.
        -13    1    3    3    0    0 -0.11037139341E+02 -0.22911264759E+02 -0.24883672578E+02  0.35580230785E+02  0.10566000000E+00 0.  1.
         23    2    1    0    0    0  0.11117775513E+02  0.26581173900E+02  0.20281132221E+01  0.96116146699E+02  0.91673533121E+02 0.  0.
         13    1    3    3    0    0  0.22154914855E+02  0.49492438659E+02  0.26911785800E+02  0.60535915914E+02  0.10566000000E+00 0. -1.
         22    1    1    0    0    0 -0.11117775513E+02 -0.26581173900E+02 -0.20281132221E+01  0.28883853301E+02  0.00000000000E+00 0. -1.
</event>
<event>
 5    1  0.8943334E-005  0.9118800E+02  0.7818608E-02  0.1130116E+00
         25   -1    0    0    0    0  0.00000000000E+00  0.00000000000E+00  0.99999998245E-14  0.12500000000E+03  0.12500000000E+03 0.  0.
        -13    1    3    3    0    0 -0.14880316404E+02  0.11347407266E+02 -0.33040691276E+02  0.37972172863E+02  0.10566000000E+00 0. -1.
         23    2    1    0    0    0 -0.13130946632E+02  0.11023769052E+02  0.24255950899E+02  0.95296525496E+02  0.90549055070E+02 0.  0.
         13    1    3    3    0    0  0.17493697718E+01 -0.32363821375E+00  0.57296642175E+02  0.57324352633E+02  0.10566000000E+00 0.  1.
         22    1    1    0    0    0  0.13130946632E+02 -0.11023769052E+02 -0.24255950899E+02  0.29703474504E+02  0.00000000000E+00 0.  1.
</event>
<event>
 5    1  0.8943334E-005  0.9118800E+02  0.7818608E-02  0.1130116E+00
         25   -1    0    0    0    0  0.00000000000E+00  0.00000000000E+00  0.99999998245E-14  0.12500000000E+03  0.12500000000E+03 0.  0.
        -13    1    3    3    0    0  0.32436476454E+02  0.46508925016E+02 -0.10466010096E+02  0.57660676741E+02  0.10566000000E+00 0. -1.
         23    2    1    0    0    0  0.80276852556E+01  0.16645380044E+02 -0.20384745248E+02  0.97485453916E+02  0.93521994628E+02 0.  0.
         13    1    3    3    0    0 -0.24408791198E+02 -0.29863544972E+02 -0.99187351515E+01  0.39824777175E+02  0.10566000000E+00 0.  1.
         22    1    1    0    0    0 -0.80276852556E+01 -0.16645380044E+02  0.20384745248E+02  0.27514546084E+02  0.00000000000E+00 0. -1.
</event>
<event>
 5    1  0.8943334E-005  0.9118800E+02  0.7818608E-02  0.1130116E+00
         25   -1    0    0    0    0  0.00000000000E+00  0.00000000000E+00  0.99999998245E-14  0.12500000000E+03  0.12500000000E+03 0.  0.
        -13    1    3    3    0    0  0.42802041004E+02  0.71578145042E+01  0.34021303742E+02  0.55142626841E+02  0.10566000000E+00 0. -1.
         23    2    1    0    0    0  0.24335138395E+02  0.17603751341E+02  0.32351573000E+00  0.94963427552E+02  0.90088050751E+02 0.  0.
         13    1    3    3    0    0 -0.18466902609E+02  0.10445936836E+02 -0.33697788012E+02  0.39820800711E+02  0.10566000000E+00 0.  1.
         22    1    1    0    0    0 -0.24335138395E+02 -0.17603751341E+02 -0.32351573000E+00  0.30036572448E+02  0.00000000000E+00 0. -1.
</event>
<event>
 5    1  0.8943334E-005  0.9118800E+02  0.7818608E-02  0.1130116E+00
         25   -1    0    0    0    0  0.00000000000E+00  0.00000000000E+00  0.99999998245E-14  0.12500000000E+03  0.12500000000E+03 0.  0.
        -13    1    3    3    0    0 -0.10273623289E+02 -0.10888215998E+02 -0.40399526069E+02  0.43084027827E+02  0.10566000000E+00 0.  1.
         23    2    1    0    0    0  0.13748092527E+02  0.24668450648E+02 -0.13828713573E+02  0.93555193996E+02  0.88112419664E+02 0.  0.
         13    1    3    3    0    0  0.24021715816E+02  0.35556666647E+02  0.26570812496E+02  0.50471166170E+02  0.10566000000E+00 0. -1.
         22    1    1    0    0    0 -0.13748092527E+02 -0.24668450648E+02  0.13828713573E+02  0.31444806004E+02  0.00000000000E+00 0. -1.
</event>
<event>
 5    1  0.8943334E-005  0.9118800E+02  0.7818608E-02  0.1130116E+00
         25   -1    0    0    0    0  0.00000000000E+00  0.00000000000E+00  0.99999998245E-14  0.12500000000E+03  0.12500000000E+03 0.  0.
        -13    1    3    3    0    0 -0.15096553331E+02  0.27090723168E+01 -0.24556701260E+02  0.28953199065E+02  0.10566000000E+00 0. -1.
         23    2    1    0    0    0  0.24451412613E+02 -0.11597331704E+02  0.20844851783E+02  0.90840410903E+02  0.84173052254E+02 0.  0.
         13    1    3    3    0    0  0.39547965944E+02 -0.14306404021E+02  0.45401553043E+02  0.61887211838E+02  0.10566000000E+00 0.  1.
         22    1    1    0    0    0 -0.24451412613E+02  0.11597331704E+02 -0.20844851783E+02  0.34159589097E+02  0.00000000000E+00 0.  1.
</event>
<event>
 5    1  0.8943334E-005  0.9118800E+02  0.7818608E-02  0.1130116E+00
         25   -1    0    0    0    0  0.00000000000E+00  0.00000000000E+00  0.99999998245E-14  0.12500000000E+03  0.12500000000E+03 0.  0.
        -13    1    3    3    0    0  0.15805291088E+02  0.23240079494E+02 -0.28358243782E+02  0.39926303055E+02  0.10566000000E+00 0.  1.
         23    2    1    0    0    0  0.10767080347E+02 -0.26918678039E+02 -0.46386108092E+01  0.95639108379E+02  0.91020750902E+02 0.  0.
         13    1    3    3    0    0 -0.50382107407E+01 -0.50158757532E+02  0.23719632973E+02  0.55712805324E+02  0.10566000000E+00 0. -1.
         22    1    1    0    0    0 -0.10767080347E+02  0.26918678039E+02  0.46386108092E+01  0.29360891621E+02  0.00000000000E+00 0. -1.
</event>
<event>
 5    1  0.8943334E-005  0.9118800E+02  0.7818608E-02  0.1130116E+00
         25   -1    0    0    0    0  0.00000000000E+00  0.00000000000E+00  0.99999998245E-14  0.12500000000E+03  0.12500000000E+03 0.  0.
        -13    1    3    3    0    0 -0.23433212548E+02 -0.20666836922E+02  0.50434409763E+02  0.59328529822E+02  0.10566000000E+00 0.  1.
         23    2    1    0    0    0 -0.21047333905E+02 -0.13580209180E+02  0.14448253373E+02  0.96083493099E+02  0.91628998001E+02 0.  0.
         13    1    3    3    0    0  0.23858786437E+01  0.70866277425E+01 -0.35986156390E+02  0.36754963276E+02  0.10566000000E+00 0. -1.
         22    1    1    0    0    0  0.21047333905E+02  0.13580209180E+02 -0.14448253373E+02  0.28916506901E+02  0.00000000000E+00 0.  1.
</event>
<event>
 5    1  0.8943334E-005  0.9118800E+02  0.7818608E-02  0.1130116E+00
         25   -1    0    0    0    0  0.00000000000E+00  0.00000000000E+00  0.99999998245E-14  0.12500000000E+03  0.12500000000E+03 0.  0.
        -13    1    3    3    0    0  0.21637554624E+02 -0.14564965816E+02  0.53959898001E+02  0.59933327587E+02  0.10566000000E+00 0.  1.
         23    2    1    0    0    0  0.39890443170E+01  0.33335027609E+01  0.29635259290E+02  0.94912239890E+02  0.90016998243E+02 0.  0.
         13    1    3    3    0    0 -0.17648510307E+02  0.17898468577E+02 -0.24324638711E+02  0.34978912303E+02  0.10566000000E+00 0. -1.
         22    1    1    0    0    0 -0.39890443170E+01 -0.33335027609E+01 -0.29635259290E+02  0.30087760110E+02  0.00000000000E+00 0.  1.
</event>
<event>
 5    1  0.8943334E-005  0.9118800E+02  0.7818608E-02  0.1130116E+00
         25   -1    0    0    0    0  0.00000000000E+00  0.00000000000E+00  0.99999998245E-14  0.12500000000E+03  0.12500000000E+03 0.  0.
        -13    1    3    3    0    0 -0.30432417626E+02  0.25918726696E+02  0.25073553593E+02  0.47186933466E+02  0.10566000000E+00 0. -1.
         23    2    1    0    0    0  0.11872405743E+02  0.27549541977E+01  0.26915627779E+02  0.95453514431E+02  0.90765514419E+02 0.  0.
         13    1    3    3    0    0  0.42304823369E+02 -0.23163772499E+02  0.18420741859E+01  0.48266580965E+02  0.10566000000E+00 0.  1.
         22    1    1    0    0    0 -0.11872405743E+02 -0.27549541977E+01 -0.26915627779E+02  0.29546485569E+02  0.00000000000E+00 0.  1.
</event>
<event>
 5    1  0.8943334E-005  0.9118800E+02  0.7818608E-02  0.1130116E+00
         25   -1    0    0    0    0  0.00000000000E+00  0.00000000000E+00  0.99999998245E-14  0.12500000000E+03  0.12500000000E+03 0.  0.
        -13    1    3    3    0    0  0.15927969497E+02  0.31784518045E+02  0.14482222661E+02  0.38388823073E+02  0.10566000000E+00 0.  1.
         23    2    1    0    0    0 -0.15294965912E+02 -0.12851134236E+02  0.24092656812E+02  0.93702336419E+02  0.88320915443E+02 0.  0.
         13    1    3    3    0    0 -0.31222935409E+02 -0.44635652281E+02  0.96104341506E+01  0.55313513346E+02  0.10566000000E+00 0. -1.
         22    1    1    0    0    0  0.15294965912E+02  0.12851134236E+02 -0.24092656812E+02  0.31297663581E+02  0.00000000000E+00 0. -1.
</event>
<event>
 5    1  0.8943334E-005  0.9118800E+02  0.7818608E-02  0.1130116E+00
         25   -1    0    0    0    0  0.00000000000E+00  0.00000000000E+00  0.99999998245E-14  0.12500000000E+03  0.12500000000E+03 0.  0.
        -13    1    3    3    0    0 -0.27366212013E+02 -0.18080435084E+02 -0.34349538114E+02  0.47494353616E+02  0.10566000000E+00 0. -1.
         23    2    1    0    0    0 -0.51774881626E+01  0.21814860835E+02 -0.18860997562E+02  0.95700993772E+02  0.91105699289E+02 0.  0.
         13    1    3    3    0    0  0.22188723850E+02  0.39895295919E+02  0.15488540552E+02  0.48206640155E+02  0.10566000000E+00 0.  1.
         22    1    1    0    0    0  0.51774881626E+01 -0.21814860835E+02  0.18860997562E+02  0.29299006228E+02  0.00000000000E+00 0. -1.
</event>
<event>
 5    1  0.8943334E-005  0.9118800E+02  0.7818608E-02  0.1130116E+00
         25   -1    0    0    0    0  0.00000000000E+00  0.00000000000E+00  0.99999998245E-14  0.12500000000E+03  0.12500000000E+03 0.  0.
        -13    1    3    3    0    0  0.18026915365E+02  0.58413207210E+02  0.46454806804E+01  0.61307944909E+02  0.10566000000E+00 0. -1.
         23    2    1    0    0    0  0.46367927245E+01  0.26351458082E+02  0.99446154555E+01  0.96455393393E+02  0.92134946400E+02 0.  0.
         13    1    3    3    0    0 -0.13390122641E+02 -0.32061749128E+02  0.52991347751E+01  0.35147448484E+02  0.10566000000E+00 0.  1.
         22    1    1    0    0    0 -0.46367927245E+01 -0.26351458082E+02 -0.99446154555E+01  0.28544606607E+02  0.00000000000E+00 0. -1.
</event>
<event>
 5    1  0.8943334E-005  0.9118800E+02  0.7818608E-02  0.1130116E+00
         25   -1    0    0    0    0  0.00000000000E+00  0.00000000000E+00  0.99999998245E-14  0.12500000000E+03  0.12500000000E+03 0.  0.
        -13    1    3    3    0    0 -0.11479290640E+02  0.35806344536E+02 -0.62759970664E+01  0.38121748725E+02  0.10566000000E+00 0.  1.
         23    2    1    0    0    0 -0.92624441527E+01 -0.12177314039E+02  0.25177446390E+02  0.95538437658E+02  0.90882393314E+02 0.  0.
         13    1    3    3    0    0  0.22168464878E+01 -0.47983658576E+02  0.31453443457E+02  0.57416688933E+02  0.10566000000E+00 0. -1.
         22    1    1    0    0    0  0.92624441527E+01  0.12177314039E+02 -0.25177446390E+02  0.29461562342E+02  0.00000000000E+00 0. -1.
</event>
<event>
 5    1  0.8943334E-005  0.9118800E+02  0.7818608E-02  0.1130116E+00
         25   -1    0    0    0    0  0.00000000000E+00  0.00000000000E+00  0.99999998245E-14  0.12500000000E+03  0.12500000000E+03 0.  0.
        -13    1    3    3    0    0  0.42180660934E+02 -0.36774409817E+01  0.27472926161E+02  0.50472810155E+02  0.10566000000E+00 0.  1.
         23    2    1    0    0    0  0.30853902118E+01 -0.23850502868E+02  0.16564086011E+02  0.95798372216E+02  0.91239207877E+02 0.  0.
         13    1    3    3    0    0 -0.39095270723E+02 -0.20173061887E+02 -0.10908840150E+02  0.45325562062E+02  0.10566000000E+00 0. -1.
         22    1    1    0    0    0 -0.30853902118E+01  0.23850502868E+02 -0.16564086011E+02  0.29201627784E+02  0.00000000000E+00 0.  1.
</event>
<event>
 5    1  0.8943334E-005  0.9118800E+02  0.7818608E-02  0.1130116E+00
         25   -1    0    0    0    0  0.00000000000E+00  0.00000000000E+00  0.99999998245E-14  0.12500000000E+03  0.12500000000E+03 0.  0.
        -13    1    3    3    0    0  0.16511922522E+02 -0.74425639132E+01  0.28544639164E+02  0.33805960007E+02  0.10566000000E+00 0.  1.
         23    2    1    0    0    0 -0.21988138916E+02  0.29694959495E+01 -0.18947039008E+02  0.95823186494E+02  0.91273197728E+02 0.  0.
         13    1    3    3    0    0 -0.38500061439E+02  0.10412059863E+02 -0.47491678172E+02  0.62017226486E+02  0.10566000000E+00 0. -1.
         22    1    1    0    0    0  0.21988138916E+02 -0.29694959495E+01  0.18947039008E+02  0.29176813506E+02  0.00000000000E+00 0. -1.
</event>
<event>
 5    1  0.8943334E-005  0.9118800E+02  0.7818608E-02  0.1130116E+00
         25   -1    0    0    0    0  0.00000000000E+00  0.00000000000E+00  0.99999998245E-14  0.12500000000E+03  0.12500000000E+03 0.  0.
        -13    1    3    3    0    0 -0.13641744141E+02 -0.85757115093E+01 -0.40239672871E+02  0.43346077653E+02  0.10566000000E+00 0. -1.
         23    2    1    0    0    0 -0.17766694864E+01 -0.27477259549E+02  0.78553583204E+01  0.96366750077E+02  0.92014604924E+02 0.  0.
         13    1    3    3    0    0  0.11865074655E+02 -0.18901548040E+02  0.48095031192E+02  0.53020672424E+02  0.10566000000E+00 0.  1.
         22    1    1    0    0    0  0.17766694864E+01  0.27477259549E+02 -0.78553583204E+01  0.28633249923E+02  0.00000000000E+00 0.  1.
</event>
<event>
 5    1  0.8943334E-005  0.9118800E+02  0.7818608E-02  0.1130116E+00
         25   -1    0    0    0    0  0.00000000000E+00  0.00000000000E+00  0.99999998245E-14  0.12500000000E+03  0.12500000000E+03 0.  0.
        -13    1    3    3    0    0 -0.42249313504E+02 -0.21535190500E+02  0.24419899954E+02  0.53339587542E+02  0.10566000000E+00 0.  1.
         23    2    1    0    0    0 -0.67525445310E+01  0.27898258316E+01  0.27562095110E+02  0.96485984628E+02  0.92176440357E+02 0.  0.
         13    1    3    3    0    0  0.35496768973E+02  0.24325016331E+02  0.31421951561E+01  0.43146397086E+02  0.10566000000E+00 0. -1.
         22    1    1    0    0    0  0.67525445310E+01 -0.27898258316E+01 -0.27562095110E+02  0.28514015372E+02  0.00000000000E+00 0.  1.
</event>
<event>
 5    1  0.8943334E-005  0.9118800E+02  0.7818608E-02  0.1130116E+00
         25   -1    0    0    0    0  0.00000000000E+00  0.00000000000E+00  0.99999998245E-14  0.12500000000E+03  0.12500000000E+03 0.  0.
        -13    1    3    3    0    0 -0.21925586537E+02  0.24923275318E+02  0.22245354722E+01  0.33269516373E+02  0.10566000000E+00 0.  1.
         23    2    1    0    0    0  0.12300602094E+02 -0.25062466496E+02  0.11960529366E+02  0.94627540412E+02  0.89620784994E+02 0.  0.
         13    1    3    3    0    0  0.34226188631E+02 -0.49985741814E+02  0.97359938937E+01  0.61358024039E+02  0.10566000000E+00 0. -1.
         22    1    1    0    0    0 -0.12300602094E+02  0.25062466496E+02 -0.11960529366E+02  0.30372459588E+02  0.00000000000E+00 0. -1.
</event>
<event>
 5    1  0.8943334E-005  0.9118800E+02  0.7818608E-02  0.1130116E+00
         25   -1    0    0    0    0  0.00000000000E+00  0.00000000000E+00  0.99999998245E-14  0.12500000000E+03  0.12500000000E+03 0.  0.
        -13    1    3    3    0    0 -0.15716181284E+02  0.11648188862E+02  0.27104392420E+02  0.33426604829E+02  0.10566000000E+00 0. -1.
         23    2    1    0    0    0  0.24935041125E+02 -0.15769162067E+02 -0.88147291875E+01  0.94208407010E+02  0.89034272910E+02 0.  0.
         13    1    3    3    0    0  0.40651222409E+02 -0.27417350929E+02 -0.35919121607E+02  0.60781802181E+02  0.10566000000E+00 0.  1.
         22    1    1    0    0    0 -0.24935041125E+02  0.15769162067E+02  0.88147291875E+01  0.30791592990E+02  0.00000000000E+00 0.  1.
</event>
<event>
 5    1  0.8943334E-005  0.9118800E+02  0.7818608E-02  0.1130116E+00
         25   -1    0    0    0    0  0.00000000000E+00  0.00000000000E+00  0.99999998245E-14  0.12500000000E+03  0.12500000000E+03 0.  0.
        -13    1    3    3    0    0 -0.16226304931E+02 -0.45695874765E+02 -0.82782717579E+01  0.49192955691E+02  0.10566000000E+00 0.  1.
         23    2    1    0    0    0 -0.24462414211E+02  0.15528546824E+01 -0.12765012464E+02  0.97363672279E+02  0.93359081346E+02 0.  0.
         13    1    3    3    0    0 -0.82361092794E+01  0.47248729447E+02 -0.44867407065E+01  0.48170716589E+02  0.10566000000E+00 0. -1.
         22    1    1    0    0    0  0.24462414211E+02 -0.15528546824E+01  0.12765012464E+02  0.27636327721E+02  0.00000000000E+00 0. -1.
</event>
<event>
 5    1  0.8943334E-005  0.9118800E+02  0.7818608E-02  0.1130116E+00
         25   -1    0    0    0    0  0.00000000000E+00  0.00000000000E+00  0.99999998245E-14  0.12500000000E+03  0.12500000000E+03 0.  0.
        -13    1    3    3    0    0 -0.19462687333E+02  0.26791927333E+02 -0.17537594107E+02  0.37472415716E+02  0.10566000000E+00 0.  1.
         23    2    1    0    0    0  0.15276022105E+02  0.20726511574E+01  0.23660261960E+02  0.96760652801E+02  0.92548166921E+02 0.  0.
         13    1    3    3    0    0  0.34738709438E+02 -0.24719276176E+02  0.41197856068E+02  0.59288237086E+02  0.10566000000E+00 0. -1.
         22    1    1    0    0    0 -0.15276022105E+02 -0.20726511574E+01 -0.23660261960E+02  0.28239347199E+02  0.00000000000E+00 0. -1.
</event>
<event>
 5    1  0.8943334E-005  0.9118800E+02  0.7818608E-02  0.1130116E+00
         25   -1    0    0    0    0  0.00000000000E+00  0.00000000000E+00  0.99999998245E-14  0.12500000000E+03  0.12500000000E+03 0.  0.
        -13    1    3    3    0    0 -0.96631902087E+00  0.36919211812E+02 -0.44245517572E+02  0.57633661713E+02  0.10566000000E+00 0.  1.
         23    2    1    0    0    0  0.15901063685E+02  0.10777325544E+02 -0.21472531592E+02  0.96189165490E+02  0.91773042733E+02 0.  0.
         13    1    3    3    0    0  0.16867382706E+02 -0.26141886268E+02  0.22772985979E+02  0.38555503776E+02  0.10566000000E+00 0. -1.
         22    1    1    0    0    0 -0.15901063685E+02 -0.10777325544E+02  0.21472531592E+02  0.28810834510E+02  0.00000000000E+00 0.  1.
</event>
<event>
 5    1  0.8943334E-005  0.9118800E+02  0.7818608E-02  0.1130116E+00
         25   -1    0    0    0    0  0.00000000000E+00  0.00000000000E+00  0.99999998245E-14  0.12500000000E+03  0.12500000000E+03 0.  0.
        -13    1    3    3    0    0  0.10657948040E+02  0.36230298923E+02 -0.19917866106E+02  0.42696123603E+02  0.10566000000E+00 0.  1.
         23    2    1    0    0    0 -0.13685245131E+02  0.15524069979E+02  0.21597631011E+02  0.95087789311E+02  0.90260441656E+02 0.  0.
         13    1    3    3    0    0 -0.24343193171E+02 -0.20706228943E+02  0.41515497117E+02  0.52391665708E+02  0.10566000000E+00 0. -1.
         22    1    1    0    0    0  0.13685245131E+02 -0.15524069979E+02 -0.21597631011E+02  0.29912210689E+02  0.00000000000E+00 0.  1.
</event>
<event>
 5    1  0.8943334E-005  0.9118800E+02  0.7818608E-02  0.1130116E+00
         25   -1    0    0    0    0  0.00000000000E+00  0.00000000000E+00  0.99999998245E-14  0.12500000000E+03  0.12500000000E+03 0.  0.
        -13    1    3    3    0    0 -0.49700651584E+02  0.33475190302E+02  0.11676633564E+02  0.61049963711E+02  0.10566000000E+00 0. -1.
         23    2    1    0    0    0 -0.24803412507E+02  0.27669708913E+02  0.47412655322E+01  0.87539331798E+02  0.79119106096E+02 0.  0.
         13    1    3    3    0    0  0.24897239078E+02 -0.58054813895E+01 -0.69353680320E+01  0.26489368087E+02  0.10566000000E+00 0.  1.
         22    1    1    0    0    0  0.24803412507E+02 -0.27669708913E+02 -0.47412655322E+01  0.37460668202E+02  0.00000000000E+00 0. -1.
</event>
<event>
 5    1  0.8943334E-005  0.9118800E+02  0.7818608E-02  0.1130116E+00
         25   -1    0    0    0    0  0.00000000000E+00  0.00000000000E+00  0.99999998245E-14  0.12500000000E+03  0.12500000000E+03 0.  0.
        -13    1    3    3    0    0 -0.92577038446E+01  0.47343777818E+02  0.14357565157E+02  0.50331791344E+02  0.10566000000E+00 0.  1.
         23    2    1    0    0    0  0.22755142276E+02  0.16101200955E+02  0.10435463662E+02  0.95235187317E+02  0.90464340098E+02 0.  0.
         13    1    3    3    0    0  0.32012846120E+02 -0.31242576863E+02 -0.39221014945E+01  0.44903395974E+02  0.10566000000E+00 0. -1.
         22    1    1    0    0    0 -0.22755142276E+02 -0.16101200955E+02 -0.10435463662E+02  0.29764812683E+02  0.00000000000E+00 0.  1.
</event>
<event>
 5    1  0.8943334E-005  0.9118800E+02  0.7818608E-02  0.1130116E+00
         25   -1    0    0    0    0  0.00000000000E+00  0.00000000000E+00  0.99999998245E-14  0.12500000000E+03  0.12500000000E+03 0.  0.
        -13    1    3    3    0    0 -0.24015078552E+02  0.28670379610E+02 -0.26586400016E+02  0.45886408605E+02  0.10566000000E+00 0.  1.
         23    2    1    0    0    0 -0.24470093573E+02 -0.14399981760E+02  0.19544413723E+00  0.96606635413E+02  0.92339909320E+02 0.  0.
         13    1    3    3    0    0 -0.45501502065E+00 -0.43070361370E+02  0.26781844153E+02  0.50720226808E+02  0.10566000000E+00 0. -1.
         22    1    1    0    0    0  0.24470093573E+02  0.14399981760E+02 -0.19544413723E+00  0.28393364587E+02  0.00000000000E+00 0. -1.
</event>
<event>
 5    1  0.8943334E-005  0.9118800E+02  0.7818608E-02  0.1130116E+00
         25   -1    0    0    0    0  0.00000000000E+00  0.00000000000E+00  0.99999998245E-14  0.12500000000E+03  0.12500000000E+03 0.  0.
        -13    1    3    3    0    0 -0.29337678862E+01 -0.10570708247E+02 -0.54375681003E+02  0.55471368429E+02  0.10566000000E+00 0.  1.
         23    2    1    0    0    0  0.13213701988E+02 -0.18568565435E+02 -0.18394755675E+02  0.95712450104E+02  0.91121416397E+02 0.  0.
         13    1    3    3    0    0  0.16147469874E+02 -0.79978571880E+01  0.35980925327E+02  0.40241081675E+02  0.10566000000E+00 0. -1.
         22    1    1    0    0    0 -0.13213701988E+02  0.18568565435E+02  0.18394755675E+02  0.29287549896E+02  0.00000000000E+00 0.  1.
</event>
<event>
 5    1  0.8943334E-005  0.9118800E+02  0.7818608E-02  0.1130116E+00
         25   -1    0    0    0    0  0.00000000000E+00  0.00000000000E+00  0.99999998245E-14  0.12500000000E+03  0.12500000000E+03 0.  0.
        -13    1    3    3    0    0  0.58320462213E+02 -0.70256323372E+01 -0.73026071755E+01  0.59194383670E+02  0.10566000000E+00 0.  1.
         23    2    1    0    0    0  0.24131857039E+02 -0.16978882069E+02 -0.25918648677E+00  0.95492439306E+02  0.90819104964E+02 0.  0.
         13    1    3    3    0    0 -0.34188605174E+02 -0.99532497318E+01  0.70434206887E+01  0.36298055636E+02  0.10566000000E+00 0. -1.
         22    1    1    0    0    0 -0.24131857039E+02  0.16978882069E+02  0.25918648677E+00  0.29507560694E+02  0.00000000000E+00 0.  1.
</event>
<event>
 5    1  0.8943334E-005  0.9118800E+02  0.7818608E-02  0.1130116E+00
         25   -1    0    0    0    0  0.00000000000E+00  0.00000000000E+00  0.99999998245E-14  0.12500000000E+03  0.12500000000E+03 0.  0.
        -13    1    3    3    0    0 -0.65402178196E+01  0.34855783976E+02 -0.42468723592E+02  0.55329049995E+02  0.10566000000E+00 0.  1.
         23    2    1    0    0    0 -0.96179813997E+01 -0.24029751461E+01 -0.27792460219E+02  0.95492361993E+02  0.90818998553E+02 0.  0.
         13    1    3    3    0    0 -0.30777635802E+01 -0.37258759122E+02  0.14676263374E+02  0.40163311998E+02  0.10566000000E+00 0. -1.
         22    1    1    0    0    0  0.96179813997E+01  0.24029751461E+01  0.27792460219E+02  0.29507638007E+02  0.00000000000E+00 0.  1.
</event>
<event>
 5    1  0.8943334E-005  0.9118800E+02  0.7818608E-02  0.1130116E+00
         25   -1    0    0    0    0  0.00000000000E+00  0.00000000000E+00  0.99999998245E-14  0.12500000000E+03  0.12500000000E+03 0.  0.
        -13    1    3    3    0    0  0.14532276875E+02  0.27064608944E+02 -0.31504562174E+02  0.44002599131E+02  0.10566000000E+00 0. -1.
         23    2    1    0    0    0 -0.10635934643E+02  0.23682738682E+02  0.13545618852E+02  0.95717257517E+02  0.91128010948E+02 0.  0.
         13    1    3    3    0    0 -0.25168211518E+02 -0.33818702617E+01  0.45050181026E+02  0.51714658387E+02  0.10566000000E+00 0.  1.
         22    1    1    0    0    0  0.10635934643E+02 -0.23682738682E+02 -0.13545618852E+02  0.29282742483E+02  0.00000000000E+00 0.  1.
</event>
<event>
 5    1  0.8943334E-005  0.9118800E+02  0.7818608E-02  0.1130116E+00
         25   -1    0    0    0    0  0.00000000000E+00  0.00000000000E+00  0.99999998245E-14  0.12500000000E+03  0.12500000000E+03 0.  0.
        -13    1    3    3    0    0  0.27333133159E+02  0.20987405071E+02  0.27756923008E+02  0.44249624617E+02  0.10566000000E+00 0.  1.
         23    2    1    0    0    0 -0.14814043637E+02  0.23237474093E+02 -0.41118964685E+01  0.97137053571E+02  0.93055163171E+02 0.  0.
         13    1    3    3    0    0 -0.42147176796E+02  0.22500690225E+01 -0.31868819477E+02  0.52887428954E+02  0.10566000000E+00 0. -1.
         22    1    1    0    0    0  0.14814043637E+02 -0.23237474093E+02  0.41118964685E+01  0.27862946429E+02  0.00000000000E+00 0. -1.
</event>
<event>
 5    1  0.8943334E-005  0.9118800E+02  0.7818608E-02  0.1130116E+00
         25   -1    0    0    0    0  0.00000000000E+00  0.00000000000E+00  0.99999998245E-14  0.12500000000E+03  0.12500000000E+03 0.  0.
        -13    1    3    3    0    0 -0.49103312555E+02 -0.27174828456E+02 -0.20008810262E+02  0.59581626846E+02  0.10566000000E+00 0. -1.
         23    2    1    0    0    0 -0.21652009947E+02 -0.18908986476E+02  0.26610074909E+01  0.96130634486E+02  0.91693285586E+02 0.  0.
         13    1    3    3    0    0  0.27451302608E+02  0.82658419801E+01  0.22669817753E+02  0.36549007640E+02  0.10566000000E+00 0.  1.
         22    1    1    0    0    0  0.21652009947E+02  0.18908986476E+02 -0.26610074909E+01  0.28869365514E+02  0.00000000000E+00 0. -1.
</event>
<event>
 5    1  0.8943334E-005  0.9118800E+02  0.7818608E-02  0.1130116E+00
         25   -1    0    0    0    0  0.00000000000E+00  0.00000000000E+00  0.99999998245E-14  0.12500000000E+03  0.12500000000E+03 0.  0.
        -13    1    3    3    0    0 -0.12529585846E+01  0.15261411708E+02 -0.37051018602E+02  0.40090768713E+02  0.10566000000E+00 0.  1.
         23    2    1    0    0    0 -0.46277628631E+01  0.23199360357E+02  0.17660713423E+02  0.95478358639E+02  0.90799722795E+02 0.  0.
         13    1    3    3    0    0 -0.33748042786E+01  0.79379486487E+01  0.54711732024E+02  0.55387589926E+02  0.10566000000E+00 0. -1.
         22    1    1    0    0    0  0.46277628631E+01 -0.23199360357E+02 -0.17660713423E+02  0.29521641361E+02  0.00000000000E+00 0. -1.
</event>
<event>
 5    1  0.8943334E-005  0.9118800E+02  0.7818608E-02  0.1130116E+00
         25   -1    0    0    0    0  0.00000000000E+00  0.00000000000E+00  0.99999998245E-14  0.12500000000E+03  0.12500000000E+03 0.  0.
        -13    1    3    3    0    0  0.32782335742E+02  0.12461129697E+02  0.15540231592E+01  0.35105376255E+02  0.10566000000E+00 0. -1.
         23    2    1    0    0    0 -0.20167832641E+02 -0.16581488565E+02 -0.10795195616E+02  0.96747150854E+02  0.92529928745E+02 0.  0.
         13    1    3    3    0    0 -0.52950168383E+02 -0.29042618262E+02 -0.12349218775E+02  0.61641774599E+02  0.10566000000E+00 0.  1.
         22    1    1    0    0    0  0.20167832641E+02  0.16581488565E+02  0.10795195616E+02  0.28252849146E+02  0.00000000000E+00 0.  1.
</event>
<event>
 5    1  0.8943334E-005  0.9118800E+02  0.7818608E-02  0.1130116E+00
         25   -1    0    0    0    0  0.00000000000E+00  0.00000000000E+00  0.99999998245E-14  0.12500000000E+03  0.12500000000E+03 0.  0.
        -13    1    3    3    0    0 -0.46876439113E+02  0.28028639592E+02 -0.40442873805E+00  0.54618494194E+02  0.10566000000E+00 0. -1.
         23    2    1    0    0    0 -0.11167292157E+02  0.18953290353E+02 -0.19038493394E+02  0.95907047932E+02  0.91387975045E+02 0.  0.
         13    1    3    3    0    0  0.35709146956E+02 -0.90753492386E+01 -0.18634064656E+02  0.41288553738E+02  0.10566000000E+00 0.  1.
         22    1    1    0    0    0  0.11167292157E+02 -0.18953290353E+02  0.19038493394E+02  0.29092952068E+02  0.00000000000E+00 0. -1.
</event>
<event>
 5    1  0.8943334E-005  0.9118800E+02  0.7818608E-02  0.1130116E+00
         25   -1    0    0    0    0  0.00000000000E+00  0.00000000000E+00  0.99999998245E-14  0.12500000000E+03  0.12500000000E+03 0.  0.
        -13    1    3    3    0    0  0.16316956722E+02  0.27611154006E+01 -0.43495825812E+02  0.46537778869E+02  0.10566000000E+00 0. -1.
         23    2    1    0    0    0 -0.97051970287E+01 -0.24829567080E+02 -0.12324776528E+02  0.95629975022E+02  0.91008207077E+02 0.  0.
         13    1    3    3    0    0 -0.26022153750E+02 -0.27590682481E+02  0.31171049285E+02  0.49092196153E+02  0.10566000000E+00 0.  1.
         22    1    1    0    0    0  0.97051970287E+01  0.24829567080E+02  0.12324776528E+02  0.29370024978E+02  0.00000000000E+00 0. -1.
</event>
<event>
 5    1  0.8943334E-005  0.9118800E+02  0.7818608E-02  0.1130116E+00
         25   -1    0    0    0    0  0.00000000000E+00  0.00000000000E+00  0.99999998245E-14  0.12500000000E+03  0.12500000000E+03 0.  0.
        -13    1    3    3    0    0  0.28671571801E+02 -0.16668954841E+02 -0.31536472592E+02  0.45765416557E+02  0.10566000000E+00 0.  1.
         23    2    1    0    0    0 -0.11195765546E+01 -0.28845546942E+02  0.63153910915E+01  0.95449988246E+02  0.90760658115E+02 0.  0.
         13    1    3    3    0    0 -0.29791148356E+02 -0.12176592101E+02  0.37851863684E+02  0.49684571689E+02  0.10566000000E+00 0. -1.
         22    1    1    0    0    0  0.11195765546E+01  0.28845546942E+02 -0.63153910915E+01  0.29550011754E+02  0.00000000000E+00 0. -1.
</event>
<event>
 5    1  0.8943334E-005  0.9118800E+02  0.7818608E-02  0.1130116E+00
         25   -1    0    0    0    0  0.00000000000E+00  0.00000000000E+00  0.99999998245E-14  0.12500000000E+03  0.12500000000E+03 0.  0.
        -13    1    3    3    0    0 -0.11865089805E+02 -0.22141643330E+02 -0.12240180339E+02  0.27943977960E+02  0.10566000000E+00 0. -1.
         23    2    1    0    0    0  0.26489491620E+02  0.24365782585E+02 -0.51327249692E+01  0.88644403555E+02  0.80846155683E+02 0.  0.
         13    1    3    3    0    0  0.38354581426E+02  0.46507425915E+02  0.71074553702E+01  0.60700425595E+02  0.10566000000E+00 0.  1.
         22    1    1    0    0    0 -0.26489491620E+02 -0.24365782585E+02  0.51327249692E+01  0.36355596445E+02  0.00000000000E+00 0.  1.
</event>
<event>
 5    1  0.8943334E-005  0.9118800E+02  0.7818608E-02  0.1130116E+00
         25   -1    0    0    0    0  0.00000000000E+00  0.00000000000E+00  0.99999998245E-14  0.12500000000E+03  0.12500000000E+03 0.  0.
        -13    1    3    3    0    0  0.34409837802E+02  0.12033020002E+02  0.49125447532E+02  0.61173125367E+02  0.10566000000E+00 0. -1.
         23    2    1    0    0    0  0.19686502077E+02  0.11185580713E+02  0.16480281414E+02  0.96995085156E+02  0.92864262712E+02 0.  0.
         13    1    3    3    0    0 -0.14723335724E+02 -0.84743928935E+00 -0.32645166118E+02  0.35821959789E+02  0.10566000000E+00 0.  1.
         22    1    1    0    0    0 -0.19686502077E+02 -0.11185580713E+02 -0.16480281414E+02  0.28004914844E+02  0.00000000000E+00 0. -1.
</event>
<event>
 5    1  0.8943334E-005  0.9118800E+02  0.7818608E-02  0.1130116E+00
         25   -1    0    0    0    0  0.00000000000E+00  0.00000000000E+00  0.99999998245E-14  0.12500000000E+03  0.12500000000E+03 0.  0.
        -13    1    3    3    0    0 -0.14674494386E+02 -0.32439762576E+02 -0.20863354137E+02  0.41267053340E+02  0.10566000000E+00 0.  1.
         23    2    1    0    0    0 -0.10727299819E+02 -0.45789103182E+01  0.26324070990E+02  0.96207672991E+02  0.91798247520E+02 0.  0.
         13    1    3    3    0    0  0.39471945675E+01  0.27860852258E+02  0.47187425127E+02  0.54940619651E+02  0.10566000000E+00 0. -1.
         22    1    1    0    0    0  0.10727299819E+02  0.45789103182E+01 -0.26324070990E+02  0.28792327009E+02  0.00000000000E+00 0.  1.
</event>
<event>
 5    1  0.8943334E-005  0.9118800E+02  0.7818608E-02  0.1130116E+00
         25   -1    0    0    0    0  0.00000000000E+00  0.00000000000E+00  0.99999998245E-14  0.12500000000E+03  0.12500000000E+03 0.  0.
        -13    1    3    3    0    0  0.21212854555E+01 -0.28528935260E+01 -0.36451253834E+02  0.36624362432E+02  0.10566000000E+00 0. -1.
         23    2    1    0    0    0  0.24870750210E+02 -0.64612537600E+01  0.16564202966E+02  0.94427547759E+02  0.89341406636E+02 0.  0.
         13    1    3    3    0    0  0.22749464754E+02 -0.36083602340E+01  0.53015456800E+02  0.57803185327E+02  0.10566000000E+00 0.  1.
         22    1    1    0    0    0 -0.24870750210E+02  0.64612537600E+01 -0.16564202966E+02  0.30572452241E+02  0.00000000000E+00 0.  1.
</event>
<event>
 5    1  0.8943334E-005  0.9118800E+02  0.7818608E-02  0.1130116E+00
         25   -1    0    0    0    0  0.00000000000E+00  0.00000000000E+00  0.99999998245E-14  0.12500000000E+03  0.12500000000E+03 0.  0.
        -13    1    3    3    0    0  0.47507683283E+02  0.17431175706E+02 -0.78995076662E+01  0.51217567717E+02  0.10566000000E+00 0.  1.
         23    2    1    0    0    0  0.27440286374E+01  0.20221810813E+02 -0.18667422656E+02  0.97342740658E+02  0.93331051448E+02 0.  0.
         13    1    3    3    0    0 -0.44763654646E+02  0.27906351066E+01 -0.10767914989E+02  0.46125172941E+02  0.10566000000E+00 0. -1.
         22    1    1    0    0    0 -0.27440286374E+01 -0.20221810813E+02  0.18667422656E+02  0.27657259342E+02  0.00000000000E+00 0.  1.
</event>
<event>
 5    1  0.8943334E-005  0.9118800E+02  0.7818608E-02  0.1130116E+00
         25   -1    0    0    0    0  0.00000000000E+00  0.00000000000E+00  0.99999998245E-14  0.12500000000E+03  0.12500000000E+03 0.  0.
        -13    1    3    3    0    0  0.34480132245E+02  0.26801986713E+02  0.44285756383E+02  0.62196988624E+02  0.10566000000E+00 0.  1.
         23    2    1    0    0    0  0.12094224859E+02  0.12767549623E+02  0.22502951681E+02  0.96440178000E+02  0.92114301279E+02 0.  0.
         13    1    3    3    0    0 -0.22385907387E+02 -0.14034437090E+02 -0.21782804702E+02  0.34243189377E+02  0.10566000000E+00 0. -1.
         22    1    1    0    0    0 -0.12094224859E+02 -0.12767549623E+02 -0.22502951681E+02  0.28559822000E+02  0.00000000000E+00 0.  1.
</event>
<event>
 5    1  0.8943334E-005  0.9118800E+02  0.7818608E-02  0.1130116E+00
         25   -1    0    0    0    0  0.00000000000E+00  0.00000000000E+00  0.99999998245E-14  0.12500000000E+03  0.12500000000E+03 0.  0.
        -13    1    3    3    0    0  0.38831461422E+02  0.12536169373E+01 -0.14358921218E+01  0.38878360328E+02  0.10566000000E+00 0.  1.
         23    2    1    0    0    0 -0.11972743669E+02 -0.21560068653E+02 -0.14916779354E+02  0.96178246799E+02  0.91758169663E+02 0.  0.
         13    1    3    3    0    0 -0.50804205090E+02 -0.22813685590E+02 -0.13480887232E+02  0.57299886472E+02  0.10566000000E+00 0. -1.
         22    1    1    0    0    0  0.11972743669E+02  0.21560068653E+02  0.14916779354E+02  0.28821753201E+02  0.00000000000E+00 0. -1.
</event>
<event>
 5    1  0.8943334E-005  0.9118800E+02  0.7818608E-02  0.1130116E+00
         25   -1    0    0    0    0  0.00000000000E+00  0.00000000000E+00  0.99999998245E-14  0.12500000000E+03  0.12500000000E+03 0.  0.
        -13    1    3    3    0    0  0.15544108112E+02 -0.45305754809E+02 -0.17770192706E+02  0.51088370777E+02  0.10566000000E+00 0. -1.
         23    2    1    0    0    0  0.21979784026E+02 -0.10420984898E+02  0.12436238147E+02  0.97680266266E+02  0.93782016221E+02 0.  0.
         13    1    3    3    0    0  0.64356759137E+01  0.34884769911E+02  0.30206430854E+02  0.46591895488E+02  0.10566000000E+00 0.  1.
         22    1    1    0    0    0 -0.21979784026E+02  0.10420984898E+02 -0.12436238147E+02  0.27319733734E+02  0.00000000000E+00 0. -1.
</event>
<event>
 5    1  0.8943334E-005  0.9118800E+02  0.7818608E-02  0.1130116E+00
         25   -1    0    0    0    0  0.00000000000E+00  0.00000000000E+00  0.99999998245E-14  0.12500000000E+03  0.12500000000E+03 0.  0.
        -13    1    3    3    0    0 -0.33611065531E+02 -0.25721856870E+02  0.11262048294E+02  0.43796832565E+02  0.10566000000E+00 0.  1.
         23    2    1    0    0    0  0.95191595731E+01 -0.12813999801E+01  0.27427132320E+02  0.95939649482E+02  0.91432556404E+02 0.  0.
         13    1    3    3    0    0  0.43130225104E+02  0.24440456889E+02  0.16165084026E+02  0.52142816917E+02  0.10566000000E+00 0. -1.
         22    1    1    0    0    0 -0.95191595731E+01  0.12813999801E+01 -0.27427132320E+02  0.29060350518E+02  0.00000000000E+00 0. -1.
</event>
<event>
 5    1  0.8943334E-005  0.9118800E+02  0.7818608E-02  0.1130116E+00
         25   -1    0    0    0    0  0.00000000000E+00  0.00000000000E+00  0.99999998245E-14  0.12500000000E+03  0.12500000000E+03 0.  0.
        -13    1    3    3    0    0 -0.22521396464E+02 -0.37022334548E+02 -0.57312520366E+01  0.43711840136E+02  0.10566000000E+00 0. -1.
         23    2    1    0    0    0 -0.10734412090E+02 -0.11371514580E+02  0.31143082271E+02  0.90151319680E+02  0.83143429806E+02 0.  0.
         13    1    3    3    0    0  0.11786984375E+02  0.25650819968E+02  0.36874334307E+02  0.46439479544E+02  0.10566000000E+00 0.  1.
         22    1    1    0    0    0  0.10734412090E+02  0.11371514580E+02 -0.31143082271E+02  0.34848680320E+02  0.00000000000E+00 0.  1.
</event>
<event>
 5    1  0.8943334E-005  0.9118800E+02  0.7818608E-02  0.1130116E+00
         25   -1    0    0    0    0  0.00000000000E+00  0.00000000000E+00  0.99999998245E-14  0.12500000000E+03  0.12500000000E+03 0.  0.
        -13    1    3    3    0    0  0.13580352269E+02  0.25918444539E+02  0.32273943474E+02  0.43563864917E+02  0.10566000000E+00 0. -1.
         23    2    1    0    0    0  0.20978775833E+02  0.72223527513E+01 -0.17173382430E+02  0.96942978084E+02  0.92794097447E+02 0.  0.
         13    1    3    3    0    0  0.73984235635E+01 -0.18696091788E+02 -0.49447325904E+02  0.53379113167E+02  0.10566000000E+00 0.  1.
         22    1    1    0    0    0 -0.20978775833E+02 -0.72223527513E+01  0.17173382430E+02  0.28057021916E+02  0.00000000000E+00 0.  1.
</event>
<event>
 5    1  0.8943334E-005  0.9118800E+02  0.7818608E-02  0.1130116E+00
         25   -1    0    0    0    0  0.00000000000E+00  0.00000000000E+00  0.99999998245E-14  0.12500000000E+03  0.12500000000E+03 0.  0.
        -13    1    3    3    0    0 -0.29061288801E+02 -0.17365998765E+01 -0.28668094395E+02  0.40858843427E+02  0.10566000000E+00 0.  1.
         23    2    1    0    0    0  0.18110201230E+02  0.19229210781E+02 -0.16368085208E+02  0.93924991565E+02  0.88635477611E+02 0.  0.
         13    1    3    3    0    0  0.47171490031E+02  0.20965810657E+02  0.12300009187E+02  0.53066148138E+02  0.10566000000E+00 0. -1.
         22    1    1    0    0    0 -0.18110201230E+02 -0.19229210781E+02  0.16368085208E+02  0.31075008435E+02  0.00000000000E+00 0.  1.
</event>
<event>
 5    1  0.8943334E-005  0.9118800E+02  0.7818608E-02  0.1130116E+00
         25   -1    0    0    0    0  0.00000000000E+00  0.00000000000E+00  0.99999998245E-14  0.12500000000E+03  0.12500000000E+03 0.  0.
        -13    1    3    3    0    0  0.15051508722E+02  0.53971040021E+01  0.31770314421E+02  0.35567410489E+02  0.10566000000E+00 0.  1.
         23    2    1    0    0    0 -0.18804635735E+02  0.14695410937E+02 -0.17026967713E+02  0.95682990309E+02  0.91080994600E+02 0.  0.
         13    1    3    3    0    0 -0.33856144457E+02  0.92983069347E+01 -0.48797282134E+02  0.60115579820E+02  0.10566000000E+00 0. -1.
         22    1    1    0    0    0  0.18804635735E+02 -0.14695410937E+02  0.17026967713E+02  0.29317009691E+02  0.00000000000E+00 0. -1.
</event>
<event>
 5    1  0.8943334E-005  0.9118800E+02  0.7818608E-02  0.1130116E+00
         25   -1    0    0    0    0  0.00000000000E+00  0.00000000000E+00  0.99999998245E-14  0.12500000000E+03  0.12500000000E+03 0.  0.
        -13    1    3    3    0    0  0.21823394734E+02 -0.24059321186E+02  0.58705610072E+01  0.33008879779E+02  0.10566000000E+00 0.  1.
         23    2    1    0    0    0 -0.23578673429E+02  0.17231007775E+02 -0.51078244696E+01  0.95352886474E+02  0.90626826153E+02 0.  0.
         13    1    3    3    0    0 -0.45402068162E+02  0.41290328961E+02 -0.10978385477E+02  0.62344006696E+02  0.10566000000E+00 0. -1.
         22    1    1    0    0    0  0.23578673429E+02 -0.17231007775E+02  0.51078244696E+01  0.29647113526E+02  0.00000000000E+00 0. -1.
</event>
<event>
 5    1  0.8943334E-005  0.9118800E+02  0.7818608E-02  0.1130116E+00
         25   -1    0    0    0    0  0.00000000000E+00  0.00000000000E+00  0.99999998245E-14  0.12500000000E+03  0.12500000000E+03 0.  0.
        -13    1    3    3    0    0 -0.66563565400E+00  0.46024537693E+02 -0.15621338226E+02  0.48608008730E+02  0.10566000000E+00 0.  1.
         23    2    1    0    0    0  0.45162771272E+01  0.64594665431E+00 -0.28559181886E+02  0.96078712405E+02  0.91622475961E+02 0.  0.
         13    1    3    3    0    0  0.51819127812E+01 -0.45378591039E+02 -0.12937843660E+02  0.47470703675E+02  0.10566000000E+00 0. -1.
         22    1    1    0    0    0 -0.45162771272E+01 -0.64594665431E+00  0.28559181886E+02  0.28921287595E+02  0.00000000000E+00 0.  1.
</event>
<event>
 5    1  0.8943334E-005  0.9118800E+02  0.7818608E-02  0.1130116E+00
         25   -1    0    0    0    0  0.00000000000E+00  0.00000000000E+00  0.99999998245E-14  0.12500000000E+03  0.12500000000E+03 0.  0.
        -13    1    3    3    0    0  0.27640360369E+02  0.23552267466E+02  0.17806438863E+02  0.40444767933E+02  0.10566000000E+00 0.  1.
         23    2    1    0    0    0 -0.23799669788E+02  0.22962471305E+01  0.16184551551E+02  0.96127231830E+02  0.91688646829E+02 0.  0.
         13    1    3    3    0    0 -0.51440030158E+02 -0.21256020335E+02 -0.16218873119E+01  0.55682463897E+02  0.10566000000E+00 0. -1.
         22    1    1    0    0    0  0.23799669788E+02 -0.22962471305E+01 -0.16184551551E+02  0.28872768170E+02  0.00000000000E+00 0.  1.
</event>
<event>
 5    1  0.8943334E-005  0.9118800E+02  0.7818608E-02  0.1130116E+00
         25   -1    0    0    0    0  0.00000000000E+00  0.00000000000E+00  0.99999998245E-14  0.12500000000E+03  0.12500000000E+03 0.  0.
        -13    1    3    3    0    0 -0.35874512807E+02  0.30358681399E+02 -0.14138095587E+02  0.49076747205E+02  0.10566000000E+00 0. -1.
         23    2    1    0    0    0 -0.11781923476E+02  0.12240366352E+02  0.22680531303E+02  0.96661919800E+02  0.92414717172E+02 0.  0.
         13    1    3    3    0    0  0.24092589331E+02 -0.18118315047E+02  0.36818626890E+02  0.47585172595E+02  0.10566000000E+00 0.  1.
         22    1    1    0    0    0  0.11781923476E+02 -0.12240366352E+02 -0.22680531303E+02  0.28338080200E+02  0.00000000000E+00 0.  1.
</event>
<event>
 5    1  0.8943334E-005  0.9118800E+02  0.7818608E-02  0.1130116E+00
         25   -1    0    0    0    0  0.00000000000E+00  0.00000000000E+00  0.99999998245E-14  0.12500000000E+03  0.12500000000E+03 0.  0.
        -13    1    3    3    0    0  0.32426862566E+02 -0.17653679093E+01  0.87770808630E+01  0.33640247506E+02  0.10566000000E+00 0.  1.
         23    2    1    0    0    0 -0.23435708978E+02 -0.17201306594E+02 -0.95102405721E+01  0.94413040694E+02  0.89321107100E+02 0.  0.
         13    1    3    3    0    0 -0.55862571544E+02 -0.15435938684E+02 -0.18287321435E+02  0.60772793188E+02  0.10566000000E+00 0. -1.
         22    1    1    0    0    0  0.23435708978E+02  0.17201306594E+02  0.95102405721E+01  0.30586959306E+02  0.00000000000E+00 0. -1.
</event>
<event>
 5    1  0.8943334E-005  0.9118800E+02  0.7818608E-02  0.1130116E+00
         25   -1    0    0    0    0  0.00000000000E+00  0.00000000000E+00  0.99999998245E-14  0.12500000000E+03  0.12500000000E+03 0.  0.
        -13    1    3    3    0    0  0.73841371192E+01 -0.27413216570E+01  0.34685692649E+02  0.35568929756E+02  0.10566000000E+00 0. -1.
         23    2    1    0    0    0  0.19157960306E+02  0.10532900662E+02 -0.21407603082E+02  0.94401717219E+02  0.89305259110E+02 0.  0.
         13    1    3    3    0    0  0.11773823186E+02  0.13274222319E+02 -0.56093295731E+02  0.58832787463E+02  0.10566000000E+00 0.  1.
         22    1    1    0    0    0 -0.19157960306E+02 -0.10532900662E+02  0.21407603082E+02  0.30598282781E+02  0.00000000000E+00 0.  1.
</event>
<event>
 5    1  0.8943334E-005  0.9118800E+02  0.7818608E-02  0.1130116E+00
         25   -1    0    0    0    0  0.00000000000E+00  0.00000000000E+00  0.99999998245E-14  0.12500000000E+03  0.12500000000E+03 0.  0.
        -13    1    3    3    0    0  0.34126664047E+01  0.26170314251E+01 -0.31292688428E+02  0.31587001418E+02  0.10566000000E+00 0.  1.
         23    2    1    0    0    0 -0.60787924979E+01  0.81424525863E+00  0.30377561007E+02  0.94009502645E+02  0.88754581072E+02 0.  0.
         13    1    3    3    0    0 -0.94914589027E+01 -0.18027861665E+01  0.61670249435E+02  0.62422501227E+02  0.10566000000E+00 0. -1.
         22    1    1    0    0    0  0.60787924979E+01 -0.81424525863E+00 -0.30377561007E+02  0.30990497355E+02  0.00000000000E+00 0. -1.
</event>
<event>
 5    1  0.8943334E-005  0.9118800E+02  0.7818608E-02  0.1130116E+00
         25   -1    0    0    0    0  0.00000000000E+00  0.00000000000E+00  0.99999998245E-14  0.12500000000E+03  0.12500000000E+03 0.  0.
        -13    1    3    3    0    0  0.64407867012E+01  0.21189007194E+02 -0.29115823068E+02  0.36581417088E+02  0.10566000000E+00 0. -1.
         23    2    1    0    0    0 -0.24745370522E+02 -0.15852295619E+02  0.41386875539E+01  0.95322443272E+02  0.90584826644E+02 0.  0.
         13    1    3    3    0    0 -0.31186157223E+02 -0.37041302813E+02  0.33254510622E+02  0.58741026184E+02  0.10566000000E+00 0.  1.
         22    1    1    0    0    0  0.24745370522E+02  0.15852295619E+02 -0.41386875539E+01  0.29677556728E+02  0.00000000000E+00 0.  1.
</event>
<event>
 5    1  0.8943334E-005  0.9118800E+02  0.7818608E-02  0.1130116E+00
         25   -1    0    0    0    0  0.00000000000E+00  0.00000000000E+00  0.99999998245E-14  0.12500000000E+03  0.12500000000E+03 0.  0.
        -13    1    3    3    0    0 -0.29955367287E+02 -0.32866451613E+02 -0.31760683546E+02  0.54646865000E+02  0.10566000000E+00 0. -1.
         23    2    1    0    0    0 -0.13097412715E+02 -0.27779099714E+02  0.35290235785E+01  0.94086012742E+02  0.88862270878E+02 0.  0.
         13    1    3    3    0    0  0.16857954572E+02  0.50873518988E+01  0.35289707125E+02  0.39439147743E+02  0.10566000000E+00 0.  1.
         22    1    1    0    0    0  0.13097412715E+02  0.27779099714E+02 -0.35290235785E+01  0.30913987258E+02  0.00000000000E+00 0. -1.
</event>
<event>
 5    1  0.8943334E-005  0.9118800E+02  0.7818608E-02  0.1130116E+00
         25   -1    0    0    0    0  0.00000000000E+00  0.00000000000E+00  0.99999998245E-14  0.12500000000E+03  0.12500000000E+03 0.  0.
        -13    1    3    3    0    0  0.41608440515E+02 -0.35387219540E+02  0.10952313083E+02  0.55708903730E+02  0.10566000000E+00 0.  1.
         23    2    1    0    0    0  0.23563850683E+02 -0.10579206373E+02 -0.14330189213E+02  0.95461398317E+02  0.90776371261E+02 0.  0.
         13    1    3    3    0    0 -0.18044589832E+02  0.24808013167E+02 -0.25282502296E+02  0.39752494587E+02  0.10566000000E+00 0. -1.
         22    1    1    0    0    0 -0.23563850683E+02  0.10579206373E+02  0.14330189213E+02  0.29538601683E+02  0.00000000000E+00 0.  1.
</event>
<event>
 5    1  0.8943334E-005  0.9118800E+02  0.7818608E-02  0.1130116E+00
         25   -1    0    0    0    0  0.00000000000E+00  0.00000000000E+00  0.99999998245E-14  0.12500000000E+03  0.12500000000E+03 0.  0.
        -13    1    3    3    0    0 -0.29333504629E+01  0.57121000949E+02  0.19795358757E+02  0.60525041815E+02  0.10566000000E+00 0.  1.
         23    2    1    0    0    0  0.26990579361E+01  0.24367050173E+02  0.19357820814E+02  0.93762790224E+02  0.88406433906E+02 0.  0.
         13    1    3    3    0    0  0.56324083990E+01 -0.32753950776E+02 -0.43753794265E+00  0.33237748409E+02  0.10566000000E+00 0. -1.
         22    1    1    0    0    0 -0.26990579361E+01 -0.24367050173E+02 -0.19357820814E+02  0.31237209776E+02  0.00000000000E+00 0.  1.
</event>
<event>
 5    1  0.8943334E-005  0.9118800E+02  0.7818608E-02  0.1130116E+00
         25   -1    0    0    0    0  0.00000000000E+00  0.00000000000E+00  0.99999998245E-14  0.12500000000E+03  0.12500000000E+03 0.  0.
        -13    1    3    3    0    0 -0.13560022919E+02 -0.18216202582E+02  0.36807087616E+02  0.43249012947E+02  0.10566000000E+00 0. -1.
         23    2    1    0    0    0  0.22062957697E+02 -0.12798168061E+02 -0.55887670151E+01  0.98888670566E+02  0.95379073394E+02 0.  0.
         13    1    3    3    0    0  0.35622980617E+02  0.54180345211E+01 -0.42395854631E+02  0.55639657619E+02  0.10566000000E+00 0.  1.
         22    1    1    0    0    0 -0.22062957697E+02  0.12798168061E+02  0.55887670151E+01  0.26111329434E+02  0.00000000000E+00 0.  1.
</event>
<event>
 5    1  0.8943334E-005  0.9118800E+02  0.7818608E-02  0.1130116E+00
         25   -1    0    0    0    0  0.00000000000E+00  0.00000000000E+00  0.99999998245E-14  0.12500000000E+03  0.12500000000E+03 0.  0.
        -13    1    3    3    0    0  0.96251376957E+01  0.16176490657E+02 -0.54558345999E+02  0.57714351836E+02  0.10566000000E+00 0. -1.
         23    2    1    0    0    0  0.18509942306E+02 -0.21988992778E+01 -0.21730766588E+02  0.96369957410E+02  0.92018961918E+02 0.  0.
         13    1    3    3    0    0  0.88848046106E+01 -0.18375389935E+02  0.32827579412E+02  0.38655605574E+02  0.10566000000E+00 0.  1.
         22    1    1    0    0    0 -0.18509942306E+02  0.21988992778E+01  0.21730766588E+02  0.28630042590E+02  0.00000000000E+00 0. -1.
</event>
<event>
 5    1  0.8943334E-005  0.9118800E+02  0.7818608E-02  0.1130116E+00
         25   -1    0    0    0    0  0.00000000000E+00  0.00000000000E+00  0.99999998245E-14  0.12500000000E+03  0.12500000000E+03 0.  0.
        -13    1    3    3    0    0 -0.18730887306E+02 -0.44562043141E+02 -0.67129856633E+01  0.48802634854E+02  0.10566000000E+00 0.  1.
         23    2    1    0    0    0 -0.16272767873E+02 -0.10885255138E+02  0.23709106465E+02  0.94252423135E+02  0.89096048082E+02 0.  0.
         13    1    3    3    0    0  0.24581194328E+01  0.33676788003E+02  0.30422092128E+02  0.45449788281E+02  0.10566000000E+00 0. -1.
         22    1    1    0    0    0  0.16272767873E+02  0.10885255138E+02 -0.23709106465E+02  0.30747576865E+02  0.00000000000E+00 0.  1.
</event>
<event>
 5    1  0.8943334E-005  0.9118800E+02  0.7818608E-02  0.1130116E+00
         25   -1    0    0    0    0  0.00000000000E+00  0.00000000000E+00  0.99999998245E-14  0.12500000000E+03  0.12500000000E+03 0.  0.
        -13    1    3    3    0    0  0.20836974003E+02 -0.19319367105E+02 -0.47420368992E+02  0.55282185108E+02  0.10566000000E+00 0.  1.
         23    2    1    0    0    0  0.19045129241E+02  0.10148208811E+02 -0.19582869631E+02  0.95859103088E+02  0.91322372790E+02 0.  0.
         13    1    3    3    0    0 -0.17918447621E+01  0.29467575916E+02  0.27837499361E+02  0.40576917980E+02  0.10566000000E+00 0. -1.
         22    1    1    0    0    0 -0.19045129241E+02 -0.10148208811E+02  0.19582869631E+02  0.29140896912E+02  0.00000000000E+00 0.  1.
</event>
<event>
 5    1  0.8943334E-005  0.9118800E+02  0.7818608E-02  0.1130116E+00
         25   -1    0    0    0    0  0.00000000000E+00  0.00000000000E+00  0.99999998245E-14  0.12500000000E+03  0.12500000000E+03 0.  0.
        -13    1    3    3    0    0  0.30020484737E+02  0.34347487105E+02  0.56528001852E+01  0.45966778093E+02  0.10566000000E+00 0.  1.
         23    2    1    0    0    0  0.79688216106E+01  0.58772777544E+01 -0.28028013271E+02  0.95274353841E+02  0.90518442653E+02 0.  0.
         13    1    3    3    0    0 -0.22051663126E+02 -0.28470209351E+02 -0.33680813456E+02  0.49307575748E+02  0.10566000000E+00 0. -1.
         22    1    1    0    0    0 -0.79688216106E+01 -0.58772777544E+01  0.28028013271E+02  0.29725646159E+02  0.00000000000E+00 0. -1.
</event>
<event>
 5    1  0.8943334E-005  0.9118800E+02  0.7818608E-02  0.1130116E+00
         25   -1    0    0    0    0  0.00000000000E+00  0.00000000000E+00  0.99999998245E-14  0.12500000000E+03  0.12500000000E+03 0.  0.
        -13    1    3    3    0    0  0.53900611821E+02  0.14236584428E+02  0.45666329934E+01  0.55935870349E+02  0.10566000000E+00 0. -1.
         23    2    1    0    0    0  0.29342737284E+02 -0.10362227448E+02 -0.79531994348E+01  0.92881074578E+02  0.87150838461E+02 0.  0.
         13    1    3    3    0    0 -0.24557874536E+02 -0.24598811875E+02 -0.12519832428E+02  0.36945204229E+02  0.10566000000E+00 0.  1.
         22    1    1    0    0    0 -0.29342737284E+02  0.10362227448E+02  0.79531994348E+01  0.32118925422E+02  0.00000000000E+00 0. -1.
</event>
<event>
 5    1  0.8943334E-005  0.9118800E+02  0.7818608E-02  0.1130116E+00
         25   -1    0    0    0    0  0.00000000000E+00  0.00000000000E+00  0.99999998245E-14  0.12500000000E+03  0.12500000000E+03 0.  0.
        -13    1    3    3    0    0 -0.17813078272E+02 -0.51063311595E+02  0.20365609828E+02  0.57788725339E+02  0.10566000000E+00 0. -1.
         23    2    1    0    0    0 -0.55613735994E+01 -0.15464581298E+02  0.24324196119E+02  0.95644444003E+02  0.91028078090E+02 0.  0.
         13    1    3    3    0    0  0.12251704673E+02  0.35598730297E+02  0.39585862914E+01  0.37855718664E+02  0.10566000000E+00 0.  1.
         22    1    1    0    0    0  0.55613735994E+01  0.15464581298E+02 -0.24324196119E+02  0.29355555997E+02  0.00000000000E+00 0. -1.
</event>
<event>
 5    1  0.8943334E-005  0.9118800E+02  0.7818608E-02  0.1130116E+00
         25   -1    0    0    0    0  0.00000000000E+00  0.00000000000E+00  0.99999998245E-14  0.12500000000E+03  0.12500000000E+03 0.  0.
        -13    1    3    3    0    0 -0.10112304567E+02 -0.29700265887E+02  0.53250312890E+02  0.61805917875E+02  0.10566000000E+00 0.  1.
         23    2    1    0    0    0 -0.46854691060E+01 -0.84567638319E+01  0.28667158527E+02  0.94746463789E+02  0.89786502033E+02 0.  0.
         13    1    3    3    0    0  0.54268354612E+01  0.21243502055E+02 -0.24583154363E+02  0.32940545915E+02  0.10566000000E+00 0. -1.
         22    1    1    0    0    0  0.46854691060E+01  0.84567638319E+01 -0.28667158527E+02  0.30253536211E+02  0.00000000000E+00 0.  1.
</event>
<event>
 5    1  0.8943334E-005  0.9118800E+02  0.7818608E-02  0.1130116E+00
         25   -1    0    0    0    0  0.00000000000E+00  0.00000000000E+00  0.99999998245E-14  0.12500000000E+03  0.12500000000E+03 0.  0.
        -13    1    3    3    0    0 -0.33679963787E+02  0.12630778815E+02  0.24641314325E+02  0.43601399861E+02  0.10566000000E+00 0. -1.
         23    2    1    0    0    0 -0.28687531027E+02 -0.53968103270E+01 -0.18373812136E+02  0.90508015851E+02  0.83677977764E+02 0.  0.
         13    1    3    3    0    0  0.49924327592E+01 -0.18027589142E+02 -0.43015126461E+02  0.46906615990E+02  0.10566000000E+00 0.  1.
         22    1    1    0    0    0  0.28687531027E+02  0.53968103270E+01  0.18373812136E+02  0.34491984149E+02  0.00000000000E+00 0.  1.
</event>
<event>
 5    1  0.8943334E-005  0.9118800E+02  0.7818608E-02  0.1130116E+00
         25   -1    0    0    0    0  0.00000000000E+00  0.00000000000E+00  0.99999998245E-14  0.12500000000E+03  0.12500000000E+03 0.  0.
        -13    1    3    3    0    0  0.47230190150E+02 -0.30033113501E+02  0.26520982922E+02  0.61935873832E+02  0.10566000000E+00 0.  1.
         23    2    1    0    0    0  0.25328937643E+02 -0.99712964084E+01  0.94970163295E+01  0.96169891548E+02  0.91746786794E+02 0.  0.
         13    1    3    3    0    0 -0.21901252507E+02  0.20061817092E+02 -0.17023966592E+02  0.34234017716E+02  0.10566000000E+00 0. -1.
         22    1    1    0    0    0 -0.25328937643E+02  0.99712964084E+01 -0.94970163295E+01  0.28830108452E+02  0.00000000000E+00 0.  1.
</event>
<event>
 5    1  0.8943334E-005  0.9118800E+02  0.7818608E-02  0.1130116E+00
         25   -1    0    0    0    0  0.00000000000E+00  0.00000000000E+00  0.99999998245E-14  0.12500000000E+03  0.12500000000E+03 0.  0.
        -13    1    3    3    0    0 -0.43721695165E+02  0.18386984702E+02  0.33434635180E+02  0.58030628363E+02  0.10566000000E+00 0. -1.
         23    2    1    0    0    0 -0.20536822255E+02  0.21986833829E+02  0.56653772817E+01  0.94384996653E+02  0.89281852374E+02 0.  0.
         13    1    3    3    0    0  0.23184872909E+02  0.35998491264E+01 -0.27769257898E+02  0.36354368291E+02  0.10566000000E+00 0.  1.
         22    1    1    0    0    0  0.20536822255E+02 -0.21986833829E+02 -0.56653772817E+01  0.30615003347E+02  0.00000000000E+00 0. -1.
</event>
<event>
 5    1  0.8943334E-005  0.9118800E+02  0.7818608E-02  0.1130116E+00
         25   -1    0    0    0    0  0.00000000000E+00  0.00000000000E+00  0.99999998245E-14  0.12500000000E+03  0.12500000000E+03 0.  0.
        -13    1    3    3    0    0  0.11976163893E+02 -0.59520990324E+02  0.93002802000E+01  0.61422171621E+02  0.10566000000E+00 0. -1.
         23    2    1    0    0    0  0.13957582994E+01 -0.28712036615E+02 -0.26772617005E+01  0.96129653310E+02  0.91691947997E+02 0.  0.
         13    1    3    3    0    0 -0.10580405593E+02  0.30808953710E+02 -0.11977541900E+02  0.34707481689E+02  0.10566000000E+00 0.  1.
         22    1    1    0    0    0 -0.13957582994E+01  0.28712036615E+02  0.26772617005E+01  0.28870346690E+02  0.00000000000E+00 0. -1.
</event>
<event>
 5    1  0.8943334E-005  0.9118800E+02  0.7818608E-02  0.1130116E+00
         25   -1    0    0    0    0  0.00000000000E+00  0.00000000000E+00  0.99999998245E-14  0.12500000000E+03  0.12500000000E+03 0.  0.
        -13    1    3    3    0    0 -0.25473395782E+02 -0.21165498491E+01  0.42425339739E+02  0.49530740878E+02  0.10566000000E+00 0.  1.
         23    2    1    0    0    0  0.16286250623E+02 -0.20339852718E+01  0.25680469989E+02  0.94522703626E+02  0.89474442756E+02 0.  0.
         13    1    3    3    0    0  0.41759646406E+02  0.82564577309E-01 -0.16744869751E+02  0.44991962747E+02  0.10566000000E+00 0. -1.
         22    1    1    0    0    0 -0.16286250623E+02  0.20339852718E+01 -0.25680469989E+02  0.30477296374E+02  0.00000000000E+00 0.  1.
</event>
<event>
 5    1  0.8943334E-005  0.9118800E+02  0.7818608E-02  0.1130116E+00
         25   -1    0    0    0    0  0.00000000000E+00  0.00000000000E+00  0.99999998245E-14  0.12500000000E+03  0.12500000000E+03 0.  0.
        -13    1    3    3    0    0  0.24154293368E+02  0.30928322442E+02 -0.20225601462E+02  0.44148353715E+02  0.10566000000E+00 0.  1.
         23    2    1    0    0    0 -0.57640858168E+01  0.78349769140E+01  0.22077015837E+02  0.10087519582E+03  0.97947940022E+02 0.  0.
         13    1    3    3    0    0 -0.29918379184E+02 -0.23093345528E+02  0.42302617299E+02  0.56726842104E+02  0.10566000000E+00 0. -1.
         22    1    1    0    0    0  0.57640858168E+01 -0.78349769140E+01 -0.22077015837E+02  0.24124804182E+02  0.00000000000E+00 0. -1.
</event>
<event>
 5    1  0.8943334E-005  0.9118800E+02  0.7818608E-02  0.1130116E+00
         25   -1    0    0    0    0  0.00000000000E+00  0.00000000000E+00  0.99999998245E-14  0.12500000000E+03  0.12500000000E+03 0.  0.
        -13    1    3    3    0    0 -0.56150254158E+01  0.10157034090E+02 -0.27263758118E+02  0.29631360460E+02  0.10566000000E+00 0.  1.
         23    2    1    0    0    0  0.24248522996E+02 -0.21796158807E+02  0.13773407684E+02  0.89605506566E+02  0.82318750242E+02 0.  0.
         13    1    3    3    0    0  0.29863548412E+02 -0.31953192897E+02  0.41037165802E+02  0.59974146106E+02  0.10566000000E+00 0. -1.
         22    1    1    0    0    0 -0.24248522996E+02  0.21796158807E+02 -0.13773407684E+02  0.35394493434E+02  0.00000000000E+00 0. -1.
</event>
<event>
 5    1  0.8943334E-005  0.9118800E+02  0.7818608E-02  0.1130116E+00
         25   -1    0    0    0    0  0.00000000000E+00  0.00000000000E+00  0.99999998245E-14  0.12500000000E+03  0.12500000000E+03 0.  0.
        -13    1    3    3    0    0 -0.19305209012E+02  0.52277794511E+02 -0.27350702764E+02  0.62078426201E+02  0.10566000000E+00 0. -1.
         23    2    1    0    0    0 -0.50242428975E+01  0.26874120196E+02 -0.15771457648E+02  0.93437360229E+02  0.87945096834E+02 0.  0.
         13    1    3    3    0    0  0.14280966115E+02 -0.25403674315E+02  0.11579245116E+02  0.31358934027E+02  0.10566000000E+00 0.  1.
         22    1    1    0    0    0  0.50242428975E+01 -0.26874120196E+02  0.15771457648E+02  0.31562639771E+02  0.00000000000E+00 0. -1.
</event>
<event>
 5    1  0.8943334E-005  0.9118800E+02  0.7818608E-02  0.1130116E+00
         25   -1    0    0    0    0  0.00000000000E+00  0.00000000000E+00  0.99999998245E-14  0.12500000000E+03  0.12500000000E+03 0.  0.
        -13    1    3    3    0    0  0.18906658612E+02 -0.29178473943E+02  0.14410312242E+01  0.34798459974E+02  0.10566000000E+00 0.  1.
         23    2    1    0    0    0 -0.21281978296E+02  0.13639844446E+02  0.15718637104E+02  0.95233517018E+02  0.90462032116E+02 0.  0.
         13    1    3    3    0    0 -0.40188636908E+02  0.42818318389E+02  0.14277605880E+02  0.60435057044E+02  0.10566000000E+00 0. -1.
         22    1    1    0    0    0  0.21281978296E+02 -0.13639844446E+02 -0.15718637104E+02  0.29766482982E+02  0.00000000000E+00 0. -1.
</event>
<event>
 5    1  0.8943334E-005  0.9118800E+02  0.7818608E-02  0.1130116E+00
         25   -1    0    0    0    0  0.00000000000E+00  0.00000000000E+00  0.99999998245E-14  0.12500000000E+03  0.12500000000E+03 0.  0.
        -13    1    3    3    0    0 -0.32683180605E+02  0.38069742377E+02  0.55799509990E+01  0.50484082604E+02  0.10566000000E+00 0. -1.
         23    2    1    0    0    0 -0.99443688212E+01  0.17582455229E+02 -0.24397099239E+02  0.93325851954E+02  0.87786462445E+02 0.  0.
         13    1    3    3    0    0  0.22738811784E+02 -0.20487287148E+02 -0.29977050238E+02  0.42841769350E+02  0.10566000000E+00 0.  1.
         22    1    1    0    0    0  0.99443688212E+01 -0.17582455229E+02  0.24397099239E+02  0.31674148046E+02  0.00000000000E+00 0. -1.
</event>
<event>
 5    1  0.8943334E-005  0.9118800E+02  0.7818608E-02  0.1130116E+00
         25   -1    0    0    0    0  0.00000000000E+00  0.00000000000E+00  0.99999998245E-14  0.12500000000E+03  0.12500000000E+03 0.  0.
        -13    1    3    3    0    0  0.30084177710E+02 -0.38067467830E+02  0.41620970337E+01  0.48698296389E+02  0.10566000000E+00 0. -1.
         23    2    1    0    0    0  0.23783828989E+02  0.41304680013E+01 -0.16153628859E+02  0.95953984566E+02  0.91452152197E+02 0.  0.
         13    1    3    3    0    0 -0.63003487202E+01  0.42197935832E+02 -0.20315725892E+02  0.47255688176E+02  0.10566000000E+00 0.  1.
         22    1    1    0    0    0 -0.23783828989E+02 -0.41304680013E+01  0.16153628859E+02  0.29046015434E+02  0.00000000000E+00 0. -1.
</event>
<event>
 5    1  0.8943334E-005  0.9118800E+02  0.7818608E-02  0.1130116E+00
         25   -1    0    0    0    0  0.00000000000E+00  0.00000000000E+00  0.99999998245E-14  0.12500000000E+03  0.12500000000E+03 0.  0.
        -13    1    3    3    0    0 -0.39091349300E+02  0.20005797033E+02 -0.96743512347E+01  0.44966317849E+02  0.10566000000E+00 0.  1.
         23    2    1    0    0    0  0.58372166139E+01  0.15146967613E+02 -0.27108168961E+02  0.93403219308E+02  0.87896557538E+02 0.  0.
         13    1    3    3    0    0  0.44928565914E+02 -0.48588294201E+01 -0.17433817727E+02  0.48436901459E+02  0.10566000000E+00 0. -1.
         22    1    1    0    0    0 -0.58372166139E+01 -0.15146967613E+02  0.27108168961E+02  0.31596780692E+02  0.00000000000E+00 0.  1.
</event>
<event>
 5    1  0.8943334E-005  0.9118800E+02  0.7818608E-02  0.1130116E+00
         25   -1    0    0    0    0  0.00000000000E+00  0.00000000000E+00  0.99999998245E-14  0.12500000000E+03  0.12500000000E+03 0.  0.
        -13    1    3    3    0    0 -0.39908494020E+02 -0.26721091340E+02  0.10938127953E+02  0.49258079789E+02  0.10566000000E+00 0. -1.
         23    2    1    0    0    0 -0.10464304954E+02 -0.15576448052E+02 -0.22844565241E+02  0.95436482396E+02  0.90742055294E+02 0.  0.
         13    1    3    3    0    0  0.29444189066E+02  0.11144643289E+02 -0.33782693195E+02  0.46178402607E+02  0.10566000000E+00 0.  1.
         22    1    1    0    0    0  0.10464304954E+02  0.15576448052E+02  0.22844565241E+02  0.29563517604E+02  0.00000000000E+00 0. -1.
</event>
<event>
 5    1  0.8943334E-005  0.9118800E+02  0.7818608E-02  0.1130116E+00
         25   -1    0    0    0    0  0.00000000000E+00  0.00000000000E+00  0.99999998245E-14  0.12500000000E+03  0.12500000000E+03 0.  0.
        -13    1    3    3    0    0 -0.31684121622E+02  0.16197653390E+02  0.16792481886E+02  0.39347759152E+02  0.10566000000E+00 0.  1.
         23    2    1    0    0    0  0.12590198421E+01 -0.28257698935E+02  0.18873102062E+01  0.96651373581E+02  0.92400451272E+02 0.  0.
         13    1    3    3    0    0  0.32943141464E+02 -0.44455352324E+02 -0.14905171680E+02  0.57303614429E+02  0.10566000000E+00 0. -1.
         22    1    1    0    0    0 -0.12590198421E+01  0.28257698935E+02 -0.18873102062E+01  0.28348626419E+02  0.00000000000E+00 0. -1.
</event>
<event>
 5    1  0.8943334E-005  0.9118800E+02  0.7818608E-02  0.1130116E+00
         25   -1    0    0    0    0  0.00000000000E+00  0.00000000000E+00  0.99999998245E-14  0.12500000000E+03  0.12500000000E+03 0.  0.
        -13    1    3    3    0    0  0.43970875551E+02 -0.20816799508E+02  0.32781129120E+01  0.48759965410E+02  0.10566000000E+00 0. -1.
         23    2    1    0    0    0  0.17687997073E+02  0.19876023180E+02  0.74155222675E+01  0.97379147218E+02  0.93379798696E+02 0.  0.
         13    1    3    3    0    0 -0.26282878479E+02  0.40692822688E+02  0.41374093555E+01  0.48619181808E+02  0.10566000000E+00 0.  1.
         22    1    1    0    0    0 -0.17687997073E+02 -0.19876023180E+02 -0.74155222675E+01  0.27620852782E+02  0.00000000000E+00 0. -1.
</event>
<event>
 5    1  0.8943334E-005  0.9118800E+02  0.7818608E-02  0.1130116E+00
         25   -1    0    0    0    0  0.00000000000E+00  0.00000000000E+00  0.99999998245E-14  0.12500000000E+03  0.12500000000E+03 0.  0.
        -13    1    3    3    0    0 -0.49589297030E+02  0.25790739910E+02 -0.19539588912E+02  0.59212054043E+02  0.10566000000E+00 0.  1.
         23    2    1    0    0    0 -0.30357236943E+02 -0.72387020813E-01 -0.66579887029E+01  0.93921134380E+02  0.88630037769E+02 0.  0.
         13    1    3    3    0    0  0.19232060088E+02 -0.25863126931E+02  0.12881600209E+02  0.34709080337E+02  0.10566000000E+00 0. -1.
         22    1    1    0    0    0  0.30357236943E+02  0.72387020813E-01  0.66579887029E+01  0.31078865620E+02  0.00000000000E+00 0.  1.
</event>
<event>
 5    1  0.8943334E-005  0.9118800E+02  0.7818608E-02  0.1130116E+00
         25   -1    0    0    0    0  0.00000000000E+00  0.00000000000E+00  0.99999998245E-14  0.12500000000E+03  0.12500000000E+03 0.  0.
        -13    1    3    3    0    0  0.37519430711E+01  0.19280941493E+01 -0.40543706729E+02  0.40762702845E+02  0.10566000000E+00 0. -1.
         23    2    1    0    0    0  0.66131293733E+01  0.25776224963E+02  0.98792333206E+01  0.96614325718E+02  0.92350319055E+02 0.  0.
         13    1    3    3    0    0  0.28611863022E+01  0.23848130814E+02  0.50422940049E+02  0.55851622873E+02  0.10566000000E+00 0.  1.
         22    1    1    0    0    0 -0.66131293733E+01 -0.25776224963E+02 -0.98792333206E+01  0.28385674282E+02  0.00000000000E+00 0.  1.
</event>
<event>
 5    1  0.8943334E-005  0.9118800E+02  0.7818608E-02  0.1130116E+00
         25   -1    0    0    0    0  0.00000000000E+00  0.00000000000E+00  0.99999998245E-14  0.12500000000E+03  0.12500000000E+03 0.  0.
        -13    1    3    3    0    0 -0.29488450367E+02 -0.10162156293E+02 -0.29740465630E+02  0.43096920835E+02  0.10566000000E+00 0.  1.
         23    2    1    0    0    0 -0.18596984918E+02  0.38896691347E+01  0.20892416170E+02  0.96760481105E+02  0.92547935019E+02 0.  0.
         13    1    3    3    0    0  0.10891465449E+02  0.14051825427E+02  0.50632881800E+02  0.53663560270E+02  0.10566000000E+00 0. -1.
         22    1    1    0    0    0  0.18596984918E+02 -0.38896691347E+01 -0.20892416170E+02  0.28239518895E+02  0.00000000000E+00 0. -1.
</event>
<event>
 5    1  0.8943334E-005  0.9118800E+02  0.7818608E-02  0.1130116E+00
         25   -1    0    0    0    0  0.00000000000E+00  0.00000000000E+00  0.99999998245E-14  0.12500000000E+03  0.12500000000E+03 0.  0.
        -13    1    3    3    0    0  0.34193282312E+02 -0.24572172659E+02 -0.43078410908E+02  0.60238964756E+02  0.10566000000E+00 0.  1.
         23    2    1    0    0    0  0.83069332167E+01 -0.20207824797E+02 -0.16281681075E+02  0.97751982436E+02  0.93877556472E+02 0.  0.
         13    1    3    3    0    0 -0.25886349095E+02  0.43643478614E+01  0.26796729833E+02  0.37513017681E+02  0.10566000000E+00 0. -1.
         22    1    1    0    0    0 -0.83069332167E+01  0.20207824797E+02  0.16281681075E+02  0.27248017564E+02  0.00000000000E+00 0.  1.
</event>
<event>
 5    1  0.8943334E-005  0.9118800E+02  0.7818608E-02  0.1130116E+00
         25   -1    0    0    0    0  0.00000000000E+00  0.00000000000E+00  0.99999998245E-14  0.12500000000E+03  0.12500000000E+03 0.  0.
        -13    1    3    3    0    0 -0.57996662532E+01  0.31426324620E+02 -0.29438994085E+02  0.43450150109E+02  0.10566000000E+00 0.  1.
         23    2    1    0    0    0  0.10948688910E+02 -0.17532002801E+02 -0.20363944415E+02  0.95983881321E+02  0.91493007002E+02 0.  0.
         13    1    3    3    0    0  0.16748355163E+02 -0.48958327421E+02  0.90750496701E+01  0.52533731212E+02  0.10566000000E+00 0. -1.
         22    1    1    0    0    0 -0.10948688910E+02  0.17532002801E+02  0.20363944415E+02  0.29016118679E+02  0.00000000000E+00 0. -1.
</event>
<event>
 5    1  0.8943334E-005  0.9118800E+02  0.7818608E-02  0.1130116E+00
         25   -1    0    0    0    0  0.00000000000E+00  0.00000000000E+00  0.99999998245E-14  0.12500000000E+03  0.12500000000E+03 0.  0.
        -13    1    3    3    0    0 -0.48224771604E+02  0.12731840390E+01 -0.32859573422E+02  0.58369618153E+02  0.10566000000E+00 0. -1.
         23    2    1    0    0    0 -0.27791646377E+02  0.84256938525E+01 -0.22353347749E+01  0.95873300105E+02  0.91341803278E+02 0.  0.
         13    1    3    3    0    0  0.20433125227E+02  0.71525098134E+01  0.30624238647E+02  0.37503681951E+02  0.10566000000E+00 0.  1.
         22    1    1    0    0    0  0.27791646377E+02 -0.84256938525E+01  0.22353347749E+01  0.29126699895E+02  0.00000000000E+00 0. -1.
</event>
<event>
 5    1  0.8943334E-005  0.9118800E+02  0.7818608E-02  0.1130116E+00
         25   -1    0    0    0    0  0.00000000000E+00  0.00000000000E+00  0.99999998245E-14  0.12500000000E+03  0.12500000000E+03 0.  0.
        -13    1    3    3    0    0  0.60529275282E+01 -0.47254652168E+02  0.90888906612E+01  0.48500094646E+02  0.10566000000E+00 0.  1.
         23    2    1    0    0    0 -0.21729613819E+01 -0.48097925170E+01  0.28588246137E+02  0.95928644984E+02  0.91417510610E+02 0.  0.
         13    1    3    3    0    0 -0.82258889100E+01  0.42444859651E+02  0.19499355476E+02  0.47428550338E+02  0.10566000000E+00 0. -1.
         22    1    1    0    0    0  0.21729613819E+01  0.48097925170E+01 -0.28588246137E+02  0.29071355016E+02  0.00000000000E+00 0. -1.
</event>
<event>
 5    1  0.8943334E-005  0.9118800E+02  0.7818608E-02  0.1130116E+00
         25   -1    0    0    0    0  0.00000000000E+00  0.00000000000E+00  0.99999998245E-14  0.12500000000E+03  0.12500000000E+03 0.  0.
        -13    1    3    3    0    0  0.30214152652E+02 -0.13527726779E+02  0.18938929581E+02  0.38139069600E+02  0.10566000000E+00 0. -1.
         23    2    1    0    0    0 -0.10147752308E+02  0.26147895745E+02  0.85125477214E+01  0.95688691644E+02  0.91088818804E+02 0.  0.
         13    1    3    3    0    0 -0.40361904960E+02  0.39675622525E+02 -0.10426381859E+02  0.57549622044E+02  0.10566000000E+00 0.  1.
         22    1    1    0    0    0  0.10147752308E+02 -0.26147895745E+02 -0.85125477214E+01  0.29311308356E+02  0.00000000000E+00 0.  1.
</event>
<event>
 5    1  0.8943334E-005  0.9118800E+02  0.7818608E-02  0.1130116E+00
         25   -1    0    0    0    0  0.00000000000E+00  0.00000000000E+00  0.99999998245E-14  0.12500000000E+03  0.12500000000E+03 0.  0.
        -13    1    3    3    0    0 -0.65292608540E+00 -0.45421908107E+02  0.83247129280E+01  0.46183201036E+02  0.10566000000E+00 0.  1.
         23    2    1    0    0    0  0.74051230159E+01 -0.88050381985E+01 -0.25718236014E+02  0.96825681761E+02  0.92635956519E+02 0.  0.
         13    1    3    3    0    0  0.80580491013E+01  0.36616869909E+02 -0.34042948942E+02  0.50642480725E+02  0.10566000000E+00 0. -1.
         22    1    1    0    0    0 -0.74051230159E+01  0.88050381985E+01  0.25718236014E+02  0.28174318239E+02  0.00000000000E+00 0. -1.
</event>
<event>
 5    1  0.8943334E-005  0.9118800E+02  0.7818608E-02  0.1130116E+00
         25   -1    0    0    0    0  0.00000000000E+00  0.00000000000E+00  0.99999998245E-14  0.12500000000E+03  0.12500000000E+03 0.  0.
        -13    1    3    3    0    0 -0.15217714600E+02  0.25446721178E+02 -0.48846748452E+02  0.57141320030E+02  0.10566000000E+00 0. -1.
         23    2    1    0    0    0  0.94071755362E+01  0.47952086376E+01 -0.27018119337E+02  0.95991936467E+02  0.91504011478E+02 0.  0.
         13    1    3    3    0    0  0.24624890137E+02 -0.20651512540E+02  0.21828629115E+02  0.38850616437E+02  0.10566000000E+00 0.  1.
         22    1    1    0    0    0 -0.94071755362E+01 -0.47952086376E+01  0.27018119337E+02  0.29008063533E+02  0.00000000000E+00 0. -1.
</event>
<event>
 5    1  0.8943334E-005  0.9118800E+02  0.7818608E-02  0.1130116E+00
         25   -1    0    0    0    0  0.00000000000E+00  0.00000000000E+00  0.99999998245E-14  0.12500000000E+03  0.12500000000E+03 0.  0.
        -13    1    3    3    0    0  0.13984502777E+02  0.48825375103E+02 -0.30143164554E+02  0.59060182062E+02  0.10566000000E+00 0.  1.
         23    2    1    0    0    0  0.18029520203E+02  0.21723637624E+02 -0.48414320239E+01  0.96357034120E+02  0.92001405043E+02 0.  0.
         13    1    3    3    0    0  0.40450174263E+01 -0.27101737479E+02  0.25301732530E+02  0.37296852058E+02  0.10566000000E+00 0. -1.
         22    1    1    0    0    0 -0.18029520203E+02 -0.21723637624E+02  0.48414320239E+01  0.28642965880E+02  0.00000000000E+00 0.  1.
</event>
<event>
 5    1  0.8943334E-005  0.9118800E+02  0.7818608E-02  0.1130116E+00
         25   -1    0    0    0    0  0.00000000000E+00  0.00000000000E+00  0.99999998245E-14  0.12500000000E+03  0.12500000000E+03 0.  0.
        -13    1    3    3    0    0 -0.24313046340E+02 -0.16837529668E+02  0.36871547783E+02  0.47266783555E+02  0.10566000000E+00 0. -1.
         23    2    1    0    0    0 -0.94479161999E+01  0.23561200791E+02  0.13595904207E+02  0.96203439190E+02  0.91792482250E+02 0.  0.
         13    1    3    3    0    0  0.14865130140E+02  0.40398730460E+02 -0.23275643576E+02  0.48936655635E+02  0.10566000000E+00 0.  1.
         22    1    1    0    0    0  0.94479161999E+01 -0.23561200791E+02 -0.13595904207E+02  0.28796560810E+02  0.00000000000E+00 0. -1.
</event>
<event>
 5    1  0.8943334E-005  0.9118800E+02  0.7818608E-02  0.1130116E+00
         25   -1    0    0    0    0  0.00000000000E+00  0.00000000000E+00  0.99999998245E-14  0.12500000000E+03  0.12500000000E+03 0.  0.
        -13    1    3    3    0    0  0.33385763997E+02  0.89028663104E+01  0.43439473410E+02  0.55505578822E+02  0.10566000000E+00 0.  1.
         23    2    1    0    0    0  0.87805048183E+01  0.22978904619E+02  0.12716852470E+02  0.97308021756E+02  0.93284540192E+02 0.  0.
         13    1    3    3    0    0 -0.24605259179E+02  0.14076038308E+02 -0.30722620940E+02  0.41802442933E+02  0.10566000000E+00 0. -1.
         22    1    1    0    0    0 -0.87805048183E+01 -0.22978904619E+02 -0.12716852470E+02  0.27691978244E+02  0.00000000000E+00 0.  1.
</event>
<event>
 5    1  0.8943334E-005  0.9118800E+02  0.7818608E-02  0.1130116E+00
         25   -1    0    0    0    0  0.00000000000E+00  0.00000000000E+00  0.99999998245E-14  0.12500000000E+03  0.12500000000E+03 0.  0.
        -13    1    3    3    0    0 -0.21717842036E+02 -0.29654449003E+02 -0.32566280179E+02  0.49108296418E+02  0.10566000000E+00 0.  1.
         23    2    1    0    0    0 -0.19513527816E+02  0.14514622871E+02 -0.11107756222E+02  0.98263614807E+02  0.94556351990E+02 0.  0.
         13    1    3    3    0    0  0.22043142200E+01  0.44169071874E+02  0.21458523957E+02  0.49155318389E+02  0.10566000000E+00 0. -1.
         22    1    1    0    0    0  0.19513527816E+02 -0.14514622871E+02  0.11107756222E+02  0.26736385193E+02  0.00000000000E+00 0. -1.
</event>
<event>
 5    1  0.8943334E-005  0.9118800E+02  0.7818608E-02  0.1130116E+00
         25   -1    0    0    0    0  0.00000000000E+00  0.00000000000E+00  0.99999998245E-14  0.12500000000E+03  0.12500000000E+03 0.  0.
        -13    1    3    3    0    0  0.21927871935E+02  0.36418296936E+02  0.35171424273E+02  0.55173944654E+02  0.10566000000E+00 0. -1.
         23    2    1    0    0    0 -0.91747210509E+01  0.12502437302E+02  0.24790616719E+02  0.95758571818E+02  0.91184664031E+02 0.  0.
         13    1    3    3    0    0 -0.31102592986E+02 -0.23915859634E+02 -0.10380807554E+02  0.40584627163E+02  0.10566000000E+00 0.  1.
         22    1    1    0    0    0  0.91747210509E+01 -0.12502437302E+02 -0.24790616719E+02  0.29241428182E+02  0.00000000000E+00 0. -1.
</event>
<event>
 5    1  0.8943334E-005  0.9118800E+02  0.7818608E-02  0.1130116E+00
         25   -1    0    0    0    0  0.00000000000E+00  0.00000000000E+00  0.99999998245E-14  0.12500000000E+03  0.12500000000E+03 0.  0.
        -13    1    3    3    0    0  0.27246422650E+02 -0.22372099451E+02  0.19659416626E+02  0.40365606736E+02  0.10566000000E+00 0. -1.
         23    2    1    0    0    0 -0.16244463858E+02 -0.18125641152E+02 -0.15234265938E+02  0.96285816538E+02  0.91904592565E+02 0.  0.
         13    1    3    3    0    0 -0.43490886509E+02  0.42464582990E+01 -0.34893682564E+02  0.55920209802E+02  0.10566000000E+00 0.  1.
         22    1    1    0    0    0  0.16244463858E+02  0.18125641152E+02  0.15234265938E+02  0.28714183462E+02  0.00000000000E+00 0.  1.
</event>
<event>
 5    1  0.8943334E-005  0.9118800E+02  0.7818608E-02  0.1130116E+00
         25   -1    0    0    0    0  0.00000000000E+00  0.00000000000E+00  0.99999998245E-14  0.12500000000E+03  0.12500000000E+03 0.  0.
        -13    1    3    3    0    0  0.18634511848E+02 -0.22805412886E+02 -0.20087377139E+02  0.35648923870E+02  0.10566000000E+00 0. -1.
         23    2    1    0    0    0  0.71010105960E+01  0.25337965700E+02  0.13452620125E+02  0.95446491824E+02  0.90755842545E+02 0.  0.
         13    1    3    3    0    0 -0.11533501252E+02  0.48143378586E+02  0.33539997264E+02  0.59797567954E+02  0.10566000000E+00 0.  1.
         22    1    1    0    0    0 -0.71010105960E+01 -0.25337965700E+02 -0.13452620125E+02  0.29553508176E+02  0.00000000000E+00 0.  1.
</event>
<event>
 5    1  0.8943334E-005  0.9118800E+02  0.7818608E-02  0.1130116E+00
         25   -1    0    0    0    0  0.00000000000E+00  0.00000000000E+00  0.99999998245E-14  0.12500000000E+03  0.12500000000E+03 0.  0.
        -13    1    3    3    0    0  0.19384086514E+02  0.16029636402E+02  0.23765807281E+02  0.34605155871E+02  0.10566000000E+00 0.  1.
         23    2    1    0    0    0 -0.83256920007E+01  0.14629285481E+02 -0.27419175385E+02  0.92826341213E+02  0.87072299287E+02 0.  0.
         13    1    3    3    0    0 -0.27709778514E+02 -0.14003509208E+01 -0.51184982666E+02  0.58221185341E+02  0.10566000000E+00 0. -1.
         22    1    1    0    0    0  0.83256920007E+01 -0.14629285481E+02  0.27419175385E+02  0.32173658787E+02  0.00000000000E+00 0. -1.
</event>
<event>
 5    1  0.8943334E-005  0.9118800E+02  0.7818608E-02  0.1130116E+00
         25   -1    0    0    0    0  0.00000000000E+00  0.00000000000E+00  0.99999998245E-14  0.12500000000E+03  0.12500000000E+03 0.  0.
        -13    1    3    3    0    0  0.30343673382E+01  0.78372485364E+01  0.33295555686E+02  0.34339991878E+02  0.10566000000E+00 0.  1.
         23    2    1    0    0    0  0.74414598552E+01 -0.28920983205E+01 -0.27568092635E+02  0.96299141319E+02  0.91922713895E+02 0.  0.
         13    1    3    3    0    0  0.44070925170E+01 -0.10729346857E+02 -0.60863648321E+02  0.61959149441E+02  0.10566000000E+00 0. -1.
         22    1    1    0    0    0 -0.74414598552E+01  0.28920983205E+01  0.27568092635E+02  0.28700858681E+02  0.00000000000E+00 0. -1.
</event>
<event>
 5    1  0.8943334E-005  0.9118800E+02  0.7818608E-02  0.1130116E+00
         25   -1    0    0    0    0  0.00000000000E+00  0.00000000000E+00  0.99999998245E-14  0.12500000000E+03  0.12500000000E+03 0.  0.
        -13    1    3    3    0    0  0.23048634542E+02 -0.26045000679E+00  0.26535892040E+02  0.35149283333E+02  0.10566000000E+00 0.  1.
         23    2    1    0    0    0 -0.12769635445E+00 -0.31330783302E+01 -0.29227090636E+02  0.95605182204E+02  0.90974147707E+02 0.  0.
         13    1    3    3    0    0 -0.23176330896E+02 -0.28726283234E+01 -0.55762982676E+02  0.60455898871E+02  0.10566000000E+00 0. -1.
         22    1    1    0    0    0  0.12769635445E+00  0.31330783302E+01  0.29227090636E+02  0.29394817796E+02  0.00000000000E+00 0. -1.
</event>
<event>
 5    1  0.8943334E-005  0.9118800E+02  0.7818608E-02  0.1130116E+00
         25   -1    0    0    0    0  0.00000000000E+00  0.00000000000E+00  0.99999998245E-14  0.12500000000E+03  0.12500000000E+03 0.  0.
        -13    1    3    3    0    0 -0.43614238732E+02  0.30860621678E+02 -0.11714858561E+02  0.54697612980E+02  0.10566000000E+00 0.  1.
         23    2    1    0    0    0 -0.81263054822E+01  0.17165746846E+02 -0.23745502070E+02  0.94593609650E+02  0.89573447028E+02 0.  0.
         13    1    3    3    0    0  0.35487933250E+02 -0.13694874831E+02 -0.12030643508E+02  0.39895996670E+02  0.10566000000E+00 0. -1.
         22    1    1    0    0    0  0.81263054822E+01 -0.17165746846E+02  0.23745502070E+02  0.30406390350E+02  0.00000000000E+00 0.  1.
</event>
<event>
 5    1  0.8943334E-005  0.9118800E+02  0.7818608E-02  0.1130116E+00
         25   -1    0    0    0    0  0.00000000000E+00  0.00000000000E+00  0.99999998245E-14  0.12500000000E+03  0.12500000000E+03 0.  0.
        -13    1    3    3    0    0  0.98862041008E+01 -0.42244413120E+02  0.68189808345E+01  0.43918528380E+02  0.10566000000E+00 0. -1.
         23    2    1    0    0    0 -0.50524378732E+01  0.22267007182E+01  0.28764060670E+02  0.95710812391E+02  0.91119169760E+02 0.  0.
         13    1    3    3    0    0 -0.14938641974E+02  0.44471113838E+02  0.21945079836E+02  0.51792284011E+02  0.10566000000E+00 0.  1.
         22    1    1    0    0    0  0.50524378732E+01 -0.22267007182E+01 -0.28764060670E+02  0.29289187609E+02  0.00000000000E+00 0.  1.
</event>
<event>
 5    1  0.8943334E-005  0.9118800E+02  0.7818608E-02  0.1130116E+00
         25   -1    0    0    0    0  0.00000000000E+00  0.00000000000E+00  0.99999998245E-14  0.12500000000E+03  0.12500000000E+03 0.  0.
        -13    1    3    3    0    0  0.21407967864E+02 -0.35638422589E+02  0.34351388750E+02  0.53929837065E+02  0.10566000000E+00 0.  1.
         23    2    1    0    0    0  0.26404062692E+02 -0.10787044837E+02  0.17991729644E+00  0.96476900008E+02  0.92164119927E+02 0.  0.
         13    1    3    3    0    0  0.49960948277E+01  0.24851377753E+02 -0.34171471454E+02  0.42547062943E+02  0.10566000000E+00 0. -1.
         22    1    1    0    0    0 -0.26404062692E+02  0.10787044837E+02 -0.17991729644E+00  0.28523099992E+02  0.00000000000E+00 0.  1.
</event>
<event>
 5    1  0.8943334E-005  0.9118800E+02  0.7818608E-02  0.1130116E+00
         25   -1    0    0    0    0  0.00000000000E+00  0.00000000000E+00  0.99999998245E-14  0.12500000000E+03  0.12500000000E+03 0.  0.
        -13    1    3    3    0    0 -0.29723809094E+02  0.50449112404E+02 -0.59014332576E+01  0.58851132937E+02  0.10566000000E+00 0.  1.
         23    2    1    0    0    0 -0.24747439986E+02  0.12934263309E+02 -0.55271497263E+00  0.97070867414E+02  0.92966213505E+02 0.  0.
         13    1    3    3    0    0  0.49763691082E+01 -0.37514849095E+02  0.53487182850E+01  0.38219734477E+02  0.10566000000E+00 0. -1.
         22    1    1    0    0    0  0.24747439986E+02 -0.12934263309E+02  0.55271497263E+00  0.27929132586E+02  0.00000000000E+00 0.  1.
</event>
<event>
 5    1  0.8943334E-005  0.9118800E+02  0.7818608E-02  0.1130116E+00
         25   -1    0    0    0    0  0.00000000000E+00  0.00000000000E+00  0.99999998245E-14  0.12500000000E+03  0.12500000000E+03 0.  0.
        -13    1    3    3    0    0  0.13510156752E+02 -0.24126184914E+02 -0.55320294789E+02  0.61846126099E+02  0.10566000000E+00 0.  1.
         23    2    1    0    0    0  0.97460293243E+00 -0.78322695579E+01 -0.27187545129E+02  0.96689985740E+02  0.92452671324E+02 0.  0.
         13    1    3    3    0    0 -0.12535553820E+02  0.16293915356E+02  0.28132749660E+02  0.34843859640E+02  0.10566000000E+00 0. -1.
         22    1    1    0    0    0 -0.97460293243E+00  0.78322695579E+01  0.27187545129E+02  0.28310014260E+02  0.00000000000E+00 0.  1.
</event>
<event>
 5    1  0.8943334E-005  0.9118800E+02  0.7818608E-02  0.1130116E+00
         25   -1    0    0    0    0  0.00000000000E+00  0.00000000000E+00  0.99999998245E-14  0.12500000000E+03  0.12500000000E+03 0.  0.
        -13    1    3    3    0    0  0.30123444194E+02  0.18140512780E+02  0.13696158263E+02  0.37737196626E+02  0.10566000000E+00 0. -1.
         23    2    1    0    0    0 -0.22718870831E+02 -0.66780741673E+01  0.16424568864E+02  0.96181425629E+02  0.91762500005E+02 0.  0.
         13    1    3    3    0    0 -0.52842315025E+02 -0.24818586947E+02  0.27284106008E+01  0.58444229002E+02  0.10566000000E+00 0.  1.
         22    1    1    0    0    0  0.22718870831E+02  0.66780741673E+01 -0.16424568864E+02  0.28818574371E+02  0.00000000000E+00 0.  1.
</event>
<event>
 5    1  0.8943334E-005  0.9118800E+02  0.7818608E-02  0.1130116E+00
         25   -1    0    0    0    0  0.00000000000E+00  0.00000000000E+00  0.99999998245E-14  0.12500000000E+03  0.12500000000E+03 0.  0.
        -13    1    3    3    0    0  0.28623087208E+02 -0.27390849181E+02 -0.47499762405E+01  0.39901292942E+02  0.10566000000E+00 0. -1.
         23    2    1    0    0    0  0.12165754535E+02  0.13428150865E+02  0.25797080029E+02  0.93475245329E+02  0.87998928017E+02 0.  0.
         13    1    3    3    0    0 -0.16457332674E+02  0.40819000046E+02  0.30547056270E+02  0.53573952386E+02  0.10566000000E+00 0.  1.
         22    1    1    0    0    0 -0.12165754535E+02 -0.13428150865E+02 -0.25797080029E+02  0.31524754671E+02  0.00000000000E+00 0. -1.
</event>
<event>
 5    1  0.8943334E-005  0.9118800E+02  0.7818608E-02  0.1130116E+00
         25   -1    0    0    0    0  0.00000000000E+00  0.00000000000E+00  0.99999998245E-14  0.12500000000E+03  0.12500000000E+03 0.  0.
        -13    1    3    3    0    0  0.39480559936E+02  0.31820206293E+02  0.18179178692E+02  0.53867743997E+02  0.10566000000E+00 0. -1.
         23    2    1    0    0    0  0.26948805966E+02  0.34472612059E+01 -0.10269151724E+02  0.95955598991E+02  0.91454358823E+02 0.  0.
         13    1    3    3    0    0 -0.12531753970E+02 -0.28372945087E+02 -0.28448330416E+02  0.42087854994E+02  0.10566000000E+00 0.  1.
         22    1    1    0    0    0 -0.26948805966E+02 -0.34472612059E+01  0.10269151724E+02  0.29044401009E+02  0.00000000000E+00 0. -1.
</event>
<event>
 5    1  0.8943334E-005  0.9118800E+02  0.7818608E-02  0.1130116E+00
         25   -1    0    0    0    0  0.00000000000E+00  0.00000000000E+00  0.99999998245E-14  0.12500000000E+03  0.12500000000E+03 0.  0.
        -13    1    3    3    0    0 -0.19443279707E+02 -0.19218845885E+02 -0.27890135868E+02  0.39054782110E+02  0.10566000000E+00 0.  1.
         23    2    1    0    0    0  0.28557293539E+02 -0.25560925837E+01 -0.15505789017E+01  0.96286642159E+02  0.91905715490E+02 0.  0.
         13    1    3    3    0    0  0.48000573246E+02  0.16662753301E+02  0.26339556966E+02  0.57231860049E+02  0.10566000000E+00 0. -1.
         22    1    1    0    0    0 -0.28557293539E+02  0.25560925837E+01  0.15505789017E+01  0.28713357841E+02  0.00000000000E+00 0. -1.
</event>
<event>
 5    1  0.8943334E-005  0.9118800E+02  0.7818608E-02  0.1130116E+00
         25   -1    0    0    0    0  0.00000000000E+00  0.00000000000E+00  0.99999998245E-14  0.12500000000E+03  0.12500000000E+03 0.  0.
        -13    1    3    3    0    0  0.38272945128E+01  0.46076850102E+02 -0.16490236793E+02  0.49088322157E+02  0.10566000000E+00 0. -1.
         23    2    1    0    0    0 -0.21228163262E+02  0.17567643906E+02  0.10340549370E+02  0.95568996124E+02  0.90924413833E+02 0.  0.
         13    1    3    3    0    0 -0.25055457775E+02 -0.28509206196E+02  0.26830786163E+02  0.46480673967E+02  0.10566000000E+00 0.  1.
         22    1    1    0    0    0  0.21228163262E+02 -0.17567643906E+02 -0.10340549370E+02  0.29431003876E+02  0.00000000000E+00 0. -1.
</event>
<event>
 5    1  0.8943334E-005  0.9118800E+02  0.7818608E-02  0.1130116E+00
         25   -1    0    0    0    0  0.00000000000E+00  0.00000000000E+00  0.99999998245E-14  0.12500000000E+03  0.12500000000E+03 0.  0.
        -13    1    3    3    0    0 -0.27404625224E+02 -0.16362884981E+02  0.36668278753E+02  0.48614106176E+02  0.10566000000E+00 0. -1.
         23    2    1    0    0    0  0.81295224634E+00 -0.28749679830E+02  0.36093862499E+00  0.96236563863E+02  0.91837579268E+02 0.  0.
         13    1    3    3    0    0  0.28217577471E+02 -0.12386794850E+02 -0.36307340128E+02  0.47622457687E+02  0.10566000000E+00 0.  1.
         22    1    1    0    0    0 -0.81295224634E+00  0.28749679830E+02 -0.36093862499E+00  0.28763436137E+02  0.00000000000E+00 0.  1.
</event>
<event>
 5    1  0.8943334E-005  0.9118800E+02  0.7818608E-02  0.1130116E+00
         25   -1    0    0    0    0  0.00000000000E+00  0.00000000000E+00  0.99999998245E-14  0.12500000000E+03  0.12500000000E+03 0.  0.
        -13    1    3    3    0    0  0.27510820387E+02  0.18903275789E+02 -0.28751277494E+02  0.44054808994E+02  0.10566000000E+00 0. -1.
         23    2    1    0    0    0 -0.16418667658E+02  0.26389307454E+02 -0.10811326825E+02  0.92093268420E+02  0.86013470486E+02 0.  0.
         13    1    3    3    0    0 -0.43929488045E+02  0.74860316649E+01  0.17939950669E+02  0.48038459426E+02  0.10566000000E+00 0.  1.
         22    1    1    0    0    0  0.16418667658E+02 -0.26389307454E+02  0.10811326825E+02  0.32906731580E+02  0.00000000000E+00 0. -1.
</event>
<event>
 5    1  0.8943334E-005  0.9118800E+02  0.7818608E-02  0.1130116E+00
         25   -1    0    0    0    0  0.00000000000E+00  0.00000000000E+00  0.99999998245E-14  0.12500000000E+03  0.12500000000E+03 0.  0.
        -13    1    3    3    0    0 -0.22122421636E+02  0.37466898488E+02 -0.17056723518E+02  0.46734494782E+02  0.10566000000E+00 0.  1.
         23    2    1    0    0    0 -0.12426812331E+02 -0.45343127249E+01  0.18254090405E+02  0.10245676436E+03  0.99945940839E+02 0.  0.
         13    1    3    3    0    0  0.96956093050E+01 -0.42001211213E+02  0.35310813923E+02  0.55722269579E+02  0.10566000000E+00 0. -1.
         22    1    1    0    0    0  0.12426812331E+02  0.45343127249E+01 -0.18254090405E+02  0.22543235639E+02  0.00000000000E+00 0. -1.
</event>
<event>
 5    1  0.8943334E-005  0.9118800E+02  0.7818608E-02  0.1130116E+00
         25   -1    0    0    0    0  0.00000000000E+00  0.00000000000E+00  0.99999998245E-14  0.12500000000E+03  0.12500000000E+03 0.  0.
        -13    1    3    3    0    0  0.56759423033E+01  0.33530199442E+02  0.36956196740E+01  0.34207592205E+02  0.10566000000E+00 0.  1.
         23    2    1    0    0    0 -0.60514887119E+01 -0.27521649907E+02  0.49556743749E+01  0.96388456216E+02  0.92044087555E+02 0.  0.
         13    1    3    3    0    0 -0.11727431015E+02 -0.61051849349E+02  0.12600547010E+01  0.62180864010E+02  0.10566000000E+00 0. -1.
         22    1    1    0    0    0  0.60514887119E+01  0.27521649907E+02 -0.49556743749E+01  0.28611543784E+02  0.00000000000E+00 0. -1.
</event>
<event>
 5    1  0.8943334E-005  0.9118800E+02  0.7818608E-02  0.1130116E+00
         25   -1    0    0    0    0  0.00000000000E+00  0.00000000000E+00  0.99999998245E-14  0.12500000000E+03  0.12500000000E+03 0.  0.
        -13    1    3    3    0    0 -0.10220985911E+02 -0.34595409926E+02  0.34705895951E+02  0.50058179339E+02  0.10566000000E+00 0.  1.
         23    2    1    0    0    0  0.92068061564E+01  0.86266458101E+01  0.22836788723E+02  0.98909710299E+02  0.95406643242E+02 0.  0.
         13    1    3    3    0    0  0.19427792068E+02  0.43222055736E+02 -0.11869107229E+02  0.48851530960E+02  0.10566000000E+00 0. -1.
         22    1    1    0    0    0 -0.92068061564E+01 -0.86266458101E+01 -0.22836788723E+02  0.26090289701E+02  0.00000000000E+00 0.  1.
</event>
<event>
 5    1  0.8943334E-005  0.9118800E+02  0.7818608E-02  0.1130116E+00
         25   -1    0    0    0    0  0.00000000000E+00  0.00000000000E+00  0.99999998245E-14  0.12500000000E+03  0.12500000000E+03 0.  0.
        -13    1    3    3    0    0  0.45735473682E+02 -0.12272104858E+02 -0.30352112246E+02  0.56245888671E+02  0.10566000000E+00 0. -1.
         23    2    1    0    0    0  0.22617817364E+02 -0.20336818834E+02 -0.86715300388E+00  0.94571332317E+02  0.89542353550E+02 0.  0.
         13    1    3    3    0    0 -0.23117656318E+02 -0.80647139763E+01  0.29484959242E+02  0.38325443646E+02  0.10566000000E+00 0.  1.
         22    1    1    0    0    0 -0.22617817364E+02  0.20336818834E+02  0.86715300388E+00  0.30428667683E+02  0.00000000000E+00 0. -1.
</event>
<event>
 5    1  0.8943334E-005  0.9118800E+02  0.7818608E-02  0.1130116E+00
         25   -1    0    0    0    0  0.00000000000E+00  0.00000000000E+00  0.99999998245E-14  0.12500000000E+03  0.12500000000E+03 0.  0.
        -13    1    3    3    0    0 -0.60957356315E+02  0.81619731932E+01 -0.10477256807E+02  0.62387508121E+02  0.10566000000E+00 0.  1.
         23    2    1    0    0    0 -0.29886062729E+02  0.24144344554E+01 -0.29386827962E+01  0.94872900973E+02  0.89962354589E+02 0.  0.
         13    1    3    3    0    0  0.31071293585E+02 -0.57475387378E+01  0.75385740111E+01  0.32485392852E+02  0.10566000000E+00 0. -1.
         22    1    1    0    0    0  0.29886062729E+02 -0.24144344554E+01  0.29386827962E+01  0.30127099027E+02  0.00000000000E+00 0.  1.
</event>
<event>
 5    1  0.8943334E-005  0.9118800E+02  0.7818608E-02  0.1130116E+00
         25   -1    0    0    0    0  0.00000000000E+00  0.00000000000E+00  0.99999998245E-14  0.12500000000E+03  0.12500000000E+03 0.  0.
        -13    1    3    3    0    0  0.43426942851E+02 -0.81654413920E+01 -0.38659830246E+02  0.58712583295E+02  0.10566000000E+00 0.  1.
         23    2    1    0    0    0  0.20188717193E+02 -0.17746297781E+02 -0.11370011238E+02  0.95814514868E+02  0.91261321035E+02 0.  0.
         13    1    3    3    0    0 -0.23238225658E+02 -0.95808563892E+01  0.27289819009E+02  0.37101931573E+02  0.10566000000E+00 0. -1.
         22    1    1    0    0    0 -0.20188717193E+02  0.17746297781E+02  0.11370011238E+02  0.29185485132E+02  0.00000000000E+00 0.  1.
</event>
<event>
 5    1  0.8943334E-005  0.9118800E+02  0.7818608E-02  0.1130116E+00
         25   -1    0    0    0    0  0.00000000000E+00  0.00000000000E+00  0.99999998245E-14  0.12500000000E+03  0.12500000000E+03 0.  0.
        -13    1    3    3    0    0  0.25541096936E+02  0.80273265198E+01 -0.42095404908E+02  0.49888073546E+02  0.10566000000E+00 0. -1.
         23    2    1    0    0    0 -0.44224809575E+01 -0.20176213910E+02 -0.10128803162E+02  0.10199498752E+03  0.99366729244E+02 0.  0.
         13    1    3    3    0    0 -0.29963577894E+02 -0.28203540430E+02  0.31966601746E+02  0.52106913977E+02  0.10566000000E+00 0.  1.
         22    1    1    0    0    0  0.44224809575E+01  0.20176213910E+02  0.10128803162E+02  0.23005012477E+02  0.00000000000E+00 0. -1.
</event>
<event>
 5    1  0.8943334E-005  0.9118800E+02  0.7818608E-02  0.1130116E+00
         25   -1    0    0    0    0  0.00000000000E+00  0.00000000000E+00  0.99999998245E-14  0.12500000000E+03  0.12500000000E+03 0.  0.
        -13    1    3    3    0    0  0.22522154027E+02  0.32628991210E+02 -0.36994449098E+02  0.54226367364E+02  0.10566000000E+00 0.  1.
         23    2    1    0    0    0  0.22249813555E+01  0.25697908793E+02  0.24138129928E+01  0.99093252780E+02  0.95646814871E+02 0.  0.
         13    1    3    3    0    0 -0.20297172672E+02 -0.69310824172E+01  0.39408262090E+02  0.44866885416E+02  0.10566000000E+00 0. -1.
         22    1    1    0    0    0 -0.22249813555E+01 -0.25697908793E+02 -0.24138129928E+01  0.25906747220E+02  0.00000000000E+00 0.  1.
</event>
<event>
 5    1  0.8943334E-005  0.9118800E+02  0.7818608E-02  0.1130116E+00
         25   -1    0    0    0    0  0.00000000000E+00  0.00000000000E+00  0.99999998245E-14  0.12500000000E+03  0.12500000000E+03 0.  0.
        -13    1    3    3    0    0  0.27601804966E+02 -0.20191941581E+02  0.71944613316E+01  0.34947755008E+02  0.10566000000E+00 0. -1.
         23    2    1    0    0    0 -0.90924305327E+01  0.26466192223E+02  0.12105771353E+02  0.94509323985E+02  0.89455748816E+02 0.  0.
         13    1    3    3    0    0 -0.36694235499E+02  0.46658133804E+02  0.49113100215E+01  0.59561568978E+02  0.10566000000E+00 0.  1.
         22    1    1    0    0    0  0.90924305327E+01 -0.26466192223E+02 -0.12105771353E+02  0.30490676015E+02  0.00000000000E+00 0.  1.
</event>
<event>
 5    1  0.8943334E-005  0.9118800E+02  0.7818608E-02  0.1130116E+00
         25   -1    0    0    0    0  0.00000000000E+00  0.00000000000E+00  0.99999998245E-14  0.12500000000E+03  0.12500000000E+03 0.  0.
        -13    1    3    3    0    0 -0.41869119520E+02  0.16637321675E+02 -0.21524622875E+02  0.49931394892E+02  0.10566000000E+00 0.  1.
         23    2    1    0    0    0 -0.22424607059E+02 -0.19575782114E+02 -0.15389505775E+02  0.91490133765E+02  0.85132446466E+02 0.  0.
         13    1    3    3    0    0  0.19444512462E+02 -0.36213103788E+02  0.61351170994E+01  0.41558738873E+02  0.10566000000E+00 0. -1.
         22    1    1    0    0    0  0.22424607059E+02  0.19575782114E+02  0.15389505775E+02  0.33509866235E+02  0.00000000000E+00 0.  1.
</event>
<event>
 5    1  0.8943334E-005  0.9118800E+02  0.7818608E-02  0.1130116E+00
         25   -1    0    0    0    0  0.00000000000E+00  0.00000000000E+00  0.99999998245E-14  0.12500000000E+03  0.12500000000E+03 0.  0.
        -13    1    3    3    0    0 -0.22183722465E+02 -0.16394677790E+02 -0.26005576015E+02  0.37910475467E+02  0.10566000000E+00 0.  1.
         23    2    1    0    0    0  0.21721762570E+02  0.35619674468E+01  0.12555216799E+02  0.99659201865E+02  0.96383610984E+02 0.  0.
         13    1    3    3    0    0  0.43905485036E+02  0.19956645237E+02  0.38560792814E+02  0.61748726398E+02  0.10566000000E+00 0. -1.
         22    1    1    0    0    0 -0.21721762570E+02 -0.35619674468E+01 -0.12555216799E+02  0.25340798135E+02  0.00000000000E+00 0. -1.
</event>
<event>
 5    1  0.8943334E-005  0.9118800E+02  0.7818608E-02  0.1130116E+00
         25   -1    0    0    0    0  0.00000000000E+00  0.00000000000E+00  0.99999998245E-14  0.12500000000E+03  0.12500000000E+03 0.  0.
        -13    1    3    3    0    0  0.13175544053E+02 -0.60636405369E+02 -0.60782186673E+01  0.62348412356E+02  0.10566000000E+00 0. -1.
         23    2    1    0    0    0  0.75189552445E+01 -0.26517595184E+02 -0.15549551493E+00  0.97436587273E+02  0.93456657431E+02 0.  0.
         13    1    3    3    0    0 -0.56565888087E+01  0.34118810185E+02  0.59227231524E+01  0.35088174916E+02  0.10566000000E+00 0.  1.
         22    1    1    0    0    0 -0.75189552445E+01  0.26517595184E+02  0.15549551493E+00  0.27563412727E+02  0.00000000000E+00 0. -1.
</event>
<event>
 5    1  0.8943334E-005  0.9118800E+02  0.7818608E-02  0.1130116E+00
         25   -1    0    0    0    0  0.00000000000E+00  0.00000000000E+00  0.99999998245E-14  0.12500000000E+03  0.12500000000E+03 0.  0.
        -13    1    3    3    0    0 -0.23212734401E+02  0.13644716740E+02  0.39340621789E+02  0.47672896074E+02  0.10566000000E+00 0. -1.
         23    2    1    0    0    0  0.10025192509E+02 -0.13255744047E+02  0.28857003507E+02  0.91699160874E+02  0.85438809791E+02 0.  0.
         13    1    3    3    0    0  0.33237926911E+02 -0.26900460787E+02 -0.10483618282E+02  0.44026264799E+02  0.10566000000E+00 0.  1.
         22    1    1    0    0    0 -0.10025192509E+02  0.13255744047E+02 -0.28857003507E+02  0.33300839126E+02  0.00000000000E+00 0. -1.
</event>
<event>
 5    1  0.8943334E-005  0.9118800E+02  0.7818608E-02  0.1130116E+00
         25   -1    0    0    0    0  0.00000000000E+00  0.00000000000E+00  0.99999998245E-14  0.12500000000E+03  0.12500000000E+03 0.  0.
        -13    1    3    3    0    0  0.26294029794E+02 -0.25928991808E+02 -0.73246541360E+01  0.37647713625E+02  0.10566000000E+00 0. -1.
         23    2    1    0    0    0 -0.43578352860E+01  0.12725312680E+02  0.24988756044E+02  0.96621095162E+02  0.92359481324E+02 0.  0.
         13    1    3    3    0    0 -0.30651865080E+02  0.38654304488E+02  0.32313410180E+02  0.58973381536E+02  0.10566000000E+00 0.  1.
         22    1    1    0    0    0  0.43578352860E+01 -0.12725312680E+02 -0.24988756044E+02  0.28378904838E+02  0.00000000000E+00 0.  1.
</event>
<event>
 5    1  0.8943334E-005  0.9118800E+02  0.7818608E-02  0.1130116E+00
         25   -1    0    0    0    0  0.00000000000E+00  0.00000000000E+00  0.99999998245E-14  0.12500000000E+03  0.12500000000E+03 0.  0.
        -13    1    3    3    0    0 -0.27267669919E+02 -0.37573456466E+01 -0.21503179970E+02  0.34929090770E+02  0.10566000000E+00 0. -1.
         23    2    1    0    0    0  0.28679529167E+02 -0.11668749034E+02 -0.75521512314E+01  0.93129793137E+02  0.87506847071E+02 0.  0.
         13    1    3    3    0    0  0.55947199086E+02 -0.79114033874E+01  0.13951028739E+02  0.58200702367E+02  0.10566000000E+00 0.  1.
         22    1    1    0    0    0 -0.28679529167E+02  0.11668749034E+02  0.75521512314E+01  0.31870206863E+02  0.00000000000E+00 0.  1.
</event>
<event>
 5    1  0.8943334E-005  0.9118800E+02  0.7818608E-02  0.1130116E+00
         25   -1    0    0    0    0  0.00000000000E+00  0.00000000000E+00  0.99999998245E-14  0.12500000000E+03  0.12500000000E+03 0.  0.
        -13    1    3    3    0    0  0.52684812517E+01 -0.28788054052E+02  0.27724240740E+02  0.40313194360E+02  0.10566000000E+00 0.  1.
         23    2    1    0    0    0  0.18966920998E+02  0.21004938839E+02  0.80571856145E+01  0.95574334539E+02  0.90931752621E+02 0.  0.
         13    1    3    3    0    0  0.13698439746E+02  0.49792992891E+02 -0.19667055126E+02  0.55261140179E+02  0.10566000000E+00 0. -1.
         22    1    1    0    0    0 -0.18966920998E+02 -0.21004938839E+02 -0.80571856145E+01  0.29425665461E+02  0.00000000000E+00 0. -1.
</event>
<event>
 5    1  0.8943334E-005  0.9118800E+02  0.7818608E-02  0.1130116E+00
         25   -1    0    0    0    0  0.00000000000E+00  0.00000000000E+00  0.99999998245E-14  0.12500000000E+03  0.12500000000E+03 0.  0.
        -13    1    3    3    0    0 -0.29157034375E+02 -0.48785452532E+02  0.16764485819E+02  0.59255482288E+02  0.10566000000E+00 0.  1.
         23    2    1    0    0    0 -0.12275896042E+02 -0.26243358480E+02 -0.59332020967E+01  0.95426120054E+02  0.90727779723E+02 0.  0.
         13    1    3    3    0    0  0.16881138333E+02  0.22542094052E+02 -0.22697687916E+02  0.36170637766E+02  0.10566000000E+00 0. -1.
         22    1    1    0    0    0  0.12275896042E+02  0.26243358480E+02  0.59332020967E+01  0.29573879946E+02  0.00000000000E+00 0.  1.
</event>
<event>
 5    1  0.8943334E-005  0.9118800E+02  0.7818608E-02  0.1130116E+00
         25   -1    0    0    0    0  0.00000000000E+00  0.00000000000E+00  0.99999998245E-14  0.12500000000E+03  0.12500000000E+03 0.  0.
        -13    1    3    3    0    0 -0.95999927918E+01  0.21822176037E+02 -0.38428740207E+02  0.45223295618E+02  0.10566000000E+00 0. -1.
         23    2    1    0    0    0  0.17598612556E+02  0.21885610136E+02  0.50083417675E+01  0.96473265484E+02  0.92159190377E+02 0.  0.
         13    1    3    3    0    0  0.27198605348E+02  0.63434098527E-01  0.43437081975E+02  0.51249969866E+02  0.10566000000E+00 0.  1.
         22    1    1    0    0    0 -0.17598612556E+02 -0.21885610136E+02 -0.50083417675E+01  0.28526734516E+02  0.00000000000E+00 0.  1.
</event>
<event>
 5    1  0.8943334E-005  0.9118800E+02  0.7818608E-02  0.1130116E+00
         25   -1    0    0    0    0  0.00000000000E+00  0.00000000000E+00  0.99999998245E-14  0.12500000000E+03  0.12500000000E+03 0.  0.
        -13    1    3    3    0    0  0.40048138554E+02  0.61789413681E+01  0.13499764819E+02  0.42711679108E+02  0.10566000000E+00 0.  1.
         23    2    1    0    0    0 -0.90425786589E+01 -0.22089558634E+02  0.88236078348E+01  0.99552546598E+02  0.96245190267E+02 0.  0.
         13    1    3    3    0    0 -0.49090717213E+02 -0.28268500002E+02 -0.46761569846E+01  0.56840867490E+02  0.10566000000E+00 0. -1.
         22    1    1    0    0    0  0.90425786589E+01  0.22089558634E+02 -0.88236078348E+01  0.25447453402E+02  0.00000000000E+00 0. -1.
</event>
<event>
 5    1  0.8943334E-005  0.9118800E+02  0.7818608E-02  0.1130116E+00
         25   -1    0    0    0    0  0.00000000000E+00  0.00000000000E+00  0.99999998245E-14  0.12500000000E+03  0.12500000000E+03 0.  0.
        -13    1    3    3    0    0 -0.41471149339E+02 -0.15900009676E+02  0.31598633584E+02  0.54508268580E+02  0.10566000000E+00 0. -1.
         23    2    1    0    0    0  0.49785940539E+00 -0.13524872017E+02  0.24316755228E+02  0.97170616035E+02  0.93100236352E+02 0.  0.
         13    1    3    3    0    0  0.41969008745E+02  0.23751376593E+01 -0.72818783562E+01  0.42662347455E+02  0.10566000000E+00 0.  1.
         22    1    1    0    0    0 -0.49785940539E+00  0.13524872017E+02 -0.24316755228E+02  0.27829383965E+02  0.00000000000E+00 0. -1.
</event>
<event>
 5    1  0.8943334E-005  0.9118800E+02  0.7818608E-02  0.1130116E+00
         25   -1    0    0    0    0  0.00000000000E+00  0.00000000000E+00  0.99999998245E-14  0.12500000000E+03  0.12500000000E+03 0.  0.
        -13    1    3    3    0    0  0.22449289780E+01 -0.40711978870E+02  0.38738275364E+02  0.56242066746E+02  0.10566000000E+00 0.  1.
         23    2    1    0    0    0 -0.21494430049E+01 -0.29158004256E+02  0.12277083170E+01  0.95737112495E+02  0.91155241889E+02 0.  0.
         13    1    3    3    0    0 -0.43943719829E+01  0.11553974614E+02 -0.37510567047E+02  0.39495045749E+02  0.10566000000E+00 0. -1.
         22    1    1    0    0    0  0.21494430049E+01  0.29158004256E+02 -0.12277083170E+01  0.29262887505E+02  0.00000000000E+00 0.  1.
</event>
<event>
 5    1  0.8943334E-005  0.9118800E+02  0.7818608E-02  0.1130116E+00
         25   -1    0    0    0    0  0.00000000000E+00  0.00000000000E+00  0.99999998245E-14  0.12500000000E+03  0.12500000000E+03 0.  0.
        -13    1    3    3    0    0  0.58589013649E+02  0.20004484045E+02  0.34737017450E+01  0.62007496886E+02  0.10566000000E+00 0.  1.
         23    2    1    0    0    0  0.39860951824E+02  0.17238998805E+02 -0.13722694897E+01  0.81549318951E+02  0.69009635108E+02 0.  0.
         13    1    3    3    0    0 -0.18728061825E+02 -0.27654852398E+01 -0.48459712347E+01  0.19541822064E+02  0.10566000000E+00 0. -1.
         22    1    1    0    0    0 -0.39860951824E+02 -0.17238998805E+02  0.13722694897E+01  0.43450681049E+02  0.00000000000E+00 0.  1.
</event>
<event>
 5    1  0.8943334E-005  0.9118800E+02  0.7818608E-02  0.1130116E+00
         25   -1    0    0    0    0  0.00000000000E+00  0.00000000000E+00  0.99999998245E-14  0.12500000000E+03  0.12500000000E+03 0.  0.
        -13    1    3    3    0    0  0.48188803870E+02 -0.12349950644E+01  0.23413316107E+02  0.53589929710E+02  0.10566000000E+00 0.  1.
         23    2    1    0    0    0  0.15792492990E+02  0.22188096318E+02  0.12525983868E+02  0.95023096809E+02  0.90170805709E+02 0.  0.
         13    1    3    3    0    0 -0.32396310880E+02  0.23423091382E+02 -0.10887332239E+02  0.41433167099E+02  0.10566000000E+00 0. -1.
         22    1    1    0    0    0 -0.15792492990E+02 -0.22188096318E+02 -0.12525983868E+02  0.29976903191E+02  0.00000000000E+00 0.  1.
</event>
<event>
 5    1  0.8943334E-005  0.9118800E+02  0.7818608E-02  0.1130116E+00
         25   -1    0    0    0    0  0.00000000000E+00  0.00000000000E+00  0.99999998245E-14  0.12500000000E+03  0.12500000000E+03 0.  0.
        -13    1    3    3    0    0  0.32200437282E+00 -0.28021653329E+01  0.36503589811E+02  0.36612553182E+02  0.10566000000E+00 0. -1.
         23    2    1    0    0    0 -0.19698906080E+02 -0.14088633246E+02 -0.17378369073E+02  0.95191541484E+02  0.90404011919E+02 0.  0.
         13    1    3    3    0    0 -0.20020910452E+02 -0.11286467913E+02 -0.53881958884E+02  0.58578988302E+02  0.10566000000E+00 0.  1.
         22    1    1    0    0    0  0.19698906080E+02  0.14088633246E+02  0.17378369073E+02  0.29808458516E+02  0.00000000000E+00 0.  1.
</event>
<event>
 5    1  0.8943334E-005  0.9118800E+02  0.7818608E-02  0.1130116E+00
         25   -1    0    0    0    0  0.00000000000E+00  0.00000000000E+00  0.99999998245E-14  0.12500000000E+03  0.12500000000E+03 0.  0.
        -13    1    3    3    0    0 -0.45121043106E+00 -0.18245238309E+02 -0.38040168665E+02  0.42191917567E+02  0.10566000000E+00 0.  1.
         23    2    1    0    0    0  0.21871479332E+01 -0.23660398298E+02  0.15862671774E+02  0.96430393431E+02  0.92101022566E+02 0.  0.
         13    1    3    3    0    0  0.26383583643E+01 -0.54151599888E+01  0.53902840440E+02  0.54238475864E+02  0.10566000000E+00 0. -1.
         22    1    1    0    0    0 -0.21871479332E+01  0.23660398298E+02 -0.15862671774E+02  0.28569606569E+02  0.00000000000E+00 0. -1.
</event>
<event>
 5    1  0.8943334E-005  0.9118800E+02  0.7818608E-02  0.1130116E+00
         25   -1    0    0    0    0  0.00000000000E+00  0.00000000000E+00  0.99999998245E-14  0.12500000000E+03  0.12500000000E+03 0.  0.
        -13    1    3    3    0    0  0.36626838462E+02 -0.24784353088E+01  0.23500126510E+02  0.43588244371E+02  0.10566000000E+00 0.  1.
         23    2    1    0    0    0 -0.14878834232E+02  0.26212477073E+01  0.25473281890E+02  0.95383471880E+02  0.90669002255E+02 0.  0.
         13    1    3    3    0    0 -0.51505672694E+02  0.50996830161E+01  0.19731553805E+01  0.51795227509E+02  0.10566000000E+00 0. -1.
         22    1    1    0    0    0  0.14878834232E+02 -0.26212477073E+01 -0.25473281890E+02  0.29616528120E+02  0.00000000000E+00 0. -1.
</event>
<event>
 5    1  0.8943334E-005  0.9118800E+02  0.7818608E-02  0.1130116E+00
         25   -1    0    0    0    0  0.00000000000E+00  0.00000000000E+00  0.99999998245E-14  0.12500000000E+03  0.12500000000E+03 0.  0.
        -13    1    3    3    0    0  0.11221403724E+02  0.16878041965E+02 -0.29137815264E+02  0.35493825442E+02  0.10566000000E+00 0. -1.
         23    2    1    0    0    0 -0.78843658734E+01  0.79334046621E+01  0.27166780873E+02  0.95620821697E+02  0.90995634094E+02 0.  0.
         13    1    3    3    0    0 -0.19105769597E+02 -0.89446373029E+01  0.56304596137E+02  0.60126996255E+02  0.10566000000E+00 0.  1.
         22    1    1    0    0    0  0.78843658734E+01 -0.79334046621E+01 -0.27166780873E+02  0.29379178303E+02  0.00000000000E+00 0.  1.
</event>
<event>
 5    1  0.8943334E-005  0.9118800E+02  0.7818608E-02  0.1130116E+00
         25   -1    0    0    0    0  0.00000000000E+00  0.00000000000E+00  0.99999998245E-14  0.12500000000E+03  0.12500000000E+03 0.  0.
        -13    1    3    3    0    0  0.18778539286E+02  0.16063787829E+02  0.54857804784E+02  0.60167006963E+02  0.10566000000E+00 0.  1.
         23    2    1    0    0    0 -0.19979918069E+01  0.13241094619E+02  0.24801629194E+02  0.96814199167E+02  0.92620460977E+02 0.  0.
         13    1    3    3    0    0 -0.20776531093E+02 -0.28226932105E+01 -0.30056175591E+02  0.36647192203E+02  0.10566000000E+00 0. -1.
         22    1    1    0    0    0  0.19979918069E+01 -0.13241094619E+02 -0.24801629194E+02  0.28185800833E+02  0.00000000000E+00 0.  1.
</event>
<event>
 5    1  0.8943334E-005  0.9118800E+02  0.7818608E-02  0.1130116E+00
         25   -1    0    0    0    0  0.00000000000E+00  0.00000000000E+00  0.99999998245E-14  0.12500000000E+03  0.12500000000E+03 0.  0.
        -13    1    3    3    0    0 -0.20214361042E+02 -0.10484114542E+02  0.29294480841E+02  0.37104107884E+02  0.10566000000E+00 0. -1.
         23    2    1    0    0    0  0.16611805457E+02  0.13516271751E+02 -0.14486852416E+02  0.99144428540E+02  0.95713672665E+02 0.  0.
         13    1    3    3    0    0  0.36826166500E+02  0.24000386294E+02 -0.43781333257E+02  0.62040320656E+02  0.10566000000E+00 0.  1.
         22    1    1    0    0    0 -0.16611805457E+02 -0.13516271751E+02  0.14486852416E+02  0.25855571460E+02  0.00000000000E+00 0.  1.
</event>
<event>
 5    1  0.8943334E-005  0.9118800E+02  0.7818608E-02  0.1130116E+00
         25   -1    0    0    0    0  0.00000000000E+00  0.00000000000E+00  0.99999998245E-14  0.12500000000E+03  0.12500000000E+03 0.  0.
        -13    1    3    3    0    0 -0.13974167429E+01  0.52379119415E+02 -0.16694181590E+02  0.54993015804E+02  0.10566000000E+00 0.  1.
         23    2    1    0    0    0  0.16006187546E+01  0.22939750588E+02  0.14360293219E+02  0.97888892336E+02  0.94059678311E+02 0.  0.
         13    1    3    3    0    0  0.29980354975E+01 -0.29439368827E+02  0.31054474808E+02  0.42895876532E+02  0.10566000000E+00 0. -1.
         22    1    1    0    0    0 -0.16006187546E+01 -0.22939750588E+02 -0.14360293219E+02  0.27111107664E+02  0.00000000000E+00 0.  1.
</event>
<event>
 5    1  0.8943334E-005  0.9118800E+02  0.7818608E-02  0.1130116E+00
         25   -1    0    0    0    0  0.00000000000E+00  0.00000000000E+00  0.99999998245E-14  0.12500000000E+03  0.12500000000E+03 0.  0.
        -13    1    3    3    0    0 -0.69431611665E+01 -0.17033984739E+02  0.40448891797E+02  0.44435212779E+02  0.10566000000E+00 0.  1.
         23    2    1    0    0    0  0.18380378193E+02  0.18468729071E+02  0.15775199855E+02  0.94540367919E+02  0.89499117201E+02 0.  0.
         13    1    3    3    0    0  0.25323539360E+02  0.35502713810E+02 -0.24673691942E+02  0.50105155141E+02  0.10566000000E+00 0. -1.
         22    1    1    0    0    0 -0.18380378193E+02 -0.18468729071E+02 -0.15775199855E+02  0.30459632081E+02  0.00000000000E+00 0. -1.
</event>
<event>
 5    1  0.8943334E-005  0.9118800E+02  0.7818608E-02  0.1130116E+00
         25   -1    0    0    0    0  0.00000000000E+00  0.00000000000E+00  0.99999998245E-14  0.12500000000E+03  0.12500000000E+03 0.  0.
        -13    1    3    3    0    0 -0.95410050377E+01  0.41766469978E+02 -0.18007401962E+02  0.46473072644E+02  0.10566000000E+00 0. -1.
         23    2    1    0    0    0 -0.30657761507E+02  0.24261695797E+01 -0.10684075518E+01  0.94227835075E+02  0.89061544838E+02 0.  0.
         13    1    3    3    0    0 -0.21116756469E+02 -0.39340300398E+02  0.16938994410E+02  0.47754762431E+02  0.10566000000E+00 0.  1.
         22    1    1    0    0    0  0.30657761507E+02 -0.24261695797E+01  0.10684075518E+01  0.30772164925E+02  0.00000000000E+00 0. -1.
</event>
<event>
 5    1  0.8943334E-005  0.9118800E+02  0.7818608E-02  0.1130116E+00
         25   -1    0    0    0    0  0.00000000000E+00  0.00000000000E+00  0.99999998245E-14  0.12500000000E+03  0.12500000000E+03 0.  0.
        -13    1    3    3    0    0 -0.28298731665E+02 -0.16128683740E+02 -0.31002366382E-01  0.32572454286E+02  0.10566000000E+00 0. -1.
         23    2    1    0    0    0 -0.23162388118E+01 -0.12121199905E+02 -0.41517365145E+02  0.81687414555E+02  0.69259321674E+02 0.  0.
         13    1    3    3    0    0  0.25982492853E+02  0.40074838343E+01 -0.41486362779E+02  0.49114960269E+02  0.10566000000E+00 0.  1.
         22    1    1    0    0    0  0.23162388118E+01  0.12121199905E+02  0.41517365145E+02  0.43312585445E+02  0.00000000000E+00 0.  1.
</event>
<event>
 5    1  0.8943334E-005  0.9118800E+02  0.7818608E-02  0.1130116E+00
         25   -1    0    0    0    0  0.00000000000E+00  0.00000000000E+00  0.99999998245E-14  0.12500000000E+03  0.12500000000E+03 0.  0.
        -13    1    3    3    0    0 -0.29061551786E+02  0.19019525792E+02 -0.26983057721E+01  0.34836879476E+02  0.10566000000E+00 0.  1.
         23    2    1    0    0    0  0.98965036662E+01 -0.22540916810E+02  0.16967962675E+02  0.95101079070E+02  0.90278844517E+02 0.  0.
         13    1    3    3    0    0  0.38958055452E+02 -0.41560442603E+02  0.19666268447E+02  0.60264199593E+02  0.10566000000E+00 0. -1.
         22    1    1    0    0    0 -0.98965036662E+01  0.22540916810E+02 -0.16967962675E+02  0.29898920930E+02  0.00000000000E+00 0. -1.
</event>
<event>
 5    1  0.8943334E-005  0.9118800E+02  0.7818608E-02  0.1130116E+00
         25   -1    0    0    0    0  0.00000000000E+00  0.00000000000E+00  0.99999998245E-14  0.12500000000E+03  0.12500000000E+03 0.  0.
        -13    1    3    3    0    0  0.14253197749E+02  0.55518558609E+01  0.29669002143E+02  0.33380197749E+02  0.10566000000E+00 0.  1.
         23    2    1    0    0    0 -0.58405505475E+01  0.17795966497E+01 -0.28924438861E+02  0.95438163820E+02  0.90744371478E+02 0.  0.
         13    1    3    3    0    0 -0.20093748297E+02 -0.37722592112E+01 -0.58593441004E+02  0.62057966071E+02  0.10566000000E+00 0. -1.
         22    1    1    0    0    0  0.58405505475E+01 -0.17795966497E+01  0.28924438861E+02  0.29561836180E+02  0.00000000000E+00 0. -1.
</event>
<event>
 5    1  0.8943334E-005  0.9118800E+02  0.7818608E-02  0.1130116E+00
         25   -1    0    0    0    0  0.00000000000E+00  0.00000000000E+00  0.99999998245E-14  0.12500000000E+03  0.12500000000E+03 0.  0.
        -13    1    3    3    0    0  0.33845361637E+02 -0.27942941055E+02  0.34873716683E+02  0.56058039017E+02  0.10566000000E+00 0. -1.
         23    2    1    0    0    0 -0.36989112612E+01 -0.19377024760E+02  0.18675181387E+02  0.97835437922E+02  0.93988613568E+02 0.  0.
         13    1    3    3    0    0 -0.37544272898E+02  0.85659162951E+01 -0.16198535296E+02  0.41777398904E+02  0.10566000000E+00 0.  1.
         22    1    1    0    0    0  0.36989112612E+01  0.19377024760E+02 -0.18675181387E+02  0.27164562078E+02  0.00000000000E+00 0. -1.
</event>
<event>
 5    1  0.8943334E-005  0.9118800E+02  0.7818608E-02  0.1130116E+00
         25   -1    0    0    0    0  0.00000000000E+00  0.00000000000E+00  0.99999998245E-14  0.12500000000E+03  0.12500000000E+03 0.  0.
        -13    1    3    3    0    0 -0.24285833920E+02 -0.19011732768E+02 -0.11101512458E+02  0.32779604252E+02  0.10566000000E+00 0. -1.
         23    2    1    0    0    0  0.16534183795E+02  0.25008233732E+02  0.41863725180E+01  0.94729276471E+02  0.89762570806E+02 0.  0.
         13    1    3    3    0    0  0.40820017715E+02  0.44019966500E+02  0.15287884976E+02  0.61949672218E+02  0.10566000000E+00 0.  1.
         22    1    1    0    0    0 -0.16534183795E+02 -0.25008233732E+02 -0.41863725180E+01  0.30270723529E+02  0.00000000000E+00 0.  1.
</event>
<event>
 5    1  0.8943334E-005  0.9118800E+02  0.7818608E-02  0.1130116E+00
         25   -1    0    0    0    0  0.00000000000E+00  0.00000000000E+00  0.99999998245E-14  0.12500000000E+03  0.12500000000E+03 0.  0.
        -13    1    3    3    0    0  0.36802062159E+02 -0.24236839842E+02  0.27579642175E+02  0.51985228779E+02  0.10566000000E+00 0.  1.
         23    2    1    0    0    0 -0.66140853758E+01 -0.18951088328E+02  0.20532811364E+02  0.96286131980E+02  0.91905021598E+02 0.  0.
         13    1    3    3    0    0 -0.43416147535E+02  0.52857515145E+01 -0.70468308108E+01  0.44300903200E+02  0.10566000000E+00 0. -1.
         22    1    1    0    0    0  0.66140853758E+01  0.18951088328E+02 -0.20532811364E+02  0.28713868020E+02  0.00000000000E+00 0.  1.
</event>
<event>
 5    1  0.8943334E-005  0.9118800E+02  0.7818608E-02  0.1130116E+00
         25   -1    0    0    0    0  0.00000000000E+00  0.00000000000E+00  0.99999998245E-14  0.12500000000E+03  0.12500000000E+03 0.  0.
        -13    1    3    3    0    0  0.15965938238E+02  0.17556718477E+02  0.57707065692E+02  0.62396042681E+02  0.10566000000E+00 0.  1.
         23    2    1    0    0    0  0.64650508625E+01  0.87337600919E+01  0.32312969960E+02  0.90908894479E+02  0.84274691454E+02 0.  0.
         13    1    3    3    0    0 -0.95008873750E+01 -0.88229583848E+01 -0.25394095731E+02  0.28512851797E+02  0.10566000000E+00 0. -1.
         22    1    1    0    0    0 -0.64650508625E+01 -0.87337600919E+01 -0.32312969960E+02  0.34091105521E+02  0.00000000000E+00 0.  1.
</event>
<event>
 5    1  0.8943334E-005  0.9118800E+02  0.7818608E-02  0.1130116E+00
         25   -1    0    0    0    0  0.00000000000E+00  0.00000000000E+00  0.99999998245E-14  0.12500000000E+03  0.12500000000E+03 0.  0.
        -13    1    3    3    0    0  0.24092248110E+02  0.48822482346E+02  0.16858265059E+02  0.56993714269E+02  0.10566000000E+00 0. -1.
         23    2    1    0    0    0  0.95971828925E+00  0.21380636169E+02  0.23194490244E+02  0.93439945503E+02  0.87948771315E+02 0.  0.
         13    1    3    3    0    0 -0.23132529821E+02 -0.27441846177E+02  0.63362251847E+01  0.36446231234E+02  0.10566000000E+00 0.  1.
         22    1    1    0    0    0 -0.95971828925E+00 -0.21380636169E+02 -0.23194490244E+02  0.31560054497E+02  0.00000000000E+00 0. -1.
</event>
<event>
 5    1  0.8943334E-005  0.9118800E+02  0.7818608E-02  0.1130116E+00
         25   -1    0    0    0    0  0.00000000000E+00  0.00000000000E+00  0.99999998245E-14  0.12500000000E+03  0.12500000000E+03 0.  0.
        -13    1    3    3    0    0 -0.11235290652E+02  0.55230605483E+01 -0.25897210299E+02  0.28764780882E+02  0.10566000000E+00 0. -1.
         23    2    1    0    0    0  0.98213639294E+01  0.66130099579E+00  0.32505025008E+02  0.91037179752E+02  0.84464755596E+02 0.  0.
         13    1    3    3    0    0  0.21056654582E+02 -0.48617595526E+01  0.58402235307E+02  0.62272398870E+02  0.10566000000E+00 0.  1.
         22    1    1    0    0    0 -0.98213639294E+01 -0.66130099579E+00 -0.32505025008E+02  0.33962820248E+02  0.00000000000E+00 0.  1.
</event>
<event>
 5    1  0.8943334E-005  0.9118800E+02  0.7818608E-02  0.1130116E+00
         25   -1    0    0    0    0  0.00000000000E+00  0.00000000000E+00  0.99999998245E-14  0.12500000000E+03  0.12500000000E+03 0.  0.
        -13    1    3    3    0    0 -0.13629816939E+01  0.21251433967E+02  0.57508775214E+02  0.61324966819E+02  0.10566000000E+00 0.  1.
         23    2    1    0    0    0 -0.82334992616E+01  0.60430126413E+01  0.27541353956E+02  0.95625952107E+02  0.91002681426E+02 0.  0.
         13    1    3    3    0    0 -0.68705175678E+01 -0.15208421326E+02 -0.29967421257E+02  0.34300985288E+02  0.10566000000E+00 0. -1.
         22    1    1    0    0    0  0.82334992616E+01 -0.60430126413E+01 -0.27541353956E+02  0.29374047893E+02  0.00000000000E+00 0.  1.
</event>
<event>
 5    1  0.8943334E-005  0.9118800E+02  0.7818608E-02  0.1130116E+00
         25   -1    0    0    0    0  0.00000000000E+00  0.00000000000E+00  0.99999998245E-14  0.12500000000E+03  0.12500000000E+03 0.  0.
        -13    1    3    3    0    0 -0.12149752223E+02 -0.13808265082E+02 -0.36466195779E+02  0.40842126074E+02  0.10566000000E+00 0. -1.
         23    2    1    0    0    0 -0.17639782853E+02  0.23478338886E+02  0.30813247485E+01  0.95472235132E+02  0.90791292440E+02 0.  0.
         13    1    3    3    0    0 -0.54900306300E+01  0.37286603967E+02  0.39547520527E+02  0.54630109057E+02  0.10566000000E+00 0.  1.
         22    1    1    0    0    0  0.17639782853E+02 -0.23478338886E+02 -0.30813247485E+01  0.29527764868E+02  0.00000000000E+00 0. -1.
</event>
<event>
 5    1  0.8943334E-005  0.9118800E+02  0.7818608E-02  0.1130116E+00
         25   -1    0    0    0    0  0.00000000000E+00  0.00000000000E+00  0.99999998245E-14  0.12500000000E+03  0.12500000000E+03 0.  0.
        -13    1    3    3    0    0  0.55656420673E+02 -0.21500998496E+02  0.53007197985E+01  0.59900241176E+02  0.10566000000E+00 0. -1.
         23    2    1    0    0    0  0.28166507944E+02  0.26429851125E+01  0.18742774646E+01  0.96647743369E+02  0.92395540165E+02 0.  0.
         13    1    3    3    0    0 -0.27489912730E+02  0.24143983609E+02 -0.34264423339E+01  0.36747502194E+02  0.10566000000E+00 0.  1.
         22    1    1    0    0    0 -0.28166507944E+02 -0.26429851125E+01 -0.18742774646E+01  0.28352256631E+02  0.00000000000E+00 0. -1.
</event>
<event>
 5    1  0.8943334E-005  0.9118800E+02  0.7818608E-02  0.1130116E+00
         25   -1    0    0    0    0  0.00000000000E+00  0.00000000000E+00  0.99999998245E-14  0.12500000000E+03  0.12500000000E+03 0.  0.
        -13    1    3    3    0    0 -0.16118306231E+02 -0.20586014268E+01 -0.48990278077E+02  0.51614882986E+02  0.10566000000E+00 0. -1.
         23    2    1    0    0    0 -0.10978833525E+02  0.23454390522E+02 -0.13016249948E+02  0.96016108214E+02  0.91537025588E+02 0.  0.
         13    1    3    3    0    0  0.51394727062E+01  0.25512991949E+02  0.35974028129E+02  0.44401225228E+02  0.10566000000E+00 0.  1.
         22    1    1    0    0    0  0.10978833525E+02 -0.23454390522E+02  0.13016249948E+02  0.28983891786E+02  0.00000000000E+00 0. -1.
</event>
<event>
 5    1  0.8943334E-005  0.9118800E+02  0.7818608E-02  0.1130116E+00
         25   -1    0    0    0    0  0.00000000000E+00  0.00000000000E+00  0.99999998245E-14  0.12500000000E+03  0.12500000000E+03 0.  0.
        -13    1    3    3    0    0 -0.16635648358E+02  0.24936338210E+02 -0.52357976507E+02  0.60331870745E+02  0.10566000000E+00 0.  1.
         23    2    1    0    0    0 -0.16402934124E+02  0.15313786728E+02 -0.17362605638E+02  0.96626977843E+02  0.92367442645E+02 0.  0.
         13    1    3    3    0    0  0.23271423479E+00 -0.96225514821E+01  0.34995370869E+02  0.36295107098E+02  0.10566000000E+00 0. -1.
         22    1    1    0    0    0  0.16402934124E+02 -0.15313786728E+02  0.17362605638E+02  0.28373022157E+02  0.00000000000E+00 0.  1.
</event>
<event>
 5    1  0.8943334E-005  0.9118800E+02  0.7818608E-02  0.1130116E+00
         25   -1    0    0    0    0  0.00000000000E+00  0.00000000000E+00  0.99999998245E-14  0.12500000000E+03  0.12500000000E+03 0.  0.
        -13    1    3    3    0    0  0.19860758705E+02 -0.79642581000E+01  0.41611830122E+02  0.46791395722E+02  0.10566000000E+00 0. -1.
         23    2    1    0    0    0  0.13758770637E+02 -0.26054587786E+02 -0.30650783451E+01  0.95376698034E+02  0.90659663072E+02 0.  0.
         13    1    3    3    0    0 -0.61019880680E+01 -0.18090329686E+02 -0.44676908467E+02  0.48585302312E+02  0.10566000000E+00 0.  1.
         22    1    1    0    0    0 -0.13758770637E+02  0.26054587786E+02  0.30650783451E+01  0.29623301966E+02  0.00000000000E+00 0.  1.
</event>
<event>
 5    1  0.8943334E-005  0.9118800E+02  0.7818608E-02  0.1130116E+00
         25   -1    0    0    0    0  0.00000000000E+00  0.00000000000E+00  0.99999998245E-14  0.12500000000E+03  0.12500000000E+03 0.  0.
        -13    1    3    3    0    0  0.20505148584E+01  0.25574371919E+02  0.49495106098E+02  0.55749706743E+02  0.10566000000E+00 0.  1.
         23    2    1    0    0    0 -0.16716652874E+02  0.24680924905E+01  0.27348923717E+02  0.92851880423E+02  0.87108955370E+02 0.  0.
         13    1    3    3    0    0 -0.18767167733E+02 -0.23106279428E+02 -0.22146182381E+02  0.37102173680E+02  0.10566000000E+00 0. -1.
         22    1    1    0    0    0  0.16716652874E+02 -0.24680924905E+01 -0.27348923717E+02  0.32148119577E+02  0.00000000000E+00 0.  1.
</event>
<event>
 5    1  0.8943334E-005  0.9118800E+02  0.7818608E-02  0.1130116E+00
         25   -1    0    0    0    0  0.00000000000E+00  0.00000000000E+00  0.99999998245E-14  0.12500000000E+03  0.12500000000E+03 0.  0.
        -13    1    3    3    0    0  0.37747395358E+02 -0.24194975081E+00  0.42309023996E+02  0.56700873640E+02  0.10566000000E+00 0.  1.
         23    2    1    0    0    0  0.21833300958E+02 -0.15118993028E+02  0.37563232086E+02  0.78997028513E+02  0.64220379385E+02 0.  0.
         13    1    3    3    0    0 -0.15914094401E+02 -0.14877043277E+02 -0.47457919097E+01  0.22296154873E+02  0.10566000000E+00 0. -1.
         22    1    1    0    0    0 -0.21833300958E+02  0.15118993028E+02 -0.37563232086E+02  0.46002971487E+02  0.00000000000E+00 0.  1.
</event>
<event>
 5    1  0.8943334E-005  0.9118800E+02  0.7818608E-02  0.1130116E+00
         25   -1    0    0    0    0  0.00000000000E+00  0.00000000000E+00  0.99999998245E-14  0.12500000000E+03  0.12500000000E+03 0.  0.
        -13    1    3    3    0    0  0.16857855449E+02  0.81928246103E+01 -0.30324996741E+02  0.35650052690E+02  0.10566000000E+00 0.  1.
         23    2    1    0    0    0 -0.11599355748E+02  0.21311420360E+02  0.19065309335E+02  0.94142136957E+02  0.88941184157E+02 0.  0.
         13    1    3    3    0    0 -0.28457211197E+02  0.13118595750E+02  0.49390306076E+02  0.58492084267E+02  0.10566000000E+00 0. -1.
         22    1    1    0    0    0  0.11599355748E+02 -0.21311420360E+02 -0.19065309335E+02  0.30857863043E+02  0.00000000000E+00 0. -1.
</event>
<event>
 5    1  0.8943334E-005  0.9118800E+02  0.7818608E-02  0.1130116E+00
         25   -1    0    0    0    0  0.00000000000E+00  0.00000000000E+00  0.99999998245E-14  0.12500000000E+03  0.12500000000E+03 0.  0.
        -13    1    3    3    0    0  0.29568763142E+02 -0.26929415260E+02  0.24920512041E+02  0.47122693518E+02  0.10566000000E+00 0.  1.
         23    2    1    0    0    0  0.94802664316E+00 -0.25873162594E+02 -0.14094601456E+02  0.95521582686E+02  0.90859207962E+02 0.  0.
         13    1    3    3    0    0 -0.28620736499E+02  0.10562526654E+01 -0.39015113497E+02  0.48398889168E+02  0.10566000000E+00 0. -1.
         22    1    1    0    0    0 -0.94802664316E+00  0.25873162594E+02  0.14094601456E+02  0.29478417314E+02  0.00000000000E+00 0.  1.
</event>
<event>
 5    1  0.8943334E-005  0.9118800E+02  0.7818608E-02  0.1130116E+00
         25   -1    0    0    0    0  0.00000000000E+00  0.00000000000E+00  0.99999998245E-14  0.12500000000E+03  0.12500000000E+03 0.  0.
        -13    1    3    3    0    0 -0.97441743022E+01 -0.21832288654E+02 -0.50892497406E+02  0.56228597857E+02  0.10566000000E+00 0.  1.
         23    2    1    0    0    0 -0.15814347235E+02  0.65007563228E+01 -0.21864186459E+02  0.97243990548E+02  0.93198699760E+02 0.  0.
         13    1    3    3    0    0 -0.60701729323E+01  0.28333044976E+02  0.29028310947E+02  0.41015392691E+02  0.10566000000E+00 0. -1.
         22    1    1    0    0    0  0.15814347235E+02 -0.65007563228E+01  0.21864186459E+02  0.27756009452E+02  0.00000000000E+00 0.  1.
</event>
<event>
 5    1  0.8943334E-005  0.9118800E+02  0.7818608E-02  0.1130116E+00
         25   -1    0    0    0    0  0.00000000000E+00  0.00000000000E+00  0.99999998245E-14  0.12500000000E+03  0.12500000000E+03 0.  0.
        -13    1    3    3    0    0  0.48628317455E+02  0.59899527480E+01  0.37161010920E+02  0.61494265497E+02  0.10566000000E+00 0.  1.
         23    2    1    0    0    0  0.23178279568E+02 -0.50150975160E+01  0.18604486429E+02  0.94858487726E+02  0.89942325585E+02 0.  0.
         13    1    3    3    0    0 -0.25450037887E+02 -0.11005050264E+02 -0.18556524490E+02  0.33364222229E+02  0.10566000000E+00 0. -1.
         22    1    1    0    0    0 -0.23178279568E+02  0.50150975160E+01 -0.18604486429E+02  0.30141512274E+02  0.00000000000E+00 0.  1.
</event>
<event>
 5    1  0.8943334E-005  0.9118800E+02  0.7818608E-02  0.1130116E+00
         25   -1    0    0    0    0  0.00000000000E+00  0.00000000000E+00  0.99999998245E-14  0.12500000000E+03  0.12500000000E+03 0.  0.
        -13    1    3    3    0    0 -0.56026415686E+02 -0.10125388954E+02  0.73131340233E+01  0.57401880191E+02  0.10566000000E+00 0.  1.
         23    2    1    0    0    0 -0.18699760139E+02 -0.13420274746E+02  0.17328539271E+02  0.96189184725E+02  0.91773068933E+02 0.  0.
         13    1    3    3    0    0  0.37326655548E+02 -0.32948857925E+01  0.10015405248E+02  0.38787304535E+02  0.10566000000E+00 0. -1.
         22    1    1    0    0    0  0.18699760139E+02  0.13420274746E+02 -0.17328539271E+02  0.28810815275E+02  0.00000000000E+00 0. -1.
</event>
<event>
 5    1  0.8943334E-005  0.9118800E+02  0.7818608E-02  0.1130116E+00
         25   -1    0    0    0    0  0.00000000000E+00  0.00000000000E+00  0.99999998245E-14  0.12500000000E+03  0.12500000000E+03 0.  0.
        -13    1    3    3    0    0 -0.35099333416E+02  0.13662334919E+02 -0.17306645599E+02  0.41450618181E+02  0.10566000000E+00 0. -1.
         23    2    1    0    0    0  0.16847884943E+02  0.23090101910E+02 -0.23705773601E+01  0.96318583189E+02  0.91949147887E+02 0.  0.
         13    1    3    3    0    0  0.51947218359E+02  0.94277669914E+01  0.14936068239E+02  0.54867965008E+02  0.10566000000E+00 0.  1.
         22    1    1    0    0    0 -0.16847884943E+02 -0.23090101910E+02  0.23705773601E+01  0.28681416811E+02  0.00000000000E+00 0.  1.
</event>
<event>
 5    1  0.8943334E-005  0.9118800E+02  0.7818608E-02  0.1130116E+00
         25   -1    0    0    0    0  0.00000000000E+00  0.00000000000E+00  0.99999998245E-14  0.12500000000E+03  0.12500000000E+03 0.  0.
        -13    1    3    3    0    0 -0.34793541821E+02  0.10984013417E+02  0.30814968484E+02  0.47757853280E+02  0.10566000000E+00 0.  1.
         23    2    1    0    0    0 -0.12156296997E+02 -0.25289302592E+02  0.12918013413E+02  0.94109880984E+02  0.88895839307E+02 0.  0.
         13    1    3    3    0    0  0.22637244824E+02 -0.36273316009E+02 -0.17896955071E+02  0.46352027705E+02  0.10566000000E+00 0. -1.
         22    1    1    0    0    0  0.12156296997E+02  0.25289302592E+02 -0.12918013413E+02  0.30890119016E+02  0.00000000000E+00 0.  1.
</event>
<event>
 5    1  0.8943334E-005  0.9118800E+02  0.7818608E-02  0.1130116E+00
         25   -1    0    0    0    0  0.00000000000E+00  0.00000000000E+00  0.99999998245E-14  0.12500000000E+03  0.12500000000E+03 0.  0.
        -13    1    3    3    0    0  0.54278556939E+01 -0.40149434654E+02 -0.43830858771E+02  0.59687469917E+02  0.10566000000E+00 0.  1.
         23    2    1    0    0    0 -0.62694819065E+01 -0.25960768927E+02 -0.13706349585E+02  0.94981140168E+02  0.90112624210E+02 0.  0.
         13    1    3    3    0    0 -0.11697337600E+02  0.14188665727E+02  0.30124509186E+02  0.35293670251E+02  0.10566000000E+00 0. -1.
         22    1    1    0    0    0  0.62694819065E+01  0.25960768927E+02  0.13706349585E+02  0.30018859832E+02  0.00000000000E+00 0.  1.
</event>
<event>
 5    1  0.8943334E-005  0.9118800E+02  0.7818608E-02  0.1130116E+00
         25   -1    0    0    0    0  0.00000000000E+00  0.00000000000E+00  0.99999998245E-14  0.12500000000E+03  0.12500000000E+03 0.  0.
        -13    1    3    3    0    0 -0.25766345082E+01 -0.26475443620E+02  0.34498886972E+02  0.43563431070E+02  0.10566000000E+00 0. -1.
         23    2    1    0    0    0  0.22653735787E+02 -0.24605085977E+02 -0.57109629443E+01  0.91070409687E+02  0.84513918509E+02 0.  0.
         13    1    3    3    0    0  0.25230370295E+02  0.18703576424E+01 -0.40209849917E+02  0.47506978617E+02  0.10566000000E+00 0.  1.
         22    1    1    0    0    0 -0.22653735787E+02  0.24605085977E+02  0.57109629443E+01  0.33929590313E+02  0.00000000000E+00 0. -1.
</event>
<event>
 5    1  0.8943334E-005  0.9118800E+02  0.7818608E-02  0.1130116E+00
         25   -1    0    0    0    0  0.00000000000E+00  0.00000000000E+00  0.99999998245E-14  0.12500000000E+03  0.12500000000E+03 0.  0.
        -13    1    3    3    0    0 -0.11721048638E+02  0.49313138948E+02 -0.17459724184E+02  0.53609903811E+02  0.10566000000E+00 0.  1.
         23    2    1    0    0    0 -0.18405022703E+02  0.20344687661E+02  0.11628348836E+02  0.95202857966E+02  0.90419657661E+02 0.  0.
         13    1    3    3    0    0 -0.66839740648E+01 -0.28968451287E+02  0.29088073020E+02  0.41592954155E+02  0.10566000000E+00 0. -1.
         22    1    1    0    0    0  0.18405022703E+02 -0.20344687661E+02 -0.11628348836E+02  0.29797142034E+02  0.00000000000E+00 0.  1.
</event>
<event>
 5    1  0.8943334E-005  0.9118800E+02  0.7818608E-02  0.1130116E+00
         25   -1    0    0    0    0  0.00000000000E+00  0.00000000000E+00  0.99999998245E-14  0.12500000000E+03  0.12500000000E+03 0.  0.
        -13    1    3    3    0    0 -0.56764683524E+02  0.44603546315E+01 -0.11644996203E+02  0.58118337551E+02  0.10566000000E+00 0.  1.
         23    2    1    0    0    0 -0.27184094851E+02 -0.26796011627E+01  0.10481135922E+02  0.95742360220E+02  0.91162437742E+02 0.  0.
         13    1    3    3    0    0  0.29580588673E+02 -0.71399557942E+01  0.22126132125E+02  0.37624022670E+02  0.10566000000E+00 0. -1.
         22    1    1    0    0    0  0.27184094851E+02  0.26796011627E+01 -0.10481135922E+02  0.29257639780E+02  0.00000000000E+00 0.  1.
</event>
<event>
 5    1  0.8943334E-005  0.9118800E+02  0.7818608E-02  0.1130116E+00
         25   -1    0    0    0    0  0.00000000000E+00  0.00000000000E+00  0.99999998245E-14  0.12500000000E+03  0.12500000000E+03 0.  0.
        -13    1    3    3    0    0  0.71666366240E+01 -0.34331991600E+02 -0.28504998971E+02  0.45195049044E+02  0.10566000000E+00 0.  1.
         23    2    1    0    0    0  0.23887308627E+02  0.10686765861E+02 -0.13774858668E+02  0.95427086560E+02  0.90729111314E+02 0.  0.
         13    1    3    3    0    0  0.16720672003E+02  0.45018757461E+02  0.14730140303E+02  0.50232037516E+02  0.10566000000E+00 0. -1.
         22    1    1    0    0    0 -0.23887308627E+02 -0.10686765861E+02  0.13774858668E+02  0.29572913440E+02  0.00000000000E+00 0.  1.
</event>
<event>
 5    1  0.8943334E-005  0.9118800E+02  0.7818608E-02  0.1130116E+00
         25   -1    0    0    0    0  0.00000000000E+00  0.00000000000E+00  0.99999998245E-14  0.12500000000E+03  0.12500000000E+03 0.  0.
        -13    1    3    3    0    0 -0.28529392947E+02  0.12736746514E+02  0.12234621327E+02  0.33553659960E+02  0.10566000000E+00 0. -1.
         23    2    1    0    0    0  0.29847237831E+02  0.32232223063E+00 -0.25576705076E+01  0.95041642632E+02  0.90196511341E+02 0.  0.
         13    1    3    3    0    0  0.58376630778E+02 -0.12414424283E+02 -0.14792291834E+02  0.61487982672E+02  0.10566000000E+00 0.  1.
         22    1    1    0    0    0 -0.29847237831E+02 -0.32232223063E+00  0.25576705076E+01  0.29958357368E+02  0.00000000000E+00 0.  1.
</event>
<event>
 5    1  0.8943334E-005  0.9118800E+02  0.7818608E-02  0.1130116E+00
         25   -1    0    0    0    0  0.00000000000E+00  0.00000000000E+00  0.99999998245E-14  0.12500000000E+03  0.12500000000E+03 0.  0.
        -13    1    3    3    0    0 -0.12368973337E+02  0.66189065528E+01  0.33532670151E+02  0.36349037909E+02  0.10566000000E+00 0. -1.
         23    2    1    0    0    0 -0.14133976932E+02 -0.56942737128E+01 -0.24745013123E+02  0.95939550391E+02  0.91432420933E+02 0.  0.
         13    1    3    3    0    0 -0.17650035946E+01 -0.12313180266E+02 -0.58277683275E+02  0.59590512482E+02  0.10566000000E+00 0.  1.
         22    1    1    0    0    0  0.14133976932E+02  0.56942737128E+01  0.24745013123E+02  0.29060449609E+02  0.00000000000E+00 0.  1.
</event>
<event>
 5    1  0.8943334E-005  0.9118800E+02  0.7818608E-02  0.1130116E+00
         25   -1    0    0    0    0  0.00000000000E+00  0.00000000000E+00  0.99999998245E-14  0.12500000000E+03  0.12500000000E+03 0.  0.
        -13    1    3    3    0    0 -0.19789529884E+02 -0.13396470237E+02 -0.37613783562E+02  0.44563424304E+02  0.10566000000E+00 0. -1.
         23    2    1    0    0    0 -0.28091735718E+02 -0.92248661028E+01  0.10543361945E+02  0.93608818892E+02  0.88188461394E+02 0.  0.
         13    1    3    3    0    0 -0.83022058339E+01  0.41716041337E+01  0.48157145508E+02  0.49045394587E+02  0.10566000000E+00 0.  1.
         22    1    1    0    0    0  0.28091735718E+02  0.92248661028E+01 -0.10543361945E+02  0.31391181108E+02  0.00000000000E+00 0.  1.
</event>
<event>
 5    1  0.8943334E-005  0.9118800E+02  0.7818608E-02  0.1130116E+00
         25   -1    0    0    0    0  0.00000000000E+00  0.00000000000E+00  0.99999998245E-14  0.12500000000E+03  0.12500000000E+03 0.  0.
        -13    1    3    3    0    0  0.42744655263E+01  0.31348097499E+02  0.18672175949E+02  0.36737386829E+02  0.10566000000E+00 0.  1.
         23    2    1    0    0    0  0.98760196268E+01 -0.18801537172E+02 -0.16380734945E+02  0.98179074568E+02  0.94444526797E+02 0.  0.
         13    1    3    3    0    0  0.56015541005E+01 -0.50149634671E+02 -0.35052910894E+02  0.61441687738E+02  0.10566000000E+00 0. -1.
         22    1    1    0    0    0 -0.98760196268E+01  0.18801537172E+02  0.16380734945E+02  0.26820925432E+02  0.00000000000E+00 0. -1.
</event>
<event>
 5    1  0.8943334E-005  0.9118800E+02  0.7818608E-02  0.1130116E+00
         25   -1    0    0    0    0  0.00000000000E+00  0.00000000000E+00  0.99999998245E-14  0.12500000000E+03  0.12500000000E+03 0.  0.
        -13    1    3    3    0    0  0.13310036041E+02  0.40120511830E+02  0.38431515921E+01  0.42445182378E+02  0.10566000000E+00 0.  1.
         23    2    1    0    0    0  0.35804850825E+02 -0.61159273647E+00 -0.57376880421E+00  0.89185329836E+02  0.81678225122E+02 0.  0.
         13    1    3    3    0    0  0.22494814785E+02 -0.40732104566E+02 -0.44169203963E+01  0.46740147458E+02  0.10566000000E+00 0. -1.
         22    1    1    0    0    0 -0.35804850825E+02  0.61159273647E+00  0.57376880421E+00  0.35814670164E+02  0.00000000000E+00 0. -1.
</event>
<event>
 5    1  0.8943334E-005  0.9118800E+02  0.7818608E-02  0.1130116E+00
         25   -1    0    0    0    0  0.00000000000E+00  0.00000000000E+00  0.99999998245E-14  0.12500000000E+03  0.12500000000E+03 0.  0.
        -13    1    3    3    0    0  0.13287424047E+02  0.47149091020E+02 -0.18367254466E+01  0.49020170810E+02  0.10566000000E+00 0. -1.
         23    2    1    0    0    0 -0.62363302509E+01  0.10516145379E+02 -0.25441556804E+02  0.96773169834E+02  0.92565071482E+02 0.  0.
         13    1    3    3    0    0 -0.19523754298E+02 -0.36632945642E+02 -0.23604831357E+02  0.47752999024E+02  0.10566000000E+00 0.  1.
         22    1    1    0    0    0  0.62363302509E+01 -0.10516145379E+02  0.25441556804E+02  0.28226830166E+02  0.00000000000E+00 0. -1.
</event>
<event>
 5    1  0.8943334E-005  0.9118800E+02  0.7818608E-02  0.1130116E+00
         25   -1    0    0    0    0  0.00000000000E+00  0.00000000000E+00  0.99999998245E-14  0.12500000000E+03  0.12500000000E+03 0.  0.
        -13    1    3    3    0    0 -0.29750796485E+02 -0.86707862758E+01 -0.39275809465E+02  0.50028919630E+02  0.10566000000E+00 0. -1.
         23    2    1    0    0    0 -0.49057645845E+01 -0.28582088606E+02 -0.74253738766E+01  0.95064427641E+02  0.90228082715E+02 0.  0.
         13    1    3    3    0    0  0.24845031901E+02 -0.19911302330E+02  0.31850435589E+02  0.45035508011E+02  0.10566000000E+00 0.  1.
         22    1    1    0    0    0  0.49057645845E+01  0.28582088606E+02  0.74253738766E+01  0.29935572359E+02  0.00000000000E+00 0. -1.
</event>
<event>
 5    1  0.8943334E-005  0.9118800E+02  0.7818608E-02  0.1130116E+00
         25   -1    0    0    0    0  0.00000000000E+00  0.00000000000E+00  0.99999998245E-14  0.12500000000E+03  0.12500000000E+03 0.  0.
        -13    1    3    3    0    0 -0.36510466889E+02  0.18677702869E+02 -0.11948646818E+02  0.42715946691E+02  0.10566000000E+00 0. -1.
         23    2    1    0    0    0 -0.65728708030E+01 -0.24075507465E+02  0.83003840538E+01  0.98699257316E+02  0.95130512083E+02 0.  0.
         13    1    3    3    0    0  0.29937596086E+02 -0.42753210334E+02  0.20249030871E+02  0.55983310625E+02  0.10566000000E+00 0.  1.
         22    1    1    0    0    0  0.65728708030E+01  0.24075507465E+02 -0.83003840538E+01  0.26300742684E+02  0.00000000000E+00 0.  1.
</event>
<event>
 5    1  0.8943334E-005  0.9118800E+02  0.7818608E-02  0.1130116E+00
         25   -1    0    0    0    0  0.00000000000E+00  0.00000000000E+00  0.99999998245E-14  0.12500000000E+03  0.12500000000E+03 0.  0.
        -13    1    3    3    0    0 -0.23181540672E+00  0.28064606526E+02  0.21054104294E+02  0.35085073030E+02  0.10566000000E+00 0. -1.
         23    2    1    0    0    0  0.33157690408E+02 -0.11821087312E+01 -0.11230992946E+02  0.89971939580E+02  0.82873306288E+02 0.  0.
         13    1    3    3    0    0  0.33389505814E+02 -0.29246715257E+02 -0.32285097241E+02  0.54886866550E+02  0.10566000000E+00 0.  1.
         22    1    1    0    0    0 -0.33157690408E+02  0.11821087312E+01  0.11230992946E+02  0.35028060420E+02  0.00000000000E+00 0. -1.
</event>
<event>
 5    1  0.8943334E-005  0.9118800E+02  0.7818608E-02  0.1130116E+00
         25   -1    0    0    0    0  0.00000000000E+00  0.00000000000E+00  0.99999998245E-14  0.12500000000E+03  0.12500000000E+03 0.  0.
        -13    1    3    3    0    0  0.21776058731E+02 -0.29864051352E+01  0.28721612037E+02  0.36167077730E+02  0.10566000000E+00 0. -1.
         23    2    1    0    0    0 -0.22647030753E+02  0.91936735281E+01 -0.12110507694E+02  0.97722242917E+02  0.93837949303E+02 0.  0.
         13    1    3    3    0    0 -0.44423089484E+02  0.12180078663E+02 -0.40832119731E+02  0.61555165187E+02  0.10566000000E+00 0.  1.
         22    1    1    0    0    0  0.22647030753E+02 -0.91936735281E+01  0.12110507694E+02  0.27277757083E+02  0.00000000000E+00 0.  1.
</event>
<event>
 5    1  0.8943334E-005  0.9118800E+02  0.7818608E-02  0.1130116E+00
         25   -1    0    0    0    0  0.00000000000E+00  0.00000000000E+00  0.99999998245E-14  0.12500000000E+03  0.12500000000E+03 0.  0.
        -13    1    3    3    0    0 -0.10070644618E+01 -0.26380448096E+02  0.47728065393E+02  0.54542841976E+02  0.10566000000E+00 0. -1.
         23    2    1    0    0    0 -0.22041845491E+02 -0.69570122547E+01  0.19332736039E+02  0.94867000565E+02  0.89954155776E+02 0.  0.
         13    1    3    3    0    0 -0.21034781029E+02  0.19423435841E+02 -0.28395329354E+02  0.40324158590E+02  0.10566000000E+00 0.  1.
         22    1    1    0    0    0  0.22041845491E+02  0.69570122547E+01 -0.19332736039E+02  0.30132999435E+02  0.00000000000E+00 0. -1.
</event>
<event>
 5    1  0.8943334E-005  0.9118800E+02  0.7818608E-02  0.1130116E+00
         25   -1    0    0    0    0  0.00000000000E+00  0.00000000000E+00  0.99999998245E-14  0.12500000000E+03  0.12500000000E+03 0.  0.
        -13    1    3    3    0    0  0.19709384167E+02  0.53344172987E+02 -0.32023362413E+01  0.56958991717E+02  0.10566000000E+00 0.  1.
         23    2    1    0    0    0 -0.42136321131E+01  0.25169506713E+02 -0.14551050100E+02  0.95623277536E+02  0.90999007599E+02 0.  0.
         13    1    3    3    0    0 -0.23923016280E+02 -0.28174666275E+02 -0.11348713858E+02  0.38664285819E+02  0.10566000000E+00 0. -1.
         22    1    1    0    0    0  0.42136321131E+01 -0.25169506713E+02  0.14551050100E+02  0.29376722464E+02  0.00000000000E+00 0.  1.
</event>
<event>
 5    1  0.8943334E-005  0.9118800E+02  0.7818608E-02  0.1130116E+00
         25   -1    0    0    0    0  0.00000000000E+00  0.00000000000E+00  0.99999998245E-14  0.12500000000E+03  0.12500000000E+03 0.  0.
        -13    1    3    3    0    0  0.15117080055E+02  0.57111405615E+02 -0.85682009683E+01  0.59696431992E+02  0.10566000000E+00 0.  1.
         23    2    1    0    0    0  0.13793897116E+02  0.19839255113E+02 -0.13506936174E+02  0.97317786109E+02  0.93297623374E+02 0.  0.
         13    1    3    3    0    0 -0.13231829389E+01 -0.37272150502E+02 -0.49387352060E+01  0.37621354117E+02  0.10566000000E+00 0. -1.
         22    1    1    0    0    0 -0.13793897116E+02 -0.19839255113E+02  0.13506936174E+02  0.27682213891E+02  0.00000000000E+00 0.  1.
</event>
<event>
 5    1  0.8943334E-005  0.9118800E+02  0.7818608E-02  0.1130116E+00
         25   -1    0    0    0    0  0.00000000000E+00  0.00000000000E+00  0.99999998245E-14  0.12500000000E+03  0.12500000000E+03 0.  0.
        -13    1    3    3    0    0 -0.16057054964E+01  0.41221806666E+02 -0.43838709309E+02  0.60196837399E+02  0.10566000000E+00 0.  1.
         23    2    1    0    0    0 -0.12484250477E+02  0.16854259036E+02 -0.20968613425E+02  0.95341859353E+02  0.90611615361E+02 0.  0.
         13    1    3    3    0    0 -0.10878544981E+02 -0.24367547630E+02  0.22870095884E+02  0.35145021954E+02  0.10566000000E+00 0. -1.
         22    1    1    0    0    0  0.12484250477E+02 -0.16854259036E+02  0.20968613425E+02  0.29658140647E+02  0.00000000000E+00 0.  1.
</event>
<event>
 5    1  0.8943334E-005  0.9118800E+02  0.7818608E-02  0.1130116E+00
         25   -1    0    0    0    0  0.00000000000E+00  0.00000000000E+00  0.99999998245E-14  0.12500000000E+03  0.12500000000E+03 0.  0.
        -13    1    3    3    0    0 -0.29151425492E+02  0.55260166329E+00  0.22982877093E+02  0.37125931373E+02  0.10566000000E+00 0.  1.
         23    2    1    0    0    0  0.25867776902E+02 -0.69859557381E+01 -0.22260764120E+01  0.98113183981E+02  0.94357278443E+02 0.  0.
         13    1    3    3    0    0  0.55019202395E+02 -0.75385574014E+01 -0.25208953505E+02  0.60987252608E+02  0.10566000000E+00 0. -1.
         22    1    1    0    0    0 -0.25867776902E+02  0.69859557381E+01  0.22260764120E+01  0.26886816019E+02  0.00000000000E+00 0. -1.
</event>
<event>
 5    1  0.8943334E-005  0.9118800E+02  0.7818608E-02  0.1130116E+00
         25   -1    0    0    0    0  0.00000000000E+00  0.00000000000E+00  0.99999998245E-14  0.12500000000E+03  0.12500000000E+03 0.  0.
        -13    1    3    3    0    0  0.13175773804E+02 -0.38770099030E+02 -0.11966384297E+02  0.42660603738E+02  0.10566000000E+00 0.  1.
         23    2    1    0    0    0  0.17154100787E+02  0.13926795929E+02 -0.18852860245E+02  0.95954360773E+02  0.91452666409E+02 0.  0.
         13    1    3    3    0    0  0.39783269839E+01  0.52696894959E+02 -0.68864759485E+01  0.53293757035E+02  0.10566000000E+00 0. -1.
         22    1    1    0    0    0 -0.17154100787E+02 -0.13926795929E+02  0.18852860245E+02  0.29045639227E+02  0.00000000000E+00 0. -1.
</event>
<event>
 5    1  0.8943334E-005  0.9118800E+02  0.7818608E-02  0.1130116E+00
         25   -1    0    0    0    0  0.00000000000E+00  0.00000000000E+00  0.99999998245E-14  0.12500000000E+03  0.12500000000E+03 0.  0.
        -13    1    3    3    0    0  0.35982053604E+02 -0.40653846331E+02 -0.30144077744E+02  0.62097664933E+02  0.10566000000E+00 0.  1.
         23    2    1    0    0    0  0.15745795881E+02 -0.21781256219E+02 -0.10004986733E+02  0.96321559145E+02  0.91953193453E+02 0.  0.
         13    1    3    3    0    0 -0.20236257723E+02  0.18872590113E+02  0.20139091011E+02  0.34223894211E+02  0.10566000000E+00 0. -1.
         22    1    1    0    0    0 -0.15745795881E+02  0.21781256219E+02  0.10004986733E+02  0.28678440855E+02  0.00000000000E+00 0.  1.
</event>
<event>
 5    1  0.8943334E-005  0.9118800E+02  0.7818608E-02  0.1130116E+00
         25   -1    0    0    0    0  0.00000000000E+00  0.00000000000E+00  0.99999998245E-14  0.12500000000E+03  0.12500000000E+03 0.  0.
        -13    1    3    3    0    0  0.29683332705E+02  0.22877002488E+02 -0.28819130552E+02  0.47275902245E+02  0.10566000000E+00 0.  1.
         23    2    1    0    0    0  0.75842930636E+01 -0.18196079959E+02 -0.23663579737E+02  0.94200911814E+02  0.89023749379E+02 0.  0.
         13    1    3    3    0    0 -0.22099039641E+02 -0.41073082447E+02  0.51555508153E+01  0.46925009569E+02  0.10566000000E+00 0. -1.
         22    1    1    0    0    0 -0.75842930636E+01  0.18196079959E+02  0.23663579737E+02  0.30799088186E+02  0.00000000000E+00 0. -1.
</event>
<event>
 5    1  0.8943334E-005  0.9118800E+02  0.7818608E-02  0.1130116E+00
         25   -1    0    0    0    0  0.00000000000E+00  0.00000000000E+00  0.99999998245E-14  0.12500000000E+03  0.12500000000E+03 0.  0.
        -13    1    3    3    0    0  0.46272976801E+01  0.23835023681E+02 -0.29462333337E+02  0.38178010521E+02  0.10566000000E+00 0. -1.
         23    2    1    0    0    0  0.49294513946E+01 -0.28622974696E+02 -0.78588057161E+01  0.94911214734E+02  0.90015574672E+02 0.  0.
         13    1    3    3    0    0  0.30215371455E+00 -0.52457998377E+02  0.21603527621E+02  0.56733204213E+02  0.10566000000E+00 0.  1.
         22    1    1    0    0    0 -0.49294513946E+01  0.28622974696E+02  0.78588057161E+01  0.30088785266E+02  0.00000000000E+00 0.  1.
</event>
<event>
 5    1  0.8943334E-005  0.9118800E+02  0.7818608E-02  0.1130116E+00
         25   -1    0    0    0    0  0.00000000000E+00  0.00000000000E+00  0.99999998245E-14  0.12500000000E+03  0.12500000000E+03 0.  0.
        -13    1    3    3    0    0 -0.20951903405E+02  0.26928877667E+02 -0.53154745107E+01  0.34531321174E+02  0.10566000000E+00 0. -1.
         23    2    1    0    0    0  0.12956351891E+02 -0.24469693695E+02 -0.80421016181E+01  0.96167581401E+02  0.91743639290E+02 0.  0.
         13    1    3    3    0    0  0.33908255296E+02 -0.51398571362E+02 -0.27266271074E+01  0.61636260227E+02  0.10566000000E+00 0.  1.
         22    1    1    0    0    0 -0.12956351891E+02  0.24469693695E+02  0.80421016181E+01  0.28832418599E+02  0.00000000000E+00 0.  1.
</event>
<event>
 5    1  0.8943334E-005  0.9118800E+02  0.7818608E-02  0.1130116E+00
         25   -1    0    0    0    0  0.00000000000E+00  0.00000000000E+00  0.99999998245E-14  0.12500000000E+03  0.12500000000E+03 0.  0.
        -13    1    3    3    0    0 -0.14861141059E+02 -0.37471601155E+02  0.13706246732E+02  0.42577538329E+02  0.10566000000E+00 0.  1.
         23    2    1    0    0    0 -0.19856168003E+02  0.41356999150E+01 -0.20118990009E+02  0.96431745231E+02  0.92102857219E+02 0.  0.
         13    1    3    3    0    0 -0.49950269440E+01  0.41607301070E+02 -0.33825236740E+02  0.53854206902E+02  0.10566000000E+00 0. -1.
         22    1    1    0    0    0  0.19856168003E+02 -0.41356999150E+01  0.20118990009E+02  0.28568254769E+02  0.00000000000E+00 0. -1.
</event>
<event>
 5    1  0.8943334E-005  0.9118800E+02  0.7818608E-02  0.1130116E+00
         25   -1    0    0    0    0  0.00000000000E+00  0.00000000000E+00  0.99999998245E-14  0.12500000000E+03  0.12500000000E+03 0.  0.
        -13    1    3    3    0    0  0.58544243716E+02 -0.46160954841E+01  0.59787044310E+01  0.59029593260E+02  0.10566000000E+00 0.  1.
         23    2    1    0    0    0  0.27162496139E+02 -0.14211481728E+02 -0.56167569099E+01  0.93834067196E+02  0.88507156767E+02 0.  0.
         13    1    3    3    0    0 -0.31381747577E+02 -0.95953862439E+01 -0.11595461341E+02  0.34804473935E+02  0.10566000000E+00 0. -1.
         22    1    1    0    0    0 -0.27162496139E+02  0.14211481728E+02  0.56167569099E+01  0.31165932804E+02  0.00000000000E+00 0.  1.
</event>
<event>
 5    1  0.8943334E-005  0.9118800E+02  0.7818608E-02  0.1130116E+00
         25   -1    0    0    0    0  0.00000000000E+00  0.00000000000E+00  0.99999998245E-14  0.12500000000E+03  0.12500000000E+03 0.  0.
        -13    1    3    3    0    0 -0.25311226863E+02 -0.23239158215E+02 -0.19703250722E+01  0.34418164169E+02  0.10566000000E+00 0.  1.
         23    2    1    0    0    0  0.17775880181E+02  0.21155412379E+02 -0.70209705126E+01  0.96489871693E+02  0.92181711436E+02 0.  0.
         13    1    3    3    0    0  0.43087107044E+02  0.44394570594E+02 -0.50506454404E+01  0.62071707524E+02  0.10566000000E+00 0. -1.
         22    1    1    0    0    0 -0.17775880181E+02 -0.21155412379E+02  0.70209705126E+01  0.28510128307E+02  0.00000000000E+00 0. -1.
</event>
<event>
 5    1  0.8943334E-005  0.9118800E+02  0.7818608E-02  0.1130116E+00
         25   -1    0    0    0    0  0.00000000000E+00  0.00000000000E+00  0.99999998245E-14  0.12500000000E+03  0.12500000000E+03 0.  0.
        -13    1    3    3    0    0  0.34191765333E+02 -0.19248807254E+02 -0.20686300370E+02  0.44356821171E+02  0.10566000000E+00 0.  1.
         23    2    1    0    0    0  0.19043749618E+02  0.23476969324E+02  0.13071067226E+01  0.94742091676E+02  0.89780415008E+02 0.  0.
         13    1    3    3    0    0 -0.15148015716E+02  0.42725776578E+02  0.21993407093E+02  0.50385270506E+02  0.10566000000E+00 0. -1.
         22    1    1    0    0    0 -0.19043749618E+02 -0.23476969324E+02 -0.13071067226E+01  0.30257908324E+02  0.00000000000E+00 0.  1.
</event>
<event>
 5    1  0.8943334E-005  0.9118800E+02  0.7818608E-02  0.1130116E+00
         25   -1    0    0    0    0  0.00000000000E+00  0.00000000000E+00  0.99999998245E-14  0.12500000000E+03  0.12500000000E+03 0.  0.
        -13    1    3    3    0    0  0.17198812241E+02 -0.10677777112E+02  0.58083334509E+02  0.61510153456E+02  0.10566000000E+00 0.  1.
         23    2    1    0    0    0  0.10834479380E+02 -0.11880541159E+02  0.24620797815E+02  0.95593931124E+02  0.90958687221E+02 0.  0.
         13    1    3    3    0    0 -0.63643328604E+01 -0.12027640468E+01 -0.33462536693E+02  0.34083777668E+02  0.10566000000E+00 0. -1.
         22    1    1    0    0    0 -0.10834479380E+02  0.11880541159E+02 -0.24620797815E+02  0.29406068876E+02  0.00000000000E+00 0.  1.
</event>
<event>
 5    1  0.8943334E-005  0.9118800E+02  0.7818608E-02  0.1130116E+00
         25   -1    0    0    0    0  0.00000000000E+00  0.00000000000E+00  0.99999998245E-14  0.12500000000E+03  0.12500000000E+03 0.  0.
        -13    1    3    3    0    0 -0.66032160288E+00 -0.29674194000E+02  0.25725245491E+02  0.39278406712E+02  0.10566000000E+00 0.  1.
         23    2    1    0    0    0 -0.26248695787E+02  0.21954506567E+01 -0.13039166614E+02  0.95608948639E+02  0.90979322705E+02 0.  0.
         13    1    3    3    0    0 -0.25588374184E+02  0.31869644657E+02 -0.38764412106E+02  0.56330541928E+02  0.10566000000E+00 0. -1.
         22    1    1    0    0    0  0.26248695787E+02 -0.21954506567E+01  0.13039166614E+02  0.29391051361E+02  0.00000000000E+00 0.  1.
</event>
<event>
 5    1  0.8943334E-005  0.9118800E+02  0.7818608E-02  0.1130116E+00
         25   -1    0    0    0    0  0.00000000000E+00  0.00000000000E+00  0.99999998245E-14  0.12500000000E+03  0.12500000000E+03 0.  0.
        -13    1    3    3    0    0  0.21616501212E+02 -0.12940887346E+02 -0.35089343523E+02  0.43197371249E+02  0.10566000000E+00 0.  1.
         23    2    1    0    0    0  0.25148386147E+02 -0.24359340781E+02  0.89768224154E+01  0.88855814440E+02  0.81172369745E+02 0.  0.
         13    1    3    3    0    0  0.35318849358E+01 -0.11418453435E+02  0.44066165939E+02  0.45658443191E+02  0.10566000000E+00 0. -1.
         22    1    1    0    0    0 -0.25148386147E+02  0.24359340781E+02 -0.89768224154E+01  0.36144185560E+02  0.00000000000E+00 0.  1.
</event>
<event>
 5    1  0.8943334E-005  0.9118800E+02  0.7818608E-02  0.1130116E+00
         25   -1    0    0    0    0  0.00000000000E+00  0.00000000000E+00  0.99999998245E-14  0.12500000000E+03  0.12500000000E+03 0.  0.
        -13    1    3    3    0    0  0.53362311730E+02  0.29647404720E+01  0.47967892834E+01  0.53659541097E+02  0.10566000000E+00 0.  1.
         23    2    1    0    0    0  0.14815739730E+02  0.69141153119E+01  0.23249348661E+02  0.96577414835E+02  0.92300345117E+02 0.  0.
         13    1    3    3    0    0 -0.38546572000E+02  0.39493748399E+01  0.18452559378E+02  0.42917873739E+02  0.10566000000E+00 0. -1.
         22    1    1    0    0    0 -0.14815739730E+02 -0.69141153119E+01 -0.23249348661E+02  0.28422585165E+02  0.00000000000E+00 0.  1.
</event>
<event>
 5    1  0.8943334E-005  0.9118800E+02  0.7818608E-02  0.1130116E+00
         25   -1    0    0    0    0  0.00000000000E+00  0.00000000000E+00  0.99999998245E-14  0.12500000000E+03  0.12500000000E+03 0.  0.
        -13    1    3    3    0    0  0.15703733108E+02  0.56810876769E+02 -0.10301656041E+02  0.59834924868E+02  0.10566000000E+00 0. -1.
         23    2    1    0    0    0 -0.38904868193E+01  0.32309121194E+02 -0.90032233925E+01  0.91235029521E+02  0.84757049147E+02 0.  0.
         13    1    3    3    0    0 -0.19594219928E+02 -0.24501755575E+02  0.12984326481E+01  0.31400104653E+02  0.10566000000E+00 0.  1.
         22    1    1    0    0    0  0.38904868193E+01 -0.32309121194E+02  0.90032233925E+01  0.33764970479E+02  0.00000000000E+00 0. -1.
</event>
<event>
 5    1  0.8943334E-005  0.9118800E+02  0.7818608E-02  0.1130116E+00
         25   -1    0    0    0    0  0.00000000000E+00  0.00000000000E+00  0.99999998245E-14  0.12500000000E+03  0.12500000000E+03 0.  0.
        -13    1    3    3    0    0 -0.28878105902E+02  0.18664383627E+02 -0.35959415106E+02  0.49753340747E+02  0.10566000000E+00 0. -1.
         23    2    1    0    0    0 -0.19533301790E+02 -0.18225880818E+02 -0.75674875627E+01  0.97233122638E+02  0.93184122357E+02 0.  0.
         13    1    3    3    0    0  0.93448041118E+01 -0.36890264445E+02  0.28391927544E+02  0.47479781891E+02  0.10566000000E+00 0.  1.
         22    1    1    0    0    0  0.19533301790E+02  0.18225880818E+02  0.75674875627E+01  0.27766877362E+02  0.00000000000E+00 0. -1.
</event>
<event>
 5    1  0.8943334E-005  0.9118800E+02  0.7818608E-02  0.1130116E+00
         25   -1    0    0    0    0  0.00000000000E+00  0.00000000000E+00  0.99999998245E-14  0.12500000000E+03  0.12500000000E+03 0.  0.
        -13    1    3    3    0    0 -0.15573507081E+02  0.34663264284E+02  0.40222796627E+02  0.55334984831E+02  0.10566000000E+00 0. -1.
         23    2    1    0    0    0 -0.31927909860E+01 -0.70746610893E+00  0.30866970333E+02  0.93960278995E+02  0.88685228469E+02 0.  0.
         13    1    3    3    0    0  0.12380716095E+02 -0.35370730393E+02 -0.93558262949E+01  0.38625294164E+02  0.10566000000E+00 0.  1.
         22    1    1    0    0    0  0.31927909860E+01  0.70746610893E+00 -0.30866970333E+02  0.31039721005E+02  0.00000000000E+00 0. -1.
</event>
<event>
 5    1  0.8943334E-005  0.9118800E+02  0.7818608E-02  0.1130116E+00
         25   -1    0    0    0    0  0.00000000000E+00  0.00000000000E+00  0.99999998245E-14  0.12500000000E+03  0.12500000000E+03 0.  0.
        -13    1    3    3    0    0 -0.68375504162E+01 -0.17218680714E+02 -0.14898641913E+02  0.23774266679E+02  0.10566000000E+00 0.  1.
         23    2    1    0    0    0  0.20503263606E+02  0.24448244765E+02  0.22393210008E+02  0.86018512791E+02  0.76678733673E+02 0.  0.
         13    1    3    3    0    0  0.27340814022E+02  0.41666925479E+02  0.37291851921E+02  0.62244246112E+02  0.10566000000E+00 0. -1.
         22    1    1    0    0    0 -0.20503263606E+02 -0.24448244765E+02 -0.22393210008E+02  0.38981487209E+02  0.00000000000E+00 0. -1.
</event>
<event>
 5    1  0.8943334E-005  0.9118800E+02  0.7818608E-02  0.1130116E+00
         25   -1    0    0    0    0  0.00000000000E+00  0.00000000000E+00  0.99999998245E-14  0.12500000000E+03  0.12500000000E+03 0.  0.
        -13    1    3    3    0    0 -0.20194232621E+02  0.20050237316E+02 -0.45403861873E+02  0.53584894183E+02  0.10566000000E+00 0. -1.
         23    2    1    0    0    0 -0.10000306953E+02  0.29084837177E+02 -0.82506265290E+01  0.93156527657E+02  0.87545027924E+02 0.  0.
         13    1    3    3    0    0  0.10193925668E+02  0.90345998608E+01  0.37153235344E+02  0.39571633473E+02  0.10566000000E+00 0.  1.
         22    1    1    0    0    0  0.10000306953E+02 -0.29084837177E+02  0.82506265290E+01  0.31843472343E+02  0.00000000000E+00 0. -1.
</event>
<event>
 5    1  0.8943334E-005  0.9118800E+02  0.7818608E-02  0.1130116E+00
         25   -1    0    0    0    0  0.00000000000E+00  0.00000000000E+00  0.99999998245E-14  0.12500000000E+03  0.12500000000E+03 0.  0.
        -13    1    3    3    0    0  0.20943683964E+02 -0.45821901637E+02  0.88417950132E+01  0.51151471834E+02  0.10566000000E+00 0.  1.
         23    2    1    0    0    0 -0.30989835987E+01 -0.18558621863E+02 -0.19989955359E+02  0.97547778596E+02  0.93605259729E+02 0.  0.
         13    1    3    3    0    0 -0.24042667563E+02  0.27263279775E+02 -0.28831750372E+02  0.46396306762E+02  0.10566000000E+00 0. -1.
         22    1    1    0    0    0  0.30989835987E+01  0.18558621863E+02  0.19989955359E+02  0.27452221404E+02  0.00000000000E+00 0.  1.
</event>
<event>
 5    1  0.8943334E-005  0.9118800E+02  0.7818608E-02  0.1130116E+00
         25   -1    0    0    0    0  0.00000000000E+00  0.00000000000E+00  0.99999998245E-14  0.12500000000E+03  0.12500000000E+03 0.  0.
        -13    1    3    3    0    0 -0.44669532208E+02 -0.17220883480E+02  0.39318389675E+02  0.61950567924E+02  0.10566000000E+00 0.  1.
         23    2    1    0    0    0 -0.16895163308E+02 -0.11167820409E+02  0.21310326921E+02  0.95601075030E+02  0.90968504206E+02 0.  0.
         13    1    3    3    0    0  0.27774368899E+02  0.60530630704E+01 -0.18008062754E+02  0.33650507106E+02  0.10566000000E+00 0. -1.
         22    1    1    0    0    0  0.16895163308E+02  0.11167820409E+02 -0.21310326921E+02  0.29398924970E+02  0.00000000000E+00 0.  1.
</event>
<event>
 5    1  0.8943334E-005  0.9118800E+02  0.7818608E-02  0.1130116E+00
         25   -1    0    0    0    0  0.00000000000E+00  0.00000000000E+00  0.99999998245E-14  0.12500000000E+03  0.12500000000E+03 0.  0.
        -13    1    3    3    0    0 -0.43052036469E+02  0.16064040591E+01 -0.26730490705E+02  0.50700973122E+02  0.10566000000E+00 0.  1.
         23    2    1    0    0    0 -0.81342957349E+01  0.25263043155E+02 -0.15155076443E+02  0.94437531864E+02  0.89355374579E+02 0.  0.
         13    1    3    3    0    0  0.34917740734E+02  0.23656639096E+02  0.11575414261E+02  0.43736558743E+02  0.10566000000E+00 0. -1.
         22    1    1    0    0    0  0.81342957349E+01 -0.25263043155E+02  0.15155076443E+02  0.30562468136E+02  0.00000000000E+00 0. -1.
</event>
<event>
 5    1  0.8943334E-005  0.9118800E+02  0.7818608E-02  0.1130116E+00
         25   -1    0    0    0    0  0.00000000000E+00  0.00000000000E+00  0.99999998245E-14  0.12500000000E+03  0.12500000000E+03 0.  0.
        -13    1    3    3    0    0  0.14994418039E+02 -0.30466157811E+02  0.22448660207E+01  0.34030426556E+02  0.10566000000E+00 0. -1.
         23    2    1    0    0    0 -0.13993267970E+02  0.21302080853E+02 -0.14496378068E+02  0.95678758992E+02  0.91075187335E+02 0.  0.
         13    1    3    3    0    0 -0.28987686009E+02  0.51768238664E+02 -0.16741244088E+02  0.61648332436E+02  0.10566000000E+00 0.  1.
         22    1    1    0    0    0  0.13993267970E+02 -0.21302080853E+02  0.14496378068E+02  0.29321241008E+02  0.00000000000E+00 0.  1.
</event>
<event>
 5    1  0.8943334E-005  0.9118800E+02  0.7818608E-02  0.1130116E+00
         25   -1    0    0    0    0  0.00000000000E+00  0.00000000000E+00  0.99999998245E-14  0.12500000000E+03  0.12500000000E+03 0.  0.
        -13    1    3    3    0    0  0.16046231711E+02  0.13365054194E+02 -0.45267137260E+02  0.49852092288E+02  0.10566000000E+00 0.  1.
         23    2    1    0    0    0  0.10064760561E+01 -0.21686804497E+02 -0.18839540875E+02  0.96255282508E+02  0.91863053656E+02 0.  0.
         13    1    3    3    0    0 -0.15039755655E+02 -0.35051858690E+02  0.26427596385E+02  0.46403190220E+02  0.10566000000E+00 0. -1.
         22    1    1    0    0    0 -0.10064760561E+01  0.21686804497E+02  0.18839540875E+02  0.28744717492E+02  0.00000000000E+00 0.  1.
</event>
<event>
 5    1  0.8943334E-005  0.9118800E+02  0.7818608E-02  0.1130116E+00
         25   -1    0    0    0    0  0.00000000000E+00  0.00000000000E+00  0.99999998245E-14  0.12500000000E+03  0.12500000000E+03 0.  0.
        -13    1    3    3    0    0  0.38154167403E+02  0.25627067343E+02 -0.84418524880E+01  0.46730751206E+02  0.10566000000E+00 0. -1.
         23    2    1    0    0    0 -0.98697104338E+01  0.28004643427E+02 -0.20529054734E+01  0.95236168620E+02  0.90465696012E+02 0.  0.
         13    1    3    3    0    0 -0.48023877837E+02  0.23775760848E+01  0.63889470146E+01  0.48505417414E+02  0.10566000000E+00 0.  1.
         22    1    1    0    0    0  0.98697104338E+01 -0.28004643427E+02  0.20529054734E+01  0.29763831380E+02  0.00000000000E+00 0.  1.
</event>
<event>
 5    1  0.8943334E-005  0.9118800E+02  0.7818608E-02  0.1130116E+00
         25   -1    0    0    0    0  0.00000000000E+00  0.00000000000E+00  0.99999998245E-14  0.12500000000E+03  0.12500000000E+03 0.  0.
        -13    1    3    3    0    0 -0.36470039667E+02  0.11701415352E+02 -0.46487407414E+02  0.60233521619E+02  0.10566000000E+00 0. -1.
         23    2    1    0    0    0 -0.84109758356E+01  0.13451377887E+02 -0.23981051098E+02  0.96246306440E+02  0.91850838919E+02 0.  0.
         13    1    3    3    0    0  0.28059063831E+02  0.17499625346E+01  0.22506356316E+02  0.36012784821E+02  0.10566000000E+00 0.  1.
         22    1    1    0    0    0  0.84109758356E+01 -0.13451377887E+02  0.23981051098E+02  0.28753693560E+02  0.00000000000E+00 0. -1.
</event>
<event>
 5    1  0.8943334E-005  0.9118800E+02  0.7818608E-02  0.1130116E+00
         25   -1    0    0    0    0  0.00000000000E+00  0.00000000000E+00  0.99999998245E-14  0.12500000000E+03  0.12500000000E+03 0.  0.
        -13    1    3    3    0    0 -0.33022603216E+01  0.26674680563E+02  0.30323180675E+02  0.40520981684E+02  0.10566000000E+00 0. -1.
         23    2    1    0    0    0 -0.11111281020E+01 -0.25622604814E+02  0.42323842990E+01  0.99006432334E+02  0.95533282596E+02 0.  0.
         13    1    3    3    0    0  0.21911322196E+01 -0.52297285377E+02 -0.26090796376E+02  0.58485450650E+02  0.10566000000E+00 0.  1.
         22    1    1    0    0    0  0.11111281020E+01  0.25622604814E+02 -0.42323842990E+01  0.25993567666E+02  0.00000000000E+00 0.  1.
</event>
<event>
 5    1  0.8943334E-005  0.9118800E+02  0.7818608E-02  0.1130116E+00
         25   -1    0    0    0    0  0.00000000000E+00  0.00000000000E+00  0.99999998245E-14  0.12500000000E+03  0.12500000000E+03 0.  0.
        -13    1    3    3    0    0 -0.48174543285E+02 -0.23720874672E+02 -0.29827744295E+02  0.61426150862E+02  0.10566000000E+00 0.  1.
         23    2    1    0    0    0 -0.17209048963E+02 -0.17512832815E+02 -0.13554809637E+02  0.96953903236E+02  0.92808813207E+02 0.  0.
         13    1    3    3    0    0  0.30965494322E+02  0.62080418574E+01  0.16272934658E+02  0.35527752374E+02  0.10566000000E+00 0. -1.
         22    1    1    0    0    0  0.17209048963E+02  0.17512832815E+02  0.13554809637E+02  0.28046096764E+02  0.00000000000E+00 0.  1.
</event>
<event>
 5    1  0.8943334E-005  0.9118800E+02  0.7818608E-02  0.1130116E+00
         25   -1    0    0    0    0  0.00000000000E+00  0.00000000000E+00  0.99999998245E-14  0.12500000000E+03  0.12500000000E+03 0.  0.
        -13    1    3    3    0    0  0.50955131124E+02 -0.12195908721E+02 -0.30619667081E+02  0.60685589341E+02  0.10566000000E+00 0. -1.
         23    2    1    0    0    0  0.22786190191E+02 -0.99374677740E+01 -0.34224278426E+01  0.99906639493E+02  0.96703980649E+02 0.  0.
         13    1    3    3    0    0 -0.28168940933E+02  0.22584409468E+01  0.27197239239E+02  0.39221050152E+02  0.10566000000E+00 0.  1.
         22    1    1    0    0    0 -0.22786190191E+02  0.99374677740E+01  0.34224278426E+01  0.25093360507E+02  0.00000000000E+00 0. -1.
</event>
<event>
 4    1  0.8943334E-005  0.9118800E+02  0.7818608E-02  0.1130116E+00
         25   -1    0    0    0    0  0.00000000000E+00  0.00000000000E+00  0.99999998245E-14  0.12500000000E+03  0.12500000000E+03 0.  0.
        -13    1    1    0    0    0 -0.14790030155E+02 -0.35454841648E+01  0.58569097806E-01  0.15209537939E+02  0.10566000000E+00 0.  1.
         13    1    1    0    0    0  0.33443406078E+02 -0.43761124238E+02 -0.14451034941E+02  0.56941557579E+02  0.10566000000E+00 0. -1.
         22    1    1    0    0    0 -0.18653375923E+02  0.47306608403E+02  0.14392465843E+02  0.52848904482E+02  0.00000000000E+00 0. -1.
</event>
<event>
 5    1  0.8943334E-005  0.9118800E+02  0.7818608E-02  0.1130116E+00
         25   -1    0    0    0    0  0.00000000000E+00  0.00000000000E+00  0.99999998245E-14  0.12500000000E+03  0.12500000000E+03 0.  0.
        -13    1    3    3    0    0  0.46787089536E+01 -0.20165664226E+02  0.49196849597E+02  0.53374952042E+02  0.10566000000E+00 0.  1.
         23    2    1    0    0    0  0.17052162005E+02  0.95990726621E+01  0.22064641213E+02  0.95508190681E+02  0.90840781977E+02 0.  0.
         13    1    3    3    0    0  0.12373453052E+02  0.29764736888E+02 -0.27132208383E+02  0.42133238640E+02  0.10566000000E+00 0. -1.
         22    1    1    0    0    0 -0.17052162005E+02 -0.95990726621E+01 -0.22064641213E+02  0.29491809319E+02  0.00000000000E+00 0.  1.
</event>
<event>
 5    1  0.8943334E-005  0.9118800E+02  0.7818608E-02  0.1130116E+00
         25   -1    0    0    0    0  0.00000000000E+00  0.00000000000E+00  0.99999998245E-14  0.12500000000E+03  0.12500000000E+03 0.  0.
        -13    1    3    3    0    0  0.43762327113E+01 -0.42454546933E+02  0.96645314581E+00  0.42690574647E+02  0.10566000000E+00 0. -1.
         23    2    1    0    0    0  0.20445083297E+02  0.18371016666E+01 -0.21832045944E+02  0.95033108208E+02  0.90184683023E+02 0.  0.
         13    1    3    3    0    0  0.16068850586E+02  0.44291648599E+02 -0.22798499090E+02  0.52342533561E+02  0.10566000000E+00 0.  1.
         22    1    1    0    0    0 -0.20445083297E+02 -0.18371016666E+01  0.21832045944E+02  0.29966891792E+02  0.00000000000E+00 0.  1.
</event>
<event>
 5    1  0.8943334E-005  0.9118800E+02  0.7818608E-02  0.1130116E+00
         25   -1    0    0    0    0  0.00000000000E+00  0.00000000000E+00  0.99999998245E-14  0.12500000000E+03  0.12500000000E+03 0.  0.
        -13    1    3    3    0    0  0.73370219464E+00  0.41444224222E+02  0.29134338067E+02  0.50665401004E+02  0.10566000000E+00 0. -1.
         23    2    1    0    0    0 -0.79222080730E+01  0.29153512782E+02 -0.10469580242E+02  0.93026561043E+02  0.87359259730E+02 0.  0.
         13    1    3    3    0    0 -0.86559102676E+01 -0.12290711439E+02 -0.39603918310E+02  0.42361160038E+02  0.10566000000E+00 0.  1.
         22    1    1    0    0    0  0.79222080730E+01 -0.29153512782E+02  0.10469580242E+02  0.31973438957E+02  0.00000000000E+00 0. -1.
</event>
<event>
 5    1  0.8943334E-005  0.9118800E+02  0.7818608E-02  0.1130116E+00
         25   -1    0    0    0    0  0.00000000000E+00  0.00000000000E+00  0.99999998245E-14  0.12500000000E+03  0.12500000000E+03 0.  0.
        -13    1    3    3    0    0  0.15521979863E+02  0.30468071476E+02  0.15165836825E+02  0.37406536982E+02  0.10566000000E+00 0.  1.
         23    2    1    0    0    0 -0.23169507677E+02 -0.13795686448E+02  0.92411257909E+01  0.96494817025E+02  0.92188417148E+02 0.  0.
         13    1    3    3    0    0 -0.38691487541E+02 -0.44263757923E+02 -0.59247110341E+01  0.59088280043E+02  0.10566000000E+00 0. -1.
         22    1    1    0    0    0  0.23169507677E+02  0.13795686448E+02 -0.92411257909E+01  0.28505182975E+02  0.00000000000E+00 0. -1.
</event>
<event>
 5    1  0.8943334E-005  0.9118800E+02  0.7818608E-02  0.1130116E+00
         25   -1    0    0    0    0  0.00000000000E+00  0.00000000000E+00  0.99999998245E-14  0.12500000000E+03  0.12500000000E+03 0.  0.
        -13    1    3    3    0    0 -0.17400988675E+01  0.52128412795E+01 -0.53019682607E+02  0.53303841945E+02  0.10566000000E+00 0. -1.
         23    2    1    0    0    0 -0.14239264975E+02 -0.17021715005E+02 -0.19263920623E+02  0.95613028627E+02  0.90984928184E+02 0.  0.
         13    1    3    3    0    0 -0.12499166107E+02 -0.22234556284E+02  0.33755761984E+02  0.42309186682E+02  0.10566000000E+00 0.  1.
         22    1    1    0    0    0  0.14239264975E+02  0.17021715005E+02  0.19263920623E+02  0.29386971373E+02  0.00000000000E+00 0. -1.
</event>
<event>
 5    1  0.8943334E-005  0.9118800E+02  0.7818608E-02  0.1130116E+00
         25   -1    0    0    0    0  0.00000000000E+00  0.00000000000E+00  0.99999998245E-14  0.12500000000E+03  0.12500000000E+03 0.  0.
        -13    1    3    3    0    0 -0.81056770929E+01  0.20525373862E+02  0.46251896386E+01  0.22547649911E+02  0.10566000000E+00 0.  1.
         23    2    1    0    0    0 -0.79971728199E+01  0.35228192079E+01 -0.47151908385E+02  0.77045151521E+02  0.60301640776E+02 0.  0.
         13    1    3    3    0    0  0.10850427299E+00 -0.17002554654E+02 -0.51777098024E+02  0.54497501610E+02  0.10566000000E+00 0. -1.
         22    1    1    0    0    0  0.79971728199E+01 -0.35228192079E+01  0.47151908385E+02  0.47954848479E+02  0.00000000000E+00 0. -1.
</event>
<event>
 5    1  0.8943334E-005  0.9118800E+02  0.7818608E-02  0.1130116E+00
         25   -1    0    0    0    0  0.00000000000E+00  0.00000000000E+00  0.99999998245E-14  0.12500000000E+03  0.12500000000E+03 0.  0.
        -13    1    3    3    0    0 -0.27129967889E+02  0.21975086873E+01  0.44860192079E+02  0.52472013488E+02  0.10566000000E+00 0. -1.
         23    2    1    0    0    0  0.49865994587E+01  0.15957120305E+02  0.30440659545E+02  0.90270623154E+02  0.83322600706E+02 0.  0.
         13    1    3    3    0    0  0.32116567348E+02  0.13759611618E+02 -0.14419532534E+02  0.37798609665E+02  0.10566000000E+00 0.  1.
         22    1    1    0    0    0 -0.49865994587E+01 -0.15957120305E+02 -0.30440659545E+02  0.34729376846E+02  0.00000000000E+00 0. -1.
</event>
<event>
 5    1  0.8943334E-005  0.9118800E+02  0.7818608E-02  0.1130116E+00
         25   -1    0    0    0    0  0.00000000000E+00  0.00000000000E+00  0.99999998245E-14  0.12500000000E+03  0.12500000000E+03 0.  0.
        -13    1    3    3    0    0 -0.19722749986E+02  0.51720548917E+02  0.14710441428E+02  0.57274866201E+02  0.10566000000E+00 0.  1.
         23    2    1    0    0    0  0.35951733498E+01  0.23906881920E+02 -0.73293983781E+01  0.99737689038E+02  0.96485347383E+02 0.  0.
         13    1    3    3    0    0  0.23317923336E+02 -0.27813666998E+02 -0.22039839806E+02  0.42462822837E+02  0.10566000000E+00 0. -1.
         22    1    1    0    0    0 -0.35951733498E+01 -0.23906881920E+02  0.73293983781E+01  0.25262310962E+02  0.00000000000E+00 0.  1.
</event>
<event>
 5    1  0.8943334E-005  0.9118800E+02  0.7818608E-02  0.1130116E+00
         25   -1    0    0    0    0  0.00000000000E+00  0.00000000000E+00  0.99999998245E-14  0.12500000000E+03  0.12500000000E+03 0.  0.
        -13    1    3    3    0    0 -0.34897079490E+02  0.26860474720E+02 -0.79103406144E+01  0.44742327966E+02  0.10566000000E+00 0.  1.
         23    2    1    0    0    0  0.53891124850E+01 -0.14043421857E+02  0.12260380240E+02  0.10559440404E+03  0.10379595855E+03 0.  0.
         13    1    3    3    0    0  0.40286191975E+02 -0.40903896577E+02  0.20170720854E+02  0.60852076077E+02  0.10566000000E+00 0. -1.
         22    1    1    0    0    0 -0.53891124850E+01  0.14043421857E+02 -0.12260380240E+02  0.19405595957E+02  0.00000000000E+00 0. -1.
</event>
<event>
 5    1  0.8943334E-005  0.9118800E+02  0.7818608E-02  0.1130116E+00
         25   -1    0    0    0    0  0.00000000000E+00  0.00000000000E+00  0.99999998245E-14  0.12500000000E+03  0.12500000000E+03 0.  0.
        -13    1    3    3    0    0  0.21367519443E+02  0.46597121601E+02 -0.20723940173E+02  0.55293358453E+02  0.10566000000E+00 0. -1.
         23    2    1    0    0    0  0.27299143665E+02  0.14041284582E+02 -0.70925150440E-01  0.94301368957E+02  0.89164691662E+02 0.  0.
         13    1    3    3    0    0  0.59316242216E+01 -0.32555837019E+02  0.20653015023E+02  0.39008010504E+02  0.10566000000E+00 0.  1.
         22    1    1    0    0    0 -0.27299143665E+02 -0.14041284582E+02  0.70925150440E-01  0.30698631043E+02  0.00000000000E+00 0. -1.
</event>
<event>
 5    1  0.8943334E-005  0.9118800E+02  0.7818608E-02  0.1130116E+00
         25   -1    0    0    0    0  0.00000000000E+00  0.00000000000E+00  0.99999998245E-14  0.12500000000E+03  0.12500000000E+03 0.  0.
        -13    1    3    3    0    0 -0.12423957984E+02  0.26457617397E+02 -0.24210513472E+02  0.37954187871E+02  0.10566000000E+00 0. -1.
         23    2    1    0    0    0 -0.15017890110E+02 -0.25052011911E+02  0.18373422589E+01  0.95733702818E+02  0.91150566123E+02 0.  0.
         13    1    3    3    0    0 -0.25939321260E+01 -0.51509629309E+02  0.26047855731E+02  0.57779514948E+02  0.10566000000E+00 0.  1.
         22    1    1    0    0    0  0.15017890110E+02  0.25052011911E+02 -0.18373422589E+01  0.29266297182E+02  0.00000000000E+00 0.  1.
</event>
<event>
 5    1  0.8943334E-005  0.9118800E+02  0.7818608E-02  0.1130116E+00
         25   -1    0    0    0    0  0.00000000000E+00  0.00000000000E+00  0.99999998245E-14  0.12500000000E+03  0.12500000000E+03 0.  0.
        -13    1    3    3    0    0 -0.31513202443E+02  0.52546438984E+02  0.79331596105E+00  0.61276836507E+02  0.10566000000E+00 0.  1.
         23    2    1    0    0    0 -0.81073114912E+01  0.25781261362E+02  0.62811442666E+01  0.97253744211E+02  0.93211780654E+02 0.  0.
         13    1    3    3    0    0  0.23405890951E+02 -0.26765177622E+02  0.54878283055E+01  0.35976907704E+02  0.10566000000E+00 0. -1.
         22    1    1    0    0    0  0.81073114912E+01 -0.25781261362E+02 -0.62811442666E+01  0.27746255789E+02  0.00000000000E+00 0.  1.
</event>
<event>
 5    1  0.8943334E-005  0.9118800E+02  0.7818608E-02  0.1130116E+00
         25   -1    0    0    0    0  0.00000000000E+00  0.00000000000E+00  0.99999998245E-14  0.12500000000E+03  0.12500000000E+03 0.  0.
        -13    1    3    3    0    0 -0.36259176785E+02 -0.20992624397E+02 -0.42765287635E+02  0.59869016785E+02  0.10566000000E+00 0. -1.
         23    2    1    0    0    0 -0.16685202879E+02 -0.21122379551E+02 -0.14009375220E+02  0.94655090920E+02  0.89659203265E+02 0.  0.
         13    1    3    3    0    0  0.19573973907E+02 -0.12975515372E+00  0.28755912415E+02  0.34786074136E+02  0.10566000000E+00 0.  1.
         22    1    1    0    0    0  0.16685202879E+02  0.21122379551E+02  0.14009375220E+02  0.30344909080E+02  0.00000000000E+00 0. -1.
</event>
<event>
 5    1  0.8943334E-005  0.9118800E+02  0.7818608E-02  0.1130116E+00
         25   -1    0    0    0    0  0.00000000000E+00  0.00000000000E+00  0.99999998245E-14  0.12500000000E+03  0.12500000000E+03 0.  0.
        -13    1    3    3    0    0 -0.10917830279E+02 -0.10588060484E+02 -0.36149917776E+02  0.39219048459E+02  0.10566000000E+00 0.  1.
         23    2    1    0    0    0  0.59059118914E+01  0.27622301169E+02  0.31775439147E+01  0.96575220275E+02  0.92297373032E+02 0.  0.
         13    1    3    3    0    0  0.16823742170E+02  0.38210361653E+02  0.39327461691E+02  0.57356171815E+02  0.10566000000E+00 0. -1.
         22    1    1    0    0    0 -0.59059118914E+01 -0.27622301169E+02 -0.31775439147E+01  0.28424779725E+02  0.00000000000E+00 0. -1.
</event>
<event>
 5    1  0.8943334E-005  0.9118800E+02  0.7818608E-02  0.1130116E+00
         25   -1    0    0    0    0  0.00000000000E+00  0.00000000000E+00  0.99999998245E-14  0.12500000000E+03  0.12500000000E+03 0.  0.
        -13    1    3    3    0    0 -0.21584446038E+02 -0.47502566321E+02  0.59075437804E+01  0.52509926255E+02  0.10566000000E+00 0.  1.
         23    2    1    0    0    0  0.98684546601E+01 -0.16217933742E+02  0.18363023130E+02  0.98587722728E+02  0.94983844321E+02 0.  0.
         13    1    3    3    0    0  0.31452900698E+02  0.31284632579E+02  0.12455479349E+02  0.46077796473E+02  0.10566000000E+00 0. -1.
         22    1    1    0    0    0 -0.98684546601E+01  0.16217933742E+02 -0.18363023130E+02  0.26412277272E+02  0.00000000000E+00 0.  1.
</event>
<event>
 5    1  0.8943334E-005  0.9118800E+02  0.7818608E-02  0.1130116E+00
         25   -1    0    0    0    0  0.00000000000E+00  0.00000000000E+00  0.99999998245E-14  0.12500000000E+03  0.12500000000E+03 0.  0.
        -13    1    3    3    0    0  0.46777613440E+02 -0.91032567267E+01  0.15279823994E+02  0.50044965656E+02  0.10566000000E+00 0. -1.
         23    2    1    0    0    0  0.85838805668E+01  0.11498618588E+02  0.26496883107E+02  0.94867193138E+02  0.89954423374E+02 0.  0.
         13    1    3    3    0    0 -0.38193732873E+02  0.20601875314E+02  0.11217059113E+02  0.44822227482E+02  0.10566000000E+00 0.  1.
         22    1    1    0    0    0 -0.85838805668E+01 -0.11498618588E+02 -0.26496883107E+02  0.30132806862E+02  0.00000000000E+00 0. -1.
</event>
<event>
 5    1  0.8943334E-005  0.9118800E+02  0.7818608E-02  0.1130116E+00
         25   -1    0    0    0    0  0.00000000000E+00  0.00000000000E+00  0.99999998245E-14  0.12500000000E+03  0.12500000000E+03 0.  0.
        -13    1    3    3    0    0  0.31904232010E+02  0.41350518037E+02  0.40311019816E+01  0.52383263637E+02  0.10566000000E+00 0. -1.
         23    2    1    0    0    0  0.48019953145E+01  0.13325309930E+02  0.24712798577E+02  0.96515873592E+02  0.92216963722E+02 0.  0.
         13    1    3    3    0    0 -0.27102236695E+02 -0.28025208108E+02  0.20681696595E+02  0.44132609955E+02  0.10566000000E+00 0.  1.
         22    1    1    0    0    0 -0.48019953145E+01 -0.13325309930E+02 -0.24712798577E+02  0.28484126408E+02  0.00000000000E+00 0. -1.
</event>
<event>
 5    1  0.8943334E-005  0.9118800E+02  0.7818608E-02  0.1130116E+00
         25   -1    0    0    0    0  0.00000000000E+00  0.00000000000E+00  0.99999998245E-14  0.12500000000E+03  0.12500000000E+03 0.  0.
        -13    1    3    3    0    0 -0.38511446847E+01  0.47740791835E+02  0.19239141787E+01  0.47934613071E+02  0.10566000000E+00 0. -1.
         23    2    1    0    0    0  0.22325425503E+02  0.55809520842E+01  0.12698924556E+02  0.98716272430E+02  0.95152867049E+02 0.  0.
         13    1    3    3    0    0  0.26176570188E+02 -0.42159839751E+02  0.10775010378E+02  0.50781659360E+02  0.10566000000E+00 0.  1.
         22    1    1    0    0    0 -0.22325425503E+02 -0.55809520842E+01 -0.12698924556E+02  0.26283727570E+02  0.00000000000E+00 0.  1.
</event>
<event>
 5    1  0.8943334E-005  0.9118800E+02  0.7818608E-02  0.1130116E+00
         25   -1    0    0    0    0  0.00000000000E+00  0.00000000000E+00  0.99999998245E-14  0.12500000000E+03  0.12500000000E+03 0.  0.
        -13    1    3    3    0    0 -0.26402092741E+02  0.50417915644E-01 -0.38784445585E+02  0.46918199310E+02  0.10566000000E+00 0.  1.
         23    2    1    0    0    0  0.18986296070E+02  0.75989358319E+01 -0.19282369438E+02  0.96892473688E+02  0.92726039611E+02 0.  0.
         13    1    3    3    0    0  0.45388388811E+02  0.75485179162E+01  0.19502076147E+02  0.49974274378E+02  0.10566000000E+00 0. -1.
         22    1    1    0    0    0 -0.18986296070E+02 -0.75989358319E+01  0.19282369438E+02  0.28107526312E+02  0.00000000000E+00 0. -1.
</event>
<event>
 5    1  0.8943334E-005  0.9118800E+02  0.7818608E-02  0.1130116E+00
         25   -1    0    0    0    0  0.00000000000E+00  0.00000000000E+00  0.99999998245E-14  0.12500000000E+03  0.12500000000E+03 0.  0.
        -13    1    3    3    0    0  0.35579697030E+02  0.30989441513E+02 -0.59864620652E+01  0.47561635990E+02  0.10566000000E+00 0. -1.
         23    2    1    0    0    0  0.31824531752E+02 -0.28379833827E+00  0.19147224336E+02  0.87858411955E+02  0.79621623877E+02 0.  0.
         13    1    3    3    0    0 -0.37551652777E+01 -0.31273239851E+02  0.25133686401E+02  0.40296775965E+02  0.10566000000E+00 0.  1.
         22    1    1    0    0    0 -0.31824531752E+02  0.28379833827E+00 -0.19147224336E+02  0.37141588045E+02  0.00000000000E+00 0. -1.
</event>
<event>
 5    1  0.8943334E-005  0.9118800E+02  0.7818608E-02  0.1130116E+00
         25   -1    0    0    0    0  0.00000000000E+00  0.00000000000E+00  0.99999998245E-14  0.12500000000E+03  0.12500000000E+03 0.  0.
        -13    1    3    3    0    0 -0.48567210907E+02  0.14798120279E+02  0.20354881447E+02  0.54700006415E+02  0.10566000000E+00 0.  1.
         23    2    1    0    0    0 -0.16823397408E+02  0.19359123604E+02  0.27330531315E+02  0.87519867810E+02  0.79088349031E+02 0.  0.
         13    1    3    3    0    0  0.31743813500E+02  0.45610033251E+01  0.69756498679E+01  0.32819861394E+02  0.10566000000E+00 0. -1.
         22    1    1    0    0    0  0.16823397408E+02 -0.19359123604E+02 -0.27330531315E+02  0.37480132190E+02  0.00000000000E+00 0.  1.
</event>
<event>
 5    1  0.8943334E-005  0.9118800E+02  0.7818608E-02  0.1130116E+00
         25   -1    0    0    0    0  0.00000000000E+00  0.00000000000E+00  0.99999998245E-14  0.12500000000E+03  0.12500000000E+03 0.  0.
        -13    1    3    3    0    0  0.25962385351E+01  0.36124456126E+02 -0.12975959701E+02  0.38472113006E+02  0.10566000000E+00 0.  1.
         23    2    1    0    0    0 -0.12978827318E+02 -0.85603110549E+01  0.22525249313E+02  0.97630021182E+02  0.93715021717E+02 0.  0.
         13    1    3    3    0    0 -0.15575065853E+02 -0.44684767181E+02  0.35501209014E+02  0.59157908176E+02  0.10566000000E+00 0. -1.
         22    1    1    0    0    0  0.12978827318E+02  0.85603110549E+01 -0.22525249313E+02  0.27369978818E+02  0.00000000000E+00 0. -1.
</event>
<event>
 5    1  0.8943334E-005  0.9118800E+02  0.7818608E-02  0.1130116E+00
         25   -1    0    0    0    0  0.00000000000E+00  0.00000000000E+00  0.99999998245E-14  0.12500000000E+03  0.12500000000E+03 0.  0.
        -13    1    3    3    0    0 -0.25265726166E+02  0.52941818944E+02  0.21037442194E+02  0.62319966703E+02  0.10566000000E+00 0.  1.
         23    2    1    0    0    0 -0.92818732067E+01  0.26254474036E+02  0.11658256472E+02  0.94811168935E+02  0.89876538839E+02 0.  0.
         13    1    3    3    0    0  0.15983852959E+02 -0.26687344908E+02 -0.93791857224E+01  0.32491202232E+02  0.10566000000E+00 0. -1.
         22    1    1    0    0    0  0.92818732067E+01 -0.26254474036E+02 -0.11658256472E+02  0.30188831065E+02  0.00000000000E+00 0.  1.
</event>
<event>
 5    1  0.8943334E-005  0.9118800E+02  0.7818608E-02  0.1130116E+00
         25   -1    0    0    0    0  0.00000000000E+00  0.00000000000E+00  0.99999998245E-14  0.12500000000E+03  0.12500000000E+03 0.  0.
        -13    1    3    3    0    0 -0.39841395909E+02  0.17525745280E+02 -0.50120293303E+01  0.43813470276E+02  0.10566000000E+00 0.  1.
         23    2    1    0    0    0 -0.58542776407E+01 -0.25394557937E+02 -0.44394002366E+01  0.98563956159E+02  0.94952562050E+02 0.  0.
         13    1    3    3    0    0  0.33987118268E+02 -0.42920303217E+02  0.57262909367E+00  0.54750485883E+02  0.10566000000E+00 0. -1.
         22    1    1    0    0    0  0.58542776407E+01  0.25394557937E+02  0.44394002366E+01  0.26436043841E+02  0.00000000000E+00 0. -1.
</event>
<event>
 5    1  0.8943334E-005  0.9118800E+02  0.7818608E-02  0.1130116E+00
         25   -1    0    0    0    0  0.00000000000E+00  0.00000000000E+00  0.99999998245E-14  0.12500000000E+03  0.12500000000E+03 0.  0.
        -13    1    3    3    0    0  0.38498499180E+02 -0.13574944471E+02  0.45664799038E+02  0.61251110943E+02  0.10566000000E+00 0. -1.
         23    2    1    0    0    0  0.10327622214E+02 -0.78904648084E+01  0.25563578085E+02  0.96322208244E+02  0.91954075826E+02 0.  0.
         13    1    3    3    0    0 -0.28170876966E+02  0.56844796622E+01 -0.20101220953E+02  0.35071097301E+02  0.10566000000E+00 0.  1.
         22    1    1    0    0    0 -0.10327622214E+02  0.78904648084E+01 -0.25563578085E+02  0.28677791756E+02  0.00000000000E+00 0. -1.
</event>
<event>
 5    1  0.8943334E-005  0.9118800E+02  0.7818608E-02  0.1130116E+00
         25   -1    0    0    0    0  0.00000000000E+00  0.00000000000E+00  0.99999998245E-14  0.12500000000E+03  0.12500000000E+03 0.  0.
        -13    1    3    3    0    0 -0.87117209321E+00  0.46352009498E+02 -0.65466884907E+01  0.46820273595E+02  0.10566000000E+00 0. -1.
         23    2    1    0    0    0  0.20306690178E+02  0.42130908633E+01 -0.20333775876E+02  0.95955650430E+02  0.91454429130E+02 0.  0.
         13    1    3    3    0    0  0.21177862271E+02 -0.42138918635E+02 -0.13787087385E+02  0.49135376834E+02  0.10566000000E+00 0.  1.
         22    1    1    0    0    0 -0.20306690178E+02 -0.42130908633E+01  0.20333775876E+02  0.29044349570E+02  0.00000000000E+00 0.  1.
</event>
<event>
 5    1  0.8943334E-005  0.9118800E+02  0.7818608E-02  0.1130116E+00
         25   -1    0    0    0    0  0.00000000000E+00  0.00000000000E+00  0.99999998245E-14  0.12500000000E+03  0.12500000000E+03 0.  0.
        -13    1    3    3    0    0  0.10586801400E+02  0.28179221779E+02 -0.29050375188E+02  0.41834009688E+02  0.10566000000E+00 0.  1.
         23    2    1    0    0    0  0.15704432193E+02 -0.22221299512E+02 -0.11672712141E+02  0.95391427740E+02  0.90679969867E+02 0.  0.
         13    1    3    3    0    0  0.51176307938E+01 -0.50400521291E+02  0.17377663047E+02  0.53557418052E+02  0.10566000000E+00 0. -1.
         22    1    1    0    0    0 -0.15704432193E+02  0.22221299512E+02  0.11672712141E+02  0.29608572260E+02  0.00000000000E+00 0. -1.
</event>
<event>
 5    1  0.8943334E-005  0.9118800E+02  0.7818608E-02  0.1130116E+00
         25   -1    0    0    0    0  0.00000000000E+00  0.00000000000E+00  0.99999998245E-14  0.12500000000E+03  0.12500000000E+03 0.  0.
        -13    1    3    3    0    0 -0.47911696896E+02  0.13066214959E+02 -0.31515158610E+02  0.58817285376E+02  0.10566000000E+00 0. -1.
         23    2    1    0    0    0 -0.12273121712E+02  0.15162431592E+02 -0.21655266763E+02  0.95854169648E+02  0.91315619759E+02 0.  0.
         13    1    3    3    0    0  0.35638575183E+02  0.20962166331E+01  0.98598918470E+01  0.37036884272E+02  0.10566000000E+00 0.  1.
         22    1    1    0    0    0  0.12273121712E+02 -0.15162431592E+02  0.21655266763E+02  0.29145830352E+02  0.00000000000E+00 0. -1.
</event>
<event>
 5    1  0.8943334E-005  0.9118800E+02  0.7818608E-02  0.1130116E+00
         25   -1    0    0    0    0  0.00000000000E+00  0.00000000000E+00  0.99999998245E-14  0.12500000000E+03  0.12500000000E+03 0.  0.
        -13    1    3    3    0    0  0.17229307612E+01 -0.43462990616E+02 -0.57653949585E+01  0.43877682103E+02  0.10566000000E+00 0. -1.
         23    2    1    0    0    0 -0.22177992652E+02 -0.25439308865E+01  0.17467728525E+02  0.96654692059E+02  0.92404940424E+02 0.  0.
         13    1    3    3    0    0 -0.23900923413E+02  0.40919059729E+02  0.23233123484E+02  0.52777009957E+02  0.10566000000E+00 0.  1.
         22    1    1    0    0    0  0.22177992652E+02  0.25439308865E+01 -0.17467728525E+02  0.28345307941E+02  0.00000000000E+00 0. -1.
</event>
<event>
 5    1  0.8943334E-005  0.9118800E+02  0.7818608E-02  0.1130116E+00
         25   -1    0    0    0    0  0.00000000000E+00  0.00000000000E+00  0.99999998245E-14  0.12500000000E+03  0.12500000000E+03 0.  0.
        -13    1    3    3    0    0 -0.98803312927E+01  0.42084855475E+02  0.24556541574E+02  0.49717108775E+02  0.10566000000E+00 0. -1.
         23    2    1    0    0    0  0.23193288187E+02  0.14223314908E+02  0.14716870255E+02  0.94067532041E+02  0.88836270804E+02 0.  0.
         13    1    3    3    0    0  0.33073619480E+02 -0.27861540567E+02 -0.98396713191E+01  0.44350423267E+02  0.10566000000E+00 0.  1.
         22    1    1    0    0    0 -0.23193288187E+02 -0.14223314908E+02 -0.14716870255E+02  0.30932467959E+02  0.00000000000E+00 0. -1.
</event>
<event>
 5    1  0.8943334E-005  0.9118800E+02  0.7818608E-02  0.1130116E+00
         25   -1    0    0    0    0  0.00000000000E+00  0.00000000000E+00  0.99999998245E-14  0.12500000000E+03  0.12500000000E+03 0.  0.
        -13    1    3    3    0    0  0.30463018386E+02 -0.18258499762E+02 -0.11701908475E+02  0.37394038679E+02  0.10566000000E+00 0. -1.
         23    2    1    0    0    0 -0.75679731285E+01  0.25011851411E+02 -0.14583859658E+02  0.95074160149E+02  0.90241564909E+02 0.  0.
         13    1    3    3    0    0 -0.38030991515E+02  0.43270351172E+02 -0.28819511834E+01  0.57680121470E+02  0.10566000000E+00 0.  1.
         22    1    1    0    0    0  0.75679731285E+01 -0.25011851411E+02  0.14583859658E+02  0.29925839851E+02  0.00000000000E+00 0.  1.
</event>
<event>
 5    1  0.8943334E-005  0.9118800E+02  0.7818608E-02  0.1130116E+00
         25   -1    0    0    0    0  0.00000000000E+00  0.00000000000E+00  0.99999998245E-14  0.12500000000E+03  0.12500000000E+03 0.  0.
        -13    1    3    3    0    0 -0.11948604282E+02  0.28576978312E+01  0.49001820804E+02  0.50518562799E+02  0.10566000000E+00 0.  1.
         23    2    1    0    0    0 -0.19062792781E+02 -0.18020401933E+02  0.71760048526E+01  0.97804044417E+02  0.93946852551E+02 0.  0.
         13    1    3    3    0    0 -0.71141884988E+01 -0.20878099764E+02 -0.41825815951E+02  0.47285481617E+02  0.10566000000E+00 0. -1.
         22    1    1    0    0    0  0.19062792781E+02  0.18020401933E+02 -0.71760048526E+01  0.27195955583E+02  0.00000000000E+00 0.  1.
</event>
<event>
 5    1  0.8943334E-005  0.9118800E+02  0.7818608E-02  0.1130116E+00
         25   -1    0    0    0    0  0.00000000000E+00  0.00000000000E+00  0.99999998245E-14  0.12500000000E+03  0.12500000000E+03 0.  0.
        -13    1    3    3    0    0  0.85471744091E+01  0.33732676281E+02 -0.29431239991E+02  0.45575834506E+02  0.10566000000E+00 0. -1.
         23    2    1    0    0    0  0.12598935879E+02 -0.17792271001E+02 -0.55921357770E+01  0.10249288834E+03  0.99991110031E+02 0.  0.
         13    1    3    3    0    0  0.40517614703E+01 -0.51524947282E+02  0.23839104214E+02  0.56917053835E+02  0.10566000000E+00 0.  1.
         22    1    1    0    0    0 -0.12598935879E+02  0.17792271001E+02  0.55921357770E+01  0.22507111659E+02  0.00000000000E+00 0.  1.
</event>
<event>
 5    1  0.8943334E-005  0.9118800E+02  0.7818608E-02  0.1130116E+00
         25   -1    0    0    0    0  0.00000000000E+00  0.00000000000E+00  0.99999998245E-14  0.12500000000E+03  0.12500000000E+03 0.  0.
        -13    1    3    3    0    0 -0.45908298030E+01  0.22414145540E+01  0.34318855850E+02  0.34697185597E+02  0.10566000000E+00 0. -1.
         23    2    1    0    0    0 -0.23332761543E+02  0.12387805067E+02 -0.19225667345E+02  0.92327354554E+02  0.86352988590E+02 0.  0.
         13    1    3    3    0    0 -0.18741931740E+02  0.10146390513E+02 -0.53544523195E+02  0.57630168957E+02  0.10566000000E+00 0.  1.
         22    1    1    0    0    0  0.23332761543E+02 -0.12387805067E+02  0.19225667345E+02  0.32672645446E+02  0.00000000000E+00 0.  1.
</event>
<event>
 5    1  0.8943334E-005  0.9118800E+02  0.7818608E-02  0.1130116E+00
         25   -1    0    0    0    0  0.00000000000E+00  0.00000000000E+00  0.99999998245E-14  0.12500000000E+03  0.12500000000E+03 0.  0.
        -13    1    3    3    0    0  0.25543132271E+02 -0.15104694218E+02 -0.24190051469E+02  0.38285416907E+02  0.10566000000E+00 0.  1.
         23    2    1    0    0    0  0.12593873678E+01  0.28325237108E+02  0.53427171108E+01  0.96147794887E+02  0.91716676356E+02 0.  0.
         13    1    3    3    0    0 -0.24283744903E+02  0.43429931326E+02  0.29532768580E+02  0.57862377980E+02  0.10566000000E+00 0. -1.
         22    1    1    0    0    0 -0.12593873678E+01 -0.28325237108E+02 -0.53427171108E+01  0.28852205113E+02  0.00000000000E+00 0. -1.
</event>
<event>
 5    1  0.8943334E-005  0.9118800E+02  0.7818608E-02  0.1130116E+00
         25   -1    0    0    0    0  0.00000000000E+00  0.00000000000E+00  0.99999998245E-14  0.12500000000E+03  0.12500000000E+03 0.  0.
        -13    1    3    3    0    0 -0.17236079544E+02  0.35435424417E+02  0.17263162676E+02  0.43020689107E+02  0.10566000000E+00 0. -1.
         23    2    1    0    0    0 -0.33839557647E+02  0.26272315958E+01 -0.10915349440E+02  0.89346629037E+02  0.81924704817E+02 0.  0.
         13    1    3    3    0    0 -0.16603478103E+02 -0.32808192821E+02 -0.28178512116E+02  0.46325939930E+02  0.10566000000E+00 0.  1.
         22    1    1    0    0    0  0.33839557647E+02 -0.26272315958E+01  0.10915349440E+02  0.35653370963E+02  0.00000000000E+00 0.  1.
</event>
<event>
 5    1  0.8943334E-005  0.9118800E+02  0.7818608E-02  0.1130116E+00
         25   -1    0    0    0    0  0.00000000000E+00  0.00000000000E+00  0.99999998245E-14  0.12500000000E+03  0.12500000000E+03 0.  0.
        -13    1    3    3    0    0  0.37382696860E+02  0.13385894638E+02 -0.47163305944E+02  0.61652548945E+02  0.10566000000E+00 0. -1.
         23    2    1    0    0    0  0.15955409201E+02 -0.62028061957E+00 -0.23986836051E+02  0.96184585123E+02  0.91766803806E+02 0.  0.
         13    1    3    3    0    0 -0.21427287660E+02 -0.14006175258E+02  0.23176469894E+02  0.34532036178E+02  0.10566000000E+00 0.  1.
         22    1    1    0    0    0 -0.15955409201E+02  0.62028061957E+00  0.23986836051E+02  0.28815414877E+02  0.00000000000E+00 0. -1.
</event>
<event>
 5    1  0.8943334E-005  0.9118800E+02  0.7818608E-02  0.1130116E+00
         25   -1    0    0    0    0  0.00000000000E+00  0.00000000000E+00  0.99999998245E-14  0.12500000000E+03  0.12500000000E+03 0.  0.
        -13    1    3    3    0    0  0.45580729813E+02  0.22983489891E+02  0.12119645425E+02  0.52466567518E+02  0.10566000000E+00 0. -1.
         23    2    1    0    0    0  0.27667889216E+01  0.26156157828E+02  0.13531564160E+02  0.95421241712E+02  0.90721058349E+02 0.  0.
         13    1    3    3    0    0 -0.42813940892E+02  0.31726679365E+01  0.14119187350E+01  0.42954674194E+02  0.10566000000E+00 0.  1.
         22    1    1    0    0    0 -0.27667889216E+01 -0.26156157828E+02 -0.13531564160E+02  0.29578758288E+02  0.00000000000E+00 0. -1.
</event>
<event>
 5    1  0.8943334E-005  0.9118800E+02  0.7818608E-02  0.1130116E+00
         25   -1    0    0    0    0  0.00000000000E+00  0.00000000000E+00  0.99999998245E-14  0.12500000000E+03  0.12500000000E+03 0.  0.
        -13    1    3    3    0    0  0.12012105516E+02 -0.20064258591E+02  0.32859396039E+02  0.40331330549E+02  0.10566000000E+00 0.  1.
         23    2    1    0    0    0  0.19620902072E+02  0.64006628394E+01 -0.17639551051E+02  0.97850376721E+02  0.94008479300E+02 0.  0.
         13    1    3    3    0    0  0.76087965555E+01  0.26464921431E+02 -0.50498947090E+02  0.57519046173E+02  0.10566000000E+00 0. -1.
         22    1    1    0    0    0 -0.19620902072E+02 -0.64006628394E+01  0.17639551051E+02  0.27149623279E+02  0.00000000000E+00 0. -1.
</event>
<event>
 5    1  0.8943334E-005  0.9118800E+02  0.7818608E-02  0.1130116E+00
         25   -1    0    0    0    0  0.00000000000E+00  0.00000000000E+00  0.99999998245E-14  0.12500000000E+03  0.12500000000E+03 0.  0.
        -13    1    3    3    0    0 -0.41916750564E+01 -0.31793846465E+02  0.22140448775E+02  0.38969596467E+02  0.10566000000E+00 0.  1.
         23    2    1    0    0    0 -0.91611472640E+01  0.21036533937E+02  0.23641943078E+02  0.92054532151E+02  0.85957158153E+02 0.  0.
         13    1    3    3    0    0 -0.49694722076E+01  0.52830380402E+02  0.15014943034E+01  0.53084935684E+02  0.10566000000E+00 0. -1.
         22    1    1    0    0    0  0.91611472640E+01 -0.21036533937E+02 -0.23641943078E+02  0.32945467849E+02  0.00000000000E+00 0. -1.
</event>
<event>
 5    1  0.8943334E-005  0.9118800E+02  0.7818608E-02  0.1130116E+00
         25   -1    0    0    0    0  0.00000000000E+00  0.00000000000E+00  0.99999998245E-14  0.12500000000E+03  0.12500000000E+03 0.  0.
        -13    1    3    3    0    0  0.23311167971E+02 -0.30310924020E+02  0.58263342743E+01  0.38679710472E+02  0.10566000000E+00 0. -1.
         23    2    1    0    0    0 -0.18161198238E+02 -0.13567595153E+01 -0.22025172052E+02  0.96420669676E+02  0.92087824489E+02 0.  0.
         13    1    3    3    0    0 -0.41472366209E+02  0.28954164505E+02 -0.27851506326E+02  0.57740959204E+02  0.10566000000E+00 0.  1.
         22    1    1    0    0    0  0.18161198238E+02  0.13567595153E+01  0.22025172052E+02  0.28579330324E+02  0.00000000000E+00 0.  1.
</event>
<event>
 5    1  0.8943334E-005  0.9118800E+02  0.7818608E-02  0.1130116E+00
         25   -1    0    0    0    0  0.00000000000E+00  0.00000000000E+00  0.99999998245E-14  0.12500000000E+03  0.12500000000E+03 0.  0.
        -13    1    3    3    0    0  0.80869396213E+01  0.22884294237E+01  0.43761756219E+02  0.44561619955E+02  0.10566000000E+00 0.  1.
         23    2    1    0    0    0  0.10039923600E+02 -0.28481489457E+02  0.45238592607E+01  0.94463781993E+02  0.89392088566E+02 0.  0.
         13    1    3    3    0    0  0.19529839789E+01 -0.30769918880E+02 -0.39237896958E+02  0.49902162038E+02  0.10566000000E+00 0. -1.
         22    1    1    0    0    0 -0.10039923600E+02  0.28481489457E+02 -0.45238592607E+01  0.30536218007E+02  0.00000000000E+00 0. -1.
</event>
<event>
 5    1  0.8943334E-005  0.9118800E+02  0.7818608E-02  0.1130116E+00
         25   -1    0    0    0    0  0.00000000000E+00  0.00000000000E+00  0.99999998245E-14  0.12500000000E+03  0.12500000000E+03 0.  0.
        -13    1    3    3    0    0  0.29041735341E+02  0.23499211778E+01  0.37797644800E+02  0.47724392480E+02  0.10566000000E+00 0.  1.
         23    2    1    0    0    0  0.76709424213E+01  0.28411792377E+02  0.42728855698E+01  0.95262299101E+02  0.90501794320E+02 0.  0.
         13    1    3    3    0    0 -0.21370792919E+02  0.26061871199E+02 -0.33524759230E+02  0.47537906621E+02  0.10566000000E+00 0. -1.
         22    1    1    0    0    0 -0.76709424213E+01 -0.28411792377E+02 -0.42728855698E+01  0.29737700899E+02  0.00000000000E+00 0.  1.
</event>
<event>
 5    1  0.8943334E-005  0.9118800E+02  0.7818608E-02  0.1130116E+00
         25   -1    0    0    0    0  0.00000000000E+00  0.00000000000E+00  0.99999998245E-14  0.12500000000E+03  0.12500000000E+03 0.  0.
        -13    1    3    3    0    0  0.50273269968E+02  0.26360095575E+02 -0.21826783876E+02  0.60816740873E+02  0.10566000000E+00 0. -1.
         23    2    1    0    0    0  0.20439613683E+02  0.20084201628E+02 -0.41842862477E+01  0.96040351971E+02  0.91570126093E+02 0.  0.
         13    1    3    3    0    0 -0.29833656285E+02 -0.62758939474E+01  0.17642497628E+02  0.35223611098E+02  0.10566000000E+00 0.  1.
         22    1    1    0    0    0 -0.20439613683E+02 -0.20084201628E+02  0.41842862477E+01  0.28959648029E+02  0.00000000000E+00 0. -1.
</event>
<event>
 5    1  0.8943334E-005  0.9118800E+02  0.7818608E-02  0.1130116E+00
         25   -1    0    0    0    0  0.00000000000E+00  0.00000000000E+00  0.99999998245E-14  0.12500000000E+03  0.12500000000E+03 0.  0.
        -13    1    3    3    0    0  0.31845130993E+02  0.25893601759E+02  0.14257592103E+02  0.43449753470E+02  0.10566000000E+00 0. -1.
         23    2    1    0    0    0  0.20415170806E+02 -0.16696044198E+02 -0.13314086506E+02  0.95456777590E+02  0.90770008249E+02 0.  0.
         13    1    3    3    0    0 -0.11429960187E+02 -0.42589645956E+02 -0.27571678608E+02  0.52007024120E+02  0.10566000000E+00 0.  1.
         22    1    1    0    0    0 -0.20415170806E+02  0.16696044198E+02  0.13314086506E+02  0.29543222410E+02  0.00000000000E+00 0.  1.
</event>
<event>
 5    1  0.8943334E-005  0.9118800E+02  0.7818608E-02  0.1130116E+00
         25   -1    0    0    0    0  0.00000000000E+00  0.00000000000E+00  0.99999998245E-14  0.12500000000E+03  0.12500000000E+03 0.  0.
        -13    1    3    3    0    0 -0.28212942130E+02  0.18573248028E+02 -0.51773347263E+02  0.61817685955E+02  0.10566000000E+00 0. -1.
         23    2    1    0    0    0 -0.10880486713E+02  0.14861924474E+02 -0.24414760831E+02  0.94416633007E+02  0.89326134204E+02 0.  0.
         13    1    3    3    0    0  0.17332455417E+02 -0.37113235541E+01  0.27358586432E+02  0.32598947053E+02  0.10566000000E+00 0.  1.
         22    1    1    0    0    0  0.10880486713E+02 -0.14861924474E+02  0.24414760831E+02  0.30583366993E+02  0.00000000000E+00 0. -1.
</event>
<event>
 5    1  0.8943334E-005  0.9118800E+02  0.7818608E-02  0.1130116E+00
         25   -1    0    0    0    0  0.00000000000E+00  0.00000000000E+00  0.99999998245E-14  0.12500000000E+03  0.12500000000E+03 0.  0.
        -13    1    3    3    0    0 -0.28725174248E+02 -0.44540984789E+00 -0.52519639281E+02  0.59863659258E+02  0.10566000000E+00 0. -1.
         23    2    1    0    0    0 -0.31114354830E+01 -0.88503909313E+01 -0.24591153810E+02  0.98680134953E+02  0.95105382277E+02 0.  0.
         13    1    3    3    0    0  0.25613738765E+02 -0.84049810835E+01  0.27928485471E+02  0.38816475694E+02  0.10566000000E+00 0.  1.
         22    1    1    0    0    0  0.31114354830E+01  0.88503909313E+01  0.24591153810E+02  0.26319865047E+02  0.00000000000E+00 0. -1.
</event>
<event>
 5    1  0.8943334E-005  0.9118800E+02  0.7818608E-02  0.1130116E+00
         25   -1    0    0    0    0  0.00000000000E+00  0.00000000000E+00  0.99999998245E-14  0.12500000000E+03  0.12500000000E+03 0.  0.
        -13    1    3    3    0    0 -0.14382649348E+02  0.27811368156E+02  0.48197626962E+02  0.57474822399E+02  0.10566000000E+00 0. -1.
         23    2    1    0    0    0 -0.18065691342E+02 -0.36307671550E+00  0.24986724126E+02  0.94164348378E+02  0.88972395127E+02 0.  0.
         13    1    3    3    0    0 -0.36830419942E+01 -0.28174444871E+02 -0.23210902836E+02  0.36689525980E+02  0.10566000000E+00 0.  1.
         22    1    1    0    0    0  0.18065691342E+02  0.36307671550E+00 -0.24986724126E+02  0.30835651622E+02  0.00000000000E+00 0. -1.
</event>
<event>
 5    1  0.8943334E-005  0.9118800E+02  0.7818608E-02  0.1130116E+00
         25   -1    0    0    0    0  0.00000000000E+00  0.00000000000E+00  0.99999998245E-14  0.12500000000E+03  0.12500000000E+03 0.  0.
        -13    1    3    3    0    0  0.32802643525E+02 -0.10037704056E+02 -0.35231280444E+02  0.49173399422E+02  0.10566000000E+00 0. -1.
         23    2    1    0    0    0  0.21346611605E+02 -0.22047083621E+02  0.60990276930E+01  0.93711825525E+02  0.88334344290E+02 0.  0.
         13    1    3    3    0    0 -0.11456031920E+02 -0.12009379565E+02  0.41330308137E+02  0.44538426102E+02  0.10566000000E+00 0.  1.
         22    1    1    0    0    0 -0.21346611605E+02  0.22047083621E+02 -0.60990276930E+01  0.31288174475E+02  0.00000000000E+00 0.  1.
</event>
<event>
 5    1  0.8943334E-005  0.9118800E+02  0.7818608E-02  0.1130116E+00
         25   -1    0    0    0    0  0.00000000000E+00  0.00000000000E+00  0.99999998245E-14  0.12500000000E+03  0.12500000000E+03 0.  0.
        -13    1    3    3    0    0  0.43483156261E+02 -0.12510201810E+02  0.67137683779E+01  0.45742495314E+02  0.10566000000E+00 0.  1.
         23    2    1    0    0    0  0.30484741746E+01 -0.21653230164E+02 -0.20251112864E+02  0.95196256216E+02  0.90410530659E+02 0.  0.
         13    1    3    3    0    0 -0.40434682086E+02 -0.91430283535E+01 -0.26964881242E+02  0.49453760902E+02  0.10566000000E+00 0. -1.
         22    1    1    0    0    0 -0.30484741746E+01  0.21653230164E+02  0.20251112864E+02  0.29803743784E+02  0.00000000000E+00 0. -1.
</event>
<event>
 5    1  0.8943334E-005  0.9118800E+02  0.7818608E-02  0.1130116E+00
         25   -1    0    0    0    0  0.00000000000E+00  0.00000000000E+00  0.99999998245E-14  0.12500000000E+03  0.12500000000E+03 0.  0.
        -13    1    3    3    0    0  0.29625335663E+02 -0.41803342988E+02 -0.26023605667E+02  0.57466679163E+02  0.10566000000E+00 0. -1.
         23    2    1    0    0    0 -0.52807187798E+00 -0.28470257620E+02 -0.64692295953E+01  0.95799223291E+02  0.91240373864E+02 0.  0.
         13    1    3    3    0    0 -0.30153407541E+02  0.13333085368E+02  0.19554376072E+02  0.38332544128E+02  0.10566000000E+00 0.  1.
         22    1    1    0    0    0  0.52807187798E+00  0.28470257620E+02  0.64692295953E+01  0.29200776709E+02  0.00000000000E+00 0. -1.
</event>
<event>
 5    1  0.8943334E-005  0.9118800E+02  0.7818608E-02  0.1130116E+00
         25   -1    0    0    0    0  0.00000000000E+00  0.00000000000E+00  0.99999998245E-14  0.12500000000E+03  0.12500000000E+03 0.  0.
        -13    1    3    3    0    0  0.47552034356E+02  0.20408535572E+02 -0.58155906030E+01  0.52072416437E+02  0.10566000000E+00 0.  1.
         23    2    1    0    0    0  0.19441379205E+02  0.24103801294E+01  0.22014421792E+02  0.95531170288E+02  0.90872397195E+02 0.  0.
         13    1    3    3    0    0 -0.28110655150E+02 -0.17998155442E+02  0.27830012395E+02  0.43458753851E+02  0.10566000000E+00 0. -1.
         22    1    1    0    0    0 -0.19441379205E+02 -0.24103801294E+01 -0.22014421792E+02  0.29468829712E+02  0.00000000000E+00 0.  1.
</event>
<event>
 5    1  0.8943334E-005  0.9118800E+02  0.7818608E-02  0.1130116E+00
         25   -1    0    0    0    0  0.00000000000E+00  0.00000000000E+00  0.99999998245E-14  0.12500000000E+03  0.12500000000E+03 0.  0.
        -13    1    3    3    0    0 -0.34625803368E+02 -0.19892641502E+02  0.11345319503E+02  0.41513743309E+02  0.10566000000E+00 0.  1.
         23    2    1    0    0    0 -0.21176726430E+01 -0.14625775580E+02 -0.28312591528E+02  0.93062550387E+02  0.87410740741E+02 0.  0.
         13    1    3    3    0    0  0.32508130725E+02  0.52668659222E+01 -0.39657911030E+02  0.51548807079E+02  0.10566000000E+00 0. -1.
         22    1    1    0    0    0  0.21176726430E+01  0.14625775580E+02  0.28312591528E+02  0.31937449613E+02  0.00000000000E+00 0. -1.
</event>
<event>
 5    1  0.8943334E-005  0.9118800E+02  0.7818608E-02  0.1130116E+00
         25   -1    0    0    0    0  0.00000000000E+00  0.00000000000E+00  0.99999998245E-14  0.12500000000E+03  0.12500000000E+03 0.  0.
        -13    1    3    3    0    0 -0.49038815117E+00 -0.44518016751E+02 -0.21022762053E+02  0.49234763981E+02  0.10566000000E+00 0. -1.
         23    2    1    0    0    0  0.22553670894E+02 -0.41996667511E+00 -0.25956144062E+01  0.10229357675E+03  0.99741637177E+02 0.  0.
         13    1    3    3    0    0  0.23044059045E+02  0.44098050075E+02  0.18427147646E+02  0.53058812766E+02  0.10566000000E+00 0.  1.
         22    1    1    0    0    0 -0.22553670894E+02  0.41996667511E+00  0.25956144062E+01  0.22706423253E+02  0.00000000000E+00 0. -1.
</event>
<event>
 5    1  0.8943334E-005  0.9118800E+02  0.7818608E-02  0.1130116E+00
         25   -1    0    0    0    0  0.00000000000E+00  0.00000000000E+00  0.99999998245E-14  0.12500000000E+03  0.12500000000E+03 0.  0.
        -13    1    3    3    0    0 -0.36054278910E+02  0.22916054105E+02 -0.33113943332E+02  0.54051835958E+02  0.10566000000E+00 0. -1.
         23    2    1    0    0    0 -0.22711731005E+02 -0.11571344120E+02 -0.16819308804E+02  0.94461370715E+02  0.89388716730E+02 0.  0.
         13    1    3    3    0    0  0.13342547904E+02 -0.34487398224E+02  0.16294634528E+02  0.40409534757E+02  0.10566000000E+00 0.  1.
         22    1    1    0    0    0  0.22711731005E+02  0.11571344120E+02  0.16819308804E+02  0.30538629285E+02  0.00000000000E+00 0. -1.
</event>
<event>
 5    1  0.8943334E-005  0.9118800E+02  0.7818608E-02  0.1130116E+00
         25   -1    0    0    0    0  0.00000000000E+00  0.00000000000E+00  0.99999998245E-14  0.12500000000E+03  0.12500000000E+03 0.  0.
        -13    1    3    3    0    0  0.39632493541E+02 -0.13341260731E+02 -0.79368636315E+01  0.42564407086E+02  0.10566000000E+00 0.  1.
         23    2    1    0    0    0  0.13065992036E+01  0.15241546384E+02 -0.26945266725E+02  0.94015175706E+02  0.88762570526E+02 0.  0.
         13    1    3    3    0    0 -0.38325894338E+02  0.28582807116E+02 -0.19008403094E+02  0.51450768620E+02  0.10566000000E+00 0. -1.
         22    1    1    0    0    0 -0.13065992036E+01 -0.15241546384E+02  0.26945266725E+02  0.30984824294E+02  0.00000000000E+00 0.  1.
</event>
<event>
 5    1  0.8943334E-005  0.9118800E+02  0.7818608E-02  0.1130116E+00
         25   -1    0    0    0    0  0.00000000000E+00  0.00000000000E+00  0.99999998245E-14  0.12500000000E+03  0.12500000000E+03 0.  0.
        -13    1    3    3    0    0  0.19681318517E+01 -0.54012055269E+02 -0.14196141358E+02  0.55881278179E+02  0.10566000000E+00 0. -1.
         23    2    1    0    0    0  0.19149231221E+02 -0.17907669872E+02 -0.12636357120E+02  0.95895786940E+02  0.91372571021E+02 0.  0.
         13    1    3    3    0    0  0.17181099370E+02  0.36104385397E+02  0.15597842387E+01  0.40014508761E+02  0.10566000000E+00 0.  1.
         22    1    1    0    0    0 -0.19149231221E+02  0.17907669872E+02  0.12636357120E+02  0.29104213060E+02  0.00000000000E+00 0.  1.
</event>
<event>
 5    1  0.8943334E-005  0.9118800E+02  0.7818608E-02  0.1130116E+00
         25   -1    0    0    0    0  0.00000000000E+00  0.00000000000E+00  0.99999998245E-14  0.12500000000E+03  0.12500000000E+03 0.  0.
        -13    1    3    3    0    0 -0.14727433521E+02  0.44957220818E+02  0.12634722999E+02  0.48966278101E+02  0.10566000000E+00 0. -1.
         23    2    1    0    0    0 -0.13943818093E+02  0.11143834608E+01  0.26566177649E+02  0.94976114369E+02  0.90105652388E+02 0.  0.
         13    1    3    3    0    0  0.78361542721E+00 -0.43842837357E+02  0.13931454649E+02  0.46009836268E+02  0.10566000000E+00 0.  1.
         22    1    1    0    0    0  0.13943818093E+02 -0.11143834608E+01 -0.26566177649E+02  0.30023885631E+02  0.00000000000E+00 0. -1.
</event>
<event>
 5    1  0.8943334E-005  0.9118800E+02  0.7818608E-02  0.1130116E+00
         25   -1    0    0    0    0  0.00000000000E+00  0.00000000000E+00  0.99999998245E-14  0.12500000000E+03  0.12500000000E+03 0.  0.
        -13    1    3    3    0    0  0.34671599467E+02  0.45474324119E+02 -0.88362222782E+01  0.57862975657E+02  0.10566000000E+00 0.  1.
         23    2    1    0    0    0  0.23100834313E+02  0.10116716586E+02 -0.15124300427E+02  0.95593521737E+02  0.90958124619E+02 0.  0.
         13    1    3    3    0    0 -0.11570765154E+02 -0.35357607533E+02 -0.62880781487E+01  0.37730546080E+02  0.10566000000E+00 0. -1.
         22    1    1    0    0    0 -0.23100834313E+02 -0.10116716586E+02  0.15124300427E+02  0.29406478263E+02  0.00000000000E+00 0.  1.
</event>
<event>
 5    1  0.8943334E-005  0.9118800E+02  0.7818608E-02  0.1130116E+00
         25   -1    0    0    0    0  0.00000000000E+00  0.00000000000E+00  0.99999998245E-14  0.12500000000E+03  0.12500000000E+03 0.  0.
        -13    1    3    3    0    0  0.65654065086E+01  0.59307702910E+01 -0.34996689083E+02  0.36097894810E+02  0.10566000000E+00 0.  1.
         23    2    1    0    0    0 -0.12116188210E+02  0.11877783259E+02  0.22485272679E+02  0.96831378462E+02  0.92643643147E+02 0.  0.
         13    1    3    3    0    0 -0.18681594718E+02  0.59470129680E+01  0.57481961762E+02  0.60733483652E+02  0.10566000000E+00 0. -1.
         22    1    1    0    0    0  0.12116188210E+02 -0.11877783259E+02 -0.22485272679E+02  0.28168621538E+02  0.00000000000E+00 0. -1.
</event>
<event>
 5    1  0.8943334E-005  0.9118800E+02  0.7818608E-02  0.1130116E+00
         25   -1    0    0    0    0  0.00000000000E+00  0.00000000000E+00  0.99999998245E-14  0.12500000000E+03  0.12500000000E+03 0.  0.
        -13    1    3    3    0    0  0.54244044776E+02  0.98496141058E+01 -0.13707130814E+02  0.56809575697E+02  0.10566000000E+00 0.  1.
         23    2    1    0    0    0  0.47926429500E+02 -0.60692791403E-01  0.27063338946E+01  0.76997181631E+02  0.60202121290E+02 0.  0.
         13    1    3    3    0    0 -0.63176152759E+01 -0.99103068973E+01  0.16413464709E+02  0.20187605934E+02  0.10566000000E+00 0. -1.
         22    1    1    0    0    0 -0.47926429500E+02  0.60692791403E-01 -0.27063338946E+01  0.48002818369E+02  0.00000000000E+00 0.  1.
</event>
<event>
 5    1  0.8943334E-005  0.9118800E+02  0.7818608E-02  0.1130116E+00
         25   -1    0    0    0    0  0.00000000000E+00  0.00000000000E+00  0.99999998245E-14  0.12500000000E+03  0.12500000000E+03 0.  0.
        -13    1    3    3    0    0 -0.36202841051E+02 -0.33409847579E+02  0.88586422163E+01  0.50053474618E+02  0.10566000000E+00 0.  1.
         23    2    1    0    0    0  0.85550297997E+01 -0.26744306784E+02 -0.27960799054E+01  0.96781840190E+02  0.92576779202E+02 0.  0.
         13    1    3    3    0    0  0.44757870851E+02  0.66655407946E+01 -0.11654722122E+02  0.46728365571E+02  0.10566000000E+00 0. -1.
         22    1    1    0    0    0 -0.85550297997E+01  0.26744306784E+02  0.27960799054E+01  0.28218159810E+02  0.00000000000E+00 0.  1.
</event>
<event>
 5    1  0.8943334E-005  0.9118800E+02  0.7818608E-02  0.1130116E+00
         25   -1    0    0    0    0  0.00000000000E+00  0.00000000000E+00  0.99999998245E-14  0.12500000000E+03  0.12500000000E+03 0.  0.
        -13    1    3    3    0    0 -0.14828175915E+02  0.46744514884E+01 -0.29644362626E+02  0.33474239308E+02  0.10566000000E+00 0. -1.
         23    2    1    0    0    0  0.10362396882E+02 -0.15877833988E+02  0.22903933026E+02  0.95266600778E+02  0.90507735550E+02 0.  0.
         13    1    3    3    0    0  0.25190572797E+02 -0.20552285476E+02  0.52548295651E+02  0.61792361470E+02  0.10566000000E+00 0.  1.
         22    1    1    0    0    0 -0.10362396882E+02  0.15877833988E+02 -0.22903933026E+02  0.29733399222E+02  0.00000000000E+00 0.  1.
</event>
<event>
 5    1  0.8943334E-005  0.9118800E+02  0.7818608E-02  0.1130116E+00
         25   -1    0    0    0    0  0.00000000000E+00  0.00000000000E+00  0.99999998245E-14  0.12500000000E+03  0.12500000000E+03 0.  0.
        -13    1    3    3    0    0  0.33982732455E+02 -0.18865955894E+02 -0.22355911291E+02  0.44839138379E+02  0.10566000000E+00 0.  1.
         23    2    1    0    0    0 -0.59683432314E+01  0.19270744840E+02 -0.13373043814E+02  0.10079626003E+03  0.97847151250E+02 0.  0.
         13    1    3    3    0    0 -0.39951075686E+02  0.38136700734E+02  0.89828674772E+01  0.55957121652E+02  0.10566000000E+00 0. -1.
         22    1    1    0    0    0  0.59683432314E+01 -0.19270744840E+02  0.13373043814E+02  0.24203739969E+02  0.00000000000E+00 0. -1.
</event>
<event>
 5    1  0.8943334E-005  0.9118800E+02  0.7818608E-02  0.1130116E+00
         25   -1    0    0    0    0  0.00000000000E+00  0.00000000000E+00  0.99999998245E-14  0.12500000000E+03  0.12500000000E+03 0.  0.
        -13    1    3    3    0    0  0.38604455375E+02  0.27075118006E+01  0.18310153697E+02  0.42812468831E+02  0.10566000000E+00 0.  1.
         23    2    1    0    0    0 -0.66357834855E+01  0.27446176902E+02  0.10024273104E+02  0.95036483847E+02  0.90189361688E+02 0.  0.
         13    1    3    3    0    0 -0.45240238861E+02  0.24738665101E+02 -0.82858805925E+01  0.52224015016E+02  0.10566000000E+00 0. -1.
         22    1    1    0    0    0  0.66357834855E+01 -0.27446176902E+02 -0.10024273104E+02  0.29963516153E+02  0.00000000000E+00 0.  1.
</event>
<event>
 5    1  0.8943334E-005  0.9118800E+02  0.7818608E-02  0.1130116E+00
         25   -1    0    0    0    0  0.00000000000E+00  0.00000000000E+00  0.99999998245E-14  0.12500000000E+03  0.12500000000E+03 0.  0.
        -13    1    3    3    0    0 -0.34569823627E+02  0.10365633646E+02 -0.23278207958E+02  0.42946538815E+02  0.10566000000E+00 0.  1.
         23    2    1    0    0    0 -0.23006440937E+02  0.13575744565E+02  0.22377035270E+02  0.90152778123E+02  0.83145622438E+02 0.  0.
         13    1    3    3    0    0  0.11563382689E+02  0.32101109194E+01  0.45655243228E+02  0.47206239307E+02  0.10566000000E+00 0. -1.
         22    1    1    0    0    0  0.23006440937E+02 -0.13575744565E+02 -0.22377035270E+02  0.34847221877E+02  0.00000000000E+00 0.  1.
</event>
<event>
 5    1  0.8943334E-005  0.9118800E+02  0.7818608E-02  0.1130116E+00
         25   -1    0    0    0    0  0.00000000000E+00  0.00000000000E+00  0.99999998245E-14  0.12500000000E+03  0.12500000000E+03 0.  0.
        -13    1    3    3    0    0  0.10506512375E+02 -0.34321240438E+02  0.90009869100E+01  0.37004908822E+02  0.10566000000E+00 0.  1.
         23    2    1    0    0    0 -0.23704379852E+02  0.13619399888E+02  0.99472431380E+01  0.95908191471E+02  0.91389539159E+02 0.  0.
         13    1    3    3    0    0 -0.34210892227E+02  0.47940640327E+02  0.94625622798E+00  0.58903282649E+02  0.10566000000E+00 0. -1.
         22    1    1    0    0    0  0.23704379852E+02 -0.13619399888E+02 -0.99472431380E+01  0.29091808529E+02  0.00000000000E+00 0. -1.
</event>
<event>
 5    1  0.8943334E-005  0.9118800E+02  0.7818608E-02  0.1130116E+00
         25   -1    0    0    0    0  0.00000000000E+00  0.00000000000E+00  0.99999998245E-14  0.12500000000E+03  0.12500000000E+03 0.  0.
        -13    1    3    3    0    0 -0.14521515461E+02 -0.47276650456E+02 -0.36129749232E+01  0.49588515218E+02  0.10566000000E+00 0. -1.
         23    2    1    0    0    0 -0.29120226645E+02 -0.41931609081E+01  0.24361424747E+01  0.95478736673E+02  0.90800243217E+02 0.  0.
         13    1    3    3    0    0 -0.14598711184E+02  0.43083489548E+02  0.60491173978E+01  0.45890221455E+02  0.10566000000E+00 0.  1.
         22    1    1    0    0    0  0.29120226645E+02  0.41931609081E+01 -0.24361424747E+01  0.29521263327E+02  0.00000000000E+00 0. -1.
</event>
<event>
 5    1  0.8943334E-005  0.9118800E+02  0.7818608E-02  0.1130116E+00
         25   -1    0    0    0    0  0.00000000000E+00  0.00000000000E+00  0.99999998245E-14  0.12500000000E+03  0.12500000000E+03 0.  0.
        -13    1    3    3    0    0  0.14564054246E+02 -0.52900894544E+02 -0.25854590527E+02  0.60655480668E+02  0.10566000000E+00 0. -1.
         23    2    1    0    0    0  0.15874780619E+02 -0.19790339730E+02 -0.15011061533E+02  0.95521225014E+02  0.90858715892E+02 0.  0.
         13    1    3    3    0    0  0.13107263730E+01  0.33110554815E+02  0.10843528994E+02  0.34865744347E+02  0.10566000000E+00 0.  1.
         22    1    1    0    0    0 -0.15874780619E+02  0.19790339730E+02  0.15011061533E+02  0.29478774986E+02  0.00000000000E+00 0. -1.
</event>
<event>
 5    1  0.8943334E-005  0.9118800E+02  0.7818608E-02  0.1130116E+00
         25   -1    0    0    0    0  0.00000000000E+00  0.00000000000E+00  0.99999998245E-14  0.12500000000E+03  0.12500000000E+03 0.  0.
        -13    1    3    3    0    0 -0.33222525979E+02  0.38244014246E+02  0.33966167802E+02  0.60992233745E+02  0.10566000000E+00 0.  1.
         23    2    1    0    0    0 -0.22610387539E+02  0.18472562829E+02  0.92557493306E+01  0.94371025192E+02  0.89262289338E+02 0.  0.
         13    1    3    3    0    0  0.10612138440E+02 -0.19771451416E+02 -0.24710418471E+02  0.33378791447E+02  0.10566000000E+00 0. -1.
         22    1    1    0    0    0  0.22610387539E+02 -0.18472562829E+02 -0.92557493306E+01  0.30628974808E+02  0.00000000000E+00 0.  1.
</event>
<event>
 5    1  0.8943334E-005  0.9118800E+02  0.7818608E-02  0.1130116E+00
         25   -1    0    0    0    0  0.00000000000E+00  0.00000000000E+00  0.99999998245E-14  0.12500000000E+03  0.12500000000E+03 0.  0.
        -13    1    3    3    0    0  0.40779290541E+02 -0.22349413616E+02  0.30066633438E+02  0.55375630347E+02  0.10566000000E+00 0. -1.
         23    2    1    0    0    0  0.33366737113E+01 -0.10403027953E+02  0.28239967192E+02  0.94720433804E+02  0.89750255994E+02 0.  0.
         13    1    3    3    0    0 -0.37442616830E+02  0.11946385663E+02 -0.18266662460E+01  0.39344803457E+02  0.10566000000E+00 0.  1.
         22    1    1    0    0    0 -0.33366737113E+01  0.10403027953E+02 -0.28239967192E+02  0.30279566196E+02  0.00000000000E+00 0. -1.
</event>
<event>
 5    1  0.8943334E-005  0.9118800E+02  0.7818608E-02  0.1130116E+00
         25   -1    0    0    0    0  0.00000000000E+00  0.00000000000E+00  0.99999998245E-14  0.12500000000E+03  0.12500000000E+03 0.  0.
        -13    1    3    3    0    0 -0.18697986896E+02  0.36884365049E+02  0.62013706916E+01  0.41815538517E+02  0.10566000000E+00 0. -1.
         23    2    1    0    0    0  0.19545442414E+02  0.22569460099E+01  0.21723312970E+02  0.95690949335E+02  0.91091916951E+02 0.  0.
         13    1    3    3    0    0  0.38243429310E+02 -0.34627419039E+02  0.15521942278E+02  0.53875410818E+02  0.10566000000E+00 0.  1.
         22    1    1    0    0    0 -0.19545442414E+02 -0.22569460099E+01 -0.21723312970E+02  0.29309050665E+02  0.00000000000E+00 0.  1.
</event>
<event>
 5    1  0.8943334E-005  0.9118800E+02  0.7818608E-02  0.1130116E+00
         25   -1    0    0    0    0  0.00000000000E+00  0.00000000000E+00  0.99999998245E-14  0.12500000000E+03  0.12500000000E+03 0.  0.
        -13    1    3    3    0    0 -0.34768513232E+02 -0.23691493726E+02  0.87304383759E+01  0.42969385679E+02  0.10566000000E+00 0. -1.
         23    2    1    0    0    0  0.11868915369E+02  0.14296591494E+02 -0.70009458651E+01  0.10514359238E+03  0.10325162515E+03 0.  0.
         13    1    3    3    0    0  0.46637428601E+02  0.37988085220E+02 -0.15731384241E+02  0.62174206705E+02  0.10566000000E+00 0.  1.
         22    1    1    0    0    0 -0.11868915369E+02 -0.14296591494E+02  0.70009458651E+01  0.19856407616E+02  0.00000000000E+00 0.  1.
</event>
<event>
 5    1  0.8943334E-005  0.9118800E+02  0.7818608E-02  0.1130116E+00
         25   -1    0    0    0    0  0.00000000000E+00  0.00000000000E+00  0.99999998245E-14  0.12500000000E+03  0.12500000000E+03 0.  0.
        -13    1    3    3    0    0  0.37958176015E+02 -0.19941653249E+02 -0.11756521805E+01  0.42893892138E+02  0.10566000000E+00 0. -1.
         23    2    1    0    0    0 -0.12117703872E+02 -0.18078316157E+02 -0.19029430910E+02  0.96090079506E+02  0.91637982718E+02 0.  0.
         13    1    3    3    0    0 -0.50075879887E+02  0.18633370920E+01 -0.17853778729E+02  0.53196187368E+02  0.10566000000E+00 0.  1.
         22    1    1    0    0    0  0.12117703872E+02  0.18078316157E+02  0.19029430910E+02  0.28909920494E+02  0.00000000000E+00 0.  1.
</event>
<event>
 5    1  0.8943334E-005  0.9118800E+02  0.7818608E-02  0.1130116E+00
         25   -1    0    0    0    0  0.00000000000E+00  0.00000000000E+00  0.99999998245E-14  0.12500000000E+03  0.12500000000E+03 0.  0.
        -13    1    3    3    0    0 -0.28344391594E+02  0.31221104162E+02  0.37124573588E+02  0.56181909972E+02  0.10566000000E+00 0.  1.
         23    2    1    0    0    0 -0.13930585297E+02  0.25408578458E+02  0.44350743812E+00  0.96019769414E+02  0.91542025068E+02 0.  0.
         13    1    3    3    0    0  0.14413806296E+02 -0.58125257047E+01 -0.36681066150E+02  0.39837859442E+02  0.10566000000E+00 0. -1.
         22    1    1    0    0    0  0.13930585297E+02 -0.25408578458E+02 -0.44350743812E+00  0.28980230586E+02  0.00000000000E+00 0.  1.
</event>
<event>
 5    1  0.8943334E-005  0.9118800E+02  0.7818608E-02  0.1130116E+00
         25   -1    0    0    0    0  0.00000000000E+00  0.00000000000E+00  0.99999998245E-14  0.12500000000E+03  0.12500000000E+03 0.  0.
        -13    1    3    3    0    0  0.27981859574E+02  0.23041279557E+02 -0.25442726085E+02  0.44285759602E+02  0.10566000000E+00 0.  1.
         23    2    1    0    0    0 -0.19599548717E+02  0.32896346065E+01 -0.21142708429E+02  0.95983140668E+02  0.91491995098E+02 0.  0.
         13    1    3    3    0    0 -0.47581408291E+02 -0.19751644950E+02  0.43000176555E+01  0.51697381066E+02  0.10566000000E+00 0. -1.
         22    1    1    0    0    0  0.19599548717E+02 -0.32896346065E+01  0.21142708429E+02  0.29016859332E+02  0.00000000000E+00 0. -1.
</event>
<event>
 5    1  0.8943334E-005  0.9118800E+02  0.7818608E-02  0.1130116E+00
         25   -1    0    0    0    0  0.00000000000E+00  0.00000000000E+00  0.99999998245E-14  0.12500000000E+03  0.12500000000E+03 0.  0.
        -13    1    3    3    0    0 -0.29384878566E+02 -0.42829034293E+02 -0.43337478634E+01  0.52120915201E+02  0.10566000000E+00 0.  1.
         23    2    1    0    0    0 -0.28422826419E+02  0.14464890617E+01 -0.20870146428E+01  0.96463969751E+02  0.92146581259E+02 0.  0.
         13    1    3    3    0    0  0.96205214672E+00  0.44275523354E+02  0.22467332206E+01  0.44343054550E+02  0.10566000000E+00 0. -1.
         22    1    1    0    0    0  0.28422826419E+02 -0.14464890617E+01  0.20870146428E+01  0.28536030249E+02  0.00000000000E+00 0. -1.
</event>
<event>
 5    1  0.8943334E-005  0.9118800E+02  0.7818608E-02  0.1130116E+00
         25   -1    0    0    0    0  0.00000000000E+00  0.00000000000E+00  0.99999998245E-14  0.12500000000E+03  0.12500000000E+03 0.  0.
        -13    1    3    3    0    0  0.32083831670E+02 -0.40371978518E+01 -0.49066379529E+02  0.58763866323E+02  0.10566000000E+00 0.  1.
         23    2    1    0    0    0  0.12042840104E+02  0.13263118552E+02 -0.22041139986E+02  0.96596617043E+02  0.92326346515E+02 0.  0.
         13    1    3    3    0    0 -0.20040991566E+02  0.17300316404E+02  0.27025239543E+02  0.37832750719E+02  0.10566000000E+00 0. -1.
         22    1    1    0    0    0 -0.12042840104E+02 -0.13263118552E+02  0.22041139986E+02  0.28403382957E+02  0.00000000000E+00 0.  1.
</event>
<event>
 5    1  0.8943334E-005  0.9118800E+02  0.7818608E-02  0.1130116E+00
         25   -1    0    0    0    0  0.00000000000E+00  0.00000000000E+00  0.99999998245E-14  0.12500000000E+03  0.12500000000E+03 0.  0.
        -13    1    3    3    0    0  0.16597823628E+02 -0.69941590082E+01  0.36503970597E+02  0.40705737222E+02  0.10566000000E+00 0.  1.
         23    2    1    0    0    0  0.23021436822E+02  0.80237930943E+01 -0.16097700566E+02  0.95785213119E+02  0.91221177803E+02 0.  0.
         13    1    3    3    0    0  0.64236131946E+01  0.15017952102E+02 -0.52601671164E+02  0.55079475897E+02  0.10566000000E+00 0. -1.
         22    1    1    0    0    0 -0.23021436822E+02 -0.80237930943E+01  0.16097700566E+02  0.29214786881E+02  0.00000000000E+00 0. -1.
</event>
<event>
 5    1  0.8943334E-005  0.9118800E+02  0.7818608E-02  0.1130116E+00
         25   -1    0    0    0    0  0.00000000000E+00  0.00000000000E+00  0.99999998245E-14  0.12500000000E+03  0.12500000000E+03 0.  0.
        -13    1    3    3    0    0 -0.39472358587E+01  0.53511994643E+01 -0.45273178839E+02  0.45759019797E+02  0.10566000000E+00 0.  1.
         23    2    1    0    0    0  0.26074508516E+02 -0.99466057860E+01 -0.80774343017E+01  0.95947290902E+02  0.91443002606E+02 0.  0.
         13    1    3    3    0    0  0.30021744375E+02 -0.15297805250E+02  0.37195744537E+02  0.50188271105E+02  0.10566000000E+00 0. -1.
         22    1    1    0    0    0 -0.26074508516E+02  0.99466057860E+01  0.80774343017E+01  0.29052709098E+02  0.00000000000E+00 0.  1.
</event>
<event>
 5    1  0.8943334E-005  0.9118800E+02  0.7818608E-02  0.1130116E+00
         25   -1    0    0    0    0  0.00000000000E+00  0.00000000000E+00  0.99999998245E-14  0.12500000000E+03  0.12500000000E+03 0.  0.
        -13    1    3    3    0    0  0.45392081857E+02  0.38170387683E+02 -0.48988716788E+01  0.59509912611E+02  0.10566000000E+00 0.  1.
         23    2    1    0    0    0  0.21575133279E+02  0.12784410652E+02  0.10798928464E+02  0.97695341282E+02  0.93802107229E+02 0.  0.
         13    1    3    3    0    0 -0.23816948578E+02 -0.25385977032E+02  0.15697800143E+02  0.38185428671E+02  0.10566000000E+00 0. -1.
         22    1    1    0    0    0 -0.21575133279E+02 -0.12784410652E+02 -0.10798928464E+02  0.27304658718E+02  0.00000000000E+00 0.  1.
</event>
<event>
 5    1  0.8943334E-005  0.9118800E+02  0.7818608E-02  0.1130116E+00
         25   -1    0    0    0    0  0.00000000000E+00  0.00000000000E+00  0.99999998245E-14  0.12500000000E+03  0.12500000000E+03 0.  0.
        -13    1    3    3    0    0  0.53225490047E+02  0.31023587915E+02  0.91859079228E+01  0.62288103730E+02  0.10566000000E+00 0.  1.
         23    2    1    0    0    0  0.25739529838E+02  0.16257242446E+02  0.10259638519E+01  0.94538976872E+02  0.89497174357E+02 0.  0.
         13    1    3    3    0    0 -0.27485960209E+02 -0.14766345469E+02 -0.81599440708E+01  0.32250873142E+02  0.10566000000E+00 0. -1.
         22    1    1    0    0    0 -0.25739529838E+02 -0.16257242446E+02 -0.10259638519E+01  0.30461023128E+02  0.00000000000E+00 0.  1.
</event>
<event>
 5    1  0.8943334E-005  0.9118800E+02  0.7818608E-02  0.1130116E+00
         25   -1    0    0    0    0  0.00000000000E+00  0.00000000000E+00  0.99999998245E-14  0.12500000000E+03  0.12500000000E+03 0.  0.
        -13    1    3    3    0    0  0.13719846114E+02  0.24401769793E+02  0.36064446907E+02  0.45654529252E+02  0.10566000000E+00 0.  1.
         23    2    1    0    0    0  0.21929845110E+02 -0.17034633079E+02  0.90595853589E+01  0.95790876125E+02  0.91228937466E+02 0.  0.
         13    1    3    3    0    0  0.82099989961E+01 -0.41436402872E+02 -0.27004861548E+02  0.50136346873E+02  0.10566000000E+00 0. -1.
         22    1    1    0    0    0 -0.21929845110E+02  0.17034633079E+02 -0.90595853589E+01  0.29209123875E+02  0.00000000000E+00 0. -1.
</event>
<event>
 5    1  0.8943334E-005  0.9118800E+02  0.7818608E-02  0.1130116E+00
         25   -1    0    0    0    0  0.00000000000E+00  0.00000000000E+00  0.99999998245E-14  0.12500000000E+03  0.12500000000E+03 0.  0.
        -13    1    3    3    0    0 -0.17040375488E+02  0.10804045473E+02 -0.34860686844E+02  0.40278784076E+02  0.10566000000E+00 0.  1.
         23    2    1    0    0    0  0.18199439732E+02 -0.21988068577E+02 -0.82152393775E+01  0.95298401990E+02  0.90551645471E+02 0.  0.
         13    1    3    3    0    0  0.35239815221E+02 -0.32792114050E+02  0.26645447467E+02  0.55019617914E+02  0.10566000000E+00 0. -1.
         22    1    1    0    0    0 -0.18199439732E+02  0.21988068577E+02  0.82152393775E+01  0.29701598010E+02  0.00000000000E+00 0. -1.
</event>
<event>
 5    1  0.8943334E-005  0.9118800E+02  0.7818608E-02  0.1130116E+00
         25   -1    0    0    0    0  0.00000000000E+00  0.00000000000E+00  0.99999998245E-14  0.12500000000E+03  0.12500000000E+03 0.  0.
        -13    1    3    3    0    0 -0.52827473079E+02 -0.86970239784E+01  0.24991242067E+02  0.59084291331E+02  0.10566000000E+00 0. -1.
         23    2    1    0    0    0 -0.29170553967E+02  0.56174402381E+01  0.16872471643E+01  0.95245611138E+02  0.90478742169E+02 0.  0.
         13    1    3    3    0    0  0.23656919113E+02  0.14314464217E+02 -0.23303994903E+02  0.36161319807E+02  0.10566000000E+00 0.  1.
         22    1    1    0    0    0  0.29170553967E+02 -0.56174402381E+01 -0.16872471643E+01  0.29754388862E+02  0.00000000000E+00 0. -1.
</event>
<event>
 5    1  0.8943334E-005  0.9118800E+02  0.7818608E-02  0.1130116E+00
         25   -1    0    0    0    0  0.00000000000E+00  0.00000000000E+00  0.99999998245E-14  0.12500000000E+03  0.12500000000E+03 0.  0.
        -13    1    3    3    0    0 -0.16540727686E+02  0.67529231064E+01  0.53115293567E+02  0.56039657544E+02  0.10566000000E+00 0.  1.
         23    2    1    0    0    0 -0.12337626570E+02  0.20139989005E+02  0.14120314248E+02  0.97482379082E+02  0.93517884763E+02 0.  0.
         13    1    3    3    0    0  0.42031011160E+01  0.13387065898E+02 -0.38994979319E+02  0.41442721538E+02  0.10566000000E+00 0. -1.
         22    1    1    0    0    0  0.12337626570E+02 -0.20139989005E+02 -0.14120314248E+02  0.27517620918E+02  0.00000000000E+00 0.  1.
</event>
<event>
 5    1  0.8943334E-005  0.9118800E+02  0.7818608E-02  0.1130116E+00
         25   -1    0    0    0    0  0.00000000000E+00  0.00000000000E+00  0.99999998245E-14  0.12500000000E+03  0.12500000000E+03 0.  0.
        -13    1    3    3    0    0 -0.38187948167E+02  0.12868372313E+02 -0.95412511400E+01  0.41412087952E+02  0.10566000000E+00 0.  1.
         23    2    1    0    0    0  0.76130571752E+01  0.17547351415E+02  0.20948829332E+02  0.96632384104E+02  0.92374758598E+02 0.  0.
         13    1    3    3    0    0  0.45801005342E+02  0.46789791020E+01  0.30490080472E+02  0.55220296151E+02  0.10566000000E+00 0. -1.
         22    1    1    0    0    0 -0.76130571752E+01 -0.17547351415E+02 -0.20948829332E+02  0.28367615896E+02  0.00000000000E+00 0. -1.
</event>
<event>
 5    1  0.8943334E-005  0.9118800E+02  0.7818608E-02  0.1130116E+00
         25   -1    0    0    0    0  0.00000000000E+00  0.00000000000E+00  0.99999998245E-14  0.12500000000E+03  0.12500000000E+03 0.  0.
        -13    1    3    3    0    0  0.19917852629E+02  0.56852835296E+02 -0.14441415471E+02  0.61947811740E+02  0.10566000000E+00 0. -1.
         23    2    1    0    0    0  0.37923629539E+01  0.28410143494E+02 -0.59858821243E+01  0.95719476526E+02  0.91131054704E+02 0.  0.
         13    1    3    3    0    0 -0.16125489675E+02 -0.28442691802E+02  0.84555333463E+01  0.33771664786E+02  0.10566000000E+00 0.  1.
         22    1    1    0    0    0 -0.37923629539E+01 -0.28410143494E+02  0.59858821243E+01  0.29280523474E+02  0.00000000000E+00 0. -1.
</event>
<event>
 5    1  0.8943334E-005  0.9118800E+02  0.7818608E-02  0.1130116E+00
         25   -1    0    0    0    0  0.00000000000E+00  0.00000000000E+00  0.99999998245E-14  0.12500000000E+03  0.12500000000E+03 0.  0.
        -13    1    3    3    0    0 -0.18560427563E+02 -0.30768579476E+02  0.19374897464E+02  0.40823923991E+02  0.10566000000E+00 0. -1.
         23    2    1    0    0    0  0.22043592794E+02 -0.14565689152E+02 -0.13316285728E+02  0.95412794162E+02  0.90709418146E+02 0.  0.
         13    1    3    3    0    0  0.40604020356E+02  0.16202890324E+02 -0.32691183192E+02  0.54588870171E+02  0.10566000000E+00 0.  1.
         22    1    1    0    0    0 -0.22043592794E+02  0.14565689152E+02  0.13316285728E+02  0.29587205838E+02  0.00000000000E+00 0. -1.
</event>
<event>
 5    1  0.8943334E-005  0.9118800E+02  0.7818608E-02  0.1130116E+00
         25   -1    0    0    0    0  0.00000000000E+00  0.00000000000E+00  0.99999998245E-14  0.12500000000E+03  0.12500000000E+03 0.  0.
        -13    1    3    3    0    0 -0.44158925229E+02 -0.21829986428E+02  0.29819252691E+02  0.57582618731E+02  0.10566000000E+00 0.  1.
         23    2    1    0    0    0 -0.75306239329E+01 -0.19309956363E+02  0.21314195284E+02  0.95269886778E+02  0.90512273723E+02 0.  0.
         13    1    3    3    0    0  0.36628301296E+02  0.25200300643E+01 -0.85050574070E+01  0.37687268047E+02  0.10566000000E+00 0. -1.
         22    1    1    0    0    0  0.75306239329E+01  0.19309956363E+02 -0.21314195284E+02  0.29730113222E+02  0.00000000000E+00 0.  1.
</event>
<event>
 5    1  0.8943334E-005  0.9118800E+02  0.7818608E-02  0.1130116E+00
         25   -1    0    0    0    0  0.00000000000E+00  0.00000000000E+00  0.99999998245E-14  0.12500000000E+03  0.12500000000E+03 0.  0.
        -13    1    3    3    0    0  0.81079974670E+01  0.52441821495E+02  0.11319301697E+02  0.54258842778E+02  0.10566000000E+00 0.  1.
         23    2    1    0    0    0  0.46680427281E+01  0.98091534288E+01  0.23820218882E+02  0.98819607691E+02  0.95288519364E+02 0.  0.
         13    1    3    3    0    0 -0.34399547390E+01 -0.42632668067E+02  0.12500917185E+02  0.44560764913E+02  0.10566000000E+00 0. -1.
         22    1    1    0    0    0 -0.46680427281E+01 -0.98091534288E+01 -0.23820218882E+02  0.26180392309E+02  0.00000000000E+00 0.  1.
</event>
<event>
 5    1  0.8943334E-005  0.9118800E+02  0.7818608E-02  0.1130116E+00
         25   -1    0    0    0    0  0.00000000000E+00  0.00000000000E+00  0.99999998245E-14  0.12500000000E+03  0.12500000000E+03 0.  0.
        -13    1    3    3    0    0 -0.24520359926E+02 -0.13457287144E+02  0.49974887641E+02  0.57269950122E+02  0.10566000000E+00 0.  1.
         23    2    1    0    0    0 -0.23284657376E+02  0.59176241008E+01  0.16884115531E+02  0.95635618491E+02  0.91015958067E+02 0.  0.
         13    1    3    3    0    0  0.12357025499E+01  0.19374911245E+02 -0.33090772110E+02  0.38365668369E+02  0.10566000000E+00 0. -1.
         22    1    1    0    0    0  0.23284657376E+02 -0.59176241008E+01 -0.16884115531E+02  0.29364381509E+02  0.00000000000E+00 0.  1.
</event>
<event>
 5    1  0.8943334E-005  0.9118800E+02  0.7818608E-02  0.1130116E+00
         25   -1    0    0    0    0  0.00000000000E+00  0.00000000000E+00  0.99999998245E-14  0.12500000000E+03  0.12500000000E+03 0.  0.
        -13    1    3    3    0    0  0.26736399693E+02  0.41822092341E+02  0.65202932087E+01  0.50064437117E+02  0.10566000000E+00 0.  1.
         23    2    1    0    0    0 -0.13373750488E+02  0.27564630841E+02 -0.44923145232E+01  0.94034745839E+02  0.88790125913E+02 0.  0.
         13    1    3    3    0    0 -0.40110150181E+02 -0.14257461500E+02 -0.11012607732E+02  0.43970308722E+02  0.10566000000E+00 0. -1.
         22    1    1    0    0    0  0.13373750488E+02 -0.27564630841E+02  0.44923145232E+01  0.30965254161E+02  0.00000000000E+00 0.  1.
</event>
<event>
 5    1  0.8943334E-005  0.9118800E+02  0.7818608E-02  0.1130116E+00
         25   -1    0    0    0    0  0.00000000000E+00  0.00000000000E+00  0.99999998245E-14  0.12500000000E+03  0.12500000000E+03 0.  0.
        -13    1    3    3    0    0 -0.60216507195E+02  0.63661847305E+01  0.33054152370E+01  0.60642336537E+02  0.10566000000E+00 0. -1.
         23    2    1    0    0    0 -0.37323955666E+02  0.81192010373E+01  0.11641327459E+02  0.85068563799E+02  0.75114186076E+02 0.  0.
         13    1    3    3    0    0  0.22892551528E+02  0.17530163068E+01  0.83359122220E+01  0.24426227262E+02  0.10566000000E+00 0.  1.
         22    1    1    0    0    0  0.37323955666E+02 -0.81192010373E+01 -0.11641327459E+02  0.39931436201E+02  0.00000000000E+00 0. -1.
</event>
<event>
 5    1  0.8943334E-005  0.9118800E+02  0.7818608E-02  0.1130116E+00
         25   -1    0    0    0    0  0.00000000000E+00  0.00000000000E+00  0.99999998245E-14  0.12500000000E+03  0.12500000000E+03 0.  0.
        -13    1    3    3    0    0  0.33095962574E+02 -0.13377837274E+02 -0.47897159507E+01  0.36017520900E+02  0.10566000000E+00 0.  1.
         23    2    1    0    0    0 -0.21017706337E+02 -0.20477750108E+02  0.12262105188E+02  0.93196832661E+02  0.87602557984E+02 0.  0.
         13    1    3    3    0    0 -0.54113668911E+02 -0.70999128334E+01  0.17051821139E+02  0.57179311761E+02  0.10566000000E+00 0. -1.
         22    1    1    0    0    0  0.21017706337E+02  0.20477750108E+02 -0.12262105188E+02  0.31803167339E+02  0.00000000000E+00 0. -1.
</event>
<event>
 5    1  0.8943334E-005  0.9118800E+02  0.7818608E-02  0.1130116E+00
         25   -1    0    0    0    0  0.00000000000E+00  0.00000000000E+00  0.99999998245E-14  0.12500000000E+03  0.12500000000E+03 0.  0.
        -13    1    3    3    0    0  0.37418176388E+02 -0.26575496357E+02 -0.40674892395E+02  0.61325646888E+02  0.10566000000E+00 0.  1.
         23    2    1    0    0    0  0.16884537147E+02 -0.19493971839E+02 -0.14237865962E+02  0.95541226097E+02  0.90886228463E+02 0.  0.
         13    1    3    3    0    0 -0.20533639241E+02  0.70815245181E+01  0.26437026433E+02  0.34215579209E+02  0.10566000000E+00 0. -1.
         22    1    1    0    0    0 -0.16884537147E+02  0.19493971839E+02  0.14237865962E+02  0.29458773903E+02  0.00000000000E+00 0.  1.
</event>
<event>
 5    1  0.8943334E-005  0.9118800E+02  0.7818608E-02  0.1130116E+00
         25   -1    0    0    0    0  0.00000000000E+00  0.00000000000E+00  0.99999998245E-14  0.12500000000E+03  0.12500000000E+03 0.  0.
        -13    1    3    3    0    0  0.89999932487E+01  0.97088812206E+01  0.34043840437E+02  0.36527475807E+02  0.10566000000E+00 0.  1.
         23    2    1    0    0    0 -0.20733005193E+02  0.46472827167E+01 -0.18312571498E+02  0.96949955154E+02  0.92803495562E+02 0.  0.
         13    1    3    3    0    0 -0.29732998442E+02 -0.50615985039E+01 -0.52356411935E+02  0.60422479348E+02  0.10566000000E+00 0. -1.
         22    1    1    0    0    0  0.20733005193E+02 -0.46472827167E+01  0.18312571498E+02  0.28050044846E+02  0.00000000000E+00 0. -1.
</event>
<event>
 5    1  0.8943334E-005  0.9118800E+02  0.7818608E-02  0.1130116E+00
         25   -1    0    0    0    0  0.00000000000E+00  0.00000000000E+00  0.99999998245E-14  0.12500000000E+03  0.12500000000E+03 0.  0.
        -13    1    3    3    0    0  0.37954967707E+02  0.19478802882E+02 -0.21556111605E+02  0.47798331006E+02  0.10566000000E+00 0.  1.
         23    2    1    0    0    0  0.29600679305E+01 -0.10496196224E+02 -0.28581554840E+02  0.94408540172E+02  0.89314808643E+02 0.  0.
         13    1    3    3    0    0 -0.34994899777E+02 -0.29974999106E+02 -0.70254432348E+01  0.46610209166E+02  0.10566000000E+00 0. -1.
         22    1    1    0    0    0 -0.29600679305E+01  0.10496196224E+02  0.28581554840E+02  0.30591459828E+02  0.00000000000E+00 0. -1.
</event>
<event>
 5    1  0.8943334E-005  0.9118800E+02  0.7818608E-02  0.1130116E+00
         25   -1    0    0    0    0  0.00000000000E+00  0.00000000000E+00  0.99999998245E-14  0.12500000000E+03  0.12500000000E+03 0.  0.
        -13    1    3    3    0    0 -0.19904755061E+02 -0.19718837102E+02 -0.14729355574E+02  0.31654334464E+02  0.10566000000E+00 0.  1.
         23    2    1    0    0    0 -0.61717415976E+01  0.34935194795E+02 -0.17621232174E+01  0.89480099832E+02  0.82128100904E+02 0.  0.
         13    1    3    3    0    0  0.13733013464E+02  0.54654031897E+02  0.12967232357E+02  0.57825765368E+02  0.10566000000E+00 0. -1.
         22    1    1    0    0    0  0.61717415976E+01 -0.34935194795E+02  0.17621232174E+01  0.35519900168E+02  0.00000000000E+00 0. -1.
</event>
<event>
 5    1  0.8943334E-005  0.9118800E+02  0.7818608E-02  0.1130116E+00
         25   -1    0    0    0    0  0.00000000000E+00  0.00000000000E+00  0.99999998245E-14  0.12500000000E+03  0.12500000000E+03 0.  0.
        -13    1    3    3    0    0  0.15680096589E+02 -0.26529931913E+02 -0.17155339846E+02  0.35270661542E+02  0.10566000000E+00 0.  1.
         23    2    1    0    0    0 -0.96395905848E+01  0.26991849804E+02 -0.27482993758E+01  0.96207035374E+02  0.91797379285E+02 0.  0.
         13    1    3    3    0    0 -0.25319687173E+02  0.53521781717E+02  0.14407040471E+02  0.60936373832E+02  0.10566000000E+00 0. -1.
         22    1    1    0    0    0  0.96395905848E+01 -0.26991849804E+02  0.27482993758E+01  0.28792964626E+02  0.00000000000E+00 0. -1.
</event>
<event>
 5    1  0.8943334E-005  0.9118800E+02  0.7818608E-02  0.1130116E+00
         25   -1    0    0    0    0  0.00000000000E+00  0.00000000000E+00  0.99999998245E-14  0.12500000000E+03  0.12500000000E+03 0.  0.
        -13    1    3    3    0    0  0.39220412017E+02 -0.32959083744E+02  0.24612466261E+02  0.56835962027E+02  0.10566000000E+00 0.  1.
         23    2    1    0    0    0  0.52042134175E+01 -0.27987371527E+02  0.60799843072E+01  0.95890843168E+02  0.91365807565E+02 0.  0.
         13    1    3    3    0    0 -0.34016198600E+02  0.49717122165E+01 -0.18532481954E+02  0.39054881141E+02  0.10566000000E+00 0. -1.
         22    1    1    0    0    0 -0.52042134175E+01  0.27987371527E+02 -0.60799843072E+01  0.29109156832E+02  0.00000000000E+00 0.  1.
</event>
<event>
 5    1  0.8943334E-005  0.9118800E+02  0.7818608E-02  0.1130116E+00
         25   -1    0    0    0    0  0.00000000000E+00  0.00000000000E+00  0.99999998245E-14  0.12500000000E+03  0.12500000000E+03 0.  0.
        -13    1    3    3    0    0  0.29000152673E+02 -0.36565909355E+02  0.85464138469E+01  0.47446042360E+02  0.10566000000E+00 0.  1.
         23    2    1    0    0    0 -0.99008158518E+01 -0.22753203245E+02 -0.16001509420E+02  0.95474033189E+02  0.90793767942E+02 0.  0.
         13    1    3    3    0    0 -0.38900968525E+02  0.13812706110E+02 -0.24547923267E+02  0.48027990828E+02  0.10566000000E+00 0. -1.
         22    1    1    0    0    0  0.99008158518E+01  0.22753203245E+02  0.16001509420E+02  0.29525966811E+02  0.00000000000E+00 0. -1.
</event>
<event>
 5    1  0.8943334E-005  0.9118800E+02  0.7818608E-02  0.1130116E+00
         25   -1    0    0    0    0  0.00000000000E+00  0.00000000000E+00  0.99999998245E-14  0.12500000000E+03  0.12500000000E+03 0.  0.
        -13    1    3    3    0    0 -0.22302080475E+02  0.51034726756E+02  0.14842901855E+01  0.55714813201E+02  0.10566000000E+00 0. -1.
         23    2    1    0    0    0 -0.19353799798E+01  0.22361747682E+02  0.19532593157E+02  0.95245745674E+02  0.90478928036E+02 0.  0.
         13    1    3    3    0    0  0.20366700496E+02 -0.28672979074E+02  0.18048302971E+02  0.39530932474E+02  0.10566000000E+00 0.  1.
         22    1    1    0    0    0  0.19353799798E+01 -0.22361747682E+02 -0.19532593157E+02  0.29754254326E+02  0.00000000000E+00 0. -1.
</event>
<event>
 5    1  0.8943334E-005  0.9118800E+02  0.7818608E-02  0.1130116E+00
         25   -1    0    0    0    0  0.00000000000E+00  0.00000000000E+00  0.99999998245E-14  0.12500000000E+03  0.12500000000E+03 0.  0.
        -13    1    3    3    0    0  0.20865793674E+02 -0.27095072264E+02  0.13562168425E+02  0.36789507514E+02  0.10566000000E+00 0.  1.
         23    2    1    0    0    0  0.14389558197E+02  0.22788719830E+02 -0.14505600510E+02  0.94392850790E+02  0.89292847965E+02 0.  0.
         13    1    3    3    0    0 -0.64762354771E+01  0.49883792094E+02 -0.28067768935E+02  0.57603343277E+02  0.10566000000E+00 0. -1.
         22    1    1    0    0    0 -0.14389558197E+02 -0.22788719830E+02  0.14505600510E+02  0.30607149210E+02  0.00000000000E+00 0. -1.
</event>
<event>
 5    1  0.8943334E-005  0.9118800E+02  0.7818608E-02  0.1130116E+00
         25   -1    0    0    0    0  0.00000000000E+00  0.00000000000E+00  0.99999998245E-14  0.12500000000E+03  0.12500000000E+03 0.  0.
        -13    1    3    3    0    0  0.40015105155E+02  0.34159584888E+02 -0.33081374759E+02  0.62148808518E+02  0.10566000000E+00 0.  1.
         23    2    1    0    0    0  0.17966117680E+02  0.18923345554E+02 -0.11844923237E+02  0.96343820947E+02  0.91983450885E+02 0.  0.
         13    1    3    3    0    0 -0.22048987475E+02 -0.15236239334E+02  0.21236451522E+02  0.34195012429E+02  0.10566000000E+00 0. -1.
         22    1    1    0    0    0 -0.17966117680E+02 -0.18923345554E+02  0.11844923237E+02  0.28656179053E+02  0.00000000000E+00 0.  1.
</event>
<event>
 5    1  0.8943334E-005  0.9118800E+02  0.7818608E-02  0.1130116E+00
         25   -1    0    0    0    0  0.00000000000E+00  0.00000000000E+00  0.99999998245E-14  0.12500000000E+03  0.12500000000E+03 0.  0.
        -13    1    3    3    0    0 -0.32532448154E+02 -0.14375177087E+02  0.77034690015E+01  0.36391764149E+02  0.10566000000E+00 0.  1.
         23    2    1    0    0    0  0.24455191215E+02 -0.17724336634E+02  0.89747696580E+01  0.93491985513E+02  0.88022703766E+02 0.  0.
         13    1    3    3    0    0  0.56987639369E+02 -0.33491595466E+01  0.12713006565E+01  0.57100221365E+02  0.10566000000E+00 0. -1.
         22    1    1    0    0    0 -0.24455191215E+02  0.17724336634E+02 -0.89747696580E+01  0.31508014487E+02  0.00000000000E+00 0. -1.
</event>
<event>
 5    1  0.8943334E-005  0.9118800E+02  0.7818608E-02  0.1130116E+00
         25   -1    0    0    0    0  0.00000000000E+00  0.00000000000E+00  0.99999998245E-14  0.12500000000E+03  0.12500000000E+03 0.  0.
        -13    1    3    3    0    0 -0.23672247615E+01 -0.11086811051E+02 -0.22016205111E+02  0.24763795830E+02  0.10566000000E+00 0. -1.
         23    2    1    0    0    0  0.61893948683E+01  0.10705130531E+02  0.35791591972E+02  0.87132514152E+02  0.78473744259E+02 0.  0.
         13    1    3    3    0    0  0.85566196298E+01  0.21791941582E+02  0.57807797084E+02  0.62368718322E+02  0.10566000000E+00 0.  1.
         22    1    1    0    0    0 -0.61893948683E+01 -0.10705130531E+02 -0.35791591972E+02  0.37867485848E+02  0.00000000000E+00 0.  1.
</event>
<event>
 5    1  0.8943334E-005  0.9118800E+02  0.7818608E-02  0.1130116E+00
         25   -1    0    0    0    0  0.00000000000E+00  0.00000000000E+00  0.99999998245E-14  0.12500000000E+03  0.12500000000E+03 0.  0.
        -13    1    3    3    0    0 -0.59424168735E+00 -0.36903748514E+02  0.18969946988E+01  0.36957401566E+02  0.10566000000E+00 0.  1.
         23    2    1    0    0    0 -0.87290923262E+01  0.17290757757E+02  0.22325897531E+02  0.95443053994E+02  0.90751107422E+02 0.  0.
         13    1    3    3    0    0 -0.81348506388E+01  0.54194506271E+02  0.20428902832E+02  0.58485652428E+02  0.10566000000E+00 0. -1.
         22    1    1    0    0    0  0.87290923262E+01 -0.17290757757E+02 -0.22325897531E+02  0.29556946006E+02  0.00000000000E+00 0. -1.
</event>
<event>
 5    1  0.8943334E-005  0.9118800E+02  0.7818608E-02  0.1130116E+00
         25   -1    0    0    0    0  0.00000000000E+00  0.00000000000E+00  0.99999998245E-14  0.12500000000E+03  0.12500000000E+03 0.  0.
        -13    1    3    3    0    0 -0.32569707592E+02 -0.21571387166E+01 -0.23995237436E+02  0.40511994319E+02  0.10566000000E+00 0. -1.
         23    2    1    0    0    0  0.13656456486E+02 -0.25672224415E+02 -0.10272515944E+02  0.94160309762E+02  0.88966720972E+02 0.  0.
         13    1    3    3    0    0  0.46226164078E+02 -0.23515085698E+02  0.13722721492E+02  0.53648315443E+02  0.10566000000E+00 0.  1.
         22    1    1    0    0    0 -0.13656456486E+02  0.25672224415E+02  0.10272515944E+02  0.30839690238E+02  0.00000000000E+00 0.  1.
</event>
<event>
 5    1  0.8943334E-005  0.9118800E+02  0.7818608E-02  0.1130116E+00
         25   -1    0    0    0    0  0.00000000000E+00  0.00000000000E+00  0.99999998245E-14  0.12500000000E+03  0.12500000000E+03 0.  0.
        -13    1    3    3    0    0 -0.43757951209E+02 -0.31880599578E+02  0.30778962594E+02  0.62277496946E+02  0.10566000000E+00 0.  1.
         23    2    1    0    0    0 -0.19265427731E+02 -0.10521377652E+02  0.15075459036E+02  0.98370588469E+02  0.94697661624E+02 0.  0.
         13    1    3    3    0    0  0.24492523478E+02  0.21359221927E+02 -0.15703503558E+02  0.36093091522E+02  0.10566000000E+00 0. -1.
         22    1    1    0    0    0  0.19265427731E+02  0.10521377652E+02 -0.15075459036E+02  0.26629411531E+02  0.00000000000E+00 0.  1.
</event>
<event>
 5    1  0.8943334E-005  0.9118800E+02  0.7818608E-02  0.1130116E+00
         25   -1    0    0    0    0  0.00000000000E+00  0.00000000000E+00  0.99999998245E-14  0.12500000000E+03  0.12500000000E+03 0.  0.
        -13    1    3    3    0    0 -0.39112603864E+02  0.23940901078E+02  0.27989531182E+02  0.53725110938E+02  0.10566000000E+00 0.  1.
         23    2    1    0    0    0 -0.23792159910E+02  0.13132491286E+02 -0.99621321308E+01  0.96055686618E+02  0.91591056630E+02 0.  0.
         13    1    3    3    0    0  0.15320443954E+02 -0.10808409792E+02 -0.37951663313E+02  0.42330575680E+02  0.10566000000E+00 0. -1.
         22    1    1    0    0    0  0.23792159910E+02 -0.13132491286E+02  0.99621321308E+01  0.28944313382E+02  0.00000000000E+00 0.  1.
</event>
<event>
 5    1  0.8943334E-005  0.9118800E+02  0.7818608E-02  0.1130116E+00
         25   -1    0    0    0    0  0.00000000000E+00  0.00000000000E+00  0.99999998245E-14  0.12500000000E+03  0.12500000000E+03 0.  0.
        -13    1    3    3    0    0  0.37164656933E+02  0.41076285067E+02  0.44157427315E+01  0.55569621807E+02  0.10566000000E+00 0.  1.
         23    2    1    0    0    0  0.48812064058E+01  0.20923710954E+02  0.18992937342E+02  0.96323188375E+02  0.91955408181E+02 0.  0.
         13    1    3    3    0    0 -0.32283450527E+02 -0.20152574113E+02  0.14577194611E+02  0.40753566568E+02  0.10566000000E+00 0. -1.
         22    1    1    0    0    0 -0.48812064058E+01 -0.20923710954E+02 -0.18992937342E+02  0.28676811625E+02  0.00000000000E+00 0.  1.
</event>
<event>
 5    1  0.8943334E-005  0.9118800E+02  0.7818608E-02  0.1130116E+00
         25   -1    0    0    0    0  0.00000000000E+00  0.00000000000E+00  0.99999998245E-14  0.12500000000E+03  0.12500000000E+03 0.  0.
        -13    1    3    3    0    0  0.30071519375E+01  0.35377340488E+02 -0.57232220913E+00  0.35509687404E+02  0.10566000000E+00 0.  1.
         23    2    1    0    0    0 -0.20751189348E+02 -0.20236829151E+02  0.83955948909E+00  0.96002655749E+02  0.91518653494E+02 0.  0.
         13    1    3    3    0    0 -0.23758341285E+02 -0.55614169639E+02  0.14118816982E+01  0.60492968346E+02  0.10566000000E+00 0. -1.
         22    1    1    0    0    0  0.20751189348E+02  0.20236829151E+02 -0.83955948909E+00  0.28997344251E+02  0.00000000000E+00 0. -1.
</event>
<event>
 5    1  0.8943334E-005  0.9118800E+02  0.7818608E-02  0.1130116E+00
         25   -1    0    0    0    0  0.00000000000E+00  0.00000000000E+00  0.99999998245E-14  0.12500000000E+03  0.12500000000E+03 0.  0.
        -13    1    3    3    0    0  0.50617687396E+02 -0.16425691156E+02  0.36373930377E+01  0.53340373071E+02  0.10566000000E+00 0.  1.
         23    2    1    0    0    0  0.21140325071E+02  0.14732172332E+02  0.11217041483E+02  0.96897112865E+02  0.92732293276E+02 0.  0.
         13    1    3    3    0    0 -0.29477362325E+02  0.31157863488E+02  0.75796484452E+01  0.43556739793E+02  0.10566000000E+00 0. -1.
         22    1    1    0    0    0 -0.21140325071E+02 -0.14732172332E+02 -0.11217041483E+02  0.28102887135E+02  0.00000000000E+00 0.  1.
</event>
<event>
 5    1  0.8943334E-005  0.9118800E+02  0.7818608E-02  0.1130116E+00
         25   -1    0    0    0    0  0.00000000000E+00  0.00000000000E+00  0.99999998245E-14  0.12500000000E+03  0.12500000000E+03 0.  0.
        -13    1    3    3    0    0  0.27386457701E+02 -0.20394023291E+02 -0.36107812244E+02  0.49696272702E+02  0.10566000000E+00 0. -1.
         23    2    1    0    0    0 -0.95044321395E+01  0.74084951202E+01 -0.25059458366E+02  0.97193589159E+02  0.93131075855E+02 0.  0.
         13    1    3    3    0    0 -0.36890889840E+02  0.27802518411E+02  0.11048353878E+02  0.47497316457E+02  0.10566000000E+00 0.  1.
         22    1    1    0    0    0  0.95044321395E+01 -0.74084951202E+01  0.25059458366E+02  0.27806410841E+02  0.00000000000E+00 0.  1.
</event>
<event>
 5    1  0.8943334E-005  0.9118800E+02  0.7818608E-02  0.1130116E+00
         25   -1    0    0    0    0  0.00000000000E+00  0.00000000000E+00  0.99999998245E-14  0.12500000000E+03  0.12500000000E+03 0.  0.
        -13    1    3    3    0    0 -0.58914178504E+00  0.32771556278E+02 -0.11809213754E+02  0.34839498883E+02  0.10566000000E+00 0. -1.
         23    2    1    0    0    0 -0.61501159716E+01 -0.27282845806E+02  0.27930177565E+01  0.96893442937E+02  0.92727346206E+02 0.  0.
         13    1    3    3    0    0 -0.55609741865E+01 -0.60054402084E+02  0.14602231510E+02  0.62053944054E+02  0.10566000000E+00 0.  1.
         22    1    1    0    0    0  0.61501159716E+01  0.27282845806E+02 -0.27930177565E+01  0.28106557063E+02  0.00000000000E+00 0.  1.
</event>
<event>
 5    1  0.8943334E-005  0.9118800E+02  0.7818608E-02  0.1130116E+00
         25   -1    0    0    0    0  0.00000000000E+00  0.00000000000E+00  0.99999998245E-14  0.12500000000E+03  0.12500000000E+03 0.  0.
        -13    1    3    3    0    0 -0.26623509429E+02  0.19925502244E+02  0.18584870553E+02  0.38095215861E+02  0.10566000000E+00 0. -1.
         23    2    1    0    0    0  0.26653086103E+02  0.65392681204E+00  0.13871822597E+02  0.94946013887E+02  0.90063885503E+02 0.  0.
         13    1    3    3    0    0  0.53276595532E+02 -0.19271575432E+02 -0.47130479561E+01  0.56850798026E+02  0.10566000000E+00 0.  1.
         22    1    1    0    0    0 -0.26653086103E+02 -0.65392681204E+00 -0.13871822597E+02  0.30053986113E+02  0.00000000000E+00 0.  1.
</event>
<event>
 5    1  0.8943334E-005  0.9118800E+02  0.7818608E-02  0.1130116E+00
         25   -1    0    0    0    0  0.00000000000E+00  0.00000000000E+00  0.99999998245E-14  0.12500000000E+03  0.12500000000E+03 0.  0.
        -13    1    3    3    0    0 -0.10137755523E+02  0.16855177974E+02 -0.33605748535E+02  0.38938780287E+02  0.10566000000E+00 0.  1.
         23    2    1    0    0    0 -0.70164465186E+01  0.14356273513E+02  0.23717756455E+02  0.96401659450E+02  0.92062016394E+02 0.  0.
         13    1    3    3    0    0  0.31213090048E+01 -0.24989044608E+01  0.57323504990E+02  0.57462879164E+02  0.10566000000E+00 0. -1.
         22    1    1    0    0    0  0.70164465186E+01 -0.14356273513E+02 -0.23717756455E+02  0.28598340550E+02  0.00000000000E+00 0. -1.
</event>
<event>
 5    1  0.8943334E-005  0.9118800E+02  0.7818608E-02  0.1130116E+00
         25   -1    0    0    0    0  0.00000000000E+00  0.00000000000E+00  0.99999998245E-14  0.12500000000E+03  0.12500000000E+03 0.  0.
        -13    1    3    3    0    0  0.33588187457E+02 -0.46275556147E+02 -0.29259535087E+01  0.57255268765E+02  0.10566000000E+00 0.  1.
         23    2    1    0    0    0  0.32699019826E+02 -0.14345714069E+02 -0.25780209826E+01  0.89199558635E+02  0.81699997912E+02 0.  0.
         13    1    3    3    0    0 -0.88916763168E+00  0.31929842078E+02  0.34793252601E+00  0.31944289870E+02  0.10566000000E+00 0. -1.
         22    1    1    0    0    0 -0.32699019826E+02  0.14345714069E+02  0.25780209826E+01  0.35800441365E+02  0.00000000000E+00 0.  1.
</event>
<event>
 5    1  0.8943334E-005  0.9118800E+02  0.7818608E-02  0.1130116E+00
         25   -1    0    0    0    0  0.00000000000E+00  0.00000000000E+00  0.99999998245E-14  0.12500000000E+03  0.12500000000E+03 0.  0.
        -13    1    3    3    0    0  0.58666854048E+02 -0.41014305865E+01  0.91703178538E+01  0.59520814765E+02  0.10566000000E+00 0. -1.
         23    2    1    0    0    0  0.24333128915E+02  0.93750096564E+01  0.11546624960E+02  0.96481295317E+02  0.92170080987E+02 0.  0.
         13    1    3    3    0    0 -0.34333725133E+02  0.13476440243E+02  0.23763071061E+01  0.36960480552E+02  0.10566000000E+00 0.  1.
         22    1    1    0    0    0 -0.24333128915E+02 -0.93750096564E+01 -0.11546624960E+02  0.28518704683E+02  0.00000000000E+00 0. -1.
</event>
<event>
 5    1  0.8943334E-005  0.9118800E+02  0.7818608E-02  0.1130116E+00
         25   -1    0    0    0    0  0.00000000000E+00  0.00000000000E+00  0.99999998245E-14  0.12500000000E+03  0.12500000000E+03 0.  0.
        -13    1    3    3    0    0  0.45854948277E+01 -0.10846199940E+02 -0.55909639308E+02  0.57136378495E+02  0.10566000000E+00 0.  1.
         23    2    1    0    0    0  0.15643122368E+02 -0.15902862691E+02 -0.20032034983E+02  0.95018493287E+02  0.90164423815E+02 0.  0.
         13    1    3    3    0    0  0.11057627540E+02 -0.50566627510E+01  0.35877604325E+02  0.37882114792E+02  0.10566000000E+00 0. -1.
         22    1    1    0    0    0 -0.15643122368E+02  0.15902862691E+02  0.20032034983E+02  0.29981506713E+02  0.00000000000E+00 0.  1.
</event>
<event>
 5    1  0.8943334E-005  0.9118800E+02  0.7818608E-02  0.1130116E+00
         25   -1    0    0    0    0  0.00000000000E+00  0.00000000000E+00  0.99999998245E-14  0.12500000000E+03  0.12500000000E+03 0.  0.
        -13    1    3    3    0    0  0.28490407058E+02  0.53412646415E+02  0.74146662544E+01  0.60988544261E+02  0.10566000000E+00 0. -1.
         23    2    1    0    0    0  0.13061054564E+02  0.26215771861E+02 -0.61485713263E+01  0.95072374468E+02  0.90239091402E+02 0.  0.
         13    1    3    3    0    0 -0.15429352494E+02 -0.27196874554E+02 -0.13563237581E+02  0.34083830207E+02  0.10566000000E+00 0.  1.
         22    1    1    0    0    0 -0.13061054564E+02 -0.26215771861E+02  0.61485713263E+01  0.29927625532E+02  0.00000000000E+00 0. -1.
</event>
<event>
 5    1  0.8943334E-005  0.9118800E+02  0.7818608E-02  0.1130116E+00
         25   -1    0    0    0    0  0.00000000000E+00  0.00000000000E+00  0.99999998245E-14  0.12500000000E+03  0.12500000000E+03 0.  0.
        -13    1    3    3    0    0 -0.13076618867E+02 -0.47164275282E+02  0.10089103885E+02  0.49972672583E+02  0.10566000000E+00 0.  1.
         23    2    1    0    0    0 -0.27420241027E+02 -0.36939736523E+01  0.94818272879E+01  0.95752434152E+02  0.91176249857E+02 0.  0.
         13    1    3    3    0    0 -0.14343622160E+02  0.43470301629E+02 -0.60727659734E+00  0.45779761569E+02  0.10566000000E+00 0. -1.
         22    1    1    0    0    0  0.27420241027E+02  0.36939736523E+01 -0.94818272879E+01  0.29247565848E+02  0.00000000000E+00 0.  1.
</event>
<event>
 5    1  0.8943334E-005  0.9118800E+02  0.7818608E-02  0.1130116E+00
         25   -1    0    0    0    0  0.00000000000E+00  0.00000000000E+00  0.99999998245E-14  0.12500000000E+03  0.12500000000E+03 0.  0.
        -13    1    3    3    0    0  0.59330975987E+02 -0.87928407444E+01 -0.43168851126E+01  0.60134228365E+02  0.10566000000E+00 0. -1.
         23    2    1    0    0    0  0.25914730410E+02  0.72433275750E+01 -0.66824867222E+01  0.97274656443E+02  0.93239820413E+02 0.  0.
         13    1    3    3    0    0 -0.33416245577E+02  0.16036168319E+02 -0.23656016096E+01  0.37140428078E+02  0.10566000000E+00 0.  1.
         22    1    1    0    0    0 -0.25914730410E+02 -0.72433275750E+01  0.66824867222E+01  0.27725343557E+02  0.00000000000E+00 0. -1.
</event>
<event>
 5    1  0.8943334E-005  0.9118800E+02  0.7818608E-02  0.1130116E+00
         25   -1    0    0    0    0  0.00000000000E+00  0.00000000000E+00  0.99999998245E-14  0.12500000000E+03  0.12500000000E+03 0.  0.
        -13    1    3    3    0    0  0.12316973497E+02  0.31004949394E+02 -0.19622845915E+02  0.38705063866E+02  0.10566000000E+00 0.  1.
         23    2    1    0    0    0  0.12503867644E+02 -0.14800630372E+02  0.18433028309E+02  0.98257115000E+02  0.94547759095E+02 0.  0.
         13    1    3    3    0    0  0.18689414745E+00 -0.45805579766E+02  0.38055874225E+02  0.59552051133E+02  0.10566000000E+00 0. -1.
         22    1    1    0    0    0 -0.12503867644E+02  0.14800630372E+02 -0.18433028309E+02  0.26742885000E+02  0.00000000000E+00 0. -1.
</event>
<event>
 5    1  0.8943334E-005  0.9118800E+02  0.7818608E-02  0.1130116E+00
         25   -1    0    0    0    0  0.00000000000E+00  0.00000000000E+00  0.99999998245E-14  0.12500000000E+03  0.12500000000E+03 0.  0.
        -13    1    3    3    0    0 -0.10144293394E+02 -0.21139993508E+02  0.24786711983E+02  0.34120349777E+02  0.10566000000E+00 0. -1.
         23    2    1    0    0    0  0.21382915809E+02  0.16174985109E+02 -0.12346725912E+02  0.95482193975E+02  0.90805002581E+02 0.  0.
         13    1    3    3    0    0  0.31527209203E+02  0.37314978617E+02 -0.37133437895E+02  0.61361844197E+02  0.10566000000E+00 0.  1.
         22    1    1    0    0    0 -0.21382915809E+02 -0.16174985109E+02  0.12346725912E+02  0.29517806025E+02  0.00000000000E+00 0.  1.
</event>
<event>
 5    1  0.8943334E-005  0.9118800E+02  0.7818608E-02  0.1130116E+00
         25   -1    0    0    0    0  0.00000000000E+00  0.00000000000E+00  0.99999998245E-14  0.12500000000E+03  0.12500000000E+03 0.  0.
        -13    1    3    3    0    0  0.22013378161E+02 -0.49860987107E+00  0.44977799888E+02  0.50078449224E+02  0.10566000000E+00 0.  1.
         23    2    1    0    0    0  0.64227545122E+01 -0.26485913781E+02  0.10992964341E+02  0.95612916625E+02  0.90984774309E+02 0.  0.
         13    1    3    3    0    0 -0.15590623649E+02 -0.25987303910E+02 -0.33984835547E+02  0.45534467401E+02  0.10566000000E+00 0. -1.
         22    1    1    0    0    0 -0.64227545122E+01  0.26485913781E+02 -0.10992964341E+02  0.29387083375E+02  0.00000000000E+00 0.  1.
</event>
<event>
 5    1  0.8943334E-005  0.9118800E+02  0.7818608E-02  0.1130116E+00
         25   -1    0    0    0    0  0.00000000000E+00  0.00000000000E+00  0.99999998245E-14  0.12500000000E+03  0.12500000000E+03 0.  0.
        -13    1    3    3    0    0  0.85913392350E+01  0.40628165149E+02 -0.44248832115E+02  0.60683022509E+02  0.10566000000E+00 0. -1.
         23    2    1    0    0    0  0.89006550659E+01  0.87476572754E+01 -0.22480362796E+02  0.99287942909E+02  0.95900916196E+02 0.  0.
         13    1    3    3    0    0  0.30931583091E+00 -0.31880507874E+02  0.21768469319E+02  0.38604920400E+02  0.10566000000E+00 0.  1.
         22    1    1    0    0    0 -0.89006550659E+01 -0.87476572754E+01  0.22480362796E+02  0.25712057091E+02  0.00000000000E+00 0. -1.
</event>
<event>
 5    1  0.8943334E-005  0.9118800E+02  0.7818608E-02  0.1130116E+00
         25   -1    0    0    0    0  0.00000000000E+00  0.00000000000E+00  0.99999998245E-14  0.12500000000E+03  0.12500000000E+03 0.  0.
        -13    1    3    3    0    0  0.22758889904E+02  0.34927532394E+02 -0.35960422225E+02  0.55055088044E+02  0.10566000000E+00 0.  1.
         23    2    1    0    0    0  0.21415704775E+02 -0.19936774525E+01 -0.21077079080E+02  0.94886042716E+02  0.89980612795E+02 0.  0.
         13    1    3    3    0    0 -0.13431851288E+01 -0.36921209847E+02  0.14883343146E+02  0.39830954672E+02  0.10566000000E+00 0. -1.
         22    1    1    0    0    0 -0.21415704775E+02  0.19936774525E+01  0.21077079080E+02  0.30113957284E+02  0.00000000000E+00 0.  1.
</event>
<event>
 5    1  0.8943334E-005  0.9118800E+02  0.7818608E-02  0.1130116E+00
         25   -1    0    0    0    0  0.00000000000E+00  0.00000000000E+00  0.99999998245E-14  0.12500000000E+03  0.12500000000E+03 0.  0.
        -13    1    3    3    0    0  0.39725317734E+02  0.35340933337E+01  0.37777993352E+02  0.54934311960E+02  0.10566000000E+00 0.  1.
         23    2    1    0    0    0  0.29351797986E+02 -0.67691699714E+01  0.61347699921E+00  0.94871507486E+02  0.89960418360E+02 0.  0.
         13    1    3    3    0    0 -0.10373519748E+02 -0.10303263305E+02 -0.37164516353E+02  0.39937195526E+02  0.10566000000E+00 0. -1.
         22    1    1    0    0    0 -0.29351797986E+02  0.67691699714E+01 -0.61347699921E+00  0.30128492514E+02  0.00000000000E+00 0.  1.
</event>
<event>
 5    1  0.8943334E-005  0.9118800E+02  0.7818608E-02  0.1130116E+00
         25   -1    0    0    0    0  0.00000000000E+00  0.00000000000E+00  0.99999998245E-14  0.12500000000E+03  0.12500000000E+03 0.  0.
        -13    1    3    3    0    0  0.13935764120E+02 -0.40477877022E+02 -0.38692773776E+02  0.57704470852E+02  0.10566000000E+00 0. -1.
         23    2    1    0    0    0  0.21639827354E+02 -0.12853554976E+02 -0.25145940171E+02  0.89421715745E+02  0.82039191466E+02 0.  0.
         13    1    3    3    0    0  0.77040632345E+01  0.27624322046E+02  0.13546833605E+02  0.31717244893E+02  0.10566000000E+00 0.  1.
         22    1    1    0    0    0 -0.21639827354E+02  0.12853554976E+02  0.25145940171E+02  0.35578284255E+02  0.00000000000E+00 0. -1.
</event>
<event>
 5    1  0.8943334E-005  0.9118800E+02  0.7818608E-02  0.1130116E+00
         25   -1    0    0    0    0  0.00000000000E+00  0.00000000000E+00  0.99999998245E-14  0.12500000000E+03  0.12500000000E+03 0.  0.
        -13    1    3    3    0    0  0.50064178681E+01 -0.33621463557E+01  0.34909298018E+02  0.35426522552E+02  0.10566000000E+00 0.  1.
         23    2    1    0    0    0 -0.73722213577E+01  0.34976182639E+02 -0.77765051633E+00  0.89246849928E+02  0.81772321002E+02 0.  0.
         13    1    3    3    0    0 -0.12378639226E+02  0.38338328994E+02 -0.35686948534E+02  0.53820327376E+02  0.10566000000E+00 0. -1.
         22    1    1    0    0    0  0.73722213577E+01 -0.34976182639E+02  0.77765051633E+00  0.35753150072E+02  0.00000000000E+00 0. -1.
</event>
<event>
 5    1  0.8943334E-005  0.9118800E+02  0.7818608E-02  0.1130116E+00
         25   -1    0    0    0    0  0.00000000000E+00  0.00000000000E+00  0.99999998245E-14  0.12500000000E+03  0.12500000000E+03 0.  0.
        -13    1    3    3    0    0  0.26631928402E+02  0.29090307725E+01  0.54725305788E+02  0.60931045684E+02  0.10566000000E+00 0.  1.
         23    2    1    0    0    0  0.19383384919E+02  0.73672660006E+01  0.21905221909E+02  0.94836595581E+02  0.89911895183E+02 0.  0.
         13    1    3    3    0    0 -0.72485434824E+01  0.44582352282E+01 -0.32820083880E+02  0.33905549898E+02  0.10566000000E+00 0. -1.
         22    1    1    0    0    0 -0.19383384919E+02 -0.73672660006E+01 -0.21905221909E+02  0.30163404419E+02  0.00000000000E+00 0.  1.
</event>
<event>
 5    1  0.8943334E-005  0.9118800E+02  0.7818608E-02  0.1130116E+00
         25   -1    0    0    0    0  0.00000000000E+00  0.00000000000E+00  0.99999998245E-14  0.12500000000E+03  0.12500000000E+03 0.  0.
        -13    1    3    3    0    0 -0.22190343774E+02  0.55357302271E+01  0.29613051750E+02  0.37416569377E+02  0.10566000000E+00 0.  1.
         23    2    1    0    0    0 -0.12985284182E+02  0.17110036161E+01 -0.27047934803E+02  0.94947780185E+02  0.90066336921E+02 0.  0.
         13    1    3    3    0    0  0.92050595923E+01 -0.38247266110E+01 -0.56660986554E+02  0.57531210808E+02  0.10566000000E+00 0. -1.
         22    1    1    0    0    0  0.12985284182E+02 -0.17110036161E+01  0.27047934803E+02  0.30052219815E+02  0.00000000000E+00 0. -1.
</event>
<event>
 5    1  0.8943334E-005  0.9118800E+02  0.7818608E-02  0.1130116E+00
         25   -1    0    0    0    0  0.00000000000E+00  0.00000000000E+00  0.99999998245E-14  0.12500000000E+03  0.12500000000E+03 0.  0.
        -13    1    3    3    0    0  0.41332836109E+02  0.35643048323E+02 -0.17044660893E+02  0.57178333865E+02  0.10566000000E+00 0.  1.
         23    2    1    0    0    0  0.69029532551E+01  0.28194921506E+02 -0.82213866068E+00  0.95960711538E+02  0.91461346396E+02 0.  0.
         13    1    3    3    0    0 -0.34429882854E+02 -0.74481268163E+01  0.16222522233E+02  0.38782377674E+02  0.10566000000E+00 0. -1.
         22    1    1    0    0    0 -0.69029532551E+01 -0.28194921506E+02  0.82213866068E+00  0.29039288462E+02  0.00000000000E+00 0.  1.
</event>
<event>
 5    1  0.8943334E-005  0.9118800E+02  0.7818608E-02  0.1130116E+00
         25   -1    0    0    0    0  0.00000000000E+00  0.00000000000E+00  0.99999998245E-14  0.12500000000E+03  0.12500000000E+03 0.  0.
        -13    1    3    3    0    0  0.17476046390E+02  0.10552409364E+02  0.30576609965E+02  0.36765551564E+02  0.10566000000E+00 0.  1.
         23    2    1    0    0    0  0.13737979362E+02 -0.83810537729E+01 -0.24815410665E+02  0.95423341200E+02  0.90723951082E+02 0.  0.
         13    1    3    3    0    0 -0.37380670279E+01 -0.18933463137E+02 -0.55392020630E+02  0.58657789636E+02  0.10566000000E+00 0. -1.
         22    1    1    0    0    0 -0.13737979362E+02  0.83810537729E+01  0.24815410665E+02  0.29576658800E+02  0.00000000000E+00 0. -1.
</event>
<event>
 5    1  0.8943334E-005  0.9118800E+02  0.7818608E-02  0.1130116E+00
         25   -1    0    0    0    0  0.00000000000E+00  0.00000000000E+00  0.99999998245E-14  0.12500000000E+03  0.12500000000E+03 0.  0.
        -13    1    3    3    0    0 -0.53999295987E+02 -0.22077079729E+02  0.10139257645E+02  0.59212643296E+02  0.10566000000E+00 0.  1.
         23    2    1    0    0    0 -0.19026593556E+02 -0.12748461503E+02  0.17534100853E+02  0.96155949907E+02  0.91727790100E+02 0.  0.
         13    1    3    3    0    0  0.34972702430E+02  0.93286182254E+01  0.73948432073E+01  0.36943306611E+02  0.10566000000E+00 0. -1.
         22    1    1    0    0    0  0.19026593556E+02  0.12748461503E+02 -0.17534100853E+02  0.28844050093E+02  0.00000000000E+00 0.  1.
</event>
<event>
 5    1  0.8943334E-005  0.9118800E+02  0.7818608E-02  0.1130116E+00
         25   -1    0    0    0    0  0.00000000000E+00  0.00000000000E+00  0.99999998245E-14  0.12500000000E+03  0.12500000000E+03 0.  0.
        -13    1    3    3    0    0  0.33784569215E+02 -0.46544023098E+02 -0.16298192156E+02  0.59777800518E+02  0.10566000000E+00 0. -1.
         23    2    1    0    0    0  0.18915712705E+02 -0.22416358062E+02  0.50209991125E+01  0.95242518117E+02  0.90474468937E+02 0.  0.
         13    1    3    3    0    0 -0.14868856510E+02  0.24127665036E+02  0.21319191268E+02  0.35464717599E+02  0.10566000000E+00 0.  1.
         22    1    1    0    0    0 -0.18915712705E+02  0.22416358062E+02 -0.50209991125E+01  0.29757481883E+02  0.00000000000E+00 0. -1.
</event>
<event>
 5    1  0.8943334E-005  0.9118800E+02  0.7818608E-02  0.1130116E+00
         25   -1    0    0    0    0  0.00000000000E+00  0.00000000000E+00  0.99999998245E-14  0.12500000000E+03  0.12500000000E+03 0.  0.
        -13    1    3    3    0    0 -0.28972367543E+02 -0.25658980005E+02 -0.20050640249E+01  0.38753229307E+02  0.10566000000E+00 0.  1.
         23    2    1    0    0    0 -0.12051002875E+02  0.27236898993E+02  0.52343961487E+01  0.94759724867E+02  0.89804962094E+02 0.  0.
         13    1    3    3    0    0  0.16921364668E+02  0.52895878999E+02  0.72394601736E+01  0.56006495560E+02  0.10566000000E+00 0. -1.
         22    1    1    0    0    0  0.12051002875E+02 -0.27236898993E+02 -0.52343961487E+01  0.30240275133E+02  0.00000000000E+00 0. -1.
</event>
<event>
 5    1  0.8943334E-005  0.9118800E+02  0.7818608E-02  0.1130116E+00
         25   -1    0    0    0    0  0.00000000000E+00  0.00000000000E+00  0.99999998245E-14  0.12500000000E+03  0.12500000000E+03 0.  0.
        -13    1    3    3    0    0  0.50959002010E+02  0.31921612151E+02 -0.12402479168E+02  0.61397409243E+02  0.10566000000E+00 0. -1.
         23    2    1    0    0    0  0.20082550053E+02  0.21725457653E+02 -0.89149178959E+01  0.94100484017E+02  0.88882624873E+02 0.  0.
         13    1    3    3    0    0 -0.30876451958E+02 -0.10196154498E+02  0.34875612719E+01  0.32703074774E+02  0.10566000000E+00 0.  1.
         22    1    1    0    0    0 -0.20082550053E+02 -0.21725457653E+02  0.89149178959E+01  0.30899515983E+02  0.00000000000E+00 0. -1.
</event>
<event>
 5    1  0.8943334E-005  0.9118800E+02  0.7818608E-02  0.1130116E+00
         25   -1    0    0    0    0  0.00000000000E+00  0.00000000000E+00  0.99999998245E-14  0.12500000000E+03  0.12500000000E+03 0.  0.
        -13    1    3    3    0    0  0.20633098719E+02  0.32871131208E+02 -0.24411182477E+02  0.45849242345E+02  0.10566000000E+00 0.  1.
         23    2    1    0    0    0  0.48793281705E+01  0.17478304487E+02  0.21557060385E+02  0.96821891058E+02  0.92630841324E+02 0.  0.
         13    1    3    3    0    0 -0.15753770548E+02 -0.15392826721E+02  0.45968242862E+02  0.50972648713E+02  0.10566000000E+00 0. -1.
         22    1    1    0    0    0 -0.48793281705E+01 -0.17478304487E+02 -0.21557060385E+02  0.28178108942E+02  0.00000000000E+00 0. -1.
</event>
<event>
 5    1  0.8943334E-005  0.9118800E+02  0.7818608E-02  0.1130116E+00
         25   -1    0    0    0    0  0.00000000000E+00  0.00000000000E+00  0.99999998245E-14  0.12500000000E+03  0.12500000000E+03 0.  0.
        -13    1    3    3    0    0  0.53766795724E+02  0.59921851071E+01 -0.13914399070E+02  0.55860507250E+02  0.10566000000E+00 0. -1.
         23    2    1    0    0    0  0.26370059013E+02 -0.12743150264E+02  0.67319773252E+01  0.94948587226E+02  0.90067456979E+02 0.  0.
         13    1    3    3    0    0 -0.27396736711E+02 -0.18735335371E+02  0.20646376395E+02  0.39088079976E+02  0.10566000000E+00 0.  1.
         22    1    1    0    0    0 -0.26370059013E+02  0.12743150264E+02 -0.67319773252E+01  0.30051412774E+02  0.00000000000E+00 0. -1.
</event>
<event>
 5    1  0.8943334E-005  0.9118800E+02  0.7818608E-02  0.1130116E+00
         25   -1    0    0    0    0  0.00000000000E+00  0.00000000000E+00  0.99999998245E-14  0.12500000000E+03  0.12500000000E+03 0.  0.
        -13    1    3    3    0    0 -0.24817495040E+02 -0.24934848287E+02 -0.48239813307E+01  0.35509670219E+02  0.10566000000E+00 0. -1.
         23    2    1    0    0    0  0.27551676677E+02  0.24297530626E+01 -0.11645195200E+02  0.94989849069E+02  0.90124703978E+02 0.  0.
         13    1    3    3    0    0  0.52369171717E+02  0.27364601350E+02 -0.68212138698E+01  0.59480178850E+02  0.10566000000E+00 0.  1.
         22    1    1    0    0    0 -0.27551676677E+02 -0.24297530626E+01  0.11645195200E+02  0.30010150931E+02  0.00000000000E+00 0.  1.
</event>
<event>
 5    1  0.8943334E-005  0.9118800E+02  0.7818608E-02  0.1130116E+00
         25   -1    0    0    0    0  0.00000000000E+00  0.00000000000E+00  0.99999998245E-14  0.12500000000E+03  0.12500000000E+03 0.  0.
        -13    1    3    3    0    0 -0.30077734244E+02 -0.49518937194E+02 -0.10071531358E+02  0.58806820574E+02  0.10566000000E+00 0. -1.
         23    2    1    0    0    0 -0.12207202156E+02 -0.18678328684E+02 -0.19157355703E+02  0.95590817345E+02  0.90954408009E+02 0.  0.
         13    1    3    3    0    0  0.17870532088E+02  0.30840608510E+02 -0.90858243452E+01  0.36783996771E+02  0.10566000000E+00 0.  1.
         22    1    1    0    0    0  0.12207202156E+02  0.18678328684E+02  0.19157355703E+02  0.29409182655E+02  0.00000000000E+00 0. -1.
</event>
<event>
 5    1  0.8943334E-005  0.9118800E+02  0.7818608E-02  0.1130116E+00
         25   -1    0    0    0    0  0.00000000000E+00  0.00000000000E+00  0.99999998245E-14  0.12500000000E+03  0.12500000000E+03 0.  0.
        -13    1    3    3    0    0 -0.22756267025E+02  0.44602910704E+02 -0.10959648329E+02  0.51258095825E+02  0.10566000000E+00 0.  1.
         23    2    1    0    0    0  0.11847835120E+02  0.23501143449E+02  0.99483240793E+01  0.96863829464E+02  0.92687417518E+02 0.  0.
         13    1    3    3    0    0  0.34604102144E+02 -0.21101767255E+02  0.20907972408E+02  0.45605733639E+02  0.10566000000E+00 0. -1.
         22    1    1    0    0    0 -0.11847835120E+02 -0.23501143449E+02 -0.99483240793E+01  0.28136170536E+02  0.00000000000E+00 0.  1.
</event>
<event>
 5    1  0.8943334E-005  0.9118800E+02  0.7818608E-02  0.1130116E+00
         25   -1    0    0    0    0  0.00000000000E+00  0.00000000000E+00  0.99999998245E-14  0.12500000000E+03  0.12500000000E+03 0.  0.
        -13    1    3    3    0    0  0.33666020363E+02  0.27212915514E+01  0.29638978843E+02  0.44936472777E+02  0.10566000000E+00 0.  1.
         23    2    1    0    0    0  0.19750012133E+02  0.99395215767E+01 -0.18880286322E+02  0.95925573436E+02  0.91413310622E+02 0.  0.
         13    1    3    3    0    0 -0.13916008231E+02  0.72182300253E+01 -0.48519265165E+02  0.50989100658E+02  0.10566000000E+00 0. -1.
         22    1    1    0    0    0 -0.19750012133E+02 -0.99395215767E+01  0.18880286322E+02  0.29074426564E+02  0.00000000000E+00 0. -1.
</event>
<event>
 5    1  0.8943334E-005  0.9118800E+02  0.7818608E-02  0.1130116E+00
         25   -1    0    0    0    0  0.00000000000E+00  0.00000000000E+00  0.99999998245E-14  0.12500000000E+03  0.12500000000E+03 0.  0.
        -13    1    3    3    0    0 -0.20592997732E+01 -0.77334253588E+00  0.57111405413E+02  0.57153849971E+02  0.10566000000E+00 0.  1.
         23    2    1    0    0    0 -0.12293054342E+02 -0.12970256758E+02  0.16894088605E+02  0.10040819292E+03  0.97350132158E+02 0.  0.
         13    1    3    3    0    0 -0.10233754569E+02 -0.12196914223E+02 -0.40217316808E+02  0.43254342954E+02  0.10566000000E+00 0. -1.
         22    1    1    0    0    0  0.12293054342E+02  0.12970256758E+02 -0.16894088605E+02  0.24591807075E+02  0.00000000000E+00 0.  1.
</event>
<event>
 5    1  0.8943334E-005  0.9118800E+02  0.7818608E-02  0.1130116E+00
         25   -1    0    0    0    0  0.00000000000E+00  0.00000000000E+00  0.99999998245E-14  0.12500000000E+03  0.12500000000E+03 0.  0.
        -13    1    3    3    0    0  0.21301671268E+02 -0.20006952466E+01 -0.36155827097E+02  0.42012128931E+02  0.10566000000E+00 0.  1.
         23    2    1    0    0    0 -0.98166886318E+01 -0.27570617604E+02 -0.61505001792E+00  0.95727408429E+02  0.91141933858E+02 0.  0.
         13    1    3    3    0    0 -0.31118359899E+02 -0.25569922357E+02  0.35540777079E+02  0.53715279498E+02  0.10566000000E+00 0. -1.
         22    1    1    0    0    0  0.98166886318E+01  0.27570617604E+02  0.61505001792E+00  0.29272591571E+02  0.00000000000E+00 0. -1.
</event>
<event>
 5    1  0.8943334E-005  0.9118800E+02  0.7818608E-02  0.1130116E+00
         25   -1    0    0    0    0  0.00000000000E+00  0.00000000000E+00  0.99999998245E-14  0.12500000000E+03  0.12500000000E+03 0.  0.
        -13    1    3    3    0    0  0.25885049347E+02 -0.42394725402E+02 -0.19464136421E+02  0.53349904332E+02  0.10566000000E+00 0. -1.
         23    2    1    0    0    0  0.26760147859E+02 -0.80777789856E+01  0.63913245777E+01  0.96325881763E+02  0.91959069378E+02 0.  0.
         13    1    3    3    0    0  0.87509851244E+00  0.34316946416E+02  0.25855460999E+02  0.42975977432E+02  0.10566000000E+00 0.  1.
         22    1    1    0    0    0 -0.26760147859E+02  0.80777789856E+01 -0.63913245777E+01  0.28674118237E+02  0.00000000000E+00 0.  1.
</event>
<event>
 5    1  0.8943334E-005  0.9118800E+02  0.7818608E-02  0.1130116E+00
         25   -1    0    0    0    0  0.00000000000E+00  0.00000000000E+00  0.99999998245E-14  0.12500000000E+03  0.12500000000E+03 0.  0.
        -13    1    3    3    0    0 -0.19757325400E+02 -0.39444786049E+02  0.39342168833E+02  0.59110578292E+02  0.10566000000E+00 0.  1.
         23    2    1    0    0    0 -0.17382422342E+02 -0.72226423147E+01  0.22879160139E+02  0.95372797345E+02  0.90654284710E+02 0.  0.
         13    1    3    3    0    0  0.23749030580E+01  0.32222143734E+02 -0.16463008695E+02  0.36262219054E+02  0.10566000000E+00 0. -1.
         22    1    1    0    0    0  0.17382422342E+02  0.72226423147E+01 -0.22879160139E+02  0.29627202655E+02  0.00000000000E+00 0.  1.
</event>
<event>
 5    1  0.8943334E-005  0.9118800E+02  0.7818608E-02  0.1130116E+00
         25   -1    0    0    0    0  0.00000000000E+00  0.00000000000E+00  0.99999998245E-14  0.12500000000E+03  0.12500000000E+03 0.  0.
        -13    1    3    3    0    0 -0.38451411979E+02 -0.27986125658E+02  0.14109903203E+01  0.47578738637E+02  0.10566000000E+00 0.  1.
         23    2    1    0    0    0 -0.80952769091E+01 -0.31710900237E+01 -0.27412547605E+02  0.96241747509E+02  0.91844634449E+02 0.  0.
         13    1    3    3    0    0  0.30356135070E+02  0.24815035634E+02 -0.28823537925E+02  0.48663008872E+02  0.10566000000E+00 0. -1.
         22    1    1    0    0    0  0.80952769091E+01  0.31710900237E+01  0.27412547605E+02  0.28758252491E+02  0.00000000000E+00 0.  1.
</event>
<event>
 5    1  0.8943334E-005  0.9118800E+02  0.7818608E-02  0.1130116E+00
         25   -1    0    0    0    0  0.00000000000E+00  0.00000000000E+00  0.99999998245E-14  0.12500000000E+03  0.12500000000E+03 0.  0.
        -13    1    3    3    0    0  0.22830964333E+02  0.47878960968E+02  0.15160466626E+02  0.55167914118E+02  0.10566000000E+00 0. -1.
         23    2    1    0    0    0 -0.95235040503E+01  0.23115321589E+02  0.14867735582E+02  0.95912807236E+02  0.91395852253E+02 0.  0.
         13    1    3    3    0    0 -0.32354468383E+02 -0.24763639379E+02 -0.29273104367E+00  0.40744893118E+02  0.10566000000E+00 0.  1.
         22    1    1    0    0    0  0.95235040503E+01 -0.23115321589E+02 -0.14867735582E+02  0.29087192764E+02  0.00000000000E+00 0. -1.
</event>
<event>
 5    1  0.8943334E-005  0.9118800E+02  0.7818608E-02  0.1130116E+00
         25   -1    0    0    0    0  0.00000000000E+00  0.00000000000E+00  0.99999998245E-14  0.12500000000E+03  0.12500000000E+03 0.  0.
        -13    1    3    3    0    0 -0.21150821559E+02 -0.44331955263E+02  0.15006590850E+02  0.51360378143E+02  0.10566000000E+00 0. -1.
         23    2    1    0    0    0  0.15692752649E+02 -0.24535579486E+02 -0.22914505162E+00  0.95874244149E+02  0.91343095182E+02 0.  0.
         13    1    3    3    0    0  0.36843574208E+02  0.19796375777E+02 -0.15235735902E+02  0.44513866006E+02  0.10566000000E+00 0.  1.
         22    1    1    0    0    0 -0.15692752649E+02  0.24535579486E+02  0.22914505162E+00  0.29125755851E+02  0.00000000000E+00 0. -1.
</event>
<event>
 5    1  0.8943334E-005  0.9118800E+02  0.7818608E-02  0.1130116E+00
         25   -1    0    0    0    0  0.00000000000E+00  0.00000000000E+00  0.99999998245E-14  0.12500000000E+03  0.12500000000E+03 0.  0.
        -13    1    3    3    0    0  0.55358272385E+01  0.51134268706E+02  0.12433048482E+02  0.52914560169E+02  0.10566000000E+00 0.  1.
         23    2    1    0    0    0 -0.18920606998E+02  0.19148627416E+02  0.16567952220E+02  0.93390565619E+02  0.87878560553E+02 0.  0.
         13    1    3    3    0    0 -0.24456434237E+02 -0.31985641289E+02  0.41349037379E+01  0.40476005450E+02  0.10566000000E+00 0. -1.
         22    1    1    0    0    0  0.18920606998E+02 -0.19148627416E+02 -0.16567952220E+02  0.31609434381E+02  0.00000000000E+00 0.  1.
</event>
<event>
 5    1  0.8943334E-005  0.9118800E+02  0.7818608E-02  0.1130116E+00
         25   -1    0    0    0    0  0.00000000000E+00  0.00000000000E+00  0.99999998245E-14  0.12500000000E+03  0.12500000000E+03 0.  0.
        -13    1    3    3    0    0  0.62886437276E+01  0.49334943651E+02 -0.16679567566E+02  0.52456675869E+02  0.10566000000E+00 0. -1.
         23    2    1    0    0    0 -0.61509015699E+01  0.54511123049E+01 -0.24877084651E+02  0.98800428320E+02  0.95263356439E+02 0.  0.
         13    1    3    3    0    0 -0.12439545298E+02 -0.43883831346E+02 -0.81975170850E+01  0.46343752451E+02  0.10566000000E+00 0.  1.
         22    1    1    0    0    0  0.61509015699E+01 -0.54511123049E+01  0.24877084651E+02  0.26199571680E+02  0.00000000000E+00 0.  1.
</event>
<event>
 5    1  0.8943334E-005  0.9118800E+02  0.7818608E-02  0.1130116E+00
         25   -1    0    0    0    0  0.00000000000E+00  0.00000000000E+00  0.99999998245E-14  0.12500000000E+03  0.12500000000E+03 0.  0.
        -13    1    3    3    0    0 -0.45280965156E+02 -0.26820206380E+02  0.24406746292E+02  0.58011978973E+02  0.10566000000E+00 0.  1.
         23    2    1    0    0    0 -0.19908922772E+02 -0.20514874764E+02 -0.34381517640E+01  0.96206837963E+02  0.91797110471E+02 0.  0.
         13    1    3    3    0    0  0.25372042384E+02  0.63053316160E+01 -0.27844898056E+02  0.38194858991E+02  0.10566000000E+00 0. -1.
         22    1    1    0    0    0  0.19908922772E+02  0.20514874764E+02  0.34381517640E+01  0.28793162037E+02  0.00000000000E+00 0.  1.
</event>
<event>
 5    1  0.8943334E-005  0.9118800E+02  0.7818608E-02  0.1130116E+00
         25   -1    0    0    0    0  0.00000000000E+00  0.00000000000E+00  0.99999998245E-14  0.12500000000E+03  0.12500000000E+03 0.  0.
        -13    1    3    3    0    0  0.35582213077E+02  0.39076098819E+02  0.18026914779E+02  0.55839199554E+02  0.10566000000E+00 0. -1.
         23    2    1    0    0    0  0.26087247354E+02 -0.39825824094E+00  0.87030879018E+01  0.97496421630E+02  0.93536652749E+02 0.  0.
         13    1    3    3    0    0 -0.94949657233E+01 -0.39474357060E+02 -0.93238268774E+01  0.41657222075E+02  0.10566000000E+00 0.  1.
         22    1    1    0    0    0 -0.26087247354E+02  0.39825824094E+00 -0.87030879018E+01  0.27503578370E+02  0.00000000000E+00 0. -1.
</event>
<event>
 5    1  0.8943334E-005  0.9118800E+02  0.7818608E-02  0.1130116E+00
         25   -1    0    0    0    0  0.00000000000E+00  0.00000000000E+00  0.99999998245E-14  0.12500000000E+03  0.12500000000E+03 0.  0.
        -13    1    3    3    0    0  0.34502866540E+02  0.97455579846E+01  0.30875138571E+02  0.47314998105E+02  0.10566000000E+00 0. -1.
         23    2    1    0    0    0 -0.11211468929E+02 -0.78522708983E+01  0.24797996470E+02  0.96675173032E+02  0.92432641735E+02 0.  0.
         13    1    3    3    0    0 -0.45714335469E+02 -0.17597828883E+02 -0.60771421005E+01  0.49360174928E+02  0.10566000000E+00 0.  1.
         22    1    1    0    0    0  0.11211468929E+02  0.78522708983E+01 -0.24797996470E+02  0.28324826968E+02  0.00000000000E+00 0.  1.
</event>
<event>
 5    1  0.8943334E-005  0.9118800E+02  0.7818608E-02  0.1130116E+00
         25   -1    0    0    0    0  0.00000000000E+00  0.00000000000E+00  0.99999998245E-14  0.12500000000E+03  0.12500000000E+03 0.  0.
        -13    1    3    3    0    0 -0.54186510852E+01 -0.21427976266E+02  0.24482211773E+02  0.32983477739E+02  0.10566000000E+00 0.  1.
         23    2    1    0    0    0  0.10108540783E+02  0.18953630108E+02 -0.20437734806E+02  0.95349979848E+02  0.90622817005E+02 0.  0.
         13    1    3    3    0    0  0.15527191868E+02  0.40381606373E+02 -0.44919946579E+02  0.62366502109E+02  0.10566000000E+00 0. -1.
         22    1    1    0    0    0 -0.10108540783E+02 -0.18953630108E+02  0.20437734806E+02  0.29650020152E+02  0.00000000000E+00 0. -1.
</event>
<event>
 5    1  0.8943334E-005  0.9118800E+02  0.7818608E-02  0.1130116E+00
         25   -1    0    0    0    0  0.00000000000E+00  0.00000000000E+00  0.99999998245E-14  0.12500000000E+03  0.12500000000E+03 0.  0.
        -13    1    3    3    0    0  0.23495416074E+02  0.24107944349E+02  0.18114110462E+02  0.38227734945E+02  0.10566000000E+00 0. -1.
         23    2    1    0    0    0  0.65860492802E+01 -0.28678521202E+02  0.57637532370E+01  0.95015762894E+02  0.90160638438E+02 0.  0.
         13    1    3    3    0    0 -0.16909366793E+02 -0.52786465551E+02 -0.12350357225E+02  0.56788027949E+02  0.10566000000E+00 0.  1.
         22    1    1    0    0    0 -0.65860492802E+01  0.28678521202E+02 -0.57637532370E+01  0.29984237106E+02  0.00000000000E+00 0.  1.
</event>
<event>
 5    1  0.8943334E-005  0.9118800E+02  0.7818608E-02  0.1130116E+00
         25   -1    0    0    0    0  0.00000000000E+00  0.00000000000E+00  0.99999998245E-14  0.12500000000E+03  0.12500000000E+03 0.  0.
        -13    1    3    3    0    0  0.24368759001E+02  0.62357049764E+01  0.31147984920E+02  0.40036590269E+02  0.10566000000E+00 0. -1.
         23    2    1    0    0    0  0.17951899621E+02 -0.19117327210E+02 -0.16234075968E+02  0.94157040963E+02  0.88962128126E+02 0.  0.
         13    1    3    3    0    0 -0.64168593799E+01 -0.25353032187E+02 -0.47382060887E+02  0.54120450694E+02  0.10566000000E+00 0.  1.
         22    1    1    0    0    0 -0.17951899621E+02  0.19117327210E+02  0.16234075968E+02  0.30842959037E+02  0.00000000000E+00 0.  1.
</event>
<event>
 5    1  0.8943334E-005  0.9118800E+02  0.7818608E-02  0.1130116E+00
         25   -1    0    0    0    0  0.00000000000E+00  0.00000000000E+00  0.99999998245E-14  0.12500000000E+03  0.12500000000E+03 0.  0.
        -13    1    3    3    0    0 -0.23760290254E+02 -0.17354036606E+02 -0.29161839310E+02  0.41426296184E+02  0.10566000000E+00 0. -1.
         23    2    1    0    0    0 -0.12961370524E+02  0.12989509984E+02  0.18495172781E+02  0.98946287948E+02  0.95454554564E+02 0.  0.
         13    1    3    3    0    0  0.10798919731E+02  0.30343546591E+02  0.47657012091E+02  0.57519991764E+02  0.10566000000E+00 0.  1.
         22    1    1    0    0    0  0.12961370524E+02 -0.12989509984E+02 -0.18495172781E+02  0.26053712052E+02  0.00000000000E+00 0.  1.
</event>
<event>
 5    1  0.8943334E-005  0.9118800E+02  0.7818608E-02  0.1130116E+00
         25   -1    0    0    0    0  0.00000000000E+00  0.00000000000E+00  0.99999998245E-14  0.12500000000E+03  0.12500000000E+03 0.  0.
        -13    1    3    3    0    0 -0.24888882426E+02 -0.57127366989E+02  0.26606947238E+00  0.62314320059E+02  0.10566000000E+00 0. -1.
         23    2    1    0    0    0 -0.11430409174E+02 -0.26938689469E+02  0.35134896803E+01  0.95526421088E+02  0.90865864173E+02 0.  0.
         13    1    3    3    0    0  0.13458473252E+02  0.30188677520E+02  0.32474202079E+01  0.33212101028E+02  0.10566000000E+00 0.  1.
         22    1    1    0    0    0  0.11430409174E+02  0.26938689469E+02 -0.35134896803E+01  0.29473578912E+02  0.00000000000E+00 0. -1.
</event>
<event>
 5    1  0.8943334E-005  0.9118800E+02  0.7818608E-02  0.1130116E+00
         25   -1    0    0    0    0  0.00000000000E+00  0.00000000000E+00  0.99999998245E-14  0.12500000000E+03  0.12500000000E+03 0.  0.
        -13    1    3    3    0    0 -0.18522278921E+02 -0.28887229549E+02 -0.82635479895E+01  0.35296518764E+02  0.10566000000E+00 0.  1.
         23    2    1    0    0    0  0.10016818285E+02  0.66195786917E+01  0.28654082454E+02  0.93932140211E+02  0.88645558561E+02 0.  0.
         13    1    3    3    0    0  0.28539097206E+02  0.35506808241E+02  0.36917630444E+02  0.58635621446E+02  0.10566000000E+00 0. -1.
         22    1    1    0    0    0 -0.10016818285E+02 -0.66195786917E+01 -0.28654082454E+02  0.31067859789E+02  0.00000000000E+00 0. -1.
</event>
<event>
 5    1  0.8943334E-005  0.9118800E+02  0.7818608E-02  0.1130116E+00
         25   -1    0    0    0    0  0.00000000000E+00  0.00000000000E+00  0.99999998245E-14  0.12500000000E+03  0.12500000000E+03 0.  0.
        -13    1    3    3    0    0  0.14195961678E+02 -0.27340269698E+02  0.30639687711E+02  0.43449019577E+02  0.10566000000E+00 0.  1.
         23    2    1    0    0    0 -0.37029555979E+01  0.13841410847E+02 -0.12698133581E+02  0.10585478831E+03  0.10410906337E+03 0.  0.
         13    1    3    3    0    0 -0.17898917276E+02  0.41181680545E+02 -0.43337821292E+02  0.62405768728E+02  0.10566000000E+00 0. -1.
         22    1    1    0    0    0  0.37029555979E+01 -0.13841410847E+02  0.12698133581E+02  0.19145211695E+02  0.00000000000E+00 0. -1.
</event>
<event>
 5    1  0.8943334E-005  0.9118800E+02  0.7818608E-02  0.1130116E+00
         25   -1    0    0    0    0  0.00000000000E+00  0.00000000000E+00  0.99999998245E-14  0.12500000000E+03  0.12500000000E+03 0.  0.
        -13    1    3    3    0    0 -0.37327141100E+02 -0.23183534769E+02 -0.27685990205E+02  0.51935700292E+02  0.10566000000E+00 0. -1.
         23    2    1    0    0    0  0.53793196962E+01 -0.20999338652E+02 -0.20241902932E+02  0.95341208074E+02  0.90610716907E+02 0.  0.
         13    1    3    3    0    0  0.42706460797E+02  0.21841961173E+01  0.74440872725E+01  0.43405507782E+02  0.10566000000E+00 0.  1.
         22    1    1    0    0    0 -0.53793196962E+01  0.20999338652E+02  0.20241902932E+02  0.29658791926E+02  0.00000000000E+00 0. -1.
</event>
<event>
 5    1  0.8943334E-005  0.9118800E+02  0.7818608E-02  0.1130116E+00
         25   -1    0    0    0    0  0.00000000000E+00  0.00000000000E+00  0.99999998245E-14  0.12500000000E+03  0.12500000000E+03 0.  0.
        -13    1    3    3    0    0 -0.46691904281E+02  0.34782122960E+02 -0.11412821484E+02  0.59331219954E+02  0.10566000000E+00 0. -1.
         23    2    1    0    0    0 -0.14637804047E+02  0.25332816189E+02  0.27225113215E+01  0.95615838428E+02  0.90988788359E+02 0.  0.
         13    1    3    3    0    0  0.32054100234E+02 -0.94493067708E+01  0.14135332805E+02  0.36284618474E+02  0.10566000000E+00 0.  1.
         22    1    1    0    0    0  0.14637804047E+02 -0.25332816189E+02 -0.27225113215E+01  0.29384161572E+02  0.00000000000E+00 0. -1.
</event>
<event>
 5    1  0.8943334E-005  0.9118800E+02  0.7818608E-02  0.1130116E+00
         25   -1    0    0    0    0  0.00000000000E+00  0.00000000000E+00  0.99999998245E-14  0.12500000000E+03  0.12500000000E+03 0.  0.
        -13    1    3    3    0    0  0.31326901534E+02  0.39230322391E+02  0.27817664003E+02  0.57395353028E+02  0.10566000000E+00 0. -1.
         23    2    1    0    0    0  0.13477917520E+02  0.54207505217E+01  0.25443965035E+02  0.95700953025E+02  0.91105643384E+02 0.  0.
         13    1    3    3    0    0 -0.17848984014E+02 -0.33809571869E+02 -0.23736989674E+01  0.38305599997E+02  0.10566000000E+00 0.  1.
         22    1    1    0    0    0 -0.13477917520E+02 -0.54207505217E+01 -0.25443965035E+02  0.29299046975E+02  0.00000000000E+00 0. -1.
</event>
<event>
 5    1  0.8943334E-005  0.9118800E+02  0.7818608E-02  0.1130116E+00
         25   -1    0    0    0    0  0.00000000000E+00  0.00000000000E+00  0.99999998245E-14  0.12500000000E+03  0.12500000000E+03 0.  0.
        -13    1    3    3    0    0 -0.31512620591E+02  0.21288441851E+02  0.24736521721E+02  0.45366834625E+02  0.10566000000E+00 0.  1.
         23    2    1    0    0    0 -0.16480422786E+02 -0.23091560189E+02  0.50814788920E+01  0.96179071582E+02  0.91759293238E+02 0.  0.
         13    1    3    3    0    0  0.15032197805E+02 -0.44380002040E+02 -0.19655042829E+02  0.50812236957E+02  0.10566000000E+00 0. -1.
         22    1    1    0    0    0  0.16480422786E+02  0.23091560189E+02 -0.50814788920E+01  0.28820928418E+02  0.00000000000E+00 0.  1.
</event>
<event>
 5    1  0.8943334E-005  0.9118800E+02  0.7818608E-02  0.1130116E+00
         25   -1    0    0    0    0  0.00000000000E+00  0.00000000000E+00  0.99999998245E-14  0.12500000000E+03  0.12500000000E+03 0.  0.
        -13    1    3    3    0    0  0.51870494099E+02 -0.16678420248E+02 -0.10028035048E+02  0.55401177885E+02  0.10566000000E+00 0. -1.
         23    2    1    0    0    0  0.23627105173E+02 -0.96366060794E+01  0.16359169325E+02  0.94689495276E+02  0.89707155897E+02 0.  0.
         13    1    3    3    0    0 -0.28243388926E+02  0.70418141688E+01  0.26387204373E+02  0.39288317392E+02  0.10566000000E+00 0.  1.
         22    1    1    0    0    0 -0.23627105173E+02  0.96366060794E+01 -0.16359169325E+02  0.30310504724E+02  0.00000000000E+00 0. -1.
</event>
<event>
 5    1  0.8943334E-005  0.9118800E+02  0.7818608E-02  0.1130116E+00
         25   -1    0    0    0    0  0.00000000000E+00  0.00000000000E+00  0.99999998245E-14  0.12500000000E+03  0.12500000000E+03 0.  0.
        -13    1    3    3    0    0 -0.14461907697E+01 -0.35875071318E+02 -0.40347916801E+02  0.54009978375E+02  0.10566000000E+00 0.  1.
         23    2    1    0    0    0 -0.18752783295E+02 -0.31070120897E+02 -0.13567522075E+02  0.86256007574E+02  0.77064919993E+02 0.  0.
         13    1    3    3    0    0 -0.17306592525E+02  0.48049504213E+01  0.26780394726E+02  0.32246029199E+02  0.10566000000E+00 0. -1.
         22    1    1    0    0    0  0.18752783295E+02  0.31070120897E+02  0.13567522075E+02  0.38743992426E+02  0.00000000000E+00 0.  1.
</event>
<event>
 5    1  0.8943334E-005  0.9118800E+02  0.7818608E-02  0.1130116E+00
         25   -1    0    0    0    0  0.00000000000E+00  0.00000000000E+00  0.99999998245E-14  0.12500000000E+03  0.12500000000E+03 0.  0.
        -13    1    3    3    0    0 -0.21617757881E+02  0.16012949021E+02  0.26759169358E+02  0.37944779626E+02  0.10566000000E+00 0. -1.
         23    2    1    0    0    0 -0.17526697949E+02 -0.27877139462E+02 -0.41904792079E+01  0.91805419696E+02  0.85594129028E+02 0.  0.
         13    1    3    3    0    0  0.40910599327E+01 -0.43890088482E+02 -0.30949648566E+02  0.53860640070E+02  0.10566000000E+00 0.  1.
         22    1    1    0    0    0  0.17526697949E+02  0.27877139462E+02  0.41904792079E+01  0.33194580304E+02  0.00000000000E+00 0.  1.
</event>
<event>
 5    1  0.8943334E-005  0.9118800E+02  0.7818608E-02  0.1130116E+00
         25   -1    0    0    0    0  0.00000000000E+00  0.00000000000E+00  0.99999998245E-14  0.12500000000E+03  0.12500000000E+03 0.  0.
        -13    1    3    3    0    0 -0.37853405400E+01 -0.58259933175E+02  0.11439084173E+02  0.59492961158E+02  0.10566000000E+00 0.  1.
         23    2    1    0    0    0 -0.15247816459E+02 -0.24604671682E+02  0.50141700336E+01  0.95622667302E+02  0.90998169353E+02 0.  0.
         13    1    3    3    0    0 -0.11462475919E+02  0.33655261493E+02 -0.64249141390E+01  0.36129706145E+02  0.10566000000E+00 0. -1.
         22    1    1    0    0    0  0.15247816459E+02  0.24604671682E+02 -0.50141700336E+01  0.29377332698E+02  0.00000000000E+00 0.  1.
</event>
<event>
 5    1  0.8943334E-005  0.9118800E+02  0.7818608E-02  0.1130116E+00
         25   -1    0    0    0    0  0.00000000000E+00  0.00000000000E+00  0.99999998245E-14  0.12500000000E+03  0.12500000000E+03 0.  0.
        -13    1    3    3    0    0 -0.23414893185E+01  0.96414770385E+01  0.42224834648E+02  0.43374975237E+02  0.10566000000E+00 0. -1.
         23    2    1    0    0    0 -0.16083766394E+02  0.22753709056E+02 -0.71123984614E+01  0.96242304872E+02  0.91845393014E+02 0.  0.
         13    1    3    3    0    0 -0.13742277075E+02  0.13112232018E+02 -0.49337233110E+02  0.52867329634E+02  0.10566000000E+00 0.  1.
         22    1    1    0    0    0  0.16083766394E+02 -0.22753709056E+02  0.71123984614E+01  0.28757695128E+02  0.00000000000E+00 0.  1.
</event>
<event>
 5    1  0.8943334E-005  0.9118800E+02  0.7818608E-02  0.1130116E+00
         25   -1    0    0    0    0  0.00000000000E+00  0.00000000000E+00  0.99999998245E-14  0.12500000000E+03  0.12500000000E+03 0.  0.
        -13    1    3    3    0    0  0.57576084228E+02  0.16626193426E+02 -0.54773114589E+01  0.60178466978E+02  0.10566000000E+00 0.  1.
         23    2    1    0    0    0  0.22129907623E+02  0.17759476927E+02  0.24548506259E+01  0.96519162166E+02  0.92221421273E+02 0.  0.
         13    1    3    3    0    0 -0.35446176605E+02  0.11332835003E+01  0.79321620848E+01  0.36340695189E+02  0.10566000000E+00 0. -1.
         22    1    1    0    0    0 -0.22129907623E+02 -0.17759476927E+02 -0.24548506259E+01  0.28480837834E+02  0.00000000000E+00 0.  1.
</event>
<event>
 5    1  0.8943334E-005  0.9118800E+02  0.7818608E-02  0.1130116E+00
         25   -1    0    0    0    0  0.00000000000E+00  0.00000000000E+00  0.99999998245E-14  0.12500000000E+03  0.12500000000E+03 0.  0.
        -13    1    3    3    0    0 -0.16288779671E+02  0.22588730057E+02  0.25923851275E+02  0.38047763373E+02  0.10566000000E+00 0.  1.
         23    2    1    0    0    0  0.13337365532E+02  0.15082977926E+02 -0.22183254340E+02  0.95042057555E+02  0.90197086365E+02 0.  0.
         13    1    3    3    0    0  0.29626145203E+02 -0.75057521311E+01 -0.48107105614E+02  0.56994294182E+02  0.10566000000E+00 0. -1.
         22    1    1    0    0    0 -0.13337365532E+02 -0.15082977926E+02  0.22183254340E+02  0.29957942445E+02  0.00000000000E+00 0. -1.
</event>
<event>
 5    1  0.8943334E-005  0.9118800E+02  0.7818608E-02  0.1130116E+00
         25   -1    0    0    0    0  0.00000000000E+00  0.00000000000E+00  0.99999998245E-14  0.12500000000E+03  0.12500000000E+03 0.  0.
        -13    1    3    3    0    0 -0.21896379060E+02 -0.45891751892E+02 -0.16506537221E+01  0.50874749429E+02  0.10566000000E+00 0. -1.
         23    2    1    0    0    0 -0.98786537553E-01 -0.13197735303E+02  0.23866440370E+02  0.97727358913E+02  0.93844763990E+02 0.  0.
         13    1    3    3    0    0  0.21797592523E+02  0.32694016589E+02  0.25517094092E+02  0.46852609484E+02  0.10566000000E+00 0.  1.
         22    1    1    0    0    0  0.98786537553E-01  0.13197735303E+02 -0.23866440370E+02  0.27272641087E+02  0.00000000000E+00 0.  1.
</event>
<event>
 5    1  0.8943334E-005  0.9118800E+02  0.7818608E-02  0.1130116E+00
         25   -1    0    0    0    0  0.00000000000E+00  0.00000000000E+00  0.99999998245E-14  0.12500000000E+03  0.12500000000E+03 0.  0.
        -13    1    3    3    0    0 -0.56335356830E+02  0.18527810212E+02 -0.12513177855E+02  0.60609759647E+02  0.10566000000E+00 0. -1.
         23    2    1    0    0    0 -0.26645289332E+02  0.81344628644E+01  0.51236507315E+01  0.96673462504E+02  0.92430328497E+02 0.  0.
         13    1    3    3    0    0  0.29690067498E+02 -0.10393347348E+02  0.17636828586E+02  0.36063702857E+02  0.10566000000E+00 0.  1.
         22    1    1    0    0    0  0.26645289332E+02 -0.81344628644E+01 -0.51236507315E+01  0.28326537496E+02  0.00000000000E+00 0. -1.
</event>
<event>
 5    1  0.8943334E-005  0.9118800E+02  0.7818608E-02  0.1130116E+00
         25   -1    0    0    0    0  0.00000000000E+00  0.00000000000E+00  0.99999998245E-14  0.12500000000E+03  0.12500000000E+03 0.  0.
        -13    1    3    3    0    0  0.21067092976E+02  0.14554630726E+01 -0.52328852442E+02  0.56429254303E+02  0.10566000000E+00 0. -1.
         23    2    1    0    0    0  0.14977118909E+02  0.18521387607E+02 -0.18370911777E+02  0.94919336955E+02  0.90026852876E+02 0.  0.
         13    1    3    3    0    0 -0.60899740670E+01  0.17065924534E+02  0.33957940665E+02  0.38490082652E+02  0.10566000000E+00 0.  1.
         22    1    1    0    0    0 -0.14977118909E+02 -0.18521387607E+02  0.18370911777E+02  0.30080663045E+02  0.00000000000E+00 0. -1.
</event>
<event>
 5    1  0.8943334E-005  0.9118800E+02  0.7818608E-02  0.1130116E+00
         25   -1    0    0    0    0  0.00000000000E+00  0.00000000000E+00  0.99999998245E-14  0.12500000000E+03  0.12500000000E+03 0.  0.
        -13    1    3    3    0    0  0.45663644629E+02 -0.24379085295E+02 -0.32560101220E+02  0.61152919768E+02  0.10566000000E+00 0.  1.
         23    2    1    0    0    0  0.18202832941E+02 -0.19341309627E+02 -0.11841652843E+02  0.95919867139E+02  0.91405507409E+02 0.  0.
         13    1    3    3    0    0 -0.27460811688E+02  0.50377756680E+01  0.20718448378E+02  0.34766947371E+02  0.10566000000E+00 0. -1.
         22    1    1    0    0    0 -0.18202832941E+02  0.19341309627E+02  0.11841652843E+02  0.29080132861E+02  0.00000000000E+00 0.  1.
</event>
<event>
 5    1  0.8943334E-005  0.9118800E+02  0.7818608E-02  0.1130116E+00
         25   -1    0    0    0    0  0.00000000000E+00  0.00000000000E+00  0.99999998245E-14  0.12500000000E+03  0.12500000000E+03 0.  0.
        -13    1    3    3    0    0  0.12101578452E+02  0.42354219662E+02  0.27534677986E+02  0.51947067098E+02  0.10566000000E+00 0.  1.
         23    2    1    0    0    0 -0.12269218234E+02  0.25126650726E+02 -0.55374506270E+01  0.96494813591E+02  0.92188412491E+02 0.  0.
         13    1    3    3    0    0 -0.24370796686E+02 -0.17227568936E+02 -0.33072128613E+02  0.44547746493E+02  0.10566000000E+00 0. -1.
         22    1    1    0    0    0  0.12269218234E+02 -0.25126650726E+02  0.55374506270E+01  0.28505186409E+02  0.00000000000E+00 0.  1.
</event>
<event>
 5    1  0.8943334E-005  0.9118800E+02  0.7818608E-02  0.1130116E+00
         25   -1    0    0    0    0  0.00000000000E+00  0.00000000000E+00  0.99999998245E-14  0.12500000000E+03  0.12500000000E+03 0.  0.
        -13    1    3    3    0    0  0.58046004746E+02 -0.49093490307E+01  0.17414132719E+02  0.60800522673E+02  0.10566000000E+00 0. -1.
         23    2    1    0    0    0  0.27089539347E+02 -0.21204163016E+01 -0.24968691257E+01  0.97713122884E+02  0.93825799869E+02 0.  0.
         13    1    3    3    0    0 -0.30956465400E+02  0.27889327291E+01 -0.19911001845E+02  0.36912600211E+02  0.10566000000E+00 0.  1.
         22    1    1    0    0    0 -0.27089539347E+02  0.21204163016E+01  0.24968691257E+01  0.27286877116E+02  0.00000000000E+00 0. -1.
</event>
<event>
 5    1  0.8943334E-005  0.9118800E+02  0.7818608E-02  0.1130116E+00
         25   -1    0    0    0    0  0.00000000000E+00  0.00000000000E+00  0.99999998245E-14  0.12500000000E+03  0.12500000000E+03 0.  0.
        -13    1    3    3    0    0  0.15020505038E+01  0.17614678055E+02  0.39204802106E+02  0.43006519400E+02  0.10566000000E+00 0. -1.
         23    2    1    0    0    0  0.79674154511E+01  0.29522986244E+02 -0.90354817866E+01  0.93113853214E+02  0.87484074571E+02 0.  0.
         13    1    3    3    0    0  0.64653649474E+01  0.11908308190E+02 -0.48240283893E+02  0.50107333814E+02  0.10566000000E+00 0.  1.
         22    1    1    0    0    0 -0.79674154511E+01 -0.29522986244E+02  0.90354817866E+01  0.31886146786E+02  0.00000000000E+00 0.  1.
</event>
<event>
 5    1  0.8943334E-005  0.9118800E+02  0.7818608E-02  0.1130116E+00
         25   -1    0    0    0    0  0.00000000000E+00  0.00000000000E+00  0.99999998245E-14  0.12500000000E+03  0.12500000000E+03 0.  0.
        -13    1    3    3    0    0 -0.27724923028E+02 -0.12791593349E+02  0.48459272005E+02  0.57276595784E+02  0.10566000000E+00 0.  1.
         23    2    1    0    0    0 -0.26629521297E+02 -0.90098386569E+00  0.11749691447E+02  0.95879587477E+02  0.91350407055E+02 0.  0.
         13    1    3    3    0    0  0.10954017314E+01  0.11890609483E+02 -0.36709580558E+02  0.38602991693E+02  0.10566000000E+00 0. -1.
         22    1    1    0    0    0  0.26629521297E+02  0.90098386569E+00 -0.11749691447E+02  0.29120412523E+02  0.00000000000E+00 0.  1.
</event>
<event>
 5    1  0.8943334E-005  0.9118800E+02  0.7818608E-02  0.1130116E+00
         25   -1    0    0    0    0  0.00000000000E+00  0.00000000000E+00  0.99999998245E-14  0.12500000000E+03  0.12500000000E+03 0.  0.
        -13    1    3    3    0    0 -0.67843471515E+01  0.42149495971E+02 -0.96338774608E+01  0.43765627333E+02  0.10566000000E+00 0.  1.
         23    2    1    0    0    0 -0.97015066792E+01 -0.63033877344E+01 -0.27243352423E+02  0.95401821340E+02  0.90694296044E+02 0.  0.
         13    1    3    3    0    0 -0.29171595277E+01 -0.48452883705E+02 -0.17609474962E+02  0.51636194007E+02  0.10566000000E+00 0. -1.
         22    1    1    0    0    0  0.97015066792E+01  0.63033877344E+01  0.27243352423E+02  0.29598178660E+02  0.00000000000E+00 0. -1.
</event>
<event>
 5    1  0.8943334E-005  0.9118800E+02  0.7818608E-02  0.1130116E+00
         25   -1    0    0    0    0  0.00000000000E+00  0.00000000000E+00  0.99999998245E-14  0.12500000000E+03  0.12500000000E+03 0.  0.
        -13    1    3    3    0    0 -0.22905589163E+02  0.21145516570E+02  0.53266638184E+02  0.61718269527E+02  0.10566000000E+00 0.  1.
         23    2    1    0    0    0 -0.14413203495E+02  0.41674129926E+01  0.26745420098E+02  0.94333646088E+02  0.89209929504E+02 0.  0.
         13    1    3    3    0    0  0.84923856687E+01 -0.16978103577E+02 -0.26521218086E+02  0.32615376561E+02  0.10566000000E+00 0. -1.
         22    1    1    0    0    0  0.14413203495E+02 -0.41674129926E+01 -0.26745420098E+02  0.30666353912E+02  0.00000000000E+00 0.  1.
</event>
<event>
 5    1  0.8943334E-005  0.9118800E+02  0.7818608E-02  0.1130116E+00
         25   -1    0    0    0    0  0.00000000000E+00  0.00000000000E+00  0.99999998245E-14  0.12500000000E+03  0.12500000000E+03 0.  0.
        -13    1    3    3    0    0 -0.38548233113E+02  0.12354295026E+02 -0.76319420908E+01  0.41192870570E+02  0.10566000000E+00 0. -1.
         23    2    1    0    0    0  0.20769962180E+02 -0.14115998156E+01 -0.95017410738E+01  0.10211622788E+03  0.99519128664E+02 0.  0.
         13    1    3    3    0    0  0.59318195293E+02 -0.13765894841E+02 -0.18697989830E+01  0.60923357310E+02  0.10566000000E+00 0.  1.
         22    1    1    0    0    0 -0.20769962180E+02  0.14115998156E+01  0.95017410738E+01  0.22883772120E+02  0.00000000000E+00 0.  1.
</event>
<event>
 5    1  0.8943334E-005  0.9118800E+02  0.7818608E-02  0.1130116E+00
         25   -1    0    0    0    0  0.00000000000E+00  0.00000000000E+00  0.99999998245E-14  0.12500000000E+03  0.12500000000E+03 0.  0.
        -13    1    3    3    0    0 -0.16248527051E+02  0.56446588409E+02  0.17253685186E+02  0.61220362551E+02  0.10566000000E+00 0.  1.
         23    2    1    0    0    0 -0.56040507724E+01  0.22077921808E+02  0.15892771137E+02  0.97225547875E+02  0.93173960788E+02 0.  0.
         13    1    3    3    0    0  0.10644476279E+02 -0.34368666601E+02 -0.13609140491E+01  0.36005185324E+02  0.10566000000E+00 0. -1.
         22    1    1    0    0    0  0.56040507724E+01 -0.22077921808E+02 -0.15892771137E+02  0.27774452125E+02  0.00000000000E+00 0.  1.
</event>
<event>
 5    1  0.8943334E-005  0.9118800E+02  0.7818608E-02  0.1130116E+00
         25   -1    0    0    0    0  0.00000000000E+00  0.00000000000E+00  0.99999998245E-14  0.12500000000E+03  0.12500000000E+03 0.  0.
        -13    1    3    3    0    0  0.36780400233E+02 -0.48434244222E+02  0.91376343838E+01  0.61499442118E+02  0.10566000000E+00 0. -1.
         23    2    1    0    0    0  0.16208694942E+02 -0.22353584352E+02 -0.37608380850E+01  0.97133381472E+02  0.93050230349E+02 0.  0.
         13    1    3    3    0    0 -0.20571705291E+02  0.26080659870E+02 -0.12898472469E+02  0.35633939355E+02  0.10566000000E+00 0.  1.
         22    1    1    0    0    0 -0.16208694942E+02  0.22353584352E+02  0.37608380850E+01  0.27866618528E+02  0.00000000000E+00 0. -1.
</event>
<event>
 5    1  0.8943334E-005  0.9118800E+02  0.7818608E-02  0.1130116E+00
         25   -1    0    0    0    0  0.00000000000E+00  0.00000000000E+00  0.99999998245E-14  0.12500000000E+03  0.12500000000E+03 0.  0.
        -13    1    3    3    0    0  0.30894696016E+02  0.33956119802E+02  0.35999229575E+02  0.58339146445E+02  0.10566000000E+00 0.  1.
         23    2    1    0    0    0  0.50241352201E+01  0.54276596725E+01  0.25774562462E+02  0.98185274673E+02  0.94452732455E+02 0.  0.
         13    1    3    3    0    0 -0.25870560795E+02 -0.28528460129E+02 -0.10224667112E+02  0.39846128229E+02  0.10566000000E+00 0. -1.
         22    1    1    0    0    0 -0.50241352201E+01 -0.54276596725E+01 -0.25774562462E+02  0.26814725327E+02  0.00000000000E+00 0.  1.
</event>
<event>
 5    1  0.8943334E-005  0.9118800E+02  0.7818608E-02  0.1130116E+00
         25   -1    0    0    0    0  0.00000000000E+00  0.00000000000E+00  0.99999998245E-14  0.12500000000E+03  0.12500000000E+03 0.  0.
        -13    1    3    3    0    0  0.26387700171E+02  0.48941891348E+02 -0.24322754595E+02  0.60689595518E+02  0.10566000000E+00 0. -1.
         23    2    1    0    0    0  0.22232513379E+02  0.18849921919E+02 -0.11389790954E+02  0.93705726635E+02  0.88325713463E+02 0.  0.
         13    1    3    3    0    0 -0.41551867921E+01 -0.30091969429E+02  0.12932963641E+02  0.33016131117E+02  0.10566000000E+00 0.  1.
         22    1    1    0    0    0 -0.22232513379E+02 -0.18849921919E+02  0.11389790954E+02  0.31294273365E+02  0.00000000000E+00 0. -1.
</event>
<event>
 5    1  0.8943334E-005  0.9118800E+02  0.7818608E-02  0.1130116E+00
         25   -1    0    0    0    0  0.00000000000E+00  0.00000000000E+00  0.99999998245E-14  0.12500000000E+03  0.12500000000E+03 0.  0.
        -13    1    3    3    0    0  0.26175153951E+02  0.48439033796E+02  0.31204017474E+01  0.55147318617E+02  0.10566000000E+00 0. -1.
         23    2    1    0    0    0  0.75134181014E+00  0.22817701616E+02  0.19679032483E+02  0.94859058724E+02  0.89943119142E+02 0.  0.
         13    1    3    3    0    0 -0.25423812141E+02 -0.25621332181E+02  0.16558630735E+02  0.39711740108E+02  0.10566000000E+00 0.  1.
         22    1    1    0    0    0 -0.75134181014E+00 -0.22817701616E+02 -0.19679032483E+02  0.30140941276E+02  0.00000000000E+00 0. -1.
</event>
<event>
 5    1  0.8943334E-005  0.9118800E+02  0.7818608E-02  0.1130116E+00
         25   -1    0    0    0    0  0.00000000000E+00  0.00000000000E+00  0.99999998245E-14  0.12500000000E+03  0.12500000000E+03 0.  0.
        -13    1    3    3    0    0  0.31627881168E+02  0.77279807035E+01  0.17371801894E+02  0.36903051608E+02  0.10566000000E+00 0. -1.
         23    2    1    0    0    0 -0.10921740221E+02 -0.27317498894E+02 -0.24395625817E+01  0.95479132451E+02  0.90800788062E+02 0.  0.
         13    1    3    3    0    0 -0.42549621389E+02 -0.35045479597E+02 -0.19811364475E+02  0.58576080843E+02  0.10566000000E+00 0.  1.
         22    1    1    0    0    0  0.10921740221E+02  0.27317498894E+02  0.24395625817E+01  0.29520867549E+02  0.00000000000E+00 0.  1.
</event>
<event>
 5    1  0.8943334E-005  0.9118800E+02  0.7818608E-02  0.1130116E+00
         25   -1    0    0    0    0  0.00000000000E+00  0.00000000000E+00  0.99999998245E-14  0.12500000000E+03  0.12500000000E+03 0.  0.
        -13    1    3    3    0    0 -0.30247428497E+02  0.22278503119E+02  0.24644251060E+02  0.44928709154E+02  0.10566000000E+00 0.  1.
         23    2    1    0    0    0 -0.29526153766E+02 -0.21265892178E+01 -0.15249008405E+02  0.91700624702E+02  0.85440951396E+02 0.  0.
         13    1    3    3    0    0  0.72127473124E+00 -0.24405092337E+02 -0.39893259465E+02  0.46771915548E+02  0.10566000000E+00 0. -1.
         22    1    1    0    0    0  0.29526153766E+02  0.21265892178E+01  0.15249008405E+02  0.33299375298E+02  0.00000000000E+00 0.  1.
</event>
<event>
 5    1  0.8943334E-005  0.9118800E+02  0.7818608E-02  0.1130116E+00
         25   -1    0    0    0    0  0.00000000000E+00  0.00000000000E+00  0.99999998245E-14  0.12500000000E+03  0.12500000000E+03 0.  0.
        -13    1    3    3    0    0  0.30713903386E+02 -0.10433293331E+02  0.15418149535E+02  0.35915567238E+02  0.10566000000E+00 0.  1.
         23    2    1    0    0    0 -0.26999742967E+02 -0.28087860935E+01  0.14688498781E+02  0.94135337422E+02  0.88931627419E+02 0.  0.
         13    1    3    3    0    0 -0.57713646353E+02  0.76245072378E+01 -0.72965075353E+00  0.58219770184E+02  0.10566000000E+00 0. -1.
         22    1    1    0    0    0  0.26999742967E+02  0.28087860935E+01 -0.14688498781E+02  0.30864662578E+02  0.00000000000E+00 0. -1.
</event>
<event>
 5    1  0.8943334E-005  0.9118800E+02  0.7818608E-02  0.1130116E+00
         25   -1    0    0    0    0  0.00000000000E+00  0.00000000000E+00  0.99999998245E-14  0.12500000000E+03  0.12500000000E+03 0.  0.
        -13    1    3    3    0    0  0.22866092762E+02  0.18394677305E+02 -0.38058571306E+02  0.48059217277E+02  0.10566000000E+00 0.  1.
         23    2    1    0    0    0 -0.12469907609E+02 -0.10313512690E+02 -0.24635851123E+02  0.95524717128E+02  0.90863520084E+02 0.  0.
         13    1    3    3    0    0 -0.35336000371E+02 -0.28708189995E+02  0.13422720183E+02  0.47465499852E+02  0.10566000000E+00 0. -1.
         22    1    1    0    0    0  0.12469907609E+02  0.10313512690E+02  0.24635851123E+02  0.29475282872E+02  0.00000000000E+00 0.  1.
</event>
<event>
 5    1  0.8943334E-005  0.9118800E+02  0.7818608E-02  0.1130116E+00
         25   -1    0    0    0    0  0.00000000000E+00  0.00000000000E+00  0.99999998245E-14  0.12500000000E+03  0.12500000000E+03 0.  0.
        -13    1    3    3    0    0 -0.26926560465E+02  0.20066272261E+02  0.37419246351E+02  0.50278286590E+02  0.10566000000E+00 0.  1.
         23    2    1    0    0    0  0.14265664846E+02  0.17579136341E+02  0.18891320552E+02  0.95514118291E+02  0.90848938203E+02 0.  0.
         13    1    3    3    0    0  0.41192225311E+02 -0.24871359207E+01 -0.18527925800E+02  0.45235831700E+02  0.10566000000E+00 0. -1.
         22    1    1    0    0    0 -0.14265664846E+02 -0.17579136341E+02 -0.18891320552E+02  0.29485881709E+02  0.00000000000E+00 0. -1.
</event>
<event>
 5    1  0.8943334E-005  0.9118800E+02  0.7818608E-02  0.1130116E+00
         25   -1    0    0    0    0  0.00000000000E+00  0.00000000000E+00  0.99999998245E-14  0.12500000000E+03  0.12500000000E+03 0.  0.
        -13    1    3    3    0    0 -0.40371593359E+02  0.22806854085E+02  0.38416654472E+02  0.60215186194E+02  0.10566000000E+00 0.  1.
         23    2    1    0    0    0 -0.13238404087E+02  0.39001566871E+01  0.26045034420E+02  0.95524410390E+02  0.90863098106E+02 0.  0.
         13    1    3    3    0    0  0.27133189272E+02 -0.18906697397E+02 -0.12371620052E+02  0.35309224196E+02  0.10566000000E+00 0. -1.
         22    1    1    0    0    0  0.13238404087E+02 -0.39001566871E+01 -0.26045034420E+02  0.29475589610E+02  0.00000000000E+00 0.  1.
</event>
<event>
 5    1  0.8943334E-005  0.9118800E+02  0.7818608E-02  0.1130116E+00
         25   -1    0    0    0    0  0.00000000000E+00  0.00000000000E+00  0.99999998245E-14  0.12500000000E+03  0.12500000000E+03 0.  0.
        -13    1    3    3    0    0 -0.26513345784E+02  0.10763239323E+02  0.52163600130E+02  0.59496698799E+02  0.10566000000E+00 0. -1.
         23    2    1    0    0    0 -0.14549700469E+02 -0.81585701575E+01  0.16992371965E+02  0.10118830632E+03  0.98346716167E+02 0.  0.
         13    1    3    3    0    0  0.11963645315E+02 -0.18921809481E+02 -0.35171228166E+02  0.41691607524E+02  0.10566000000E+00 0.  1.
         22    1    1    0    0    0  0.14549700469E+02  0.81585701575E+01 -0.16992371965E+02  0.23811693677E+02  0.00000000000E+00 0. -1.
</event>
<event>
 5    1  0.8943334E-005  0.9118800E+02  0.7818608E-02  0.1130116E+00
         25   -1    0    0    0    0  0.00000000000E+00  0.00000000000E+00  0.99999998245E-14  0.12500000000E+03  0.12500000000E+03 0.  0.
        -13    1    3    3    0    0 -0.18137474321E+02  0.12136894769E+02 -0.31380602281E+02  0.38223363967E+02  0.10566000000E+00 0.  1.
         23    2    1    0    0    0  0.14617999291E+02 -0.25904495231E+02 -0.53254337354E+01  0.94782637095E+02  0.89836848084E+02 0.  0.
         13    1    3    3    0    0  0.32755473613E+02 -0.38041390000E+02  0.26055168546E+02  0.56559273128E+02  0.10566000000E+00 0. -1.
         22    1    1    0    0    0 -0.14617999291E+02  0.25904495231E+02  0.53254337354E+01  0.30217362905E+02  0.00000000000E+00 0. -1.
</event>
<event>
 5    1  0.8943334E-005  0.9118800E+02  0.7818608E-02  0.1130116E+00
         25   -1    0    0    0    0  0.00000000000E+00  0.00000000000E+00  0.99999998245E-14  0.12500000000E+03  0.12500000000E+03 0.  0.
        -13    1    3    3    0    0 -0.33745161046E+02  0.18077552413E+02 -0.39524332708E+01  0.38485928442E+02  0.10566000000E+00 0.  1.
         23    2    1    0    0    0  0.22565475959E+02  0.13633939813E+02 -0.12854230780E+02  0.95668851556E+02  0.91061588438E+02 0.  0.
         13    1    3    3    0    0  0.56310637005E+02 -0.44436125992E+01 -0.89017975093E+01  0.57182923114E+02  0.10566000000E+00 0. -1.
         22    1    1    0    0    0 -0.22565475959E+02 -0.13633939813E+02  0.12854230780E+02  0.29331148444E+02  0.00000000000E+00 0. -1.
</event>
<event>
 5    1  0.8943334E-005  0.9118800E+02  0.7818608E-02  0.1130116E+00
         25   -1    0    0    0    0  0.00000000000E+00  0.00000000000E+00  0.99999998245E-14  0.12500000000E+03  0.12500000000E+03 0.  0.
        -13    1    3    3    0    0 -0.36084005840E+02  0.12167582325E+02 -0.29570298063E+02  0.48213268181E+02  0.10566000000E+00 0.  1.
         23    2    1    0    0    0  0.56959259441E+01 -0.75622793313E+01 -0.29077311032E+02  0.94420241042E+02  0.89331183025E+02 0.  0.
         13    1    3    3    0    0  0.41779931784E+02 -0.19729861656E+02  0.49298703120E+00  0.46206972862E+02  0.10566000000E+00 0. -1.
         22    1    1    0    0    0 -0.56959259441E+01  0.75622793313E+01  0.29077311032E+02  0.30579758958E+02  0.00000000000E+00 0.  1.
</event>
<event>
 5    1  0.8943334E-005  0.9118800E+02  0.7818608E-02  0.1130116E+00
         25   -1    0    0    0    0  0.00000000000E+00  0.00000000000E+00  0.99999998245E-14  0.12500000000E+03  0.12500000000E+03 0.  0.
        -13    1    3    3    0    0 -0.29564181963E+02 -0.24642969232E+02  0.51049626160E+01  0.38825102640E+02  0.10566000000E+00 0.  1.
         23    2    1    0    0    0  0.74956884661E+01  0.13411718186E+02  0.25090380299E+02  0.95579144917E+02  0.90938365002E+02 0.  0.
         13    1    3    3    0    0  0.37059870429E+02  0.38054687418E+02  0.19985417683E+02  0.56754042276E+02  0.10566000000E+00 0. -1.
         22    1    1    0    0    0 -0.74956884661E+01 -0.13411718186E+02 -0.25090380299E+02  0.29420855083E+02  0.00000000000E+00 0. -1.
</event>
<event>
 5    1  0.8943334E-005  0.9118800E+02  0.7818608E-02  0.1130116E+00
         25   -1    0    0    0    0  0.00000000000E+00  0.00000000000E+00  0.99999998245E-14  0.12500000000E+03  0.12500000000E+03 0.  0.
        -13    1    3    3    0    0  0.26320039836E+02  0.47025620339E+02 -0.35302275101E+00  0.53891458083E+02  0.10566000000E+00 0. -1.
         23    2    1    0    0    0  0.15533456606E+02  0.22113641775E+02  0.22855340416E+02  0.89606949662E+02  0.82320941537E+02 0.  0.
         13    1    3    3    0    0 -0.10786583230E+02 -0.24911978565E+02  0.23208363167E+02  0.35715491579E+02  0.10566000000E+00 0.  1.
         22    1    1    0    0    0 -0.15533456606E+02 -0.22113641775E+02 -0.22855340416E+02  0.35393050338E+02  0.00000000000E+00 0. -1.
</event>
<event>
 5    1  0.8943334E-005  0.9118800E+02  0.7818608E-02  0.1130116E+00
         25   -1    0    0    0    0  0.00000000000E+00  0.00000000000E+00  0.99999998245E-14  0.12500000000E+03  0.12500000000E+03 0.  0.
        -13    1    3    3    0    0  0.71148636866E+01 -0.32902454537E+02  0.14320473718E+01  0.33693541274E+02  0.10566000000E+00 0. -1.
         23    2    1    0    0    0  0.15691713722E+02  0.25698735369E+02  0.94078988650E+01  0.93453788814E+02  0.87968444363E+02 0.  0.
         13    1    3    3    0    0  0.85768500350E+01  0.58601189907E+02  0.79758514932E+01  0.59760247541E+02  0.10566000000E+00 0.  1.
         22    1    1    0    0    0 -0.15691713722E+02 -0.25698735369E+02 -0.94078988650E+01  0.31546211186E+02  0.00000000000E+00 0.  1.
</event>
<event>
 5    1  0.8943334E-005  0.9118800E+02  0.7818608E-02  0.1130116E+00
         25   -1    0    0    0    0  0.00000000000E+00  0.00000000000E+00  0.99999998245E-14  0.12500000000E+03  0.12500000000E+03 0.  0.
        -13    1    3    3    0    0 -0.21245901157E+02  0.16295556089E+02 -0.35299828121E+02  0.44306009678E+02  0.10566000000E+00 0. -1.
         23    2    1    0    0    0  0.32283452397E+01 -0.12935876169E+02  0.13362096819E+02  0.10612396396E+03  0.10443175278E+03 0.  0.
         13    1    3    3    0    0  0.24474246396E+02 -0.29231432259E+02  0.48661924939E+02  0.61817954280E+02  0.10566000000E+00 0.  1.
         22    1    1    0    0    0 -0.32283452397E+01  0.12935876169E+02 -0.13362096819E+02  0.18876036042E+02  0.00000000000E+00 0.  1.
</event>
<event>
 5    1  0.8943334E-005  0.9118800E+02  0.7818608E-02  0.1130116E+00
         25   -1    0    0    0    0  0.00000000000E+00  0.00000000000E+00  0.99999998245E-14  0.12500000000E+03  0.12500000000E+03 0.  0.
        -13    1    3    3    0    0 -0.75485917556E+01  0.28747679122E+02 -0.36567159518E+02  0.47123015732E+02  0.10566000000E+00 0.  1.
         23    2    1    0    0    0  0.13353990062E+02 -0.12612238607E+02 -0.23307288474E+02  0.95324634640E+02  0.90587850509E+02 0.  0.
         13    1    3    3    0    0  0.20902581817E+02 -0.41359917729E+02  0.13259871044E+02  0.48201618908E+02  0.10566000000E+00 0. -1.
         22    1    1    0    0    0 -0.13353990062E+02  0.12612238607E+02  0.23307288474E+02  0.29675365360E+02  0.00000000000E+00 0.  1.
</event>
<event>
 5    1  0.8943334E-005  0.9118800E+02  0.7818608E-02  0.1130116E+00
         25   -1    0    0    0    0  0.00000000000E+00  0.00000000000E+00  0.99999998245E-14  0.12500000000E+03  0.12500000000E+03 0.  0.
        -13    1    3    3    0    0  0.51541212125E+02  0.32454324872E+02 -0.35769638388E+01  0.61012995210E+02  0.10566000000E+00 0. -1.
         23    2    1    0    0    0  0.19772702925E+02  0.22988163741E+02  0.19319511237E+01  0.94616651134E+02  0.89605595716E+02 0.  0.
         13    1    3    3    0    0 -0.31768509200E+02 -0.94661611308E+01  0.55089149625E+01  0.33603655924E+02  0.10566000000E+00 0.  1.
         22    1    1    0    0    0 -0.19772702925E+02 -0.22988163741E+02 -0.19319511237E+01  0.30383348866E+02  0.00000000000E+00 0. -1.
</event>
<event>
 5    1  0.8943334E-005  0.9118800E+02  0.7818608E-02  0.1130116E+00
         25   -1    0    0    0    0  0.00000000000E+00  0.00000000000E+00  0.99999998245E-14  0.12500000000E+03  0.12500000000E+03 0.  0.
        -13    1    3    3    0    0  0.40103716057E+02 -0.21947895293E+02  0.13523387894E+01  0.45736835632E+02  0.10566000000E+00 0.  1.
         23    2    1    0    0    0 -0.52310732959E+01 -0.16844622744E+02  0.22821149846E+02  0.96157144324E+02  0.91729417752E+02 0.  0.
         13    1    3    3    0    0 -0.45334789353E+02  0.51032725492E+01  0.21468811057E+02  0.50420308692E+02  0.10566000000E+00 0. -1.
         22    1    1    0    0    0  0.52310732959E+01  0.16844622744E+02 -0.22821149846E+02  0.28842855676E+02  0.00000000000E+00 0. -1.
</event>
<event>
 5    1  0.8943334E-005  0.9118800E+02  0.7818608E-02  0.1130116E+00
         25   -1    0    0    0    0  0.00000000000E+00  0.00000000000E+00  0.99999998245E-14  0.12500000000E+03  0.12500000000E+03 0.  0.
        -13    1    3    3    0    0 -0.34069114432E+02  0.28989953327E+02  0.91184133583E+01  0.45653899925E+02  0.10566000000E+00 0.  1.
         23    2    1    0    0    0 -0.24684871462E+01  0.54416937574E+01 -0.25927782918E+02  0.98392568955E+02  0.94726671212E+02 0.  0.
         13    1    3    3    0    0  0.31600627286E+02 -0.23548259570E+02 -0.35046196276E+02  0.52738669031E+02  0.10566000000E+00 0. -1.
         22    1    1    0    0    0  0.24684871462E+01 -0.54416937574E+01  0.25927782918E+02  0.26607431045E+02  0.00000000000E+00 0.  1.
</event>
<event>
 5    1  0.8943334E-005  0.9118800E+02  0.7818608E-02  0.1130116E+00
         25   -1    0    0    0    0  0.00000000000E+00  0.00000000000E+00  0.99999998245E-14  0.12500000000E+03  0.12500000000E+03 0.  0.
        -13    1    3    3    0    0  0.32505190135E+02 -0.44188220377E+02 -0.25356407405E+02  0.60432977473E+02  0.10566000000E+00 0.  1.
         23    2    1    0    0    0  0.81545626801E+01 -0.22829353444E+02 -0.20632440647E+02  0.93166466136E+02  0.87559217299E+02 0.  0.
         13    1    3    3    0    0 -0.24350627455E+02  0.21358866932E+02  0.47239667581E+01  0.32733488663E+02  0.10566000000E+00 0. -1.
         22    1    1    0    0    0 -0.81545626801E+01  0.22829353444E+02  0.20632440647E+02  0.31833533864E+02  0.00000000000E+00 0.  1.
</event>
<event>
 5    1  0.8943334E-005  0.9118800E+02  0.7818608E-02  0.1130116E+00
         25   -1    0    0    0    0  0.00000000000E+00  0.00000000000E+00  0.99999998245E-14  0.12500000000E+03  0.12500000000E+03 0.  0.
        -13    1    3    3    0    0 -0.70618151886E+01  0.27667432192E+02 -0.33186533673E+02  0.43780283452E+02  0.10566000000E+00 0.  1.
         23    2    1    0    0    0  0.59307655952E+01  0.23703409450E+02  0.16648227956E+02  0.95433311072E+02  0.90737686591E+02 0.  0.
         13    1    3    3    0    0  0.12992580784E+02 -0.39640227417E+01  0.49834761629E+02  0.51653027620E+02  0.10566000000E+00 0. -1.
         22    1    1    0    0    0 -0.59307655952E+01 -0.23703409450E+02 -0.16648227956E+02  0.29566688928E+02  0.00000000000E+00 0.  1.
</event>
<event>
 5    1  0.8943334E-005  0.9118800E+02  0.7818608E-02  0.1130116E+00
         25   -1    0    0    0    0  0.00000000000E+00  0.00000000000E+00  0.99999998245E-14  0.12500000000E+03  0.12500000000E+03 0.  0.
        -13    1    3    3    0    0  0.34223849842E+02  0.15274090278E+02 -0.24101135697E+02  0.44558339710E+02  0.10566000000E+00 0. -1.
         23    2    1    0    0    0 -0.13770149473E+02  0.20569106793E+02 -0.20290152011E+02  0.92993821856E+02  0.87312401548E+02 0.  0.
         13    1    3    3    0    0 -0.47993999314E+02  0.52950165143E+01  0.38109836859E+01  0.48435482146E+02  0.10566000000E+00 0.  1.
         22    1    1    0    0    0  0.13770149473E+02 -0.20569106793E+02  0.20290152011E+02  0.32006178144E+02  0.00000000000E+00 0.  1.
</event>
<event>
 5    1  0.8943334E-005  0.9118800E+02  0.7818608E-02  0.1130116E+00
         25   -1    0    0    0    0  0.00000000000E+00  0.00000000000E+00  0.99999998245E-14  0.12500000000E+03  0.12500000000E+03 0.  0.
        -13    1    3    3    0    0 -0.31583301343E+02 -0.79489611595E+01 -0.48848919337E+02  0.58710467480E+02  0.10566000000E+00 0.  1.
         23    2    1    0    0    0 -0.18462782207E+02 -0.17847903131E+02 -0.18079166259E+02  0.93594933122E+02  0.88168777242E+02 0.  0.
         13    1    3    3    0    0  0.13120519136E+02 -0.98989419715E+01  0.30769753078E+02  0.34884465641E+02  0.10566000000E+00 0. -1.
         22    1    1    0    0    0  0.18462782207E+02  0.17847903131E+02  0.18079166259E+02  0.31405066878E+02  0.00000000000E+00 0. -1.
</event>
<event>
 5    1  0.8943334E-005  0.9118800E+02  0.7818608E-02  0.1130116E+00
         25   -1    0    0    0    0  0.00000000000E+00  0.00000000000E+00  0.99999998245E-14  0.12500000000E+03  0.12500000000E+03 0.  0.
        -13    1    3    3    0    0 -0.28102965705E+02 -0.28815790196E+02 -0.21840204948E+02  0.45794455584E+02  0.10566000000E+00 0.  1.
         23    2    1    0    0    0  0.56553772872E+01  0.46963877755E+01 -0.30048513943E+02  0.94065350485E+02  0.88833201121E+02 0.  0.
         13    1    3    3    0    0  0.33758342992E+02  0.33512177972E+02 -0.82083089952E+01  0.48270894901E+02  0.10566000000E+00 0. -1.
         22    1    1    0    0    0 -0.56553772872E+01 -0.46963877755E+01  0.30048513943E+02  0.30934649515E+02  0.00000000000E+00 0. -1.
</event>
<event>
 5    1  0.8943334E-005  0.9118800E+02  0.7818608E-02  0.1130116E+00
         25   -1    0    0    0    0  0.00000000000E+00  0.00000000000E+00  0.99999998245E-14  0.12500000000E+03  0.12500000000E+03 0.  0.
        -13    1    3    3    0    0 -0.75109822182E+01  0.49979362566E+01 -0.37299332766E+02  0.38375064945E+02  0.10566000000E+00 0.  1.
         23    2    1    0    0    0 -0.24983438520E+02 -0.23549654784E+01  0.16198177428E+02  0.95131973371E+02  0.90321610608E+02 0.  0.
         13    1    3    3    0    0 -0.17472456302E+02 -0.73529017350E+01  0.53497510194E+02  0.56756908427E+02  0.10566000000E+00 0. -1.
         22    1    1    0    0    0  0.24983438520E+02  0.23549654784E+01 -0.16198177428E+02  0.29868026629E+02  0.00000000000E+00 0. -1.
</event>
<event>
 5    1  0.8943334E-005  0.9118800E+02  0.7818608E-02  0.1130116E+00
         25   -1    0    0    0    0  0.00000000000E+00  0.00000000000E+00  0.99999998245E-14  0.12500000000E+03  0.12500000000E+03 0.  0.
        -13    1    3    3    0    0  0.17406722931E+02  0.26860990147E+02 -0.28735001676E+02  0.43014163716E+02  0.10566000000E+00 0.  1.
         23    2    1    0    0    0  0.16861191605E+02 -0.22046719864E+02 -0.82213693657E+01  0.96052658959E+02  0.91586924502E+02 0.  0.
         13    1    3    3    0    0 -0.54553132598E+00 -0.48907710012E+02  0.20513632310E+02  0.53038495243E+02  0.10566000000E+00 0. -1.
         22    1    1    0    0    0 -0.16861191605E+02  0.22046719864E+02  0.82213693657E+01  0.28947341041E+02  0.00000000000E+00 0. -1.
</event>
<event>
 5    1  0.8943334E-005  0.9118800E+02  0.7818608E-02  0.1130116E+00
         25   -1    0    0    0    0  0.00000000000E+00  0.00000000000E+00  0.99999998245E-14  0.12500000000E+03  0.12500000000E+03 0.  0.
        -13    1    3    3    0    0 -0.99544493298E+01  0.45827013658E+02 -0.28661254794E+02  0.54960758116E+02  0.10566000000E+00 0. -1.
         23    2    1    0    0    0 -0.13892165566E+02  0.19318937892E+02  0.75730669799E+01  0.10002871712E+03  0.96861650198E+02 0.  0.
         13    1    3    3    0    0 -0.39377162358E+01 -0.26508075766E+02  0.36234321774E+02  0.45067959000E+02  0.10566000000E+00 0.  1.
         22    1    1    0    0    0  0.13892165566E+02 -0.19318937892E+02 -0.75730669799E+01  0.24971282884E+02  0.00000000000E+00 0. -1.
</event>
<event>
 5    1  0.8943334E-005  0.9118800E+02  0.7818608E-02  0.1130116E+00
         25   -1    0    0    0    0  0.00000000000E+00  0.00000000000E+00  0.99999998245E-14  0.12500000000E+03  0.12500000000E+03 0.  0.
        -13    1    3    3    0    0  0.16233914839E+02  0.20114822777E+02  0.18039742200E+02  0.31521255512E+02  0.10566000000E+00 0.  1.
         23    2    1    0    0    0  0.15034927762E+02  0.26243012576E+02 -0.31428634113E+02  0.81382299417E+02  0.68706439686E+02 0.  0.
         13    1    3    3    0    0 -0.11989870769E+01  0.61281897998E+01 -0.49468376313E+02  0.49861043906E+02  0.10566000000E+00 0. -1.
         22    1    1    0    0    0 -0.15034927762E+02 -0.26243012576E+02  0.31428634113E+02  0.43617700583E+02  0.00000000000E+00 0.  1.
</event>
<event>
 5    1  0.8943334E-005  0.9118800E+02  0.7818608E-02  0.1130116E+00
         25   -1    0    0    0    0  0.00000000000E+00  0.00000000000E+00  0.99999998245E-14  0.12500000000E+03  0.12500000000E+03 0.  0.
        -13    1    3    3    0    0  0.37683669029E+01 -0.22487603975E+01  0.55145142422E+02  0.55319575281E+02  0.10566000000E+00 0. -1.
         23    2    1    0    0    0  0.21328845968E+02 -0.51904905150E+01  0.17630940046E+02  0.96844877748E+02  0.92661855351E+02 0.  0.
         13    1    3    3    0    0  0.17560479065E+02 -0.29417301175E+01 -0.37514202376E+02  0.41525302467E+02  0.10566000000E+00 0.  1.
         22    1    1    0    0    0 -0.21328845968E+02  0.51904905150E+01 -0.17630940046E+02  0.28155122252E+02  0.00000000000E+00 0. -1.
</event>
<event>
 5    1  0.8943334E-005  0.9118800E+02  0.7818608E-02  0.1130116E+00
         25   -1    0    0    0    0  0.00000000000E+00  0.00000000000E+00  0.99999998245E-14  0.12500000000E+03  0.12500000000E+03 0.  0.
        -13    1    3    3    0    0  0.23760655120E+02 -0.32370227026E+02 -0.17144900369E+02  0.43661872408E+02  0.10566000000E+00 0.  1.
         23    2    1    0    0    0  0.18671609531E+02  0.17445136450E+02  0.58839771725E+01  0.98778196561E+02  0.95234180524E+02 0.  0.
         13    1    3    3    0    0 -0.50890455889E+01  0.49815363476E+02  0.23028877542E+02  0.55116324153E+02  0.10566000000E+00 0. -1.
         22    1    1    0    0    0 -0.18671609531E+02 -0.17445136450E+02 -0.58839771725E+01  0.26221803439E+02  0.00000000000E+00 0. -1.
</event>
<event>
 5    1  0.8943334E-005  0.9118800E+02  0.7818608E-02  0.1130116E+00
         25   -1    0    0    0    0  0.00000000000E+00  0.00000000000E+00  0.99999998245E-14  0.12500000000E+03  0.12500000000E+03 0.  0.
        -13    1    3    3    0    0  0.46605348150E+02 -0.22103074571E+02  0.26284272855E+02  0.57891955790E+02  0.10566000000E+00 0.  1.
         23    2    1    0    0    0  0.11688453644E+02 -0.24073816293E+02  0.10725154893E+02  0.96169503525E+02  0.91746258132E+02 0.  0.
         13    1    3    3    0    0 -0.34916894505E+02 -0.19707417217E+01 -0.15559117961E+02  0.38277547735E+02  0.10566000000E+00 0. -1.
         22    1    1    0    0    0 -0.11688453644E+02  0.24073816293E+02 -0.10725154893E+02  0.28830496475E+02  0.00000000000E+00 0. -1.
</event>
<event>
 5    1  0.8943334E-005  0.9118800E+02  0.7818608E-02  0.1130116E+00
         25   -1    0    0    0    0  0.00000000000E+00  0.00000000000E+00  0.99999998245E-14  0.12500000000E+03  0.12500000000E+03 0.  0.
        -13    1    3    3    0    0  0.36049486178E+02  0.26703427267E+02 -0.34607600977E+02  0.56659824311E+02  0.10566000000E+00 0. -1.
         23    2    1    0    0    0  0.23775594999E+01  0.71501632082E+01 -0.27811135548E+02  0.96186168537E+02  0.91768960626E+02 0.  0.
         13    1    3    3    0    0 -0.33671926678E+02 -0.19553264059E+02  0.67964654289E+01  0.39526344226E+02  0.10566000000E+00 0.  1.
         22    1    1    0    0    0 -0.23775594999E+01 -0.71501632082E+01  0.27811135548E+02  0.28813831463E+02  0.00000000000E+00 0. -1.
</event>
<event>
 5    1  0.8943334E-005  0.9118800E+02  0.7818608E-02  0.1130116E+00
         25   -1    0    0    0    0  0.00000000000E+00  0.00000000000E+00  0.99999998245E-14  0.12500000000E+03  0.12500000000E+03 0.  0.
        -13    1    3    3    0    0 -0.33813046530E+02  0.23843013019E+02 -0.33999092741E+02  0.53551478567E+02  0.10566000000E+00 0.  1.
         23    2    1    0    0    0  0.55301226149E+01  0.77813602204E+01 -0.26668113391E+02  0.96674744576E+02  0.92432062316E+02 0.  0.
         13    1    3    3    0    0  0.39343169145E+02 -0.16061652799E+02  0.73309793495E+01  0.43123266009E+02  0.10566000000E+00 0. -1.
         22    1    1    0    0    0 -0.55301226149E+01 -0.77813602204E+01  0.26668113391E+02  0.28325255424E+02  0.00000000000E+00 0.  1.
</event>
<event>
 5    1  0.8943334E-005  0.9118800E+02  0.7818608E-02  0.1130116E+00
         25   -1    0    0    0    0  0.00000000000E+00  0.00000000000E+00  0.99999998245E-14  0.12500000000E+03  0.12500000000E+03 0.  0.
        -13    1    3    3    0    0 -0.34023501407E+02 -0.29158980427E+02  0.27752597431E+02  0.52707329811E+02  0.10566000000E+00 0. -1.
         23    2    1    0    0    0 -0.15968596679E+02  0.10904191453E+02  0.19724599026E+02  0.97378318700E+02  0.93378689619E+02 0.  0.
         13    1    3    3    0    0  0.18054904729E+02  0.40063171880E+02 -0.80279984048E+01  0.44670988889E+02  0.10566000000E+00 0.  1.
         22    1    1    0    0    0  0.15968596679E+02 -0.10904191453E+02 -0.19724599026E+02  0.27621681300E+02  0.00000000000E+00 0. -1.
</event>
<event>
 5    1  0.8943334E-005  0.9118800E+02  0.7818608E-02  0.1130116E+00
         25   -1    0    0    0    0  0.00000000000E+00  0.00000000000E+00  0.99999998245E-14  0.12500000000E+03  0.12500000000E+03 0.  0.
        -13    1    3    3    0    0  0.11146143468E+02  0.46430272247E+02 -0.30219848346E+02  0.56508911627E+02  0.10566000000E+00 0.  1.
         23    2    1    0    0    0  0.18246925512E+02  0.20623371003E+02  0.76339374133E+00  0.97452649997E+02  0.93478139151E+02 0.  0.
         13    1    3    3    0    0  0.71007820442E+01 -0.25806901243E+02  0.30983242088E+02  0.40943738370E+02  0.10566000000E+00 0. -1.
         22    1    1    0    0    0 -0.18246925512E+02 -0.20623371003E+02 -0.76339374133E+00  0.27547350003E+02  0.00000000000E+00 0. -1.
</event>
<event>
 5    1  0.8943334E-005  0.9118800E+02  0.7818608E-02  0.1130116E+00
         25   -1    0    0    0    0  0.00000000000E+00  0.00000000000E+00  0.99999998245E-14  0.12500000000E+03  0.12500000000E+03 0.  0.
        -13    1    3    3    0    0  0.12423349320E+02  0.47872356303E+02  0.42287160823E+01  0.49638647343E+02  0.10566000000E+00 0.  1.
         23    2    1    0    0    0 -0.41975435431E+01  0.26332896382E+02 -0.24201516366E+02  0.88989526550E+02  0.81378016918E+02 0.  0.
         13    1    3    3    0    0 -0.16620892863E+02 -0.21539459921E+02 -0.28430232449E+02  0.39350879207E+02  0.10566000000E+00 0. -1.
         22    1    1    0    0    0  0.41975435431E+01 -0.26332896382E+02  0.24201516366E+02  0.36010473450E+02  0.00000000000E+00 0.  1.
</event>
<event>
 5    1  0.8943334E-005  0.9118800E+02  0.7818608E-02  0.1130116E+00
         25   -1    0    0    0    0  0.00000000000E+00  0.00000000000E+00  0.99999998245E-14  0.12500000000E+03  0.12500000000E+03 0.  0.
        -13    1    3    3    0    0 -0.20196208515E+02  0.99131701960E+01 -0.16484063192E+02  0.27890738339E+02  0.10566000000E+00 0. -1.
         23    2    1    0    0    0  0.16899376097E+01 -0.15710916152E+02  0.33376961931E+02  0.88071550761E+02  0.79955535707E+02 0.  0.
         13    1    3    3    0    0  0.21886146125E+02 -0.25624086348E+02  0.49861025124E+02  0.60180812422E+02  0.10566000000E+00 0.  1.
         22    1    1    0    0    0 -0.16899376097E+01  0.15710916152E+02 -0.33376961931E+02  0.36928449239E+02  0.00000000000E+00 0.  1.
</event>
<event>
 5    1  0.8943334E-005  0.9118800E+02  0.7818608E-02  0.1130116E+00
         25   -1    0    0    0    0  0.00000000000E+00  0.00000000000E+00  0.99999998245E-14  0.12500000000E+03  0.12500000000E+03 0.  0.
        -13    1    3    3    0    0 -0.14922505561E+02  0.27268056127E+01 -0.44260783708E+02  0.46788297464E+02  0.10566000000E+00 0.  1.
         23    2    1    0    0    0  0.24546056072E+02 -0.24738121648E+01 -0.16586244465E+02  0.95272367724E+02  0.90515699914E+02 0.  0.
         13    1    3    3    0    0  0.39468561632E+02 -0.52006177774E+01  0.27674539243E+02  0.48484070260E+02  0.10566000000E+00 0. -1.
         22    1    1    0    0    0 -0.24546056072E+02  0.24738121648E+01  0.16586244465E+02  0.29727632276E+02  0.00000000000E+00 0. -1.
</event>
<event>
 5    1  0.8943334E-005  0.9118800E+02  0.7818608E-02  0.1130116E+00
         25   -1    0    0    0    0  0.00000000000E+00  0.00000000000E+00  0.99999998245E-14  0.12500000000E+03  0.12500000000E+03 0.  0.
        -13    1    3    3    0    0  0.35508406940E+02 -0.13126002261E+02 -0.46112650719E+02  0.59661768488E+02  0.10566000000E+00 0.  1.
         23    2    1    0    0    0  0.25071401550E+02 -0.37745640456E+00 -0.12751802887E+02  0.96869480526E+02  0.92695038332E+02 0.  0.
         13    1    3    3    0    0 -0.10437005390E+02  0.12748545857E+02  0.33360847832E+02  0.37207712038E+02  0.10566000000E+00 0. -1.
         22    1    1    0    0    0 -0.25071401550E+02  0.37745640456E+00  0.12751802887E+02  0.28130519474E+02  0.00000000000E+00 0.  1.
</event>
<event>
 5    1  0.8943334E-005  0.9118800E+02  0.7818608E-02  0.1130116E+00
         25   -1    0    0    0    0  0.00000000000E+00  0.00000000000E+00  0.99999998245E-14  0.12500000000E+03  0.12500000000E+03 0.  0.
        -13    1    3    3    0    0 -0.19518486091E+02  0.23552342720E+02 -0.51464230968E+02  0.59868709524E+02  0.10566000000E+00 0.  1.
         23    2    1    0    0    0 -0.19985797486E+02  0.52344892209E+01 -0.20208030769E+02  0.96100233805E+02  0.91651832776E+02 0.  0.
         13    1    3    3    0    0 -0.46731139500E+00 -0.18317853499E+02  0.31256200199E+02  0.36231524281E+02  0.10566000000E+00 0. -1.
         22    1    1    0    0    0  0.19985797486E+02 -0.52344892209E+01  0.20208030769E+02  0.28899766195E+02  0.00000000000E+00 0.  1.
</event>
<event>
 5    1  0.8943334E-005  0.9118800E+02  0.7818608E-02  0.1130116E+00
         25   -1    0    0    0    0  0.00000000000E+00  0.00000000000E+00  0.99999998245E-14  0.12500000000E+03  0.12500000000E+03 0.  0.
        -13    1    3    3    0    0 -0.17653171136E+02 -0.43465910667E+02  0.16295641283E+02  0.49663658042E+02  0.10566000000E+00 0.  1.
         23    2    1    0    0    0 -0.28426074088E+02  0.33849789869E+00  0.70396407981E+01  0.95713265606E+02  0.91122535091E+02 0.  0.
         13    1    3    3    0    0 -0.10772902952E+02  0.43804408565E+02 -0.92560004849E+01  0.46049607564E+02  0.10566000000E+00 0. -1.
         22    1    1    0    0    0  0.28426074088E+02 -0.33849789869E+00 -0.70396407981E+01  0.29286734394E+02  0.00000000000E+00 0. -1.
</event>
<event>
 5    1  0.8943334E-005  0.9118800E+02  0.7818608E-02  0.1130116E+00
         25   -1    0    0    0    0  0.00000000000E+00  0.00000000000E+00  0.99999998245E-14  0.12500000000E+03  0.12500000000E+03 0.  0.
        -13    1    3    3    0    0 -0.47145423296E+02  0.88946693572E+01  0.28556731159E+02  0.55832823135E+02  0.10566000000E+00 0. -1.
         23    2    1    0    0    0 -0.17359248237E+02  0.22589712170E+02  0.53155111930E+01  0.96019088100E+02  0.91541094734E+02 0.  0.
         13    1    3    3    0    0  0.29786175059E+02  0.13695042813E+02 -0.23241219966E+02  0.40186264965E+02  0.10566000000E+00 0.  1.
         22    1    1    0    0    0  0.17359248237E+02 -0.22589712170E+02 -0.53155111930E+01  0.28980911900E+02  0.00000000000E+00 0. -1.
</event>
<event>
 5    1  0.8943334E-005  0.9118800E+02  0.7818608E-02  0.1130116E+00
         25   -1    0    0    0    0  0.00000000000E+00  0.00000000000E+00  0.99999998245E-14  0.12500000000E+03  0.12500000000E+03 0.  0.
        -13    1    3    3    0    0 -0.24923361401E+02  0.28123829987E+02 -0.14392771955E+01  0.37605936228E+02  0.10566000000E+00 0.  1.
         23    2    1    0    0    0 -0.52235786883E+01 -0.26448459950E+02 -0.99846982331E+01  0.96251069466E+02  0.91857320702E+02 0.  0.
         13    1    3    3    0    0  0.19699782712E+02 -0.54572289937E+02 -0.85454210376E+01  0.58645133239E+02  0.10566000000E+00 0. -1.
         22    1    1    0    0    0  0.52235786883E+01  0.26448459950E+02  0.99846982331E+01  0.28748930534E+02  0.00000000000E+00 0. -1.
</event>
<event>
 5    1  0.8943334E-005  0.9118800E+02  0.7818608E-02  0.1130116E+00
         25   -1    0    0    0    0  0.00000000000E+00  0.00000000000E+00  0.99999998245E-14  0.12500000000E+03  0.12500000000E+03 0.  0.
        -13    1    3    3    0    0 -0.29448125629E+02 -0.37142649961E+02  0.14962629282E+02  0.49705733958E+02  0.10566000000E+00 0. -1.
         23    2    1    0    0    0 -0.14249468165E+02  0.52613802826E+01  0.24898182633E+02  0.95834113010E+02  0.91288160528E+02 0.  0.
         13    1    3    3    0    0  0.15198657464E+02  0.42404030244E+02  0.99355533506E+01  0.46128379053E+02  0.10566000000E+00 0.  1.
         22    1    1    0    0    0  0.14249468165E+02 -0.52613802826E+01 -0.24898182633E+02  0.29165886990E+02  0.00000000000E+00 0. -1.
</event>
<event>
 5    1  0.8943334E-005  0.9118800E+02  0.7818608E-02  0.1130116E+00
         25   -1    0    0    0    0  0.00000000000E+00  0.00000000000E+00  0.99999998245E-14  0.12500000000E+03  0.12500000000E+03 0.  0.
        -13    1    3    3    0    0 -0.32350341527E+02 -0.17026614944E+02  0.45767909574E+02  0.58576129304E+02  0.10566000000E+00 0. -1.
         23    2    1    0    0    0 -0.23814665228E+02 -0.14338754275E+02  0.99822963796E+01  0.95463845966E+02  0.90779741636E+02 0.  0.
         13    1    3    3    0    0  0.85356762991E+01  0.26878606689E+01 -0.35785613194E+02  0.36887716663E+02  0.10566000000E+00 0.  1.
         22    1    1    0    0    0  0.23814665228E+02  0.14338754275E+02 -0.99822963796E+01  0.29536154034E+02  0.00000000000E+00 0. -1.
</event>
<event>
 5    1  0.8943334E-005  0.9118800E+02  0.7818608E-02  0.1130116E+00
         25   -1    0    0    0    0  0.00000000000E+00  0.00000000000E+00  0.99999998245E-14  0.12500000000E+03  0.12500000000E+03 0.  0.
        -13    1    3    3    0    0  0.34187668120E+02 -0.33940301979E+02  0.30467192579E+01  0.48270429998E+02  0.10566000000E+00 0.  1.
         23    2    1    0    0    0  0.16515642310E+02  0.46368218181E+01  0.23924673024E+02  0.95560969160E+02  0.90913377948E+02 0.  0.
         13    1    3    3    0    0 -0.17672025810E+02  0.38577123798E+02  0.20877953766E+02  0.47290539162E+02  0.10566000000E+00 0. -1.
         22    1    1    0    0    0 -0.16515642310E+02 -0.46368218181E+01 -0.23924673024E+02  0.29439030840E+02  0.00000000000E+00 0.  1.
</event>
<event>
 5    1  0.8943334E-005  0.9118800E+02  0.7818608E-02  0.1130116E+00
         25   -1    0    0    0    0  0.00000000000E+00  0.00000000000E+00  0.99999998245E-14  0.12500000000E+03  0.12500000000E+03 0.  0.
        -13    1    3    3    0    0  0.86777180361E+01  0.36509242590E+02  0.32285880948E+01  0.37665136797E+02  0.10566000000E+00 0.  1.
         23    2    1    0    0    0  0.14017072153E+02 -0.22147930449E+02  0.99860578706E+01  0.96951283688E+02  0.92805284990E+02 0.  0.
         13    1    3    3    0    0  0.53393541172E+01 -0.58657173040E+02  0.67574697758E+01  0.59286146891E+02  0.10566000000E+00 0. -1.
         22    1    1    0    0    0 -0.14017072153E+02  0.22147930449E+02 -0.99860578706E+01  0.28048716312E+02  0.00000000000E+00 0. -1.
</event>
<event>
 5    1  0.8943334E-005  0.9118800E+02  0.7818608E-02  0.1130116E+00
         25   -1    0    0    0    0  0.00000000000E+00  0.00000000000E+00  0.99999998245E-14  0.12500000000E+03  0.12500000000E+03 0.  0.
        -13    1    3    3    0    0  0.70541668297E+01 -0.24148486418E+02 -0.27253200453E+02  0.37089874156E+02  0.10566000000E+00 0.  1.
         23    2    1    0    0    0  0.63360436739E+01 -0.62091279078E+01  0.28231704953E+02  0.95407300167E+02  0.90701846959E+02 0.  0.
         13    1    3    3    0    0 -0.71812315578E+00  0.17939358511E+02  0.55484905406E+02  0.58317426011E+02  0.10566000000E+00 0. -1.
         22    1    1    0    0    0 -0.63360436739E+01  0.62091279078E+01 -0.28231704953E+02  0.29592699833E+02  0.00000000000E+00 0. -1.
</event>
<event>
 5    1  0.8943334E-005  0.9118800E+02  0.7818608E-02  0.1130116E+00
         25   -1    0    0    0    0  0.00000000000E+00  0.00000000000E+00  0.99999998245E-14  0.12500000000E+03  0.12500000000E+03 0.  0.
        -13    1    3    3    0    0  0.41680938239E+02  0.21964020062E+02  0.38591254453E+02  0.60901682030E+02  0.10566000000E+00 0. -1.
         23    2    1    0    0    0  0.12446677945E+02  0.17688966629E+02  0.15883007987E+02  0.98165520780E+02  0.94426586272E+02 0.  0.
         13    1    3    3    0    0 -0.29234260294E+02 -0.42750534333E+01 -0.22708246466E+02  0.37263838750E+02  0.10566000000E+00 0.  1.
         22    1    1    0    0    0 -0.12446677945E+02 -0.17688966629E+02 -0.15883007987E+02  0.26834479220E+02  0.00000000000E+00 0. -1.
</event>
<event>
 5    1  0.8943334E-005  0.9118800E+02  0.7818608E-02  0.1130116E+00
         25   -1    0    0    0    0  0.00000000000E+00  0.00000000000E+00  0.99999998245E-14  0.12500000000E+03  0.12500000000E+03 0.  0.
        -13    1    3    3    0    0 -0.35322207266E+02  0.46239172121E+02  0.18277038186E+02  0.60990004537E+02  0.10566000000E+00 0.  1.
         23    2    1    0    0    0 -0.13334594108E+02  0.25256683817E+02  0.17721550507E+02  0.91388025499E+02  0.84982388616E+02 0.  0.
         13    1    3    3    0    0  0.21987613158E+02 -0.20982488304E+02 -0.55548767870E+00  0.30398020962E+02  0.10566000000E+00 0. -1.
         22    1    1    0    0    0  0.13334594108E+02 -0.25256683817E+02 -0.17721550507E+02  0.33611974501E+02  0.00000000000E+00 0.  1.
</event>
<event>
 5    1  0.8943334E-005  0.9118800E+02  0.7818608E-02  0.1130116E+00
         25   -1    0    0    0    0  0.00000000000E+00  0.00000000000E+00  0.99999998245E-14  0.12500000000E+03  0.12500000000E+03 0.  0.
        -13    1    3    3    0    0 -0.43017152088E+02 -0.39971240550E+02  0.65544044206E+01  0.59085927480E+02  0.10566000000E+00 0. -1.
         23    2    1    0    0    0 -0.98244894844E+01 -0.25554798119E+02 -0.51937166538E+01  0.97133478989E+02  0.93050361350E+02 0.  0.
         13    1    3    3    0    0  0.33192662603E+02  0.14416442431E+02 -0.11748121074E+02  0.38047551509E+02  0.10566000000E+00 0.  1.
         22    1    1    0    0    0  0.98244894844E+01  0.25554798119E+02  0.51937166538E+01  0.27866521011E+02  0.00000000000E+00 0. -1.
</event>
<event>
 5    1  0.8943334E-005  0.9118800E+02  0.7818608E-02  0.1130116E+00
         25   -1    0    0    0    0  0.00000000000E+00  0.00000000000E+00  0.99999998245E-14  0.12500000000E+03  0.12500000000E+03 0.  0.
        -13    1    3    3    0    0  0.30368355467E+01 -0.34561735569E+02  0.31119355869E+02  0.46606452444E+02  0.10566000000E+00 0. -1.
         23    2    1    0    0    0  0.29276036875E+02 -0.35386160150E+01  0.45301314896E+01  0.95164949645E+02  0.90367236381E+02 0.  0.
         13    1    3    3    0    0  0.26239201328E+02  0.31023119554E+02 -0.26589224380E+02  0.48558497200E+02  0.10566000000E+00 0.  1.
         22    1    1    0    0    0 -0.29276036875E+02  0.35386160150E+01 -0.45301314896E+01  0.29835050355E+02  0.00000000000E+00 0.  1.
</event>
<event>
 5    1  0.8943334E-005  0.9118800E+02  0.7818608E-02  0.1130116E+00
         25   -1    0    0    0    0  0.00000000000E+00  0.00000000000E+00  0.99999998245E-14  0.12500000000E+03  0.12500000000E+03 0.  0.
        -13    1    3    3    0    0  0.10784935806E+02 -0.14966938860E+02  0.29007188999E+02  0.34376623988E+02  0.10566000000E+00 0. -1.
         23    2    1    0    0    0 -0.26148584061E+02 -0.24746122207E+01 -0.16251347406E+02  0.94113458489E+02  0.88900869637E+02 0.  0.
         13    1    3    3    0    0 -0.36933519867E+02  0.12492326639E+02 -0.45258536405E+02  0.59736834501E+02  0.10566000000E+00 0.  1.
         22    1    1    0    0    0  0.26148584061E+02  0.24746122207E+01  0.16251347406E+02  0.30886541511E+02  0.00000000000E+00 0.  1.
</event>
<event>
 5    1  0.8943334E-005  0.9118800E+02  0.7818608E-02  0.1130116E+00
         25   -1    0    0    0    0  0.00000000000E+00  0.00000000000E+00  0.99999998245E-14  0.12500000000E+03  0.12500000000E+03 0.  0.
        -13    1    3    3    0    0  0.34717301762E+02 -0.40776044822E+02  0.86905038351E+01  0.54254150937E+02  0.10566000000E+00 0. -1.
         23    2    1    0    0    0  0.27271252248E+02 -0.29662815841E+01 -0.82568700216E+01  0.96352209017E+02  0.91994849064E+02 0.  0.
         13    1    3    3    0    0 -0.74460495134E+01  0.37809763238E+02 -0.16947373857E+02  0.42098058080E+02  0.10566000000E+00 0.  1.
         22    1    1    0    0    0 -0.27271252248E+02  0.29662815841E+01  0.82568700216E+01  0.28647790983E+02  0.00000000000E+00 0. -1.
</event>
<event>
 5    1  0.8943334E-005  0.9118800E+02  0.7818608E-02  0.1130116E+00
         25   -1    0    0    0    0  0.00000000000E+00  0.00000000000E+00  0.99999998245E-14  0.12500000000E+03  0.12500000000E+03 0.  0.
        -13    1    3    3    0    0 -0.37599880664E+02 -0.26019646328E+01 -0.68231327112E+00  0.37696126609E+02  0.10566000000E+00 0.  1.
         23    2    1    0    0    0  0.13347849187E+02 -0.18086781656E+00 -0.26844341357E+02  0.95019732256E+02  0.90166141451E+02 0.  0.
         13    1    3    3    0    0  0.50947729851E+02  0.24210968162E+01 -0.26162028086E+02  0.57323605647E+02  0.10566000000E+00 0. -1.
         22    1    1    0    0    0 -0.13347849187E+02  0.18086781656E+00  0.26844341357E+02  0.29980267744E+02  0.00000000000E+00 0. -1.
</event>
<event>
 5    1  0.8943334E-005  0.9118800E+02  0.7818608E-02  0.1130116E+00
         25   -1    0    0    0    0  0.00000000000E+00  0.00000000000E+00  0.99999998245E-14  0.12500000000E+03  0.12500000000E+03 0.  0.
        -13    1    3    3    0    0  0.41033124962E+02  0.10279759136E+02  0.86116100652E+01  0.43168991000E+02  0.10566000000E+00 0.  1.
         23    2    1    0    0    0  0.51969639757E+01 -0.22078064813E+02 -0.15883232794E+02  0.97310173991E+02  0.93287424113E+02 0.  0.
         13    1    3    3    0    0 -0.35836160986E+02 -0.32357823948E+02 -0.24494842859E+02  0.54141182991E+02  0.10566000000E+00 0. -1.
         22    1    1    0    0    0 -0.51969639757E+01  0.22078064813E+02  0.15883232794E+02  0.27689826009E+02  0.00000000000E+00 0. -1.
</event>
<event>
 5    1  0.8943334E-005  0.9118800E+02  0.7818608E-02  0.1130116E+00
         25   -1    0    0    0    0  0.00000000000E+00  0.00000000000E+00  0.99999998245E-14  0.12500000000E+03  0.12500000000E+03 0.  0.
        -13    1    3    3    0    0  0.54563301745E+01 -0.24884590528E+02 -0.44832847749E+02  0.51565587227E+02  0.10566000000E+00 0. -1.
         23    2    1    0    0    0 -0.23124243588E+02 -0.89515238911E+01 -0.14005365636E+02  0.96521750614E+02  0.92224929674E+02 0.  0.
         13    1    3    3    0    0 -0.28580573763E+02  0.15933066637E+02  0.30827482113E+02  0.44956163387E+02  0.10566000000E+00 0.  1.
         22    1    1    0    0    0  0.23124243588E+02  0.89515238911E+01  0.14005365636E+02  0.28478249386E+02  0.00000000000E+00 0. -1.
</event>
<event>
 5    1  0.8943334E-005  0.9118800E+02  0.7818608E-02  0.1130116E+00
         25   -1    0    0    0    0  0.00000000000E+00  0.00000000000E+00  0.99999998245E-14  0.12500000000E+03  0.12500000000E+03 0.  0.
        -13    1    3    3    0    0 -0.15686137391E+02  0.44504767451E+01 -0.81758751420E+01  0.18240552291E+02  0.10566000000E+00 0.  1.
         23    2    1    0    0    0  0.30593589637E+02  0.20804815471E+02  0.27484076518E+02  0.78911145211E+02  0.64052996049E+02 0.  0.
         13    1    3    3    0    0  0.46279727028E+02  0.16354338725E+02  0.35659951660E+02  0.60670592921E+02  0.10566000000E+00 0. -1.
         22    1    1    0    0    0 -0.30593589637E+02 -0.20804815471E+02 -0.27484076518E+02  0.46088854789E+02  0.00000000000E+00 0. -1.
</event>
<event>
 5    1  0.8943334E-005  0.9118800E+02  0.7818608E-02  0.1130116E+00
         25   -1    0    0    0    0  0.00000000000E+00  0.00000000000E+00  0.99999998245E-14  0.12500000000E+03  0.12500000000E+03 0.  0.
        -13    1    3    3    0    0  0.32926278213E+02 -0.13774375593E+02  0.10710023056E+02  0.37263775679E+02  0.10566000000E+00 0.  1.
         23    2    1    0    0    0 -0.47713469057E+01  0.23128811218E+02 -0.16079243437E+02  0.96429915486E+02  0.92100373894E+02 0.  0.
         13    1    3    3    0    0 -0.37697625119E+02  0.36903186810E+02 -0.26789266493E+02  0.59166139807E+02  0.10566000000E+00 0. -1.
         22    1    1    0    0    0  0.47713469057E+01 -0.23128811218E+02  0.16079243437E+02  0.28570084514E+02  0.00000000000E+00 0. -1.
</event>
<event>
 5    1  0.8943334E-005  0.9118800E+02  0.7818608E-02  0.1130116E+00
         25   -1    0    0    0    0  0.00000000000E+00  0.00000000000E+00  0.99999998245E-14  0.12500000000E+03  0.12500000000E+03 0.  0.
        -13    1    3    3    0    0 -0.25854625977E+02 -0.46798546272E+02  0.14928569618E+02  0.55510710430E+02  0.10566000000E+00 0.  1.
         23    2    1    0    0    0 -0.25276703354E+02 -0.11446408885E+02 -0.60188074228E+01  0.96607077439E+02  0.92340507686E+02 0.  0.
         13    1    3    3    0    0  0.57792262305E+00  0.35352137387E+02 -0.20947377041E+02  0.41096367009E+02  0.10566000000E+00 0. -1.
         22    1    1    0    0    0  0.25276703354E+02  0.11446408885E+02  0.60188074228E+01  0.28392922561E+02  0.00000000000E+00 0.  1.
</event>
<event>
 5    1  0.8943334E-005  0.9118800E+02  0.7818608E-02  0.1130116E+00
         25   -1    0    0    0    0  0.00000000000E+00  0.00000000000E+00  0.99999998245E-14  0.12500000000E+03  0.12500000000E+03 0.  0.
        -13    1    3    3    0    0  0.49866700957E+02 -0.27142287010E+02  0.52428620582E+01  0.57016579826E+02  0.10566000000E+00 0. -1.
         23    2    1    0    0    0  0.12838965736E+02 -0.24317592645E+02 -0.78666874043E+01  0.96398092303E+02  0.92057172864E+02 0.  0.
         13    1    3    3    0    0 -0.37027735221E+02  0.28246943652E+01 -0.13109549463E+02  0.39381512477E+02  0.10566000000E+00 0.  1.
         22    1    1    0    0    0 -0.12838965736E+02  0.24317592645E+02  0.78666874043E+01  0.28601907697E+02  0.00000000000E+00 0. -1.
</event>
<event>
 5    1  0.8943334E-005  0.9118800E+02  0.7818608E-02  0.1130116E+00
         25   -1    0    0    0    0  0.00000000000E+00  0.00000000000E+00  0.99999998245E-14  0.12500000000E+03  0.12500000000E+03 0.  0.
        -13    1    3    3    0    0 -0.84965271687E+00  0.56911358970E+02 -0.10895837739E+02  0.57951316927E+02  0.10566000000E+00 0. -1.
         23    2    1    0    0    0 -0.13502401950E+02  0.21653034570E+02  0.55873660379E+01  0.98877453728E+02  0.95364371921E+02 0.  0.
         13    1    3    3    0    0 -0.12652749233E+02 -0.35258324400E+02  0.16483203777E+02  0.40926136801E+02  0.10566000000E+00 0.  1.
         22    1    1    0    0    0  0.13502401950E+02 -0.21653034570E+02 -0.55873660379E+01  0.26122546272E+02  0.00000000000E+00 0. -1.
</event>
<event>
 5    1  0.8943334E-005  0.9118800E+02  0.7818608E-02  0.1130116E+00
         25   -1    0    0    0    0  0.00000000000E+00  0.00000000000E+00  0.99999998245E-14  0.12500000000E+03  0.12500000000E+03 0.  0.
        -13    1    3    3    0    0  0.18048626031E+01 -0.27518169911E+02 -0.61323853397E+01  0.28251097647E+02  0.10566000000E+00 0.  1.
         23    2    1    0    0    0 -0.11691940525E+02  0.29232393877E+02  0.14779518384E+02  0.90219711205E+02  0.83246187908E+02 0.  0.
         13    1    3    3    0    0 -0.13496803128E+02  0.56750563788E+02  0.20911903724E+02  0.61968613558E+02  0.10566000000E+00 0. -1.
         22    1    1    0    0    0  0.11691940525E+02 -0.29232393877E+02 -0.14779518384E+02  0.34780288795E+02  0.00000000000E+00 0. -1.
</event>
<event>
 5    1  0.8943334E-005  0.9118800E+02  0.7818608E-02  0.1130116E+00
         25   -1    0    0    0    0  0.00000000000E+00  0.00000000000E+00  0.99999998245E-14  0.12500000000E+03  0.12500000000E+03 0.  0.
        -13    1    3    3    0    0 -0.59235064976E+01 -0.32227695542E+02 -0.12376079328E+02  0.35027000910E+02  0.10566000000E+00 0.  1.
         23    2    1    0    0    0  0.56972869050E+01  0.12620135330E+02  0.26234336111E+02  0.95335757468E+02  0.90603197333E+02 0.  0.
         13    1    3    3    0    0  0.11620793403E+02  0.44847830872E+02  0.38610415439E+02  0.60308756558E+02  0.10566000000E+00 0. -1.
         22    1    1    0    0    0 -0.56972869050E+01 -0.12620135330E+02 -0.26234336111E+02  0.29664242532E+02  0.00000000000E+00 0. -1.
</event>
<event>
 5    1  0.8943334E-005  0.9118800E+02  0.7818608E-02  0.1130116E+00
         25   -1    0    0    0    0  0.00000000000E+00  0.00000000000E+00  0.99999998245E-14  0.12500000000E+03  0.12500000000E+03 0.  0.
        -13    1    3    3    0    0  0.16754056943E+01  0.48965701063E+02  0.21254829789E+02  0.53406233889E+02  0.10566000000E+00 0.  1.
         23    2    1    0    0    0  0.19367326362E+02  0.10115069819E+02  0.18815772114E+02  0.96165277042E+02  0.91740499565E+02 0.  0.
         13    1    3    3    0    0  0.17691920667E+02 -0.38850631244E+02 -0.24390576753E+01  0.42759043153E+02  0.10566000000E+00 0. -1.
         22    1    1    0    0    0 -0.19367326362E+02 -0.10115069819E+02 -0.18815772114E+02  0.28834722958E+02  0.00000000000E+00 0.  1.
</event>
<event>
 5    1  0.8943334E-005  0.9118800E+02  0.7818608E-02  0.1130116E+00
         25   -1    0    0    0    0  0.00000000000E+00  0.00000000000E+00  0.99999998245E-14  0.12500000000E+03  0.12500000000E+03 0.  0.
        -13    1    3    3    0    0 -0.88298406551E+01  0.42893505814E+02 -0.10981944542E+02  0.45149011030E+02  0.10566000000E+00 0.  1.
         23    2    1    0    0    0  0.26487877218E+02  0.76952248836E+01  0.37998834020E+01  0.97156450668E+02  0.93081215435E+02 0.  0.
         13    1    3    3    0    0  0.35317717874E+02 -0.35198280931E+02  0.14781827944E+02  0.52007439638E+02  0.10566000000E+00 0. -1.
         22    1    1    0    0    0 -0.26487877218E+02 -0.76952248836E+01 -0.37998834020E+01  0.27843549332E+02  0.00000000000E+00 0. -1.
</event>
<event>
 5    1  0.8943334E-005  0.9118800E+02  0.7818608E-02  0.1130116E+00
         25   -1    0    0    0    0  0.00000000000E+00  0.00000000000E+00  0.99999998245E-14  0.12500000000E+03  0.12500000000E+03 0.  0.
        -13    1    3    3    0    0 -0.32902989990E+02 -0.26057912147E+02  0.82606044498E+01  0.42776983129E+02  0.10566000000E+00 0. -1.
         23    2    1    0    0    0 -0.23046627292E+01  0.14240141316E+02  0.25054342383E+02  0.96089566464E+02  0.91637282893E+02 0.  0.
         13    1    3    3    0    0  0.30598327260E+02  0.40298053463E+02  0.16793737933E+02  0.53312583335E+02  0.10566000000E+00 0.  1.
         22    1    1    0    0    0  0.23046627292E+01 -0.14240141316E+02 -0.25054342383E+02  0.28910433536E+02  0.00000000000E+00 0.  1.
</event>
<event>
 5    1  0.8943334E-005  0.9118800E+02  0.7818608E-02  0.1130116E+00
         25   -1    0    0    0    0  0.00000000000E+00  0.00000000000E+00  0.99999998245E-14  0.12500000000E+03  0.12500000000E+03 0.  0.
        -13    1    3    3    0    0  0.45316357424E+02  0.13444595000E+02 -0.19272573247E+02  0.51046769031E+02  0.10566000000E+00 0. -1.
         23    2    1    0    0    0 -0.30096488028E+00  0.13661058476E+02 -0.24483628563E+02  0.96961398641E+02  0.92818907881E+02 0.  0.
         13    1    3    3    0    0 -0.45617322305E+02  0.21646347619E+00 -0.52110553164E+01  0.45914629610E+02  0.10566000000E+00 0.  1.
         22    1    1    0    0    0  0.30096488028E+00 -0.13661058476E+02  0.24483628563E+02  0.28038601359E+02  0.00000000000E+00 0. -1.
</event>
<event>
 5    1  0.8943334E-005  0.9118800E+02  0.7818608E-02  0.1130116E+00
         25   -1    0    0    0    0  0.00000000000E+00  0.00000000000E+00  0.99999998245E-14  0.12500000000E+03  0.12500000000E+03 0.  0.
        -13    1    3    3    0    0  0.41393745945E+01 -0.41122857195E+02 -0.21448937956E+02  0.46564921447E+02  0.10566000000E+00 0.  1.
         23    2    1    0    0    0 -0.93920915645E+01 -0.18022778832E+02  0.20374087714E+02  0.96222658376E+02  0.91818650578E+02 0.  0.
         13    1    3    3    0    0 -0.13531466159E+02  0.23100078363E+02  0.41823025669E+02  0.49657736929E+02  0.10566000000E+00 0. -1.
         22    1    1    0    0    0  0.93920915645E+01  0.18022778832E+02 -0.20374087714E+02  0.28777341624E+02  0.00000000000E+00 0.  1.
</event>
<event>
 5    1  0.8943334E-005  0.9118800E+02  0.7818608E-02  0.1130116E+00
         25   -1    0    0    0    0  0.00000000000E+00  0.00000000000E+00  0.99999998245E-14  0.12500000000E+03  0.12500000000E+03 0.  0.
        -13    1    3    3    0    0 -0.16457123644E+02 -0.37416431432E+02 -0.83656786849E+00  0.40884437988E+02  0.10566000000E+00 0.  1.
         23    2    1    0    0    0 -0.15953073676E+01  0.10925405008E+02  0.24995463319E+02  0.97674505188E+02  0.93774337092E+02 0.  0.
         13    1    3    3    0    0  0.14861816276E+02  0.48341836440E+02  0.25832031187E+02  0.56790067201E+02  0.10566000000E+00 0. -1.
         22    1    1    0    0    0  0.15953073676E+01 -0.10925405008E+02 -0.24995463319E+02  0.27325494812E+02  0.00000000000E+00 0. -1.
</event>
<event>
 5    1  0.8943334E-005  0.9118800E+02  0.7818608E-02  0.1130116E+00
         25   -1    0    0    0    0  0.00000000000E+00  0.00000000000E+00  0.99999998245E-14  0.12500000000E+03  0.12500000000E+03 0.  0.
        -13    1    3    3    0    0  0.26607370646E+02  0.29135486505E+02 -0.73069734481E-01  0.39456878358E+02  0.10566000000E+00 0.  1.
         23    2    1    0    0    0  0.87656177264E+00 -0.20130164543E+02  0.18081575410E+02  0.97927223002E+02  0.94110603816E+02 0.  0.
         13    1    3    3    0    0 -0.25730808874E+02 -0.49265651048E+02  0.18154645144E+02  0.58470344644E+02  0.10566000000E+00 0. -1.
         22    1    1    0    0    0 -0.87656177264E+00  0.20130164543E+02 -0.18081575410E+02  0.27072776998E+02  0.00000000000E+00 0. -1.
</event>
<event>
 5    1  0.8943334E-005  0.9118800E+02  0.7818608E-02  0.1130116E+00
         25   -1    0    0    0    0  0.00000000000E+00  0.00000000000E+00  0.99999998245E-14  0.12500000000E+03  0.12500000000E+03 0.  0.
        -13    1    3    3    0    0 -0.44171226395E+01  0.35129939304E+02  0.15303771776E+02  0.38572531710E+02  0.10566000000E+00 0.  1.
         23    2    1    0    0    0  0.23342419048E+02 -0.12426873681E+02  0.16820875653E+02  0.93659330348E+02  0.88260028251E+02 0.  0.
         13    1    3    3    0    0  0.27759541688E+02 -0.47556812984E+02  0.15171038768E+01  0.55086798638E+02  0.10566000000E+00 0. -1.
         22    1    1    0    0    0 -0.23342419048E+02  0.12426873681E+02 -0.16820875653E+02  0.31340669652E+02  0.00000000000E+00 0. -1.
</event>
<event>
 5    1  0.8943334E-005  0.9118800E+02  0.7818608E-02  0.1130116E+00
         25   -1    0    0    0    0  0.00000000000E+00  0.00000000000E+00  0.99999998245E-14  0.12500000000E+03  0.12500000000E+03 0.  0.
        -13    1    3    3    0    0  0.35448995214E+02 -0.19462857100E+02 -0.15816771007E+02  0.43423674157E+02  0.10566000000E+00 0.  1.
         23    2    1    0    0    0  0.12085090349E+02  0.50172577185E+00  0.26585789935E+02  0.95792032526E+02  0.91230521929E+02 0.  0.
         13    1    3    3    0    0 -0.23363904865E+02  0.19964582872E+02  0.42402560942E+02  0.52368358369E+02  0.10566000000E+00 0. -1.
         22    1    1    0    0    0 -0.12085090349E+02 -0.50172577185E+00 -0.26585789935E+02  0.29207967474E+02  0.00000000000E+00 0. -1.
</event>
<event>
 5    1  0.8943334E-005  0.9118800E+02  0.7818608E-02  0.1130116E+00
         25   -1    0    0    0    0  0.00000000000E+00  0.00000000000E+00  0.99999998245E-14  0.12500000000E+03  0.12500000000E+03 0.  0.
        -13    1    3    3    0    0  0.41645756717E+02 -0.12899277486E+02 -0.21212514268E+02  0.48484454599E+02  0.10566000000E+00 0. -1.
         23    2    1    0    0    0 -0.11012626316E+02 -0.92416904085E+01 -0.18810794322E+02  0.10132442687E+03  0.98519575302E+02 0.  0.
         13    1    3    3    0    0 -0.52658383033E+02  0.36575870778E+01  0.24017199454E+01  0.52839972271E+02  0.10566000000E+00 0.  1.
         22    1    1    0    0    0  0.11012626316E+02  0.92416904085E+01  0.18810794322E+02  0.23675573130E+02  0.00000000000E+00 0. -1.
</event>
<event>
 5    1  0.8943334E-005  0.9118800E+02  0.7818608E-02  0.1130116E+00
         25   -1    0    0    0    0  0.00000000000E+00  0.00000000000E+00  0.99999998245E-14  0.12500000000E+03  0.12500000000E+03 0.  0.
        -13    1    3    3    0    0 -0.27332743003E+02  0.17642549808E+02 -0.24720626113E+02  0.40859012754E+02  0.10566000000E+00 0. -1.
         23    2    1    0    0    0 -0.16960907786E+02 -0.95556907859E+01  0.21823061273E+02  0.95755690765E+02  0.91180714470E+02 0.  0.
         13    1    3    3    0    0  0.10371835217E+02 -0.27198240594E+02  0.46543687386E+02  0.54896678011E+02  0.10566000000E+00 0.  1.
         22    1    1    0    0    0  0.16960907786E+02  0.95556907859E+01 -0.21823061273E+02  0.29244309235E+02  0.00000000000E+00 0.  1.
</event>
<event>
 5    1  0.8943334E-005  0.9118800E+02  0.7818608E-02  0.1130116E+00
         25   -1    0    0    0    0  0.00000000000E+00  0.00000000000E+00  0.99999998245E-14  0.12500000000E+03  0.12500000000E+03 0.  0.
        -13    1    3    3    0    0  0.78681310082E+01  0.27674726309E+02  0.44242551058E+02  0.52775112032E+02  0.10566000000E+00 0.  1.
         23    2    1    0    0    0  0.26153609176E+02  0.97314215688E+01  0.10403029299E+02  0.95218548435E+02  0.90441346235E+02 0.  0.
         13    1    3    3    0    0  0.18285478168E+02 -0.17943304740E+02 -0.33839521759E+02  0.42443436404E+02  0.10566000000E+00 0. -1.
         22    1    1    0    0    0 -0.26153609176E+02 -0.97314215688E+01 -0.10403029299E+02  0.29781451565E+02  0.00000000000E+00 0.  1.
</event>
<event>
 5    1  0.8943334E-005  0.9118800E+02  0.7818608E-02  0.1130116E+00
         25   -1    0    0    0    0  0.00000000000E+00  0.00000000000E+00  0.99999998245E-14  0.12500000000E+03  0.12500000000E+03 0.  0.
        -13    1    3    3    0    0 -0.24944073071E+02 -0.55518381470E+01 -0.51592059495E+02  0.57574138771E+02  0.10566000000E+00 0. -1.
         23    2    1    0    0    0 -0.58886737362E+01 -0.19113678159E+02 -0.22720262600E+02  0.94730882013E+02  0.89764806596E+02 0.  0.
         13    1    3    3    0    0  0.19055399335E+02 -0.13561840012E+02  0.28871796896E+02  0.37156743242E+02  0.10566000000E+00 0.  1.
         22    1    1    0    0    0  0.58886737362E+01  0.19113678159E+02  0.22720262600E+02  0.30269117987E+02  0.00000000000E+00 0. -1.
</event>
<event>
 4    1  0.8943334E-005  0.9118800E+02  0.7818608E-02  0.1130116E+00
         25   -1    0    0    0    0  0.00000000000E+00  0.00000000000E+00  0.99999998245E-14  0.12500000000E+03  0.12500000000E+03 0.  0.
        -13    1    1    0    0    0  0.47929322185E+00 -0.21019453144E+02  0.12497804706E+01  0.21062294455E+02  0.10566000000E+00 0.  1.
         13    1    1    0    0    0  0.38270090780E+02  0.12414332164E+02 -0.33845290202E+02  0.52575948154E+02  0.10566000000E+00 0. -1.
         22    1    1    0    0    0 -0.38749384002E+02  0.86051209797E+01  0.32595509731E+02  0.51361757391E+02  0.00000000000E+00 0. -1.
</event>
<event>
 5    1  0.8943334E-005  0.9118800E+02  0.7818608E-02  0.1130116E+00
         25   -1    0    0    0    0  0.00000000000E+00  0.00000000000E+00  0.99999998245E-14  0.12500000000E+03  0.12500000000E+03 0.  0.
        -13    1    3    3    0    0 -0.52708693213E+02  0.21008399383E+02 -0.61246041042E+01  0.57070843031E+02  0.10566000000E+00 0. -1.
         23    2    1    0    0    0 -0.27061664778E+02 -0.81724221832E+01 -0.67937989052E+01  0.95926336858E+02  0.91414354532E+02 0.  0.
         13    1    3    3    0    0  0.25647028435E+02 -0.29180821566E+02 -0.66919480104E+00  0.38855493827E+02  0.10566000000E+00 0.  1.
         22    1    1    0    0    0  0.27061664778E+02  0.81724221832E+01  0.67937989052E+01  0.29073663142E+02  0.00000000000E+00 0. -1.
</event>
<event>
 5    1  0.8943334E-005  0.9118800E+02  0.7818608E-02  0.1130116E+00
         25   -1    0    0    0    0  0.00000000000E+00  0.00000000000E+00  0.99999998245E-14  0.12500000000E+03  0.12500000000E+03 0.  0.
        -13    1    3    3    0    0 -0.20523712180E+02 -0.21760847696E+01  0.18869493802E+02  0.27964746860E+02  0.10566000000E+00 0. -1.
         23    2    1    0    0    0  0.28244103092E+02 -0.13072618338E+02 -0.17057140740E+02  0.89509596228E+02  0.82172982525E+02 0.  0.
         13    1    3    3    0    0  0.48767815272E+02 -0.10896533568E+02 -0.35926634542E+02  0.61544849368E+02  0.10566000000E+00 0.  1.
         22    1    1    0    0    0 -0.28244103092E+02  0.13072618338E+02  0.17057140740E+02  0.35490403772E+02  0.00000000000E+00 0.  1.
</event>
<event>
 5    1  0.8943334E-005  0.9118800E+02  0.7818608E-02  0.1130116E+00
         25   -1    0    0    0    0  0.00000000000E+00  0.00000000000E+00  0.99999998245E-14  0.12500000000E+03  0.12500000000E+03 0.  0.
        -13    1    3    3    0    0 -0.29526554052E+02 -0.69074076498E+01 -0.50197255618E+02  0.58645590715E+02  0.10566000000E+00 0.  1.
         23    2    1    0    0    0 -0.25022426004E+01  0.57706639987E+01 -0.29172312817E+02  0.95157318886E+02  0.90356680558E+02 0.  0.
         13    1    3    3    0    0  0.27024311452E+02  0.12678071648E+02  0.21024942802E+02  0.36511728171E+02  0.10566000000E+00 0. -1.
         22    1    1    0    0    0  0.25022426004E+01 -0.57706639987E+01  0.29172312817E+02  0.29842681114E+02  0.00000000000E+00 0.  1.
</event>
<event>
 5    1  0.8943334E-005  0.9118800E+02  0.7818608E-02  0.1130116E+00
         25   -1    0    0    0    0  0.00000000000E+00  0.00000000000E+00  0.99999998245E-14  0.12500000000E+03  0.12500000000E+03 0.  0.
        -13    1    3    3    0    0 -0.10324371080E+02 -0.62051696831E+01 -0.34676163989E+02  0.36708912842E+02  0.10566000000E+00 0.  1.
         23    2    1    0    0    0  0.71304141439E+01  0.25232610740E+02  0.12439088033E+02  0.95978312218E+02  0.91485398039E+02 0.  0.
         13    1    3    3    0    0  0.17454785224E+02  0.31437780424E+02  0.47115252022E+02  0.59269399376E+02  0.10566000000E+00 0. -1.
         22    1    1    0    0    0 -0.71304141439E+01 -0.25232610740E+02 -0.12439088033E+02  0.29021687782E+02  0.00000000000E+00 0. -1.
</event>
<event>
 5    1  0.8943334E-005  0.9118800E+02  0.7818608E-02  0.1130116E+00
         25   -1    0    0    0    0  0.00000000000E+00  0.00000000000E+00  0.99999998245E-14  0.12500000000E+03  0.12500000000E+03 0.  0.
        -13    1    3    3    0    0 -0.14703335668E+02 -0.26835007989E+02  0.18822676054E+02  0.35925061328E+02  0.10566000000E+00 0. -1.
         23    2    1    0    0    0  0.11770379138E+02  0.24845986816E+02 -0.15525256296E+01  0.97463202406E+02  0.93492248884E+02 0.  0.
         13    1    3    3    0    0  0.26473714807E+02  0.51680994805E+02 -0.20375201683E+02  0.61538141078E+02  0.10566000000E+00 0.  1.
         22    1    1    0    0    0 -0.11770379138E+02 -0.24845986816E+02  0.15525256296E+01  0.27536797594E+02  0.00000000000E+00 0.  1.
</event>
<event>
 5    1  0.8943334E-005  0.9118800E+02  0.7818608E-02  0.1130116E+00
         25   -1    0    0    0    0  0.00000000000E+00  0.00000000000E+00  0.99999998245E-14  0.12500000000E+03  0.12500000000E+03 0.  0.
        -13    1    3    3    0    0  0.32158718802E+02 -0.26795303610E+02  0.19640729184E+02  0.46237872977E+02  0.10566000000E+00 0.  1.
         23    2    1    0    0    0  0.63923811018E+00  0.10259783547E+02  0.27614316862E+02  0.95534388186E+02  0.90876823484E+02 0.  0.
         13    1    3    3    0    0 -0.31519480692E+02  0.37055087156E+02  0.79735876779E+01  0.49296515209E+02  0.10566000000E+00 0. -1.
         22    1    1    0    0    0 -0.63923811018E+00 -0.10259783547E+02 -0.27614316862E+02  0.29465611814E+02  0.00000000000E+00 0. -1.
</event>
<event>
 5    1  0.8943334E-005  0.9118800E+02  0.7818608E-02  0.1130116E+00
         25   -1    0    0    0    0  0.00000000000E+00  0.00000000000E+00  0.99999998245E-14  0.12500000000E+03  0.12500000000E+03 0.  0.
        -13    1    3    3    0    0 -0.19133946881E+02 -0.47720861174E+01  0.27297543114E+02  0.33675625506E+02  0.10566000000E+00 0.  1.
         23    2    1    0    0    0  0.37652576839E+01 -0.84113965205E+01 -0.29005223845E+02  0.94565943958E+02  0.89534831153E+02 0.  0.
         13    1    3    3    0    0  0.22899204565E+02 -0.36393104031E+01 -0.56302766959E+02  0.60890318452E+02  0.10566000000E+00 0. -1.
         22    1    1    0    0    0 -0.37652576839E+01  0.84113965205E+01  0.29005223845E+02  0.30434056042E+02  0.00000000000E+00 0. -1.
</event>
<event>
 5    1  0.8943334E-005  0.9118800E+02  0.7818608E-02  0.1130116E+00
         25   -1    0    0    0    0  0.00000000000E+00  0.00000000000E+00  0.99999998245E-14  0.12500000000E+03  0.12500000000E+03 0.  0.
        -13    1    3    3    0    0 -0.21421384635E+01 -0.85100248922E+01 -0.46275969945E+02  0.47100805081E+02  0.10566000000E+00 0.  1.
         23    2    1    0    0    0 -0.10756698900E+02 -0.28918646963E+02 -0.52828800923E+01  0.93696589076E+02  0.88312780892E+02 0.  0.
         13    1    3    3    0    0 -0.86145604368E+01 -0.20408622071E+02  0.40993089853E+02  0.46595783995E+02  0.10566000000E+00 0. -1.
         22    1    1    0    0    0  0.10756698900E+02  0.28918646963E+02  0.52828800923E+01  0.31303410924E+02  0.00000000000E+00 0. -1.
</event>
<event>
 5    1  0.8943334E-005  0.9118800E+02  0.7818608E-02  0.1130116E+00
         25   -1    0    0    0    0  0.00000000000E+00  0.00000000000E+00  0.99999998245E-14  0.12500000000E+03  0.12500000000E+03 0.  0.
        -13    1    3    3    0    0  0.83487676033E+01 -0.34700439622E+02  0.26292054580E+02  0.44329513064E+02  0.10566000000E+00 0. -1.
         23    2    1    0    0    0 -0.25591610162E+02 -0.39251380509E+00  0.18970731648E+02  0.93141355380E+02  0.87523361709E+02 0.  0.
         13    1    3    3    0    0 -0.33940377765E+02  0.34307925817E+02 -0.73213229320E+01  0.48811842315E+02  0.10566000000E+00 0.  1.
         22    1    1    0    0    0  0.25591610162E+02  0.39251380509E+00 -0.18970731648E+02  0.31858644620E+02  0.00000000000E+00 0. -1.
</event>
<event>
 5    1  0.8943334E-005  0.9118800E+02  0.7818608E-02  0.1130116E+00
         25   -1    0    0    0    0  0.00000000000E+00  0.00000000000E+00  0.99999998245E-14  0.12500000000E+03  0.12500000000E+03 0.  0.
        -13    1    3    3    0    0  0.22876457392E+02 -0.39172386948E+02 -0.19064903917E+02  0.49206604510E+02  0.10566000000E+00 0.  1.
         23    2    1    0    0    0 -0.56917730858E+01 -0.18936435872E+01 -0.27438206817E+02  0.96913751404E+02  0.92754718753E+02 0.  0.
         13    1    3    3    0    0 -0.28568230478E+02  0.37278743361E+02 -0.83733029000E+01  0.47707146893E+02  0.10566000000E+00 0. -1.
         22    1    1    0    0    0  0.56917730858E+01  0.18936435872E+01  0.27438206817E+02  0.28086248596E+02  0.00000000000E+00 0.  1.
</event>
<event>
 5    1  0.8943334E-005  0.9118800E+02  0.7818608E-02  0.1130116E+00
         25   -1    0    0    0    0  0.00000000000E+00  0.00000000000E+00  0.99999998245E-14  0.12500000000E+03  0.12500000000E+03 0.  0.
        -13    1    3    3    0    0 -0.11311099560E+02  0.23993589982E+02  0.29210098826E+02  0.39457247381E+02  0.10566000000E+00 0. -1.
         23    2    1    0    0    0 -0.35020856502E+02 -0.40708686514E+01 -0.46721804698E+01  0.89435106748E+02  0.82059592291E+02 0.  0.
         13    1    3    3    0    0 -0.23709756941E+02 -0.28064458633E+02 -0.33882279295E+02  0.49977859367E+02  0.10566000000E+00 0.  1.
         22    1    1    0    0    0  0.35020856502E+02  0.40708686514E+01  0.46721804698E+01  0.35564893252E+02  0.00000000000E+00 0.  1.
</event>
<event>
 5    1  0.8943334E-005  0.9118800E+02  0.7818608E-02  0.1130116E+00
         25   -1    0    0    0    0  0.00000000000E+00  0.00000000000E+00  0.99999998245E-14  0.12500000000E+03  0.12500000000E+03 0.  0.
        -13    1    3    3    0    0  0.12613530412E+02 -0.11770524902E+02  0.55428094073E+02  0.58051108366E+02  0.10566000000E+00 0.  1.
         23    2    1    0    0    0  0.19584936916E+02  0.32572288431E+01  0.21955477354E+02  0.95398947999E+02  0.90690335758E+02 0.  0.
         13    1    3    3    0    0  0.69714065040E+01  0.15027753745E+02 -0.33472616719E+02  0.37347839634E+02  0.10566000000E+00 0. -1.
         22    1    1    0    0    0 -0.19584936916E+02 -0.32572288431E+01 -0.21955477354E+02  0.29601052001E+02  0.00000000000E+00 0.  1.
</event>
<event>
 5    1  0.8943334E-005  0.9118800E+02  0.7818608E-02  0.1130116E+00
         25   -1    0    0    0    0  0.00000000000E+00  0.00000000000E+00  0.99999998245E-14  0.12500000000E+03  0.12500000000E+03 0.  0.
        -13    1    3    3    0    0  0.43014104932E+00  0.38815275358E+02  0.12395078488E+02  0.40748739333E+02  0.10566000000E+00 0.  1.
         23    2    1    0    0    0  0.15453616766E+02 -0.13054942933E+02  0.21461732869E+02  0.95506750198E+02  0.90838799802E+02 0.  0.
         13    1    3    3    0    0  0.15023475717E+02 -0.51870218292E+02  0.90666543807E+01  0.54758010865E+02  0.10566000000E+00 0. -1.
         22    1    1    0    0    0 -0.15453616766E+02  0.13054942933E+02 -0.21461732869E+02  0.29493249802E+02  0.00000000000E+00 0. -1.
</event>
<event>
 5    1  0.8943334E-005  0.9118800E+02  0.7818608E-02  0.1130116E+00
         25   -1    0    0    0    0  0.00000000000E+00  0.00000000000E+00  0.99999998245E-14  0.12500000000E+03  0.12500000000E+03 0.  0.
        -13    1    3    3    0    0  0.13091767063E+02  0.13387099849E+02  0.50307207787E+02  0.53679000797E+02  0.10566000000E+00 0.  1.
         23    2    1    0    0    0 -0.68787230128E+01 -0.13627460023E+02  0.24874511671E+02  0.95814972540E+02  0.91261947903E+02 0.  0.
         13    1    3    3    0    0 -0.19970490076E+02 -0.27014559872E+02 -0.25432696116E+02  0.42135971743E+02  0.10566000000E+00 0. -1.
         22    1    1    0    0    0  0.68787230128E+01  0.13627460023E+02 -0.24874511671E+02  0.29185027460E+02  0.00000000000E+00 0.  1.
</event>
<event>
 5    1  0.8943334E-005  0.9118800E+02  0.7818608E-02  0.1130116E+00
         25   -1    0    0    0    0  0.00000000000E+00  0.00000000000E+00  0.99999998245E-14  0.12500000000E+03  0.12500000000E+03 0.  0.
        -13    1    3    3    0    0 -0.14718210262E+02 -0.30876319647E+02 -0.10604922828E+01  0.34221464554E+02  0.10566000000E+00 0. -1.
         23    2    1    0    0    0  0.11100389553E+02  0.25168384470E+02 -0.80924649182E+01  0.96326768346E+02  0.91960274502E+02 0.  0.
         13    1    3    3    0    0  0.25818599815E+02  0.56044704117E+02 -0.70319726354E+01  0.62105303792E+02  0.10566000000E+00 0.  1.
         22    1    1    0    0    0 -0.11100389553E+02 -0.25168384470E+02  0.80924649182E+01  0.28673231654E+02  0.00000000000E+00 0.  1.
</event>
<event>
 5    1  0.8943334E-005  0.9118800E+02  0.7818608E-02  0.1130116E+00
         25   -1    0    0    0    0  0.00000000000E+00  0.00000000000E+00  0.99999998245E-14  0.12500000000E+03  0.12500000000E+03 0.  0.
        -13    1    3    3    0    0  0.26186601778E+02  0.30045853308E+02  0.57146321049E+01  0.40263626238E+02  0.10566000000E+00 0.  1.
         23    2    1    0    0    0 -0.20221099442E+02  0.47577241485E+01  0.21182746577E+02  0.95331202345E+02  0.90596912675E+02 0.  0.
         13    1    3    3    0    0 -0.46407701220E+02 -0.25288129160E+02  0.15468114473E+02  0.55067576107E+02  0.10566000000E+00 0. -1.
         22    1    1    0    0    0  0.20221099442E+02 -0.47577241485E+01 -0.21182746577E+02  0.29668797655E+02  0.00000000000E+00 0. -1.
</event>
<event>
 5    1  0.8943334E-005  0.9118800E+02  0.7818608E-02  0.1130116E+00
         25   -1    0    0    0    0  0.00000000000E+00  0.00000000000E+00  0.99999998245E-14  0.12500000000E+03  0.12500000000E+03 0.  0.
        -13    1    3    3    0    0  0.22983909456E+02  0.89181207511E+01  0.26598159101E+02  0.36266599003E+02  0.10566000000E+00 0.  1.
         23    2    1    0    0    0  0.36577712747E+01 -0.16661090552E+02 -0.23631381224E+02  0.95855302238E+02  0.91317170124E+02 0.  0.
         13    1    3    3    0    0 -0.19326138182E+02 -0.25579211303E+02 -0.50229540325E+02  0.59588703235E+02  0.10566000000E+00 0. -1.
         22    1    1    0    0    0 -0.36577712747E+01  0.16661090552E+02  0.23631381224E+02  0.29144697762E+02  0.00000000000E+00 0. -1.
</event>
<event>
 5    1  0.8943334E-005  0.9118800E+02  0.7818608E-02  0.1130116E+00
         25   -1    0    0    0    0  0.00000000000E+00  0.00000000000E+00  0.99999998245E-14  0.12500000000E+03  0.12500000000E+03 0.  0.
        -13    1    3    3    0    0  0.80895135037E+01 -0.32736322041E+02 -0.29637414001E+02  0.44894258900E+02  0.10566000000E+00 0.  1.
         23    2    1    0    0    0 -0.25720619734E+02 -0.94121111760E+01  0.31231479176E+01  0.97433858282E+02  0.93453007285E+02 0.  0.
         13    1    3    3    0    0 -0.33810133238E+02  0.23324210865E+02  0.32760561918E+02  0.52539599382E+02  0.10566000000E+00 0. -1.
         22    1    1    0    0    0  0.25720619734E+02  0.94121111760E+01 -0.31231479176E+01  0.27566141718E+02  0.00000000000E+00 0.  1.
</event>
<event>
 5    1  0.8943334E-005  0.9118800E+02  0.7818608E-02  0.1130116E+00
         25   -1    0    0    0    0  0.00000000000E+00  0.00000000000E+00  0.99999998245E-14  0.12500000000E+03  0.12500000000E+03 0.  0.
        -13    1    3    3    0    0 -0.28567964613E+02  0.10500776468E+02  0.22627476484E+02  0.37926359760E+02  0.10566000000E+00 0. -1.
         23    2    1    0    0    0  0.24489958951E+02  0.68053412252E+01 -0.67691051867E+01  0.98696168651E+02  0.95126453538E+02 0.  0.
         13    1    3    3    0    0  0.53057923565E+02 -0.36954352427E+01 -0.29396581671E+02  0.60769808891E+02  0.10566000000E+00 0.  1.
         22    1    1    0    0    0 -0.24489958951E+02 -0.68053412252E+01  0.67691051867E+01  0.26303831349E+02  0.00000000000E+00 0.  1.
</event>
<event>
 5    1  0.8943334E-005  0.9118800E+02  0.7818608E-02  0.1130116E+00
         25   -1    0    0    0    0  0.00000000000E+00  0.00000000000E+00  0.99999998245E-14  0.12500000000E+03  0.12500000000E+03 0.  0.
        -13    1    3    3    0    0  0.41425932043E+02 -0.10823616782E+02  0.21375275474E+02  0.47855742513E+02  0.10566000000E+00 0. -1.
         23    2    1    0    0    0  0.21532668043E+02  0.16839395459E+02 -0.11629945758E+02  0.95293491104E+02  0.90544866094E+02 0.  0.
         13    1    3    3    0    0 -0.19893264000E+02  0.27663012241E+02 -0.33005221231E+02  0.47437748591E+02  0.10566000000E+00 0.  1.
         22    1    1    0    0    0 -0.21532668043E+02 -0.16839395459E+02  0.11629945758E+02  0.29706508896E+02  0.00000000000E+00 0. -1.
</event>
<event>
 5    1  0.8943334E-005  0.9118800E+02  0.7818608E-02  0.1130116E+00
         25   -1    0    0    0    0  0.00000000000E+00  0.00000000000E+00  0.99999998245E-14  0.12500000000E+03  0.12500000000E+03 0.  0.
        -13    1    3    3    0    0 -0.50608009828E+02  0.77330540034E+01 -0.59897408991E+01  0.51544727597E+02  0.10566000000E+00 0. -1.
         23    2    1    0    0    0 -0.19776969146E+02 -0.10200250630E+02  0.19522803237E+02  0.95397407753E+02  0.90688212786E+02 0.  0.
         13    1    3    3    0    0  0.30831040681E+02 -0.17933304633E+02  0.25512544136E+02  0.43852680156E+02  0.10566000000E+00 0.  1.
         22    1    1    0    0    0  0.19776969146E+02  0.10200250630E+02 -0.19522803237E+02  0.29602592247E+02  0.00000000000E+00 0. -1.
</event>
<event>
 5    1  0.8943334E-005  0.9118800E+02  0.7818608E-02  0.1130116E+00
         25   -1    0    0    0    0  0.00000000000E+00  0.00000000000E+00  0.99999998245E-14  0.12500000000E+03  0.12500000000E+03 0.  0.
        -13    1    3    3    0    0 -0.45736811181E+02  0.64384600669E+01 -0.73777665409E+01  0.46773414118E+02  0.10566000000E+00 0. -1.
         23    2    1    0    0    0 -0.61477101164E+01 -0.25899744580E+02 -0.47585458844E+01  0.97958645228E+02  0.94152330332E+02 0.  0.
         13    1    3    3    0    0  0.39589101065E+02 -0.32338204647E+02  0.26192206564E+01  0.51185231110E+02  0.10566000000E+00 0.  1.
         22    1    1    0    0    0  0.61477101164E+01  0.25899744580E+02  0.47585458844E+01  0.27041354772E+02  0.00000000000E+00 0.  1.
</event>
<event>
 5    1  0.8943334E-005  0.9118800E+02  0.7818608E-02  0.1130116E+00
         25   -1    0    0    0    0  0.00000000000E+00  0.00000000000E+00  0.99999998245E-14  0.12500000000E+03  0.12500000000E+03 0.  0.
        -13    1    3    3    0    0  0.26315237956E+01  0.52204531957E+02 -0.81745210668E+01  0.52906257031E+02  0.10566000000E+00 0. -1.
         23    2    1    0    0    0 -0.22594241695E+02  0.18950080614E+02  0.35579227895E+00  0.95508782643E+02  0.90841596534E+02 0.  0.
         13    1    3    3    0    0 -0.25225765491E+02 -0.33254451343E+02  0.85303133457E+01  0.42602525612E+02  0.10566000000E+00 0.  1.
         22    1    1    0    0    0  0.22594241695E+02 -0.18950080614E+02 -0.35579227895E+00  0.29491217357E+02  0.00000000000E+00 0. -1.
</event>
<event>
 5    1  0.8943334E-005  0.9118800E+02  0.7818608E-02  0.1130116E+00
         25   -1    0    0    0    0  0.00000000000E+00  0.00000000000E+00  0.99999998245E-14  0.12500000000E+03  0.12500000000E+03 0.  0.
        -13    1    3    3    0    0  0.10413784906E+02 -0.53863543691E+01  0.56848868561E+02  0.58045368034E+02  0.10566000000E+00 0. -1.
         23    2    1    0    0    0  0.77393642997E+01 -0.18044140903E+02  0.20561972663E+02  0.96569672874E+02  0.92289859782E+02 0.  0.
         13    1    3    3    0    0 -0.26744206061E+01 -0.12657786534E+02 -0.36286895898E+02  0.38524304840E+02  0.10566000000E+00 0.  1.
         22    1    1    0    0    0 -0.77393642997E+01  0.18044140903E+02 -0.20561972663E+02  0.28430327126E+02  0.00000000000E+00 0. -1.
</event>
<event>
 5    1  0.8943334E-005  0.9118800E+02  0.7818608E-02  0.1130116E+00
         25   -1    0    0    0    0  0.00000000000E+00  0.00000000000E+00  0.99999998245E-14  0.12500000000E+03  0.12500000000E+03 0.  0.
        -13    1    3    3    0    0 -0.37205853893E+02  0.13357352466E+02  0.40025968660E+02  0.56256410835E+02  0.10566000000E+00 0.  1.
         23    2    1    0    0    0  0.17894030088E+00  0.31326717362E+01  0.27982091925E+02  0.96842529937E+02  0.92658688121E+02 0.  0.
         13    1    3    3    0    0  0.37384794194E+02 -0.10224680730E+02 -0.12043876735E+02  0.40586119103E+02  0.10566000000E+00 0. -1.
         22    1    1    0    0    0 -0.17894030088E+00 -0.31326717362E+01 -0.27982091925E+02  0.28157470063E+02  0.00000000000E+00 0.  1.
</event>
<event>
 5    1  0.8943334E-005  0.9118800E+02  0.7818608E-02  0.1130116E+00
         25   -1    0    0    0    0  0.00000000000E+00  0.00000000000E+00  0.99999998245E-14  0.12500000000E+03  0.12500000000E+03 0.  0.
        -13    1    3    3    0    0  0.52731520515E+01  0.21662976733E+02  0.44662567029E+02  0.49918400928E+02  0.10566000000E+00 0.  1.
         23    2    1    0    0    0 -0.14782065913E+02  0.21707933655E+02  0.15426592875E+00  0.98736571926E+02  0.95179530265E+02 0.  0.
         13    1    3    3    0    0 -0.20055217964E+02  0.44956921748E-01 -0.44508301100E+02  0.48818170998E+02  0.10566000000E+00 0. -1.
         22    1    1    0    0    0  0.14782065913E+02 -0.21707933655E+02 -0.15426592875E+00  0.26263428074E+02  0.00000000000E+00 0.  1.
</event>
<event>
 5    1  0.8943334E-005  0.9118800E+02  0.7818608E-02  0.1130116E+00
         25   -1    0    0    0    0  0.00000000000E+00  0.00000000000E+00  0.99999998245E-14  0.12500000000E+03  0.12500000000E+03 0.  0.
        -13    1    3    3    0    0 -0.14028468919E+02 -0.21553862049E+02 -0.42967770833E+02  0.50076016254E+02  0.10566000000E+00 0.  1.
         23    2    1    0    0    0 -0.78337273889E+00 -0.27445003206E+02  0.21444417651E+01  0.97460201448E+02  0.93488236489E+02 0.  0.
         13    1    3    3    0    0  0.13245096180E+02 -0.58911411573E+01  0.45112212598E+02  0.47384185194E+02  0.10566000000E+00 0. -1.
         22    1    1    0    0    0  0.78337273889E+00  0.27445003206E+02 -0.21444417651E+01  0.27539798552E+02  0.00000000000E+00 0. -1.
</event>
<event>
 5    1  0.8943334E-005  0.9118800E+02  0.7818608E-02  0.1130116E+00
         25   -1    0    0    0    0  0.00000000000E+00  0.00000000000E+00  0.99999998245E-14  0.12500000000E+03  0.12500000000E+03 0.  0.
        -13    1    3    3    0    0 -0.24484590277E+01 -0.38873192722E+02 -0.61258189288E+01  0.39429137520E+02  0.10566000000E+00 0.  1.
         23    2    1    0    0    0 -0.21711735040E+02  0.95725398276E+01 -0.20644351617E+02  0.93548096864E+02  0.88102350797E+02 0.  0.
         13    1    3    3    0    0 -0.19263276013E+02  0.48445732549E+02 -0.14518532688E+02  0.54118959344E+02  0.10566000000E+00 0. -1.
         22    1    1    0    0    0  0.21711735040E+02 -0.95725398276E+01  0.20644351617E+02  0.31451903136E+02  0.00000000000E+00 0. -1.
</event>
<event>
 4    1  0.8943334E-005  0.9118800E+02  0.7818608E-02  0.1130116E+00
         25   -1    0    0    0    0  0.00000000000E+00  0.00000000000E+00  0.99999998245E-14  0.12500000000E+03  0.12500000000E+03 0.  0.
        -13    1    1    0    0    0  0.15355954026E+02  0.57611723834E+01 -0.94806890043E+00  0.16428829233E+02  0.10566000000E+00 0.  1.
         13    1    1    0    0    0  0.99640156406E+01  0.45213630792E+02  0.17182557102E+02  0.49384263179E+02  0.10566000000E+00 0. -1.
         22    1    1    0    0    0 -0.25319969667E+02 -0.50974803176E+02 -0.16234488201E+02  0.59186907589E+02  0.00000000000E+00 0. -1.
</event>
<event>
 5    1  0.8943334E-005  0.9118800E+02  0.7818608E-02  0.1130116E+00
         25   -1    0    0    0    0  0.00000000000E+00  0.00000000000E+00  0.99999998245E-14  0.12500000000E+03  0.12500000000E+03 0.  0.
        -13    1    3    3    0    0  0.17655562314E+02 -0.27064287281E+01  0.59091555505E+02  0.61732217951E+02  0.10566000000E+00 0. -1.
         23    2    1    0    0    0  0.20932654205E+01  0.10807180126E+01  0.29717573414E+02  0.95189198582E+02  0.90400772372E+02 0.  0.
         13    1    3    3    0    0 -0.15562296893E+02  0.37871467407E+01 -0.29373982091E+02  0.33456980631E+02  0.10566000000E+00 0.  1.
         22    1    1    0    0    0 -0.20932654205E+01 -0.10807180126E+01 -0.29717573414E+02  0.29810801418E+02  0.00000000000E+00 0. -1.
</event>
<event>
 5    1  0.8943334E-005  0.9118800E+02  0.7818608E-02  0.1130116E+00
         25   -1    0    0    0    0  0.00000000000E+00  0.00000000000E+00  0.99999998245E-14  0.12500000000E+03  0.12500000000E+03 0.  0.
        -13    1    3    3    0    0  0.96123069298E+01 -0.53768897562E+02 -0.21062266717E+02  0.58541617956E+02  0.10566000000E+00 0.  1.
         23    2    1    0    0    0  0.11676104798E+02 -0.15357936365E+02 -0.20270450325E+02  0.97016276355E+02  0.92892782759E+02 0.  0.
         13    1    3    3    0    0  0.20637978682E+01  0.38410961197E+02  0.79181639152E+00  0.38474658399E+02  0.10566000000E+00 0. -1.
         22    1    1    0    0    0 -0.11676104798E+02  0.15357936365E+02  0.20270450325E+02  0.27983723645E+02  0.00000000000E+00 0.  1.
</event>
<event>
 5    1  0.8943334E-005  0.9118800E+02  0.7818608E-02  0.1130116E+00
         25   -1    0    0    0    0  0.00000000000E+00  0.00000000000E+00  0.99999998245E-14  0.12500000000E+03  0.12500000000E+03 0.  0.
        -13    1    3    3    0    0 -0.48974909299E+02  0.13926306639E+02  0.32306669165E+02  0.60301043059E+02  0.10566000000E+00 0.  1.
         23    2    1    0    0    0 -0.27294705505E+02  0.12942595909E+02  0.63559502769E+01  0.94130762215E+02  0.88925196395E+02 0.  0.
         13    1    3    3    0    0  0.21680203794E+02 -0.98371073071E+00 -0.25950718888E+02  0.33829719156E+02  0.10566000000E+00 0. -1.
         22    1    1    0    0    0  0.27294705505E+02 -0.12942595909E+02 -0.63559502769E+01  0.30869237785E+02  0.00000000000E+00 0.  1.
</event>
<event>
 5    1  0.8943334E-005  0.9118800E+02  0.7818608E-02  0.1130116E+00
         25   -1    0    0    0    0  0.00000000000E+00  0.00000000000E+00  0.99999998245E-14  0.12500000000E+03  0.12500000000E+03 0.  0.
        -13    1    3    3    0    0  0.24746319443E+02  0.92183101871E+01  0.31819384258E+02  0.41350235154E+02  0.10566000000E+00 0.  1.
         23    2    1    0    0    0 -0.14512116824E+02 -0.20950361806E+02  0.13657287634E+01  0.99477766368E+02  0.96148019179E+02 0.  0.
         13    1    3    3    0    0 -0.39258436267E+02 -0.30168671993E+02 -0.30453655495E+02  0.58127531214E+02  0.10566000000E+00 0. -1.
         22    1    1    0    0    0  0.14512116824E+02  0.20950361806E+02 -0.13657287634E+01  0.25522233632E+02  0.00000000000E+00 0. -1.
</event>
<event>
 5    1  0.8943334E-005  0.9118800E+02  0.7818608E-02  0.1130116E+00
         25   -1    0    0    0    0  0.00000000000E+00  0.00000000000E+00  0.99999998245E-14  0.12500000000E+03  0.12500000000E+03 0.  0.
        -13    1    3    3    0    0  0.25129675477E+02  0.20802097269E+02 -0.15220933137E+02  0.35998830675E+02  0.10566000000E+00 0.  1.
         23    2    1    0    0    0 -0.27981135672E+02 -0.48564876205E+01 -0.14822733417E+01  0.96561881923E+02  0.92279306894E+02 0.  0.
         13    1    3    3    0    0 -0.53110811149E+02 -0.25658584889E+02  0.13738659796E+02  0.60563051248E+02  0.10566000000E+00 0. -1.
         22    1    1    0    0    0  0.27981135672E+02  0.48564876205E+01  0.14822733417E+01  0.28438118077E+02  0.00000000000E+00 0. -1.
</event>
<event>
 5    1  0.8943334E-005  0.9118800E+02  0.7818608E-02  0.1130116E+00
         25   -1    0    0    0    0  0.00000000000E+00  0.00000000000E+00  0.99999998245E-14  0.12500000000E+03  0.12500000000E+03 0.  0.
        -13    1    3    3    0    0  0.24805000689E+02  0.15221676262E+02 -0.24262542997E+02  0.37890231513E+02  0.10566000000E+00 0. -1.
         23    2    1    0    0    0  0.21007025654E+01  0.69926247638E+01  0.28320327191E+02  0.95753621001E+02  0.91177876978E+02 0.  0.
         13    1    3    3    0    0 -0.22704298124E+02 -0.82290514985E+01  0.52582870187E+02  0.57863389488E+02  0.10566000000E+00 0.  1.
         22    1    1    0    0    0 -0.21007025654E+01 -0.69926247638E+01 -0.28320327191E+02  0.29246378999E+02  0.00000000000E+00 0.  1.
</event>
<event>
 5    1  0.8943334E-005  0.9118800E+02  0.7818608E-02  0.1130116E+00
         25   -1    0    0    0    0  0.00000000000E+00  0.00000000000E+00  0.99999998245E-14  0.12500000000E+03  0.12500000000E+03 0.  0.
        -13    1    3    3    0    0 -0.28831089200E+01  0.52639938344E+01 -0.19541551954E+02  0.20442733793E+02  0.10566000000E+00 0. -1.
         23    2    1    0    0    0  0.18416099134E+02  0.60160837146E+01  0.38296087551E+02  0.82082214733E+02  0.69968233386E+02 0.  0.
         13    1    3    3    0    0  0.21299208054E+02  0.75208988021E+00  0.57837639505E+02  0.61639480939E+02  0.10566000000E+00 0.  1.
         22    1    1    0    0    0 -0.18416099134E+02 -0.60160837146E+01 -0.38296087551E+02  0.42917785267E+02  0.00000000000E+00 0.  1.
</event>
<event>
 5    1  0.8943334E-005  0.9118800E+02  0.7818608E-02  0.1130116E+00
         25   -1    0    0    0    0  0.00000000000E+00  0.00000000000E+00  0.99999998245E-14  0.12500000000E+03  0.12500000000E+03 0.  0.
        -13    1    3    3    0    0  0.47814856735E+02 -0.26007143756E+02  0.14054739878E+02  0.56215468761E+02  0.10566000000E+00 0. -1.
         23    2    1    0    0    0  0.28250187113E+02  0.57212868025E+01 -0.34059737735E+00  0.96174278826E+02  0.91752764027E+02 0.  0.
         13    1    3    3    0    0 -0.19564669621E+02  0.31728430559E+02 -0.14395337255E+02  0.39958810065E+02  0.10566000000E+00 0.  1.
         22    1    1    0    0    0 -0.28250187113E+02 -0.57212868025E+01  0.34059737735E+00  0.28825721174E+02  0.00000000000E+00 0.  1.
</event>
<event>
 5    1  0.8943334E-005  0.9118800E+02  0.7818608E-02  0.1130116E+00
         25   -1    0    0    0    0  0.00000000000E+00  0.00000000000E+00  0.99999998245E-14  0.12500000000E+03  0.12500000000E+03 0.  0.
        -13    1    3    3    0    0  0.12381443065E+01 -0.41661644203E+02 -0.16760344980E+01  0.41713856867E+02  0.10566000000E+00 0.  1.
         23    2    1    0    0    0 -0.30234849983E+02 -0.21727406884E+01  0.91060208080E+01  0.93348987843E+02  0.87819399684E+02 0.  0.
         13    1    3    3    0    0 -0.31472994289E+02  0.39488903515E+02  0.10782055306E+02  0.51635130977E+02  0.10566000000E+00 0. -1.
         22    1    1    0    0    0  0.30234849983E+02  0.21727406884E+01 -0.91060208080E+01  0.31651012157E+02  0.00000000000E+00 0.  1.
</event>
<event>
 5    1  0.8943334E-005  0.9118800E+02  0.7818608E-02  0.1130116E+00
         25   -1    0    0    0    0  0.00000000000E+00  0.00000000000E+00  0.99999998245E-14  0.12500000000E+03  0.12500000000E+03 0.  0.
        -13    1    3    3    0    0 -0.22206673949E+02 -0.20299630964E+02 -0.20018167073E+02  0.36137924154E+02  0.10566000000E+00 0.  1.
         23    2    1    0    0    0 -0.66859144047E+01  0.28907039258E+02  0.71933223758E+01  0.94470305326E+02  0.89401209899E+02 0.  0.
         13    1    3    3    0    0  0.15520759544E+02  0.49206670222E+02  0.27211489448E+02  0.58332381172E+02  0.10566000000E+00 0. -1.
         22    1    1    0    0    0  0.66859144047E+01 -0.28907039258E+02 -0.71933223758E+01  0.30529694674E+02  0.00000000000E+00 0. -1.
</event>
<event>
 5    1  0.8943334E-005  0.9118800E+02  0.7818608E-02  0.1130116E+00
         25   -1    0    0    0    0  0.00000000000E+00  0.00000000000E+00  0.99999998245E-14  0.12500000000E+03  0.12500000000E+03 0.  0.
        -13    1    3    3    0    0 -0.33691435414E+02 -0.17573212458E+02  0.77715863974E+01  0.38785813586E+02  0.10566000000E+00 0.  1.
         23    2    1    0    0    0 -0.11469470956E+02  0.28054681100E+02 -0.10793995399E+02  0.92826653386E+02  0.87072747439E+02 0.  0.
         13    1    3    3    0    0  0.22221964458E+02  0.45627893558E+02 -0.18565581796E+02  0.54040839801E+02  0.10566000000E+00 0. -1.
         22    1    1    0    0    0  0.11469470956E+02 -0.28054681100E+02  0.10793995399E+02  0.32173346614E+02  0.00000000000E+00 0. -1.
</event>
<event>
 5    1  0.8943334E-005  0.9118800E+02  0.7818608E-02  0.1130116E+00
         25   -1    0    0    0    0  0.00000000000E+00  0.00000000000E+00  0.99999998245E-14  0.12500000000E+03  0.12500000000E+03 0.  0.
        -13    1    3    3    0    0  0.86743756518E+00  0.57215984409E+02  0.62191227918E+01  0.57559621022E+02  0.10566000000E+00 0.  1.
         23    2    1    0    0    0 -0.16917660067E+02  0.23698306946E+02  0.44468110829E+01  0.95545100526E+02  0.90891556987E+02 0.  0.
         13    1    3    3    0    0 -0.17785097632E+02 -0.33517677464E+02 -0.17723117090E+01  0.37985479504E+02  0.10566000000E+00 0. -1.
         22    1    1    0    0    0  0.16917660067E+02 -0.23698306946E+02 -0.44468110829E+01  0.29454899474E+02  0.00000000000E+00 0.  1.
</event>
<event>
 5    1  0.8943334E-005  0.9118800E+02  0.7818608E-02  0.1130116E+00
         25   -1    0    0    0    0  0.00000000000E+00  0.00000000000E+00  0.99999998245E-14  0.12500000000E+03  0.12500000000E+03 0.  0.
        -13    1    3    3    0    0  0.24333871674E+02  0.12599542888E+02 -0.22874561637E+02  0.35695133082E+02  0.10566000000E+00 0. -1.
         23    2    1    0    0    0 -0.83449282477E+01 -0.27761478092E+02  0.64047950774E+01  0.95312310745E+02  0.90570843467E+02 0.  0.
         13    1    3    3    0    0 -0.32678799922E+02 -0.40361020980E+02  0.29279356714E+02  0.59617177663E+02  0.10566000000E+00 0.  1.
         22    1    1    0    0    0  0.83449282477E+01  0.27761478092E+02 -0.64047950774E+01  0.29687689255E+02  0.00000000000E+00 0.  1.
</event>
<event>
 5    1  0.8943334E-005  0.9118800E+02  0.7818608E-02  0.1130116E+00
         25   -1    0    0    0    0  0.00000000000E+00  0.00000000000E+00  0.99999998245E-14  0.12500000000E+03  0.12500000000E+03 0.  0.
        -13    1    3    3    0    0  0.10365588896E+01  0.20840343238E+02 -0.57136232494E+02  0.60827252019E+02  0.10566000000E+00 0.  1.
         23    2    1    0    0    0  0.10576379323E+02  0.86640765753E+01 -0.24514837609E+02  0.96930385014E+02  0.92777132168E+02 0.  0.
         13    1    3    3    0    0  0.95398204337E+01 -0.12176266663E+02  0.32621394885E+02  0.36103132994E+02  0.10566000000E+00 0. -1.
         22    1    1    0    0    0 -0.10576379323E+02 -0.86640765753E+01  0.24514837609E+02  0.28069614986E+02  0.00000000000E+00 0.  1.
</event>
<event>
 5    1  0.8943334E-005  0.9118800E+02  0.7818608E-02  0.1130116E+00
         25   -1    0    0    0    0  0.00000000000E+00  0.00000000000E+00  0.99999998245E-14  0.12500000000E+03  0.12500000000E+03 0.  0.
        -13    1    3    3    0    0  0.20036330607E+02  0.35779937025E+02 -0.12040607250E+02  0.42739277306E+02  0.10566000000E+00 0.  1.
         23    2    1    0    0    0 -0.13874026785E+02  0.13833855941E+02  0.21983995295E+02  0.95552415404E+02  0.90901616328E+02 0.  0.
         13    1    3    3    0    0 -0.33910357392E+02 -0.21946081084E+02  0.34024602544E+02  0.52813138098E+02  0.10566000000E+00 0. -1.
         22    1    1    0    0    0  0.13874026785E+02 -0.13833855941E+02 -0.21983995295E+02  0.29447584596E+02  0.00000000000E+00 0. -1.
</event>
<event>
 5    1  0.8943334E-005  0.9118800E+02  0.7818608E-02  0.1130116E+00
         25   -1    0    0    0    0  0.00000000000E+00  0.00000000000E+00  0.99999998245E-14  0.12500000000E+03  0.12500000000E+03 0.  0.
        -13    1    3    3    0    0 -0.30973851148E+02  0.16630776721E+02 -0.11469299746E+02  0.36979970119E+02  0.10566000000E+00 0.  1.
         23    2    1    0    0    0  0.25092479284E+02  0.12403051269E+02  0.69749966374E+01  0.96153530970E+02  0.91724493689E+02 0.  0.
         13    1    3    3    0    0  0.56066330432E+02 -0.42277254523E+01  0.18444296384E+02  0.59173560851E+02  0.10566000000E+00 0. -1.
         22    1    1    0    0    0 -0.25092479284E+02 -0.12403051269E+02 -0.69749966374E+01  0.28846469030E+02  0.00000000000E+00 0. -1.
</event>
<event>
 5    1  0.8943334E-005  0.9118800E+02  0.7818608E-02  0.1130116E+00
         25   -1    0    0    0    0  0.00000000000E+00  0.00000000000E+00  0.99999998245E-14  0.12500000000E+03  0.12500000000E+03 0.  0.
        -13    1    3    3    0    0  0.17093156349E+02  0.29825724873E+02 -0.40117575997E+02  0.52831628084E+02  0.10566000000E+00 0.  1.
         23    2    1    0    0    0  0.98106334768E+01  0.27815761453E+02  0.18241611479E+01  0.95448474179E+02  0.90758572845E+02 0.  0.
         13    1    3    3    0    0 -0.72825228725E+01 -0.20099634194E+01  0.41941737145E+02  0.42616846095E+02  0.10566000000E+00 0. -1.
         22    1    1    0    0    0 -0.98106334768E+01 -0.27815761453E+02 -0.18241611479E+01  0.29551525821E+02  0.00000000000E+00 0.  1.
</event>
<event>
 5    1  0.8943334E-005  0.9118800E+02  0.7818608E-02  0.1130116E+00
         25   -1    0    0    0    0  0.00000000000E+00  0.00000000000E+00  0.99999998245E-14  0.12500000000E+03  0.12500000000E+03 0.  0.
        -13    1    3    3    0    0  0.31032233690E+02 -0.32132226799E+02  0.16554449785E+02  0.47639694569E+02  0.10566000000E+00 0. -1.
         23    2    1    0    0    0 -0.13547496741E+02 -0.19208793736E+02  0.19936888061E+02  0.94178060894E+02  0.88991658167E+02 0.  0.
         13    1    3    3    0    0 -0.44579730431E+02  0.12923433063E+02  0.33824382756E+01  0.46538366325E+02  0.10566000000E+00 0.  1.
         22    1    1    0    0    0  0.13547496741E+02  0.19208793736E+02 -0.19936888061E+02  0.30821939106E+02  0.00000000000E+00 0.  1.
</event>
<event>
 5    1  0.8943334E-005  0.9118800E+02  0.7818608E-02  0.1130116E+00
         25   -1    0    0    0    0  0.00000000000E+00  0.00000000000E+00  0.99999998245E-14  0.12500000000E+03  0.12500000000E+03 0.  0.
        -13    1    3    3    0    0 -0.58260083825E+01  0.31295020418E+02  0.34826234555E+02  0.47182607537E+02  0.10566000000E+00 0.  1.
         23    2    1    0    0    0  0.39852184539E+01 -0.15305352218E+02  0.24383809643E+02  0.95936174626E+02  0.91427805707E+02 0.  0.
         13    1    3    3    0    0  0.98112268364E+01 -0.46600372636E+02 -0.10442424912E+02  0.48753567089E+02  0.10566000000E+00 0. -1.
         22    1    1    0    0    0 -0.39852184539E+01  0.15305352218E+02 -0.24383809643E+02  0.29063825374E+02  0.00000000000E+00 0.  1.
</event>
<event>
 5    1  0.8943334E-005  0.9118800E+02  0.7818608E-02  0.1130116E+00
         25   -1    0    0    0    0  0.00000000000E+00  0.00000000000E+00  0.99999998245E-14  0.12500000000E+03  0.12500000000E+03 0.  0.
        -13    1    3    3    0    0  0.52798636490E+01  0.62847889565E+01 -0.60082164964E+02  0.60640359853E+02  0.10566000000E+00 0. -1.
         23    2    1    0    0    0 -0.18893917629E+01  0.12677041997E+02 -0.26601220060E+02  0.95472011520E+02  0.90790984574E+02 0.  0.
         13    1    3    3    0    0 -0.71692554119E+01  0.63922530405E+01  0.33480944904E+02  0.34831651666E+02  0.10566000000E+00 0.  1.
         22    1    1    0    0    0  0.18893917629E+01 -0.12677041997E+02  0.26601220060E+02  0.29527988480E+02  0.00000000000E+00 0. -1.
</event>
<event>
 5    1  0.8943334E-005  0.9118800E+02  0.7818608E-02  0.1130116E+00
         25   -1    0    0    0    0  0.00000000000E+00  0.00000000000E+00  0.99999998245E-14  0.12500000000E+03  0.12500000000E+03 0.  0.
        -13    1    3    3    0    0  0.29440669108E+02  0.18218220008E+02  0.24328820571E+02  0.42314999849E+02  0.10566000000E+00 0. -1.
         23    2    1    0    0    0  0.28125176471E+02 -0.23782047627E+02  0.86503488117E+01  0.87165625743E+02  0.78526469650E+02 0.  0.
         13    1    3    3    0    0 -0.13154926370E+01 -0.42000267635E+02 -0.15678471759E+02  0.44850625894E+02  0.10566000000E+00 0.  1.
         22    1    1    0    0    0 -0.28125176471E+02  0.23782047627E+02 -0.86503488117E+01  0.37834374257E+02  0.00000000000E+00 0.  1.
</event>
<event>
 5    1  0.8943334E-005  0.9118800E+02  0.7818608E-02  0.1130116E+00
         25   -1    0    0    0    0  0.00000000000E+00  0.00000000000E+00  0.99999998245E-14  0.12500000000E+03  0.12500000000E+03 0.  0.
        -13    1    3    3    0    0 -0.51918341367E+02  0.26078939995E+02 -0.14022037935E+02  0.59768336044E+02  0.10566000000E+00 0. -1.
         23    2    1    0    0    0 -0.22196570379E+02  0.22992453411E+02  0.60028682458E+00  0.93035942143E+02  0.87372681861E+02 0.  0.
         13    1    3    3    0    0  0.29721770989E+02 -0.30864865833E+01  0.14622324759E+02  0.33267606099E+02  0.10566000000E+00 0.  1.
         22    1    1    0    0    0  0.22196570379E+02 -0.22992453411E+02 -0.60028682458E+00  0.31964057857E+02  0.00000000000E+00 0. -1.
</event>
<event>
 5    1  0.8943334E-005  0.9118800E+02  0.7818608E-02  0.1130116E+00
         25   -1    0    0    0    0  0.00000000000E+00  0.00000000000E+00  0.99999998245E-14  0.12500000000E+03  0.12500000000E+03 0.  0.
        -13    1    3    3    0    0 -0.21080209915E+02  0.17687940156E+02 -0.26619545653E+02  0.38286418634E+02  0.10566000000E+00 0. -1.
         23    2    1    0    0    0 -0.27329448193E+02 -0.15350623574E+02  0.13704020256E+02  0.90789759518E+02  0.84097799493E+02 0.  0.
         13    1    3    3    0    0 -0.62492382782E+01 -0.33038563730E+02  0.40323565908E+02  0.52503340884E+02  0.10566000000E+00 0.  1.
         22    1    1    0    0    0  0.27329448193E+02  0.15350623574E+02 -0.13704020256E+02  0.34210240482E+02  0.00000000000E+00 0.  1.
</event>
<event>
 5    1  0.8943334E-005  0.9118800E+02  0.7818608E-02  0.1130116E+00
         25   -1    0    0    0    0  0.00000000000E+00  0.00000000000E+00  0.99999998245E-14  0.12500000000E+03  0.12500000000E+03 0.  0.
        -13    1    3    3    0    0  0.32833370544E+02 -0.67972621353E+01  0.51999077380E+01  0.33930564368E+02  0.10566000000E+00 0.  1.
         23    2    1    0    0    0 -0.26782863297E+02 -0.35917359398E+00 -0.11001062839E+02  0.96043581789E+02  0.91574534927E+02 0.  0.
         13    1    3    3    0    0 -0.59616233841E+02  0.64380885414E+01 -0.16200970577E+02  0.62113017421E+02  0.10566000000E+00 0. -1.
         22    1    1    0    0    0  0.26782863297E+02  0.35917359398E+00  0.11001062839E+02  0.28956418211E+02  0.00000000000E+00 0. -1.
</event>
<event>
 5    1  0.8943334E-005  0.9118800E+02  0.7818608E-02  0.1130116E+00
         25   -1    0    0    0    0  0.00000000000E+00  0.00000000000E+00  0.99999998245E-14  0.12500000000E+03  0.12500000000E+03 0.  0.
        -13    1    3    3    0    0  0.41146454481E+02 -0.33475565287E+02 -0.79601257197E+01  0.53637850005E+02  0.10566000000E+00 0. -1.
         23    2    1    0    0    0  0.49211205191E+00 -0.28180459408E+02  0.44348888793E+01  0.96468461203E+02  0.92152673867E+02 0.  0.
         13    1    3    3    0    0 -0.40654342430E+02  0.52951058790E+01  0.12395014599E+02  0.42830611198E+02  0.10566000000E+00 0.  1.
         22    1    1    0    0    0 -0.49211205191E+00  0.28180459408E+02 -0.44348888793E+01  0.28531538797E+02  0.00000000000E+00 0. -1.
</event>
<event>
 5    1  0.8943334E-005  0.9118800E+02  0.7818608E-02  0.1130116E+00
         25   -1    0    0    0    0  0.00000000000E+00  0.00000000000E+00  0.99999998245E-14  0.12500000000E+03  0.12500000000E+03 0.  0.
        -13    1    3    3    0    0 -0.64227851857E+01  0.64298663493E+01  0.42273564959E+02  0.43239574573E+02  0.10566000000E+00 0. -1.
         23    2    1    0    0    0  0.25541528041E+02 -0.13278061539E+02  0.57084681642E+01  0.95652714236E+02  0.91039434088E+02 0.  0.
         13    1    3    3    0    0  0.31964313227E+02 -0.19707927889E+02 -0.36565096795E+02  0.52413139664E+02  0.10566000000E+00 0.  1.
         22    1    1    0    0    0 -0.25541528041E+02  0.13278061539E+02 -0.57084681642E+01  0.29347285764E+02  0.00000000000E+00 0. -1.
</event>
<event>
 5    1  0.8943334E-005  0.9118800E+02  0.7818608E-02  0.1130116E+00
         25   -1    0    0    0    0  0.00000000000E+00  0.00000000000E+00  0.99999998245E-14  0.12500000000E+03  0.12500000000E+03 0.  0.
        -13    1    3    3    0    0 -0.16423621483E+02 -0.18736722675E+02 -0.20402552269E+02  0.32203655419E+02  0.10566000000E+00 0. -1.
         23    2    1    0    0    0  0.31316908808E+02  0.42242966846E+01  0.81248711003E+01  0.92371684227E+02  0.86417134046E+02 0.  0.
         13    1    3    3    0    0  0.47740530291E+02  0.22961019360E+02  0.28527423369E+02  0.60168028808E+02  0.10566000000E+00 0.  1.
         22    1    1    0    0    0 -0.31316908808E+02 -0.42242966846E+01 -0.81248711003E+01  0.32628315773E+02  0.00000000000E+00 0.  1.
</event>
<event>
 5    1  0.8943334E-005  0.9118800E+02  0.7818608E-02  0.1130116E+00
         25   -1    0    0    0    0  0.00000000000E+00  0.00000000000E+00  0.99999998245E-14  0.12500000000E+03  0.12500000000E+03 0.  0.
        -13    1    3    3    0    0  0.54214790406E+01  0.58572528267E+02 -0.19023931224E+02  0.61822767860E+02  0.10566000000E+00 0.  1.
         23    2    1    0    0    0  0.41773765790E+01  0.29715734293E+02 -0.30290248067E+01  0.94839590007E+02  0.89916058087E+02 0.  0.
         13    1    3    3    0    0 -0.12441024617E+01 -0.28856793974E+02  0.15994906417E+02  0.33016822148E+02  0.10566000000E+00 0. -1.
         22    1    1    0    0    0 -0.41773765790E+01 -0.29715734293E+02  0.30290248067E+01  0.30160409993E+02  0.00000000000E+00 0.  1.
</event>
<event>
 5    1  0.8943334E-005  0.9118800E+02  0.7818608E-02  0.1130116E+00
         25   -1    0    0    0    0  0.00000000000E+00  0.00000000000E+00  0.99999998245E-14  0.12500000000E+03  0.12500000000E+03 0.  0.
        -13    1    3    3    0    0 -0.31765218645E+02  0.37382024550E+01 -0.21791658449E+02  0.38702594424E+02  0.10566000000E+00 0. -1.
         23    2    1    0    0    0  0.76738363835E+00  0.18579381153E+02  0.22618289398E+02  0.95719130870E+02  0.91130580584E+02 0.  0.
         13    1    3    3    0    0  0.32532602283E+02  0.14841178698E+02  0.44409947847E+02  0.57016536446E+02  0.10566000000E+00 0.  1.
         22    1    1    0    0    0 -0.76738363835E+00 -0.18579381153E+02 -0.22618289398E+02  0.29280869130E+02  0.00000000000E+00 0.  1.
</event>
<event>
 5    1  0.8943334E-005  0.9118800E+02  0.7818608E-02  0.1130116E+00
         25   -1    0    0    0    0  0.00000000000E+00  0.00000000000E+00  0.99999998245E-14  0.12500000000E+03  0.12500000000E+03 0.  0.
        -13    1    3    3    0    0 -0.80257911733E+01  0.56423493039E+02  0.24143185200E+02  0.61894494475E+02  0.10566000000E+00 0. -1.
         23    2    1    0    0    0 -0.92324506074E+01  0.22000442357E+02  0.10061434909E+02  0.99106176788E+02  0.95663703655E+02 0.  0.
         13    1    3    3    0    0 -0.12066594340E+01 -0.34423050682E+02 -0.14081750291E+02  0.37211682313E+02  0.10566000000E+00 0.  1.
         22    1    1    0    0    0  0.92324506074E+01 -0.22000442357E+02 -0.10061434909E+02  0.25893823212E+02  0.00000000000E+00 0. -1.
</event>
<event>
 5    1  0.8943334E-005  0.9118800E+02  0.7818608E-02  0.1130116E+00
         25   -1    0    0    0    0  0.00000000000E+00  0.00000000000E+00  0.99999998245E-14  0.12500000000E+03  0.12500000000E+03 0.  0.
        -13    1    3    3    0    0 -0.38893818008E+02 -0.16168598986E+02 -0.16423247792E+02  0.45209367441E+02  0.10566000000E+00 0.  1.
         23    2    1    0    0    0  0.10252529725E+02 -0.22763340261E+02 -0.16993543884E+02  0.94799593391E+02  0.89860438168E+02 0.  0.
         13    1    3    3    0    0  0.49146347733E+02 -0.65947412757E+01 -0.57029609243E+00  0.49590225949E+02  0.10566000000E+00 0. -1.
         22    1    1    0    0    0 -0.10252529725E+02  0.22763340261E+02  0.16993543884E+02  0.30200406609E+02  0.00000000000E+00 0. -1.
</event>
<event>
 5    1  0.8943334E-005  0.9118800E+02  0.7818608E-02  0.1130116E+00
         25   -1    0    0    0    0  0.00000000000E+00  0.00000000000E+00  0.99999998245E-14  0.12500000000E+03  0.12500000000E+03 0.  0.
        -13    1    3    3    0    0 -0.52160912544E+02  0.19040785118E+02  0.28160489555E+02  0.62260233145E+02  0.10566000000E+00 0. -1.
         23    2    1    0    0    0 -0.24174805495E+02  0.12876528267E+02  0.14544302374E+02  0.93987697079E+02  0.88723865277E+02 0.  0.
         13    1    3    3    0    0  0.27986107049E+02 -0.61642568506E+01 -0.13616187181E+02  0.31727463934E+02  0.10566000000E+00 0.  1.
         22    1    1    0    0    0  0.24174805495E+02 -0.12876528267E+02 -0.14544302374E+02  0.31012302921E+02  0.00000000000E+00 0. -1.
</event>
<event>
 5    1  0.8943334E-005  0.9118800E+02  0.7818608E-02  0.1130116E+00
         25   -1    0    0    0    0  0.00000000000E+00  0.00000000000E+00  0.99999998245E-14  0.12500000000E+03  0.12500000000E+03 0.  0.
        -13    1    3    3    0    0  0.13372405973E+01  0.33970528581E+02  0.39437022347E+01  0.34224975907E+02  0.10566000000E+00 0.  1.
         23    2    1    0    0    0 -0.12146959247E+02 -0.26060033776E+02  0.52866323555E+01  0.95766073458E+02  0.91194947034E+02 0.  0.
         13    1    3    3    0    0 -0.13484199845E+02 -0.60030562358E+02  0.13429301208E+01  0.61541097551E+02  0.10566000000E+00 0. -1.
         22    1    1    0    0    0  0.12146959247E+02  0.26060033776E+02 -0.52866323555E+01  0.29233926542E+02  0.00000000000E+00 0. -1.
</event>
<event>
 5    1  0.8943334E-005  0.9118800E+02  0.7818608E-02  0.1130116E+00
         25   -1    0    0    0    0  0.00000000000E+00  0.00000000000E+00  0.99999998245E-14  0.12500000000E+03  0.12500000000E+03 0.  0.
        -13    1    3    3    0    0  0.47471217913E+01 -0.18447166689E+02  0.31662871005E+02  0.36951071547E+02  0.10566000000E+00 0.  1.
         23    2    1    0    0    0  0.13500901139E+02  0.10816233735E+02 -0.20976289655E+02  0.97810480485E+02  0.93955415604E+02 0.  0.
         13    1    3    3    0    0  0.87537793472E+01  0.29263400423E+02 -0.52639160660E+02  0.60859408938E+02  0.10566000000E+00 0. -1.
         22    1    1    0    0    0 -0.13500901139E+02 -0.10816233735E+02  0.20976289655E+02  0.27189519515E+02  0.00000000000E+00 0. -1.
</event>
<event>
 5    1  0.8943334E-005  0.9118800E+02  0.7818608E-02  0.1130116E+00
         25   -1    0    0    0    0  0.00000000000E+00  0.00000000000E+00  0.99999998245E-14  0.12500000000E+03  0.12500000000E+03 0.  0.
        -13    1    3    3    0    0  0.30906109345E+02  0.22023481481E+02 -0.10734689863E+02  0.39439397331E+02  0.10566000000E+00 0. -1.
         23    2    1    0    0    0  0.15744033288E+01 -0.84655145092E+01  0.27327077963E+02  0.96348422875E+02  0.91989704418E+02 0.  0.
         13    1    3    3    0    0 -0.29331706016E+02 -0.30488995990E+02  0.38061767826E+02  0.56909025544E+02  0.10566000000E+00 0.  1.
         22    1    1    0    0    0 -0.15744033288E+01  0.84655145092E+01 -0.27327077963E+02  0.28651577125E+02  0.00000000000E+00 0.  1.
</event>
<event>
 5    1  0.8943334E-005  0.9118800E+02  0.7818608E-02  0.1130116E+00
         25   -1    0    0    0    0  0.00000000000E+00  0.00000000000E+00  0.99999998245E-14  0.12500000000E+03  0.12500000000E+03 0.  0.
        -13    1    3    3    0    0  0.47680745141E+02  0.29474625977E+02  0.18517368134E+02  0.59034829723E+02  0.10566000000E+00 0.  1.
         23    2    1    0    0    0  0.25393250466E+02 -0.17773199712E+00  0.23561181599E+01  0.99497057999E+02  0.96173096549E+02 0.  0.
         13    1    3    3    0    0 -0.22287494675E+02 -0.29652357974E+02 -0.16161249974E+02  0.40462228277E+02  0.10566000000E+00 0. -1.
         22    1    1    0    0    0 -0.25393250466E+02  0.17773199712E+00 -0.23561181599E+01  0.25502942001E+02  0.00000000000E+00 0.  1.
</event>
<event>
 5    1  0.8943334E-005  0.9118800E+02  0.7818608E-02  0.1130116E+00
         25   -1    0    0    0    0  0.00000000000E+00  0.00000000000E+00  0.99999998245E-14  0.12500000000E+03  0.12500000000E+03 0.  0.
        -13    1    3    3    0    0  0.53500249451E+01 -0.29260423144E+02  0.17859276333E+02  0.34695245275E+02  0.10566000000E+00 0. -1.
         23    2    1    0    0    0 -0.24611489369E+02  0.14734265589E+02 -0.98081438954E+01  0.94684596686E+02  0.89700329830E+02 0.  0.
         13    1    3    3    0    0 -0.29961514314E+02  0.43994688732E+02 -0.27667420229E+02  0.59989351412E+02  0.10566000000E+00 0.  1.
         22    1    1    0    0    0  0.24611489369E+02 -0.14734265589E+02  0.98081438954E+01  0.30315403314E+02  0.00000000000E+00 0.  1.
</event>
<event>
 5    1  0.8943334E-005  0.9118800E+02  0.7818608E-02  0.1130116E+00
         25   -1    0    0    0    0  0.00000000000E+00  0.00000000000E+00  0.99999998245E-14  0.12500000000E+03  0.12500000000E+03 0.  0.
        -13    1    3    3    0    0  0.23981313349E+01  0.16122343226E+02 -0.59363557477E+02  0.61560735094E+02  0.10566000000E+00 0.  1.
         23    2    1    0    0    0 -0.33247864408E+01  0.14688426010E+01 -0.29146728367E+02  0.95627504737E+02  0.91004814072E+02 0.  0.
         13    1    3    3    0    0 -0.57229177757E+01 -0.14653500625E+02  0.30216829110E+02  0.34066769643E+02  0.10566000000E+00 0. -1.
         22    1    1    0    0    0  0.33247864408E+01 -0.14688426010E+01  0.29146728367E+02  0.29372495263E+02  0.00000000000E+00 0.  1.
</event>
<event>
 5    1  0.8943334E-005  0.9118800E+02  0.7818608E-02  0.1130116E+00
         25   -1    0    0    0    0  0.00000000000E+00  0.00000000000E+00  0.99999998245E-14  0.12500000000E+03  0.12500000000E+03 0.  0.
        -13    1    3    3    0    0  0.26061063776E+02 -0.37561920604E+02  0.98071003706E+01  0.46757537428E+02  0.10566000000E+00 0.  1.
         23    2    1    0    0    0  0.22330647387E+02  0.11474343863E+02  0.14242753944E+02  0.96135239136E+02  0.91699562616E+02 0.  0.
         13    1    3    3    0    0 -0.37304163883E+01  0.49036264467E+02  0.44356535736E+01  0.49377701708E+02  0.10566000000E+00 0. -1.
         22    1    1    0    0    0 -0.22330647387E+02 -0.11474343863E+02 -0.14242753944E+02  0.28864760864E+02  0.00000000000E+00 0.  1.
</event>
<event>
 5    1  0.8943334E-005  0.9118800E+02  0.7818608E-02  0.1130116E+00
         25   -1    0    0    0    0  0.00000000000E+00  0.00000000000E+00  0.99999998245E-14  0.12500000000E+03  0.12500000000E+03 0.  0.
        -13    1    3    3    0    0 -0.36860550234E+02 -0.28156606487E+02  0.34041342965E+02  0.57535370402E+02  0.10566000000E+00 0.  1.
         23    2    1    0    0    0 -0.19561070156E+02 -0.19912740364E+02 -0.55103295271E+00  0.97081254832E+02  0.92980179113E+02 0.  0.
         13    1    3    3    0    0  0.17299480078E+02  0.82438661229E+01 -0.34592375918E+02  0.39545884429E+02  0.10566000000E+00 0. -1.
         22    1    1    0    0    0  0.19561070156E+02  0.19912740364E+02  0.55103295271E+00  0.27918745168E+02  0.00000000000E+00 0.  1.
</event>
<event>
 5    1  0.8943334E-005  0.9118800E+02  0.7818608E-02  0.1130116E+00
         25   -1    0    0    0    0  0.00000000000E+00  0.00000000000E+00  0.99999998245E-14  0.12500000000E+03  0.12500000000E+03 0.  0.
        -13    1    3    3    0    0 -0.18018963528E+02 -0.16499393795E+02  0.22971460861E+02  0.33535238487E+02  0.10566000000E+00 0. -1.
         23    2    1    0    0    0  0.11534847618E+02  0.96033475660E+01 -0.25127616634E+02  0.95731004258E+02  0.91146865357E+02 0.  0.
         13    1    3    3    0    0  0.29553811146E+02  0.26102741361E+02 -0.48099077496E+02  0.62195765771E+02  0.10566000000E+00 0.  1.
         22    1    1    0    0    0 -0.11534847618E+02 -0.96033475660E+01  0.25127616634E+02  0.29268995742E+02  0.00000000000E+00 0.  1.
</event>
<event>
 5    1  0.8943334E-005  0.9118800E+02  0.7818608E-02  0.1130116E+00
         25   -1    0    0    0    0  0.00000000000E+00  0.00000000000E+00  0.99999998245E-14  0.12500000000E+03  0.12500000000E+03 0.  0.
        -13    1    3    3    0    0 -0.60697182389E+02  0.82615341413E+01  0.66989415436E+01  0.61622137890E+02  0.10566000000E+00 0.  1.
         23    2    1    0    0    0 -0.30134487120E+02 -0.29606118923E+01  0.56548600790E+01  0.94196916075E+02  0.89018138706E+02 0.  0.
         13    1    3    3    0    0  0.30562695268E+02 -0.11222146034E+02 -0.10440814646E+01  0.32574778185E+02  0.10566000000E+00 0. -1.
         22    1    1    0    0    0  0.30134487120E+02  0.29606118923E+01 -0.56548600790E+01  0.30803083925E+02  0.00000000000E+00 0.  1.
</event>
<event>
 5    1  0.8943334E-005  0.9118800E+02  0.7818608E-02  0.1130116E+00
         25   -1    0    0    0    0  0.00000000000E+00  0.00000000000E+00  0.99999998245E-14  0.12500000000E+03  0.12500000000E+03 0.  0.
        -13    1    3    3    0    0 -0.39815813992E+02  0.16346878459E+02  0.43086196905E+01  0.43256153862E+02  0.10566000000E+00 0.  1.
         23    2    1    0    0    0  0.13157482907E+02  0.24260879488E+02 -0.26783852434E+01  0.97271253590E+02  0.93235258339E+02 0.  0.
         13    1    3    3    0    0  0.52973296899E+02  0.79140010288E+01 -0.69870049340E+01  0.54015099728E+02  0.10566000000E+00 0. -1.
         22    1    1    0    0    0 -0.13157482907E+02 -0.24260879488E+02  0.26783852434E+01  0.27728746410E+02  0.00000000000E+00 0. -1.
</event>
<event>
 5    1  0.8943334E-005  0.9118800E+02  0.7818608E-02  0.1130116E+00
         25   -1    0    0    0    0  0.00000000000E+00  0.00000000000E+00  0.99999998245E-14  0.12500000000E+03  0.12500000000E+03 0.  0.
        -13    1    3    3    0    0 -0.65534975607E+01 -0.44469436162E+02 -0.23588928141E+02  0.50763449230E+02  0.10566000000E+00 0.  1.
         23    2    1    0    0    0 -0.18598336781E+01 -0.15980539321E+02  0.17657987106E+02  0.10111190407E+03  0.98249559890E+02 0.  0.
         13    1    3    3    0    0  0.46936638826E+01  0.28488896841E+02  0.41246915247E+02  0.50348454845E+02  0.10566000000E+00 0. -1.
         22    1    1    0    0    0  0.18598336781E+01  0.15980539321E+02 -0.17657987106E+02  0.23888095925E+02  0.00000000000E+00 0. -1.
</event>
<event>
 5    1  0.8943334E-005  0.9118800E+02  0.7818608E-02  0.1130116E+00
         25   -1    0    0    0    0  0.00000000000E+00  0.00000000000E+00  0.99999998245E-14  0.12500000000E+03  0.12500000000E+03 0.  0.
        -13    1    3    3    0    0 -0.39473444490E+02 -0.13693741717E+02  0.35778362892E+02  0.55007034071E+02  0.10566000000E+00 0. -1.
         23    2    1    0    0    0 -0.84937293915E+01 -0.25469743775E+02  0.13436780292E+02  0.94976703186E+02  0.90106469227E+02 0.  0.
         13    1    3    3    0    0  0.30979715098E+02 -0.11776002058E+02 -0.22341582600E+02  0.39969669115E+02  0.10566000000E+00 0.  1.
         22    1    1    0    0    0  0.84937293915E+01  0.25469743775E+02 -0.13436780292E+02  0.30023296814E+02  0.00000000000E+00 0. -1.
</event>
<event>
 5    1  0.8943334E-005  0.9118800E+02  0.7818608E-02  0.1130116E+00
         25   -1    0    0    0    0  0.00000000000E+00  0.00000000000E+00  0.99999998245E-14  0.12500000000E+03  0.12500000000E+03 0.  0.
        -13    1    3    3    0    0  0.22554310189E+02 -0.45518445055E+02  0.52949999019E+01  0.51075179259E+02  0.10566000000E+00 0. -1.
         23    2    1    0    0    0  0.25644951505E+02 -0.26308898827E+01  0.15025401781E+02  0.95161303347E+02  0.90362192518E+02 0.  0.
         13    1    3    3    0    0  0.30906413163E+01  0.42887555172E+02  0.97304018787E+01  0.44086124088E+02  0.10566000000E+00 0.  1.
         22    1    1    0    0    0 -0.25644951505E+02  0.26308898827E+01 -0.15025401781E+02  0.29838696653E+02  0.00000000000E+00 0.  1.
</event>
<event>
 5    1  0.8943334E-005  0.9118800E+02  0.7818608E-02  0.1130116E+00
         25   -1    0    0    0    0  0.00000000000E+00  0.00000000000E+00  0.99999998245E-14  0.12500000000E+03  0.12500000000E+03 0.  0.
        -13    1    3    3    0    0  0.33546595106E+02  0.87978680369E+01  0.33284485034E+02  0.48069165098E+02  0.10566000000E+00 0.  1.
         23    2    1    0    0    0 -0.13097657828E+02  0.12723069609E+02  0.22351093200E+02  0.96138321115E+02  0.91703763711E+02 0.  0.
         13    1    3    3    0    0 -0.46644252934E+02  0.39252015717E+01 -0.10933391834E+02  0.48069156017E+02  0.10566000000E+00 0. -1.
         22    1    1    0    0    0  0.13097657828E+02 -0.12723069609E+02 -0.22351093200E+02  0.28861678885E+02  0.00000000000E+00 0. -1.
</event>
<event>
 5    1  0.8943334E-005  0.9118800E+02  0.7818608E-02  0.1130116E+00
         25   -1    0    0    0    0  0.00000000000E+00  0.00000000000E+00  0.99999998245E-14  0.12500000000E+03  0.12500000000E+03 0.  0.
        -13    1    3    3    0    0  0.34888681361E+02 -0.56418171842E+01  0.40718826069E+02  0.53917382622E+02  0.10566000000E+00 0.  1.
         23    2    1    0    0    0  0.14449778010E+01  0.13251778256E+02  0.27324175917E+02  0.94597562971E+02  0.89578963729E+02 0.  0.
         13    1    3    3    0    0 -0.33443703560E+02  0.18893595440E+02 -0.13394650153E+02  0.40680180349E+02  0.10566000000E+00 0. -1.
         22    1    1    0    0    0 -0.14449778010E+01 -0.13251778256E+02 -0.27324175917E+02  0.30402437029E+02  0.00000000000E+00 0.  1.
</event>
<event>
 5    1  0.8943334E-005  0.9118800E+02  0.7818608E-02  0.1130116E+00
         25   -1    0    0    0    0  0.00000000000E+00  0.00000000000E+00  0.99999998245E-14  0.12500000000E+03  0.12500000000E+03 0.  0.
        -13    1    3    3    0    0 -0.24422231325E+02 -0.26471202731E+02 -0.35752066927E+02  0.50748314361E+02  0.10566000000E+00 0. -1.
         23    2    1    0    0    0 -0.13854305953E+02 -0.15210222931E+02  0.12169064072E+02  0.10109646898E+03  0.98229920309E+02 0.  0.
         13    1    3    3    0    0  0.10567925372E+02  0.11260979800E+02  0.47921131000E+02  0.50348154614E+02  0.10566000000E+00 0.  1.
         22    1    1    0    0    0  0.13854305953E+02  0.15210222931E+02 -0.12169064072E+02  0.23903531024E+02  0.00000000000E+00 0.  1.
</event>
<event>
 5    1  0.8943334E-005  0.9118800E+02  0.7818608E-02  0.1130116E+00
         25   -1    0    0    0    0  0.00000000000E+00  0.00000000000E+00  0.99999998245E-14  0.12500000000E+03  0.12500000000E+03 0.  0.
        -13    1    3    3    0    0  0.14660869537E+02  0.47548364044E+02 -0.27846854214E+01  0.49835265182E+02  0.10566000000E+00 0.  1.
         23    2    1    0    0    0 -0.21008176425E+02  0.25126051449E+02 -0.41363897749E+01  0.91988310275E+02  0.85860803449E+02 0.  0.
         13    1    3    3    0    0 -0.35669045961E+02 -0.22422312596E+02 -0.13517043535E+01  0.42153045093E+02  0.10566000000E+00 0. -1.
         22    1    1    0    0    0  0.21008176425E+02 -0.25126051449E+02  0.41363897749E+01  0.33011689725E+02  0.00000000000E+00 0.  1.
</event>
<event>
 5    1  0.8943334E-005  0.9118800E+02  0.7818608E-02  0.1130116E+00
         25   -1    0    0    0    0  0.00000000000E+00  0.00000000000E+00  0.99999998245E-14  0.12500000000E+03  0.12500000000E+03 0.  0.
        -13    1    3    3    0    0 -0.26677416888E+02 -0.27490553492E+02 -0.21569498804E+02  0.43962137639E+02  0.10566000000E+00 0.  1.
         23    2    1    0    0    0 -0.20699367967E+02  0.88245902829E+00  0.21020347413E+02  0.95485637842E+02  0.90809743203E+02 0.  0.
         13    1    3    3    0    0  0.59780489204E+01  0.28373012520E+02  0.42589846217E+02  0.51523500203E+02  0.10566000000E+00 0. -1.
         22    1    1    0    0    0  0.20699367967E+02 -0.88245902829E+00 -0.21020347413E+02  0.29514362158E+02  0.00000000000E+00 0. -1.
</event>
<event>
 5    1  0.8943334E-005  0.9118800E+02  0.7818608E-02  0.1130116E+00
         25   -1    0    0    0    0  0.00000000000E+00  0.00000000000E+00  0.99999998245E-14  0.12500000000E+03  0.12500000000E+03 0.  0.
        -13    1    3    3    0    0 -0.20327951622E+02  0.62641053519E+01  0.47237014472E+02  0.51805514506E+02  0.10566000000E+00 0.  1.
         23    2    1    0    0    0  0.14912301731E+02 -0.66134177669E+01  0.24141520504E+02  0.95863647282E+02  0.91328592569E+02 0.  0.
         13    1    3    3    0    0  0.35240253352E+02 -0.12877523119E+02 -0.23095493969E+02  0.44058132776E+02  0.10566000000E+00 0. -1.
         22    1    1    0    0    0 -0.14912301731E+02  0.66134177669E+01 -0.24141520504E+02  0.29136352718E+02  0.00000000000E+00 0. -1.
</event>
<event>
 5    1  0.8943334E-005  0.9118800E+02  0.7818608E-02  0.1130116E+00
         25   -1    0    0    0    0  0.00000000000E+00  0.00000000000E+00  0.99999998245E-14  0.12500000000E+03  0.12500000000E+03 0.  0.
        -13    1    3    3    0    0  0.91637820666E+01  0.22065873150E+01 -0.40770556778E+02  0.41846067836E+02  0.10566000000E+00 0. -1.
         23    2    1    0    0    0 -0.28477912062E+02  0.48862379877E+01 -0.18666794509E+01  0.96045703441E+02  0.91577430954E+02 0.  0.
         13    1    3    3    0    0 -0.37641694128E+02  0.26796506727E+01  0.38903877327E+02  0.54199635605E+02  0.10566000000E+00 0.  1.
         22    1    1    0    0    0  0.28477912062E+02 -0.48862379877E+01  0.18666794509E+01  0.28954296559E+02  0.00000000000E+00 0. -1.
</event>
<event>
 5    1  0.8943334E-005  0.9118800E+02  0.7818608E-02  0.1130116E+00
         25   -1    0    0    0    0  0.00000000000E+00  0.00000000000E+00  0.99999998245E-14  0.12500000000E+03  0.12500000000E+03 0.  0.
        -13    1    3    3    0    0 -0.83465496196E-02 -0.46366255208E+02 -0.17122860012E+02  0.49427049181E+02  0.10566000000E+00 0.  1.
         23    2    1    0    0    0  0.22710708079E+02 -0.15835115234E+02  0.93408286477E+01  0.95780516504E+02  0.91214741824E+02 0.  0.
         13    1    3    3    0    0  0.22719054629E+02  0.30531139974E+02  0.26463688660E+02  0.46353467323E+02  0.10566000000E+00 0. -1.
         22    1    1    0    0    0 -0.22710708079E+02  0.15835115234E+02 -0.93408286477E+01  0.29219483496E+02  0.00000000000E+00 0. -1.
</event>
<event>
 5    1  0.8943334E-005  0.9118800E+02  0.7818608E-02  0.1130116E+00
         25   -1    0    0    0    0  0.00000000000E+00  0.00000000000E+00  0.99999998245E-14  0.12500000000E+03  0.12500000000E+03 0.  0.
        -13    1    3    3    0    0 -0.17573270789E+02 -0.18683187091E+02  0.29940197279E+02  0.39424711835E+02  0.10566000000E+00 0.  1.
         23    2    1    0    0    0 -0.74720532840E+01  0.28041939578E+02 -0.27613600623E+00  0.95978314890E+02  0.91485401690E+02 0.  0.
         13    1    3    3    0    0  0.10101217505E+02  0.46725126668E+02 -0.30216333285E+02  0.56553603055E+02  0.10566000000E+00 0. -1.
         22    1    1    0    0    0  0.74720532840E+01 -0.28041939578E+02  0.27613600623E+00  0.29021685110E+02  0.00000000000E+00 0. -1.
</event>
<event>
 5    1  0.8943334E-005  0.9118800E+02  0.7818608E-02  0.1130116E+00
         25   -1    0    0    0    0  0.00000000000E+00  0.00000000000E+00  0.99999998245E-14  0.12500000000E+03  0.12500000000E+03 0.  0.
        -13    1    3    3    0    0 -0.25121075571E+02  0.52334186899E+02  0.83810550095E+01  0.58653122707E+02  0.10566000000E+00 0. -1.
         23    2    1    0    0    0 -0.13480378291E+02  0.21144522973E+02 -0.11482414019E+02  0.97419984004E+02  0.93434447614E+02 0.  0.
         13    1    3    3    0    0  0.11640697279E+02 -0.31189663926E+02 -0.19863469028E+02  0.38766861297E+02  0.10566000000E+00 0.  1.
         22    1    1    0    0    0  0.13480378291E+02 -0.21144522973E+02  0.11482414019E+02  0.27580015996E+02  0.00000000000E+00 0. -1.
</event>
<event>
 5    1  0.8943334E-005  0.9118800E+02  0.7818608E-02  0.1130116E+00
         25   -1    0    0    0    0  0.00000000000E+00  0.00000000000E+00  0.99999998245E-14  0.12500000000E+03  0.12500000000E+03 0.  0.
        -13    1    3    3    0    0  0.24183205209E+02 -0.17671530478E+02  0.12598485297E+02  0.32493744004E+02  0.10566000000E+00 0. -1.
         23    2    1    0    0    0 -0.16948803166E+02  0.16820529860E+02 -0.18734384856E+02  0.94649228519E+02  0.89651029720E+02 0.  0.
         13    1    3    3    0    0 -0.41132008375E+02  0.34492060337E+02 -0.31332870153E+02  0.62155484515E+02  0.10566000000E+00 0.  1.
         22    1    1    0    0    0  0.16948803166E+02 -0.16820529860E+02  0.18734384856E+02  0.30350771481E+02  0.00000000000E+00 0.  1.
</event>
<event>
 5    1  0.8943334E-005  0.9118800E+02  0.7818608E-02  0.1130116E+00
         25   -1    0    0    0    0  0.00000000000E+00  0.00000000000E+00  0.99999998245E-14  0.12500000000E+03  0.12500000000E+03 0.  0.
        -13    1    3    3    0    0 -0.48494360292E+02  0.25270759878E+02 -0.18124663834E+02  0.57609277795E+02  0.10566000000E+00 0. -1.
         23    2    1    0    0    0 -0.18989007006E+02  0.20482827693E+02  0.64830095551E+01  0.96326701790E+02  0.91960184033E+02 0.  0.
         13    1    3    3    0    0  0.29505353286E+02 -0.47879321842E+01  0.24607673389E+02  0.38717423995E+02  0.10566000000E+00 0.  1.
         22    1    1    0    0    0  0.18989007006E+02 -0.20482827693E+02 -0.64830095551E+01  0.28673298210E+02  0.00000000000E+00 0. -1.
</event>
<event>
 5    1  0.8943334E-005  0.9118800E+02  0.7818608E-02  0.1130116E+00
         25   -1    0    0    0    0  0.00000000000E+00  0.00000000000E+00  0.99999998245E-14  0.12500000000E+03  0.12500000000E+03 0.  0.
        -13    1    3    3    0    0 -0.36780337453E+02 -0.23682815370E+02  0.87323837001E+01  0.44608683641E+02  0.10566000000E+00 0.  1.
         23    2    1    0    0    0  0.11016928655E+02 -0.28224903988E+02 -0.43960479288E+01  0.94383939517E+02  0.89280372307E+02 0.  0.
         13    1    3    3    0    0  0.47797266109E+02 -0.45420886180E+01 -0.13128431629E+02  0.49775255876E+02  0.10566000000E+00 0. -1.
         22    1    1    0    0    0 -0.11016928655E+02  0.28224903988E+02  0.43960479288E+01  0.30616060483E+02  0.00000000000E+00 0.  1.
</event>
<event>
 5    1  0.8943334E-005  0.9118800E+02  0.7818608E-02  0.1130116E+00
         25   -1    0    0    0    0  0.00000000000E+00  0.00000000000E+00  0.99999998245E-14  0.12500000000E+03  0.12500000000E+03 0.  0.
        -13    1    3    3    0    0 -0.19760768256E+02 -0.34897852005E+02  0.28894186161E+02  0.49429072362E+02  0.10566000000E+00 0.  1.
         23    2    1    0    0    0 -0.28123599348E+02 -0.59633545055E+01 -0.61115687764E+01  0.95608679680E+02  0.90978953171E+02 0.  0.
         13    1    3    3    0    0 -0.83628310915E+01  0.28934497499E+02 -0.35005754937E+02  0.46179607319E+02  0.10566000000E+00 0. -1.
         22    1    1    0    0    0  0.28123599348E+02  0.59633545055E+01  0.61115687764E+01  0.29391320320E+02  0.00000000000E+00 0. -1.
</event>
<event>
 5    1  0.8943334E-005  0.9118800E+02  0.7818608E-02  0.1130116E+00
         25   -1    0    0    0    0  0.00000000000E+00  0.00000000000E+00  0.99999998245E-14  0.12500000000E+03  0.12500000000E+03 0.  0.
        -13    1    3    3    0    0 -0.18936935927E+02  0.47495892963E+02  0.25008361574E+02  0.56920090507E+02  0.10566000000E+00 0.  1.
         23    2    1    0    0    0  0.80935285462E+01  0.27071249780E+02  0.48841954907E+01  0.96325740907E+02  0.91958877911E+02 0.  0.
         13    1    3    3    0    0  0.27030464473E+02 -0.20424643184E+02 -0.20124166084E+02  0.39405650400E+02  0.10566000000E+00 0. -1.
         22    1    1    0    0    0 -0.80935285462E+01 -0.27071249780E+02 -0.48841954907E+01  0.28674259093E+02  0.00000000000E+00 0.  1.
</event>
<event>
 5    1  0.8943334E-005  0.9118800E+02  0.7818608E-02  0.1130116E+00
         25   -1    0    0    0    0  0.00000000000E+00  0.00000000000E+00  0.99999998245E-14  0.12500000000E+03  0.12500000000E+03 0.  0.
        -13    1    3    3    0    0 -0.60149230433E+01 -0.35390461850E+02  0.50988626325E+01  0.36258428722E+02  0.10566000000E+00 0. -1.
         23    2    1    0    0    0 -0.18066946876E+02  0.17224302877E+02 -0.17226859653E+02  0.94670874188E+02  0.89681205094E+02 0.  0.
         13    1    3    3    0    0 -0.12052023832E+02  0.52614764727E+02 -0.22325722286E+02  0.58412445466E+02  0.10566000000E+00 0.  1.
         22    1    1    0    0    0  0.18066946876E+02 -0.17224302877E+02  0.17226859653E+02  0.30329125812E+02  0.00000000000E+00 0.  1.
</event>
<event>
 5    1  0.8943334E-005  0.9118800E+02  0.7818608E-02  0.1130116E+00
         25   -1    0    0    0    0  0.00000000000E+00  0.00000000000E+00  0.99999998245E-14  0.12500000000E+03  0.12500000000E+03 0.  0.
        -13    1    3    3    0    0  0.39259131330E+02  0.16708367801E+00  0.36335903910E+02  0.53494078053E+02  0.10566000000E+00 0.  1.
         23    2    1    0    0    0 -0.39967072900E+00 -0.12388847386E+02  0.25754563551E+02  0.96417823387E+02  0.92083960855E+02 0.  0.
         13    1    3    3    0    0 -0.39658802059E+02 -0.12555931064E+02 -0.10581340359E+02  0.42923745334E+02  0.10566000000E+00 0. -1.
         22    1    1    0    0    0  0.39967072900E+00  0.12388847386E+02 -0.25754563551E+02  0.28582176613E+02  0.00000000000E+00 0.  1.
</event>
<event>
 5    1  0.8943334E-005  0.9118800E+02  0.7818608E-02  0.1130116E+00
         25   -1    0    0    0    0  0.00000000000E+00  0.00000000000E+00  0.99999998245E-14  0.12500000000E+03  0.12500000000E+03 0.  0.
        -13    1    3    3    0    0 -0.27592343660E+02 -0.43503381809E+02  0.12117370096E+02  0.52921862019E+02  0.10566000000E+00 0. -1.
         23    2    1    0    0    0  0.43751692865E+01 -0.26672597719E+02 -0.11006187356E+02  0.95816002065E+02  0.91263358015E+02 0.  0.
         13    1    3    3    0    0  0.31967512946E+02  0.16830784089E+02 -0.23123557452E+02  0.42894140046E+02  0.10566000000E+00 0.  1.
         22    1    1    0    0    0 -0.43751692865E+01  0.26672597719E+02  0.11006187356E+02  0.29183997935E+02  0.00000000000E+00 0. -1.
</event>
<event>
 5    1  0.8943334E-005  0.9118800E+02  0.7818608E-02  0.1130116E+00
         25   -1    0    0    0    0  0.00000000000E+00  0.00000000000E+00  0.99999998245E-14  0.12500000000E+03  0.12500000000E+03 0.  0.
        -13    1    3    3    0    0  0.15599330291E+02  0.11628363131E+02  0.58563607003E+02  0.61711142947E+02  0.10566000000E+00 0.  1.
         23    2    1    0    0    0  0.47330402229E+01 -0.94368945978E+00  0.28790438616E+02  0.95807850794E+02  0.91252192842E+02 0.  0.
         13    1    3    3    0    0 -0.10866290068E+02 -0.12572052590E+02 -0.29773168387E+02  0.34096707847E+02  0.10566000000E+00 0. -1.
         22    1    1    0    0    0 -0.47330402229E+01  0.94368945978E+00 -0.28790438616E+02  0.29192149206E+02  0.00000000000E+00 0.  1.
</event>
<event>
 5    1  0.8943334E-005  0.9118800E+02  0.7818608E-02  0.1130116E+00
         25   -1    0    0    0    0  0.00000000000E+00  0.00000000000E+00  0.99999998245E-14  0.12500000000E+03  0.12500000000E+03 0.  0.
        -13    1    3    3    0    0  0.18853126831E+02 -0.23369091322E+02 -0.17710879660E+02  0.34860310424E+02  0.10566000000E+00 0.  1.
         23    2    1    0    0    0  0.41812338369E+01  0.60552602521E+01  0.30727405595E+02  0.93403760545E+02  0.87897327242E+02 0.  0.
         13    1    3    3    0    0 -0.14671892994E+02  0.29424351574E+02  0.48438285255E+02  0.58543450121E+02  0.10566000000E+00 0. -1.
         22    1    1    0    0    0 -0.41812338369E+01 -0.60552602521E+01 -0.30727405595E+02  0.31596239455E+02  0.00000000000E+00 0. -1.
</event>
<event>
 5    1  0.8943334E-005  0.9118800E+02  0.7818608E-02  0.1130116E+00
         25   -1    0    0    0    0  0.00000000000E+00  0.00000000000E+00  0.99999998245E-14  0.12500000000E+03  0.12500000000E+03 0.  0.
        -13    1    3    3    0    0 -0.25115756690E+02 -0.18344494910E+02 -0.49093237016E+02  0.58116080498E+02  0.10566000000E+00 0. -1.
         23    2    1    0    0    0 -0.16414144423E+02  0.38885570517E+01 -0.35757299768E+02  0.85463567437E+02  0.75768673337E+02 0.  0.
         13    1    3    3    0    0  0.87016122670E+01  0.22233051962E+02  0.13335937248E+02  0.27347486940E+02  0.10566000000E+00 0.  1.
         22    1    1    0    0    0  0.16414144423E+02 -0.38885570517E+01  0.35757299768E+02  0.39536432563E+02  0.00000000000E+00 0. -1.
</event>
<event>
 5    1  0.8943334E-005  0.9118800E+02  0.7818608E-02  0.1130116E+00
         25   -1    0    0    0    0  0.00000000000E+00  0.00000000000E+00  0.99999998245E-14  0.12500000000E+03  0.12500000000E+03 0.  0.
        -13    1    3    3    0    0 -0.53247830596E+02 -0.72584390944E+00 -0.13573280468E+02  0.54955467601E+02  0.10566000000E+00 0. -1.
         23    2    1    0    0    0 -0.15752955240E+02  0.41561155367E+01 -0.25619109361E+02  0.94639373202E+02  0.89637287445E+02 0.  0.
         13    1    3    3    0    0  0.37494875356E+02  0.48819594461E+01 -0.12045828893E+02  0.39683905601E+02  0.10566000000E+00 0.  1.
         22    1    1    0    0    0  0.15752955240E+02 -0.41561155367E+01  0.25619109361E+02  0.30360626798E+02  0.00000000000E+00 0. -1.
</event>
<event>
 5    1  0.8943334E-005  0.9118800E+02  0.7818608E-02  0.1130116E+00
         25   -1    0    0    0    0  0.00000000000E+00  0.00000000000E+00  0.99999998245E-14  0.12500000000E+03  0.12500000000E+03 0.  0.
        -13    1    3    3    0    0  0.26893744926E+02 -0.23145910677E+02  0.68892031162E+01  0.36145248385E+02  0.10566000000E+00 0. -1.
         23    2    1    0    0    0 -0.20404467145E+02  0.13652061094E+02  0.14395519553E+02  0.96540343734E+02  0.92250127010E+02 0.  0.
         13    1    3    3    0    0 -0.47298212071E+02  0.36797971771E+02  0.75063164367E+01  0.60395095348E+02  0.10566000000E+00 0.  1.
         22    1    1    0    0    0  0.20404467145E+02 -0.13652061094E+02 -0.14395519553E+02  0.28459656266E+02  0.00000000000E+00 0.  1.
</event>
<event>
 5    1  0.8943334E-005  0.9118800E+02  0.7818608E-02  0.1130116E+00
         25   -1    0    0    0    0  0.00000000000E+00  0.00000000000E+00  0.99999998245E-14  0.12500000000E+03  0.12500000000E+03 0.  0.
        -13    1    3    3    0    0  0.38140144314E+02 -0.61610765953E+01  0.41963594919E+02  0.57040195789E+02  0.10566000000E+00 0.  1.
         23    2    1    0    0    0  0.20755559757E+02 -0.19204416963E+02  0.11473285953E+02  0.94483788205E+02  0.89420059558E+02 0.  0.
         13    1    3    3    0    0 -0.17384584557E+02 -0.13043340368E+02 -0.30490308966E+02  0.37443592416E+02  0.10566000000E+00 0. -1.
         22    1    1    0    0    0 -0.20755559757E+02  0.19204416963E+02 -0.11473285953E+02  0.30516211795E+02  0.00000000000E+00 0.  1.
</event>
<event>
 5    1  0.8943334E-005  0.9118800E+02  0.7818608E-02  0.1130116E+00
         25   -1    0    0    0    0  0.00000000000E+00  0.00000000000E+00  0.99999998245E-14  0.12500000000E+03  0.12500000000E+03 0.  0.
        -13    1    3    3    0    0 -0.21527643176E+02  0.29231827379E+02  0.28467655199E+02  0.46134127381E+02  0.10566000000E+00 0.  1.
         23    2    1    0    0    0 -0.11981160594E+02 -0.18899471394E+02  0.17938870684E+02  0.96320019010E+02  0.91951099790E+02 0.  0.
         13    1    3    3    0    0  0.95464825820E+01 -0.48131298773E+02 -0.10528784515E+02  0.50185891629E+02  0.10566000000E+00 0. -1.
         22    1    1    0    0    0  0.11981160594E+02  0.18899471394E+02 -0.17938870684E+02  0.28679980990E+02  0.00000000000E+00 0. -1.
</event>
<event>
 5    1  0.8943334E-005  0.9118800E+02  0.7818608E-02  0.1130116E+00
         25   -1    0    0    0    0  0.00000000000E+00  0.00000000000E+00  0.99999998245E-14  0.12500000000E+03  0.12500000000E+03 0.  0.
        -13    1    3    3    0    0 -0.40989247977E+02 -0.31569859003E+02 -0.30287859822E+02  0.59951147310E+02  0.10566000000E+00 0.  1.
         23    2    1    0    0    0 -0.26866024633E+02 -0.13344355053E+02 -0.42958266025E+01  0.94696382765E+02  0.89716752567E+02 0.  0.
         13    1    3    3    0    0  0.14123223344E+02  0.18225503951E+02  0.25992033219E+02  0.34745235455E+02  0.10566000000E+00 0. -1.
         22    1    1    0    0    0  0.26866024633E+02  0.13344355053E+02  0.42958266025E+01  0.30303617235E+02  0.00000000000E+00 0.  1.
</event>
<event>
 5    1  0.8943334E-005  0.9118800E+02  0.7818608E-02  0.1130116E+00
         25   -1    0    0    0    0  0.00000000000E+00  0.00000000000E+00  0.99999998245E-14  0.12500000000E+03  0.12500000000E+03 0.  0.
        -13    1    3    3    0    0  0.34982603981E+02 -0.49737594063E+02  0.12802189332E+02  0.62141114088E+02  0.10566000000E+00 0.  1.
         23    2    1    0    0    0  0.15271283260E+02 -0.23601301333E+02  0.10619526462E+02  0.94949910828E+02  0.90069293918E+02 0.  0.
         13    1    3    3    0    0 -0.19711320721E+02  0.26136292730E+02 -0.21826628704E+01  0.32808796739E+02  0.10566000000E+00 0. -1.
         22    1    1    0    0    0 -0.15271283260E+02  0.23601301333E+02 -0.10619526462E+02  0.30050089172E+02  0.00000000000E+00 0.  1.
</event>
<event>
 5    1  0.8943334E-005  0.9118800E+02  0.7818608E-02  0.1130116E+00
         25   -1    0    0    0    0  0.00000000000E+00  0.00000000000E+00  0.99999998245E-14  0.12500000000E+03  0.12500000000E+03 0.  0.
        -13    1    3    3    0    0 -0.33596310499E+02 -0.38579891785E+02 -0.34306545284E+02  0.61596025380E+02  0.10566000000E+00 0.  1.
         23    2    1    0    0    0 -0.20418979719E+02 -0.15958970891E+02 -0.10311702026E+02  0.97108160991E+02  0.93016343982E+02 0.  0.
         13    1    3    3    0    0  0.13177330780E+02  0.22620920894E+02  0.23994843258E+02  0.35512135611E+02  0.10566000000E+00 0. -1.
         22    1    1    0    0    0  0.20418979719E+02  0.15958970891E+02  0.10311702026E+02  0.27891839009E+02  0.00000000000E+00 0.  1.
</event>
<event>
 5    1  0.8943334E-005  0.9118800E+02  0.7818608E-02  0.1130116E+00
         25   -1    0    0    0    0  0.00000000000E+00  0.00000000000E+00  0.99999998245E-14  0.12500000000E+03  0.12500000000E+03 0.  0.
        -13    1    3    3    0    0  0.68689549957E+01  0.11818697464E+02  0.44286207119E+02  0.46348068541E+02  0.10566000000E+00 0.  1.
         23    2    1    0    0    0  0.27515995051E+02 -0.93415021173E+01  0.50021292745E+01  0.95514156910E+02  0.90848991340E+02 0.  0.
         13    1    3    3    0    0  0.20647040055E+02 -0.21160199581E+02 -0.39284077844E+02  0.49166088369E+02  0.10566000000E+00 0. -1.
         22    1    1    0    0    0 -0.27515995051E+02  0.93415021173E+01 -0.50021292745E+01  0.29485843090E+02  0.00000000000E+00 0.  1.
</event>
<event>
 5    1  0.8943334E-005  0.9118800E+02  0.7818608E-02  0.1130116E+00
         25   -1    0    0    0    0  0.00000000000E+00  0.00000000000E+00  0.99999998245E-14  0.12500000000E+03  0.12500000000E+03 0.  0.
        -13    1    3    3    0    0  0.16189220115E+01 -0.67547729731E+00 -0.35933878978E+02  0.35976825881E+02  0.10566000000E+00 0.  1.
         23    2    1    0    0    0 -0.15100570255E+02 -0.16846865569E+02  0.18887106204E+02  0.95528541226E+02  0.90868780704E+02 0.  0.
         13    1    3    3    0    0 -0.16719492266E+02 -0.16171388271E+02  0.54820985181E+02  0.59551715345E+02  0.10566000000E+00 0. -1.
         22    1    1    0    0    0  0.15100570255E+02  0.16846865569E+02 -0.18887106204E+02  0.29471458774E+02  0.00000000000E+00 0. -1.
</event>
<event>
 5    1  0.8943334E-005  0.9118800E+02  0.7818608E-02  0.1130116E+00
         25   -1    0    0    0    0  0.00000000000E+00  0.00000000000E+00  0.99999998245E-14  0.12500000000E+03  0.12500000000E+03 0.  0.
        -13    1    3    3    0    0  0.63188419323E+01 -0.45611834651E+02 -0.33867790604E+02  0.57161224865E+02  0.10566000000E+00 0.  1.
         23    2    1    0    0    0  0.18164981994E+02 -0.10421059187E+02 -0.17366818485E+02  0.97793908224E+02  0.93933364977E+02 0.  0.
         13    1    3    3    0    0  0.11846140062E+02  0.35190775464E+02  0.16500972119E+02  0.40632683359E+02  0.10566000000E+00 0. -1.
         22    1    1    0    0    0 -0.18164981994E+02  0.10421059187E+02  0.17366818485E+02  0.27206091776E+02  0.00000000000E+00 0.  1.
</event>
<event>
 5    1  0.8943334E-005  0.9118800E+02  0.7818608E-02  0.1130116E+00
         25   -1    0    0    0    0  0.00000000000E+00  0.00000000000E+00  0.99999998245E-14  0.12500000000E+03  0.12500000000E+03 0.  0.
        -13    1    3    3    0    0 -0.20144609978E+02 -0.21808427284E+02 -0.34148973085E+02  0.45250152912E+02  0.10566000000E+00 0. -1.
         23    2    1    0    0    0 -0.18087524960E+02 -0.15784100582E+02  0.16225120440E+02  0.96024994846E+02  0.91549160081E+02 0.  0.
         13    1    3    3    0    0  0.20570850175E+01  0.60243267019E+01  0.50374093525E+02  0.50774841934E+02  0.10566000000E+00 0.  1.
         22    1    1    0    0    0  0.18087524960E+02  0.15784100582E+02 -0.16225120440E+02  0.28975005154E+02  0.00000000000E+00 0.  1.
</event>
<event>
 5    1  0.8943334E-005  0.9118800E+02  0.7818608E-02  0.1130116E+00
         25   -1    0    0    0    0  0.00000000000E+00  0.00000000000E+00  0.99999998245E-14  0.12500000000E+03  0.12500000000E+03 0.  0.
        -13    1    3    3    0    0 -0.35415671005E+02  0.11312198884E+02 -0.28469243832E+02  0.46826750952E+02  0.10566000000E+00 0. -1.
         23    2    1    0    0    0 -0.13163321112E+02  0.23652082879E+02  0.12602474315E+02  0.95141728013E+02  0.90335109471E+02 0.  0.
         13    1    3    3    0    0  0.22252349893E+02  0.12339883995E+02  0.41071718147E+02  0.48314977061E+02  0.10566000000E+00 0.  1.
         22    1    1    0    0    0  0.13163321112E+02 -0.23652082879E+02 -0.12602474315E+02  0.29858271987E+02  0.00000000000E+00 0.  1.
</event>
<event>
 5    1  0.8943334E-005  0.9118800E+02  0.7818608E-02  0.1130116E+00
         25   -1    0    0    0    0  0.00000000000E+00  0.00000000000E+00  0.99999998245E-14  0.12500000000E+03  0.12500000000E+03 0.  0.
        -13    1    3    3    0    0  0.36555188081E+02 -0.44491430849E+02 -0.15628844950E+02  0.59666080424E+02  0.10566000000E+00 0. -1.
         23    2    1    0    0    0  0.17251958173E+02 -0.23447342809E+02  0.57356138963E+01  0.95330062145E+02  0.90595339484E+02 0.  0.
         13    1    3    3    0    0 -0.19303229908E+02  0.21044088040E+02  0.21364458847E+02  0.35663981721E+02  0.10566000000E+00 0.  1.
         22    1    1    0    0    0 -0.17251958173E+02  0.23447342809E+02 -0.57356138963E+01  0.29669937855E+02  0.00000000000E+00 0. -1.
</event>
<event>
 5    1  0.8943334E-005  0.9118800E+02  0.7818608E-02  0.1130116E+00
         25   -1    0    0    0    0  0.00000000000E+00  0.00000000000E+00  0.99999998245E-14  0.12500000000E+03  0.12500000000E+03 0.  0.
        -13    1    3    3    0    0  0.12993294372E+02 -0.44468728746E+02 -0.44717215132E+01  0.46543538674E+02  0.10566000000E+00 0.  1.
         23    2    1    0    0    0  0.37746605153E+01 -0.13930528331E+01 -0.28155933043E+02  0.96558037625E+02  0.92274099325E+02 0.  0.
         13    1    3    3    0    0 -0.92186338569E+01  0.43075675913E+02 -0.23684211530E+02  0.50014498952E+02  0.10566000000E+00 0. -1.
         22    1    1    0    0    0 -0.37746605153E+01  0.13930528331E+01  0.28155933043E+02  0.28441962375E+02  0.00000000000E+00 0.  1.
</event>
<event>
 5    1  0.8943334E-005  0.9118800E+02  0.7818608E-02  0.1130116E+00
         25   -1    0    0    0    0  0.00000000000E+00  0.00000000000E+00  0.99999998245E-14  0.12500000000E+03  0.12500000000E+03 0.  0.
        -13    1    3    3    0    0  0.33428684753E+02 -0.25301840069E+01  0.40258726961E+01  0.33765331487E+02  0.10566000000E+00 0. -1.
         23    2    1    0    0    0 -0.15683643884E+02 -0.13795190103E+02 -0.25398877067E+02  0.92115552131E+02  0.86045848433E+02 0.  0.
         13    1    3    3    0    0 -0.49112328637E+02 -0.11265006096E+02 -0.29424749763E+02  0.58350220643E+02  0.10566000000E+00 0.  1.
         22    1    1    0    0    0  0.15683643884E+02  0.13795190103E+02  0.25398877067E+02  0.32884447869E+02  0.00000000000E+00 0.  1.
</event>
<event>
 5    1  0.8943334E-005  0.9118800E+02  0.7818608E-02  0.1130116E+00
         25   -1    0    0    0    0  0.00000000000E+00  0.00000000000E+00  0.99999998245E-14  0.12500000000E+03  0.12500000000E+03 0.  0.
        -13    1    3    3    0    0 -0.51884155460E+02 -0.20734555114E+02  0.12690008928E+02  0.57296900913E+02  0.10566000000E+00 0.  1.
         23    2    1    0    0    0 -0.31334968820E+02 -0.12816681308E+02 -0.10769714607E+02  0.89473469865E+02  0.82118009391E+02 0.  0.
         13    1    3    3    0    0  0.20549186640E+02  0.79178738059E+01 -0.23459723535E+02  0.32176568952E+02  0.10566000000E+00 0. -1.
         22    1    1    0    0    0  0.31334968820E+02  0.12816681308E+02  0.10769714607E+02  0.35526530135E+02  0.00000000000E+00 0.  1.
</event>
<event>
 5    1  0.8943334E-005  0.9118800E+02  0.7818608E-02  0.1130116E+00
         25   -1    0    0    0    0  0.00000000000E+00  0.00000000000E+00  0.99999998245E-14  0.12500000000E+03  0.12500000000E+03 0.  0.
        -13    1    3    3    0    0 -0.38721897289E+02 -0.20535705532E+02  0.89041059467E+01  0.44725773309E+02  0.10566000000E+00 0.  1.
         23    2    1    0    0    0 -0.13590733910E+02  0.44818351880E+01 -0.26530259955E+02  0.94856184910E+02  0.89939125121E+02 0.  0.
         13    1    3    3    0    0  0.25131163378E+02  0.25017540720E+02 -0.35434365902E+02  0.50130411602E+02  0.10566000000E+00 0. -1.
         22    1    1    0    0    0  0.13590733910E+02 -0.44818351880E+01  0.26530259955E+02  0.30143815090E+02  0.00000000000E+00 0. -1.
</event>
<event>
 5    1  0.8943334E-005  0.9118800E+02  0.7818608E-02  0.1130116E+00
         25   -1    0    0    0    0  0.00000000000E+00  0.00000000000E+00  0.99999998245E-14  0.12500000000E+03  0.12500000000E+03 0.  0.
        -13    1    3    3    0    0 -0.52905910138E+01 -0.44252221997E+02 -0.35729726713E+01  0.44710477549E+02  0.10566000000E+00 0. -1.
         23    2    1    0    0    0  0.57386813940E+01 -0.95742328449E+00 -0.28527736729E+02  0.95885040162E+02  0.91357867972E+02 0.  0.
         13    1    3    3    0    0  0.11029272408E+02  0.43294798712E+02 -0.24954764058E+02  0.51174562613E+02  0.10566000000E+00 0.  1.
         22    1    1    0    0    0 -0.57386813940E+01  0.95742328449E+00  0.28527736729E+02  0.29114959838E+02  0.00000000000E+00 0.  1.
</event>
<event>
 5    1  0.8943334E-005  0.9118800E+02  0.7818608E-02  0.1130116E+00
         25   -1    0    0    0    0  0.00000000000E+00  0.00000000000E+00  0.99999998245E-14  0.12500000000E+03  0.12500000000E+03 0.  0.
        -13    1    3    3    0    0  0.17998415679E+01  0.28505935182E+01 -0.37753664578E+02  0.37904032321E+02  0.10566000000E+00 0.  1.
         23    2    1    0    0    0 -0.36373000040E+02  0.18290559550E+01 -0.31996040322E+02  0.76522302304E+02  0.59207901298E+02 0.  0.
         13    1    3    3    0    0 -0.38172841607E+02 -0.10215375632E+01  0.57576242559E+01  0.38618269983E+02  0.10566000000E+00 0. -1.
         22    1    1    0    0    0  0.36373000040E+02 -0.18290559550E+01  0.31996040322E+02  0.48477697696E+02  0.00000000000E+00 0.  1.
</event>
<event>
 5    1  0.8943334E-005  0.9118800E+02  0.7818608E-02  0.1130116E+00
         25   -1    0    0    0    0  0.00000000000E+00  0.00000000000E+00  0.99999998245E-14  0.12500000000E+03  0.12500000000E+03 0.  0.
        -13    1    3    3    0    0  0.95356913764E+01 -0.38617839958E+02 -0.97482636854E+01  0.40954935990E+02  0.10566000000E+00 0.  1.
         23    2    1    0    0    0  0.17994740010E+02  0.14674634123E+02 -0.18102512773E+02  0.95557572733E+02  0.90908707962E+02 0.  0.
         13    1    3    3    0    0  0.84590486338E+01  0.53292474081E+02 -0.83542490876E+01  0.54602636743E+02  0.10566000000E+00 0. -1.
         22    1    1    0    0    0 -0.17994740010E+02 -0.14674634123E+02  0.18102512773E+02  0.29442427267E+02  0.00000000000E+00 0. -1.
</event>
<event>
 5    1  0.8943334E-005  0.9118800E+02  0.7818608E-02  0.1130116E+00
         25   -1    0    0    0    0  0.00000000000E+00  0.00000000000E+00  0.99999998245E-14  0.12500000000E+03  0.12500000000E+03 0.  0.
        -13    1    3    3    0    0 -0.16485380763E+01  0.22029772599E+02 -0.17355017125E+02  0.28093350495E+02  0.10566000000E+00 0.  1.
         23    2    1    0    0    0  0.19507479490E+02 -0.10674736945E+02 -0.44283733354E+02  0.75446586346E+02  0.56891533523E+02 0.  0.
         13    1    3    3    0    0  0.21156017567E+02 -0.32704509544E+02 -0.26928716230E+02  0.47353235852E+02  0.10566000000E+00 0. -1.
         22    1    1    0    0    0 -0.19507479490E+02  0.10674736945E+02  0.44283733354E+02  0.49553413654E+02  0.00000000000E+00 0. -1.
</event>
<event>
 5    1  0.8943334E-005  0.9118800E+02  0.7818608E-02  0.1130116E+00
         25   -1    0    0    0    0  0.00000000000E+00  0.00000000000E+00  0.99999998245E-14  0.12500000000E+03  0.12500000000E+03 0.  0.
        -13    1    3    3    0    0  0.51356058913E+01  0.29593754855E+00 -0.41212395032E+02  0.41532333130E+02  0.10566000000E+00 0.  1.
         23    2    1    0    0    0 -0.57207681693E+01  0.31795409852E+02 -0.25157139168E+01  0.92596233358E+02  0.86741330053E+02 0.  0.
         13    1    3    3    0    0 -0.10856374061E+02  0.31499472303E+02  0.38696681115E+02  0.51063900228E+02  0.10566000000E+00 0. -1.
         22    1    1    0    0    0  0.57207681693E+01 -0.31795409852E+02  0.25157139168E+01  0.32403766642E+02  0.00000000000E+00 0.  1.
</event>
<event>
 5    1  0.8943334E-005  0.9118800E+02  0.7818608E-02  0.1130116E+00
         25   -1    0    0    0    0  0.00000000000E+00  0.00000000000E+00  0.99999998245E-14  0.12500000000E+03  0.12500000000E+03 0.  0.
        -13    1    3    3    0    0 -0.13249572800E+02  0.13222089684E+02 -0.36031161515E+02  0.40603332365E+02  0.10566000000E+00 0. -1.
         23    2    1    0    0    0 -0.12762218442E+02 -0.25731368674E+02  0.34531760895E+01  0.96070741826E+02  0.91611601102E+02 0.  0.
         13    1    3    3    0    0  0.48735435848E+00 -0.38953458358E+02  0.39484337604E+02  0.55467409461E+02  0.10566000000E+00 0.  1.
         22    1    1    0    0    0  0.12762218442E+02  0.25731368674E+02 -0.34531760895E+01  0.28929258174E+02  0.00000000000E+00 0.  1.
</event>
<event>
 5    1  0.8943334E-005  0.9118800E+02  0.7818608E-02  0.1130116E+00
         25   -1    0    0    0    0  0.00000000000E+00  0.00000000000E+00  0.99999998245E-14  0.12500000000E+03  0.12500000000E+03 0.  0.
        -13    1    3    3    0    0 -0.69724925636E+01  0.29591621427E+01  0.33927703472E+02  0.34763091347E+02  0.10566000000E+00 0.  1.
         23    2    1    0    0    0 -0.28009271462E+01  0.11388869500E+02 -0.26553712737E+02  0.95971544969E+02  0.91476151221E+02 0.  0.
         13    1    3    3    0    0  0.41715654174E+01  0.84297073576E+01 -0.60481416208E+02  0.61208453622E+02  0.10566000000E+00 0. -1.
         22    1    1    0    0    0  0.28009271462E+01 -0.11388869500E+02  0.26553712737E+02  0.29028455031E+02  0.00000000000E+00 0. -1.
</event>
<event>
 5    1  0.8943334E-005  0.9118800E+02  0.7818608E-02  0.1130116E+00
         25   -1    0    0    0    0  0.00000000000E+00  0.00000000000E+00  0.99999998245E-14  0.12500000000E+03  0.12500000000E+03 0.  0.
        -13    1    3    3    0    0  0.31991402326E+02 -0.33057600816E+02  0.37832630655E+02  0.59561513588E+02  0.10566000000E+00 0.  1.
         23    2    1    0    0    0  0.61327072153E+01 -0.25252734845E+02  0.14579954866E+02  0.95202587380E+02  0.90419283590E+02 0.  0.
         13    1    3    3    0    0 -0.25858695111E+02  0.78048659702E+01 -0.23252675789E+02  0.35641073792E+02  0.10566000000E+00 0. -1.
         22    1    1    0    0    0 -0.61327072153E+01  0.25252734845E+02 -0.14579954866E+02  0.29797412620E+02  0.00000000000E+00 0.  1.
</event>
<event>
 5    1  0.8943334E-005  0.9118800E+02  0.7818608E-02  0.1130116E+00
         25   -1    0    0    0    0  0.00000000000E+00  0.00000000000E+00  0.99999998245E-14  0.12500000000E+03  0.12500000000E+03 0.  0.
        -13    1    3    3    0    0 -0.83084044467E+01  0.22803142137E+02 -0.22363221313E+02  0.33002086409E+02  0.10566000000E+00 0.  1.
         23    2    1    0    0    0 -0.35258132450E+01 -0.18107666046E+02  0.23811518994E+02  0.94878456788E+02  0.89970073896E+02 0.  0.
         13    1    3    3    0    0  0.47825912017E+01 -0.40910808183E+02  0.46174740307E+02  0.61876370379E+02  0.10566000000E+00 0. -1.
         22    1    1    0    0    0  0.35258132450E+01  0.18107666046E+02 -0.23811518994E+02  0.30121543212E+02  0.00000000000E+00 0. -1.
</event>
<event>
 5    1  0.8943334E-005  0.9118800E+02  0.7818608E-02  0.1130116E+00
         25   -1    0    0    0    0  0.00000000000E+00  0.00000000000E+00  0.99999998245E-14  0.12500000000E+03  0.12500000000E+03 0.  0.
        -13    1    3    3    0    0  0.29317758224E+02 -0.33039453579E+02 -0.10673093161E+02  0.45442958990E+02  0.10566000000E+00 0.  1.
         23    2    1    0    0    0  0.72840453971E+01 -0.42631531354E+01  0.26396991686E+02  0.97286592377E+02  0.93255820699E+02 0.  0.
         13    1    3    3    0    0 -0.22033712827E+02  0.28776300444E+02  0.37070084847E+02  0.51843633387E+02  0.10566000000E+00 0. -1.
         22    1    1    0    0    0 -0.72840453971E+01  0.42631531354E+01 -0.26396991686E+02  0.27713407623E+02  0.00000000000E+00 0. -1.
</event>
<event>
 5    1  0.8943334E-005  0.9118800E+02  0.7818608E-02  0.1130116E+00
         25   -1    0    0    0    0  0.00000000000E+00  0.00000000000E+00  0.99999998245E-14  0.12500000000E+03  0.12500000000E+03 0.  0.
        -13    1    3    3    0    0 -0.24481185488E+02  0.51699925925E+02  0.84033012967E+01  0.57817276140E+02  0.10566000000E+00 0. -1.
         23    2    1    0    0    0 -0.19427288802E+02  0.20210714665E+02 -0.10700329671E+02  0.94993507493E+02  0.90129777950E+02 0.  0.
         13    1    3    3    0    0  0.50538966863E+01 -0.31489211260E+02 -0.19103630968E+02  0.37176231354E+02  0.10566000000E+00 0.  1.
         22    1    1    0    0    0  0.19427288802E+02 -0.20210714665E+02  0.10700329671E+02  0.30006492507E+02  0.00000000000E+00 0. -1.
</event>
<event>
 5    1  0.8943334E-005  0.9118800E+02  0.7818608E-02  0.1130116E+00
         25   -1    0    0    0    0  0.00000000000E+00  0.00000000000E+00  0.99999998245E-14  0.12500000000E+03  0.12500000000E+03 0.  0.
        -13    1    3    3    0    0  0.22231110638E+02 -0.42409476377E+02  0.28020059291E+02  0.55479012729E+02  0.10566000000E+00 0.  1.
         23    2    1    0    0    0 -0.55573011745E+01 -0.28624965108E+02  0.23441841628E+01  0.95746497250E+02  0.91168110173E+02 0.  0.
         13    1    3    3    0    0 -0.27788411813E+02  0.13784511269E+02 -0.25675875128E+02  0.40267484520E+02  0.10566000000E+00 0. -1.
         22    1    1    0    0    0  0.55573011745E+01  0.28624965108E+02 -0.23441841628E+01  0.29253502750E+02  0.00000000000E+00 0.  1.
</event>
<event>
 5    1  0.8943334E-005  0.9118800E+02  0.7818608E-02  0.1130116E+00
         25   -1    0    0    0    0  0.00000000000E+00  0.00000000000E+00  0.99999998245E-14  0.12500000000E+03  0.12500000000E+03 0.  0.
        -13    1    3    3    0    0 -0.37860894686E+02  0.74415906035E+01 -0.22494969471E+02  0.44663849282E+02  0.10566000000E+00 0.  1.
         23    2    1    0    0    0 -0.21726320258E+02  0.37303752501E+02 -0.13254812776E+02  0.79841468089E+02  0.65843504025E+02 0.  0.
         13    1    3    3    0    0  0.16134574429E+02  0.29862161898E+02  0.92401566947E+01  0.35177618808E+02  0.10566000000E+00 0. -1.
         22    1    1    0    0    0  0.21726320258E+02 -0.37303752501E+02  0.13254812776E+02  0.45158531911E+02  0.00000000000E+00 0. -1.
</event>
<event>
 5    1  0.8943334E-005  0.9118800E+02  0.7818608E-02  0.1130116E+00
         25   -1    0    0    0    0  0.00000000000E+00  0.00000000000E+00  0.99999998245E-14  0.12500000000E+03  0.12500000000E+03 0.  0.
        -13    1    3    3    0    0  0.18596248720E+02 -0.19993967092E+01 -0.32391658822E+02  0.37403860482E+02  0.10566000000E+00 0. -1.
         23    2    1    0    0    0  0.13362009963E+02  0.14097505732E+01  0.25789934316E+02  0.95919913704E+02  0.91405571089E+02 0.  0.
         13    1    3    3    0    0 -0.52342387575E+01  0.34091472824E+01  0.58181593138E+02  0.58516053222E+02  0.10566000000E+00 0.  1.
         22    1    1    0    0    0 -0.13362009963E+02 -0.14097505732E+01 -0.25789934316E+02  0.29080086296E+02  0.00000000000E+00 0.  1.
</event>
<event>
 5    1  0.8943334E-005  0.9118800E+02  0.7818608E-02  0.1130116E+00
         25   -1    0    0    0    0  0.00000000000E+00  0.00000000000E+00  0.99999998245E-14  0.12500000000E+03  0.12500000000E+03 0.  0.
        -13    1    3    3    0    0  0.23512779738E+02 -0.48543665881E+02  0.21654238625E+02  0.58122762517E+02  0.10566000000E+00 0. -1.
         23    2    1    0    0    0 -0.40220376744E+01 -0.28806140589E+02  0.67120103061E+01  0.95150014991E+02  0.90346575738E+02 0.  0.
         13    1    3    3    0    0 -0.27534817412E+02  0.19737525292E+02 -0.14942228319E+02  0.37027252473E+02  0.10566000000E+00 0.  1.
         22    1    1    0    0    0  0.40220376744E+01  0.28806140589E+02 -0.67120103061E+01  0.29849985009E+02  0.00000000000E+00 0. -1.
</event>
<event>
 5    1  0.8943334E-005  0.9118800E+02  0.7818608E-02  0.1130116E+00
         25   -1    0    0    0    0  0.00000000000E+00  0.00000000000E+00  0.99999998245E-14  0.12500000000E+03  0.12500000000E+03 0.  0.
        -13    1    3    3    0    0  0.31542137648E+02  0.49686306316E+02 -0.26289944584E+01  0.58911444208E+02  0.10566000000E+00 0. -1.
         23    2    1    0    0    0  0.13672982973E+02  0.22554113063E+02 -0.16119624173E+02  0.94089148137E+02  0.88866681237E+02 0.  0.
         13    1    3    3    0    0 -0.17869154675E+02 -0.27132193254E+02 -0.13490629714E+02  0.35177703928E+02  0.10566000000E+00 0.  1.
         22    1    1    0    0    0 -0.13672982973E+02 -0.22554113063E+02  0.16119624173E+02  0.30910851863E+02  0.00000000000E+00 0. -1.
</event>
<event>
 5    1  0.8943334E-005  0.9118800E+02  0.7818608E-02  0.1130116E+00
         25   -1    0    0    0    0  0.00000000000E+00  0.00000000000E+00  0.99999998245E-14  0.12500000000E+03  0.12500000000E+03 0.  0.
        -13    1    3    3    0    0 -0.30094240696E+02  0.16733087431E+02  0.23135713801E+02  0.41484116902E+02  0.10566000000E+00 0. -1.
         23    2    1    0    0    0 -0.13398499590E+02 -0.23711866243E+02 -0.95914556094E+01  0.96124951728E+02  0.91685538292E+02 0.  0.
         13    1    3    3    0    0  0.16695741105E+02 -0.40444953675E+02 -0.32727169410E+02  0.54640834826E+02  0.10566000000E+00 0.  1.
         22    1    1    0    0    0  0.13398499590E+02  0.23711866243E+02  0.95914556094E+01  0.28875048272E+02  0.00000000000E+00 0.  1.
</event>
<event>
 5    1  0.8943334E-005  0.9118800E+02  0.7818608E-02  0.1130116E+00
         25   -1    0    0    0    0  0.00000000000E+00  0.00000000000E+00  0.99999998245E-14  0.12500000000E+03  0.12500000000E+03 0.  0.
        -13    1    3    3    0    0  0.18174481564E+02 -0.46880237414E+02 -0.11343932439E+02  0.51543810562E+02  0.10566000000E+00 0. -1.
         23    2    1    0    0    0 -0.10673817065E+01 -0.22093332050E+02  0.19477116191E+02  0.95527764253E+02  0.90867711886E+02 0.  0.
         13    1    3    3    0    0 -0.19241863270E+02  0.24786905364E+02  0.30821048630E+02  0.43983953691E+02  0.10566000000E+00 0.  1.
         22    1    1    0    0    0  0.10673817065E+01  0.22093332050E+02 -0.19477116191E+02  0.29472235747E+02  0.00000000000E+00 0. -1.
</event>
<event>
 5    1  0.8943334E-005  0.9118800E+02  0.7818608E-02  0.1130116E+00
         25   -1    0    0    0    0  0.00000000000E+00  0.00000000000E+00  0.99999998245E-14  0.12500000000E+03  0.12500000000E+03 0.  0.
        -13    1    3    3    0    0  0.66705918366E+01 -0.19608624779E+02 -0.36840092330E+02  0.42263441982E+02  0.10566000000E+00 0.  1.
         23    2    1    0    0    0  0.26256628349E+02 -0.57394155856E+01  0.11136160769E+02  0.95907638456E+02  0.91388782758E+02 0.  0.
         13    1    3    3    0    0  0.19586036512E+02  0.13869209194E+02  0.47976253099E+02  0.53644196475E+02  0.10566000000E+00 0. -1.
         22    1    1    0    0    0 -0.26256628349E+02  0.57394155856E+01 -0.11136160769E+02  0.29092361544E+02  0.00000000000E+00 0. -1.
</event>
<event>
 5    1  0.8943334E-005  0.9118800E+02  0.7818608E-02  0.1130116E+00
         25   -1    0    0    0    0  0.00000000000E+00  0.00000000000E+00  0.99999998245E-14  0.12500000000E+03  0.12500000000E+03 0.  0.
        -13    1    3    3    0    0 -0.25460787737E+02  0.20768564624E+02 -0.13245786545E+02  0.35426642713E+02  0.10566000000E+00 0. -1.
         23    2    1    0    0    0  0.11446822417E+02 -0.26339134124E+02 -0.53022690796E+01  0.95795654651E+02  0.91235484669E+02 0.  0.
         13    1    3    3    0    0  0.36907610154E+02 -0.47107698748E+02  0.79435174649E+01  0.60369011938E+02  0.10566000000E+00 0.  1.
         22    1    1    0    0    0 -0.11446822417E+02  0.26339134124E+02  0.53022690796E+01  0.29204345349E+02  0.00000000000E+00 0.  1.
</event>
<event>
 5    1  0.8943334E-005  0.9118800E+02  0.7818608E-02  0.1130116E+00
         25   -1    0    0    0    0  0.00000000000E+00  0.00000000000E+00  0.99999998245E-14  0.12500000000E+03  0.12500000000E+03 0.  0.
        -13    1    3    3    0    0 -0.54746440992E+02 -0.17612399581E+01 -0.12760400015E+02  0.56241565946E+02  0.10566000000E+00 0.  1.
         23    2    1    0    0    0 -0.78442578402E+01  0.11469376246E+02  0.77214418253E+01  0.10910347093E+03  0.10793918535E+03 0.  0.
         13    1    3    3    0    0  0.46902183152E+02  0.13230616205E+02  0.20481841841E+02  0.52861904986E+02  0.10566000000E+00 0. -1.
         22    1    1    0    0    0  0.78442578402E+01 -0.11469376246E+02 -0.77214418253E+01  0.15896529068E+02  0.00000000000E+00 0. -1.
</event>
<event>
 5    1  0.8943334E-005  0.9118800E+02  0.7818608E-02  0.1130116E+00
         25   -1    0    0    0    0  0.00000000000E+00  0.00000000000E+00  0.99999998245E-14  0.12500000000E+03  0.12500000000E+03 0.  0.
        -13    1    3    3    0    0 -0.22590957547E+02 -0.33195062558E+01  0.33651893190E+02  0.40667327967E+02  0.10566000000E+00 0.  1.
         23    2    1    0    0    0  0.57119141636E+01  0.37637849193E+01 -0.21160626954E+02  0.10276120117E+03  0.10032597018E+03 0.  0.
         13    1    3    3    0    0  0.28302871710E+02  0.70832911750E+01 -0.54812520143E+02  0.62093873203E+02  0.10566000000E+00 0. -1.
         22    1    1    0    0    0 -0.57119141636E+01 -0.37637849193E+01  0.21160626954E+02  0.22238798830E+02  0.00000000000E+00 0. -1.
</event>
<event>
 5    1  0.8943334E-005  0.9118800E+02  0.7818608E-02  0.1130116E+00
         25   -1    0    0    0    0  0.00000000000E+00  0.00000000000E+00  0.99999998245E-14  0.12500000000E+03  0.12500000000E+03 0.  0.
        -13    1    3    3    0    0  0.33859916164E+02  0.62369422975E+01  0.39756331920E+02  0.52592494366E+02  0.10566000000E+00 0.  1.
         23    2    1    0    0    0  0.24696330062E+01  0.24060527834E+02  0.19087141652E+02  0.94188848395E+02  0.89006809282E+02 0.  0.
         13    1    3    3    0    0 -0.31390283158E+02  0.17823585536E+02 -0.20669190268E+02  0.41596354028E+02  0.10566000000E+00 0. -1.
         22    1    1    0    0    0 -0.24696330062E+01 -0.24060527834E+02 -0.19087141652E+02  0.30811151605E+02  0.00000000000E+00 0.  1.
</event>
<event>
 5    1  0.8943334E-005  0.9118800E+02  0.7818608E-02  0.1130116E+00
         25   -1    0    0    0    0  0.00000000000E+00  0.00000000000E+00  0.99999998245E-14  0.12500000000E+03  0.12500000000E+03 0.  0.
        -13    1    3    3    0    0 -0.13992082802E+02 -0.34049871036E+02 -0.29640867864E+01  0.36931951928E+02  0.10566000000E+00 0. -1.
         23    2    1    0    0    0  0.10359334047E+02  0.15426490838E+02 -0.22846092503E+02  0.95551122872E+02  0.90899838932E+02 0.  0.
         13    1    3    3    0    0  0.24351416849E+02  0.49476361874E+02 -0.19882005716E+02  0.58619170944E+02  0.10566000000E+00 0.  1.
         22    1    1    0    0    0 -0.10359334047E+02 -0.15426490838E+02  0.22846092503E+02  0.29448877128E+02  0.00000000000E+00 0.  1.
</event>
<event>
 5    1  0.8943334E-005  0.9118800E+02  0.7818608E-02  0.1130116E+00
         25   -1    0    0    0    0  0.00000000000E+00  0.00000000000E+00  0.99999998245E-14  0.12500000000E+03  0.12500000000E+03 0.  0.
        -13    1    3    3    0    0 -0.30540989887E+02 -0.12471927959E+02  0.49253335433E+02  0.59280715799E+02  0.10566000000E+00 0.  1.
         23    2    1    0    0    0 -0.28753102139E+01 -0.13238321865E+02  0.26992365653E+02  0.94798867932E+02  0.89859429016E+02 0.  0.
         13    1    3    3    0    0  0.27665679673E+02 -0.76639390630E+00 -0.22260969780E+02  0.35518152133E+02  0.10566000000E+00 0. -1.
         22    1    1    0    0    0  0.28753102139E+01  0.13238321865E+02 -0.26992365653E+02  0.30201132068E+02  0.00000000000E+00 0.  1.
</event>
<event>
 5    1  0.8943334E-005  0.9118800E+02  0.7818608E-02  0.1130116E+00
         25   -1    0    0    0    0  0.00000000000E+00  0.00000000000E+00  0.99999998245E-14  0.12500000000E+03  0.12500000000E+03 0.  0.
        -13    1    3    3    0    0 -0.19412330966E+02 -0.37858423629E+02  0.37589961862E+02  0.56772486558E+02  0.10566000000E+00 0. -1.
         23    2    1    0    0    0 -0.22663362737E+02 -0.49064200725E+01  0.20570187016E+02  0.94002684594E+02  0.88744978160E+02 0.  0.
         13    1    3    3    0    0 -0.32510317711E+01  0.32952003556E+02 -0.17019774846E+02  0.37230198036E+02  0.10566000000E+00 0.  1.
         22    1    1    0    0    0  0.22663362737E+02  0.49064200725E+01 -0.20570187016E+02  0.30997315406E+02  0.00000000000E+00 0. -1.
</event>
<event>
 5    1  0.8943334E-005  0.9118800E+02  0.7818608E-02  0.1130116E+00
         25   -1    0    0    0    0  0.00000000000E+00  0.00000000000E+00  0.99999998245E-14  0.12500000000E+03  0.12500000000E+03 0.  0.
        -13    1    3    3    0    0  0.49673363750E+02  0.16235769196E+02 -0.20921872481E+01  0.52301354468E+02  0.10566000000E+00 0. -1.
         23    2    1    0    0    0  0.17001871510E+02  0.24515380236E+02  0.16617121026E+02  0.90850384861E+02  0.84187862637E+02 0.  0.
         13    1    3    3    0    0 -0.32671492240E+02  0.82796110397E+01  0.18709308274E+02  0.38549030394E+02  0.10566000000E+00 0.  1.
         22    1    1    0    0    0 -0.17001871510E+02 -0.24515380236E+02 -0.16617121026E+02  0.34149615139E+02  0.00000000000E+00 0. -1.
</event>
<event>
 5    1  0.8943334E-005  0.9118800E+02  0.7818608E-02  0.1130116E+00
         25   -1    0    0    0    0  0.00000000000E+00  0.00000000000E+00  0.99999998245E-14  0.12500000000E+03  0.12500000000E+03 0.  0.
        -13    1    3    3    0    0 -0.26700100276E+02 -0.40068772303E+02 -0.78618080657E+01  0.48787509249E+02  0.10566000000E+00 0.  1.
         23    2    1    0    0    0 -0.26373290195E+02  0.80958507887E+01 -0.15045119469E+01  0.97371087754E+02  0.93369009519E+02 0.  0.
         13    1    3    3    0    0  0.32681008087E+00  0.48164623092E+02  0.63572961187E+01  0.48583578505E+02  0.10566000000E+00 0. -1.
         22    1    1    0    0    0  0.26373290195E+02 -0.80958507887E+01  0.15045119469E+01  0.27628912246E+02  0.00000000000E+00 0.  1.
</event>
<event>
 5    1  0.8943334E-005  0.9118800E+02  0.7818608E-02  0.1130116E+00
         25   -1    0    0    0    0  0.00000000000E+00  0.00000000000E+00  0.99999998245E-14  0.12500000000E+03  0.12500000000E+03 0.  0.
        -13    1    3    3    0    0  0.17857180659E+02  0.58615740435E+02 -0.52458014444E+01  0.61499703451E+02  0.10566000000E+00 0. -1.
         23    2    1    0    0    0  0.10627780347E+02  0.25616521317E+02 -0.97967489254E+01  0.95586870806E+02  0.90948984059E+02 0.  0.
         13    1    3    3    0    0 -0.72294003120E+01 -0.32999219117E+02 -0.45509474810E+01  0.34087167354E+02  0.10566000000E+00 0.  1.
         22    1    1    0    0    0 -0.10627780347E+02 -0.25616521317E+02  0.97967489254E+01  0.29413129194E+02  0.00000000000E+00 0. -1.
</event>
<event>
 5    1  0.8943334E-005  0.9118800E+02  0.7818608E-02  0.1130116E+00
         25   -1    0    0    0    0  0.00000000000E+00  0.00000000000E+00  0.99999998245E-14  0.12500000000E+03  0.12500000000E+03 0.  0.
        -13    1    3    3    0    0  0.38904761970E+02 -0.94413589093E+01  0.11072829424E+02  0.41537193905E+02  0.10566000000E+00 0. -1.
         23    2    1    0    0    0  0.82083218364E+01  0.60364008243E+01 -0.28956836632E+02  0.94302881731E+02  0.89166812396E+02 0.  0.
         13    1    3    3    0    0 -0.30696440133E+02  0.15477759734E+02 -0.40029666056E+02  0.52765687826E+02  0.10566000000E+00 0.  1.
         22    1    1    0    0    0 -0.82083218364E+01 -0.60364008243E+01  0.28956836632E+02  0.30697118269E+02  0.00000000000E+00 0.  1.
</event>
<event>
 5    1  0.8943334E-005  0.9118800E+02  0.7818608E-02  0.1130116E+00
         25   -1    0    0    0    0  0.00000000000E+00  0.00000000000E+00  0.99999998245E-14  0.12500000000E+03  0.12500000000E+03 0.  0.
        -13    1    3    3    0    0 -0.88351041506E+01  0.17271036472E+02 -0.41178840853E+02  0.45519840336E+02  0.10566000000E+00 0.  1.
         23    2    1    0    0    0 -0.17566786765E+02 -0.21577140892E+02 -0.13070350523E+02  0.94259162843E+02  0.89105503257E+02 0.  0.
         13    1    3    3    0    0 -0.87316826143E+01 -0.38848177364E+02  0.28108490330E+02  0.48739322507E+02  0.10566000000E+00 0. -1.
         22    1    1    0    0    0  0.17566786765E+02  0.21577140892E+02  0.13070350523E+02  0.30740837157E+02  0.00000000000E+00 0. -1.
</event>
<event>
 5    1  0.8943334E-005  0.9118800E+02  0.7818608E-02  0.1130116E+00
         25   -1    0    0    0    0  0.00000000000E+00  0.00000000000E+00  0.99999998245E-14  0.12500000000E+03  0.12500000000E+03 0.  0.
        -13    1    3    3    0    0  0.54881179982E+01  0.48591939053E+01  0.32104032617E+02  0.32930400527E+02  0.10566000000E+00 0.  1.
         23    2    1    0    0    0 -0.16211654146E+02  0.12666055265E+02 -0.23881087887E+02  0.93479323535E+02  0.88004720804E+02 0.  0.
         13    1    3    3    0    0 -0.21699772144E+02  0.78068613602E+01 -0.55985120505E+02  0.60548923007E+02  0.10566000000E+00 0. -1.
         22    1    1    0    0    0  0.16211654146E+02 -0.12666055265E+02  0.23881087887E+02  0.31520676465E+02  0.00000000000E+00 0. -1.
</event>
<event>
 5    1  0.8943334E-005  0.9118800E+02  0.7818608E-02  0.1130116E+00
         25   -1    0    0    0    0  0.00000000000E+00  0.00000000000E+00  0.99999998245E-14  0.12500000000E+03  0.12500000000E+03 0.  0.
        -13    1    3    3    0    0 -0.87826399390E+01  0.27906314165E+02  0.26989763636E+02  0.39803965125E+02  0.10566000000E+00 0.  1.
         23    2    1    0    0    0  0.16860816175E+02 -0.19890371943E+02  0.13216323031E+02  0.95766710541E+02  0.91195820273E+02 0.  0.
         13    1    3    3    0    0  0.25643456114E+02 -0.47796686108E+02 -0.13773440604E+02  0.55962745416E+02  0.10566000000E+00 0. -1.
         22    1    1    0    0    0 -0.16860816175E+02  0.19890371943E+02 -0.13216323031E+02  0.29233289459E+02  0.00000000000E+00 0. -1.
</event>
<event>
 5    1  0.8943334E-005  0.9118800E+02  0.7818608E-02  0.1130116E+00
         25   -1    0    0    0    0  0.00000000000E+00  0.00000000000E+00  0.99999998245E-14  0.12500000000E+03  0.12500000000E+03 0.  0.
        -13    1    3    3    0    0  0.29254372710E+02  0.19793209715E+02 -0.17465698359E+02  0.39403695977E+02  0.10566000000E+00 0.  1.
         23    2    1    0    0    0 -0.10774193154E+02  0.12250047013E+02  0.22987716785E+02  0.96811668852E+02  0.92617046017E+02 0.  0.
         13    1    3    3    0    0 -0.40028565864E+02 -0.75431627016E+01  0.40453415144E+02  0.57407972874E+02  0.10566000000E+00 0. -1.
         22    1    1    0    0    0  0.10774193154E+02 -0.12250047013E+02 -0.22987716785E+02  0.28188331148E+02  0.00000000000E+00 0. -1.
</event>
<event>
 5    1  0.8943334E-005  0.9118800E+02  0.7818608E-02  0.1130116E+00
         25   -1    0    0    0    0  0.00000000000E+00  0.00000000000E+00  0.99999998245E-14  0.12500000000E+03  0.12500000000E+03 0.  0.
        -13    1    3    3    0    0  0.27998731423E+02  0.36151505473E+02  0.16060697900E+02  0.48464600383E+02  0.10566000000E+00 0.  1.
         23    2    1    0    0    0  0.27170324765E+02 -0.91949119985E+01  0.84313859094E+00  0.96303591911E+02  0.91928765780E+02 0.  0.
         13    1    3    3    0    0 -0.82840665811E+00 -0.45346417471E+02 -0.15217559309E+02  0.47838991528E+02  0.10566000000E+00 0. -1.
         22    1    1    0    0    0 -0.27170324765E+02  0.91949119985E+01 -0.84313859094E+00  0.28696408089E+02  0.00000000000E+00 0.  1.
</event>
<event>
 5    1  0.8943334E-005  0.9118800E+02  0.7818608E-02  0.1130116E+00
         25   -1    0    0    0    0  0.00000000000E+00  0.00000000000E+00  0.99999998245E-14  0.12500000000E+03  0.12500000000E+03 0.  0.
        -13    1    3    3    0    0  0.32426826725E+02 -0.30811098760E+01  0.25153749622E+02  0.41154764167E+02  0.10566000000E+00 0.  1.
         23    2    1    0    0    0 -0.21454178061E+02 -0.22428466501E+01  0.20497735846E+02  0.95243163942E+02  0.90475361207E+02 0.  0.
         13    1    3    3    0    0 -0.53881004786E+02  0.83826322592E+00 -0.46560137760E+01  0.54088399775E+02  0.10566000000E+00 0. -1.
         22    1    1    0    0    0  0.21454178061E+02  0.22428466501E+01 -0.20497735846E+02  0.29756836058E+02  0.00000000000E+00 0. -1.
</event>
<event>
 5    1  0.8943334E-005  0.9118800E+02  0.7818608E-02  0.1130116E+00
         25   -1    0    0    0    0  0.00000000000E+00  0.00000000000E+00  0.99999998245E-14  0.12500000000E+03  0.12500000000E+03 0.  0.
        -13    1    3    3    0    0  0.11186228189E+02  0.26164390346E+01 -0.32694483299E+02  0.34654261737E+02  0.10566000000E+00 0.  1.
         23    2    1    0    0    0 -0.15459667623E+02 -0.13628485470E+02  0.20246984814E+02  0.96109217157E+02  0.91664083965E+02 0.  0.
         13    1    3    3    0    0 -0.26645895812E+02 -0.16244924505E+02  0.52941468112E+02  0.61454955420E+02  0.10566000000E+00 0. -1.
         22    1    1    0    0    0  0.15459667623E+02  0.13628485470E+02 -0.20246984814E+02  0.28890782843E+02  0.00000000000E+00 0. -1.
</event>
<event>
 5    1  0.8943334E-005  0.9118800E+02  0.7818608E-02  0.1130116E+00
         25   -1    0    0    0    0  0.00000000000E+00  0.00000000000E+00  0.99999998245E-14  0.12500000000E+03  0.12500000000E+03 0.  0.
        -13    1    3    3    0    0  0.10941565758E+02 -0.39633665461E+02 -0.54707539368E+01  0.41478736863E+02  0.10566000000E+00 0. -1.
         23    2    1    0    0    0 -0.22762116199E+02 -0.45002777899E+01  0.18102224754E+02  0.95571154031E+02  0.90927380407E+02 0.  0.
         13    1    3    3    0    0 -0.33703681956E+02  0.35133387671E+02  0.23572978691E+02  0.54092417168E+02  0.10566000000E+00 0.  1.
         22    1    1    0    0    0  0.22762116199E+02  0.45002777899E+01 -0.18102224754E+02  0.29428845969E+02  0.00000000000E+00 0.  1.
</event>
<event>
 5    1  0.8943334E-005  0.9118800E+02  0.7818608E-02  0.1130116E+00
         25   -1    0    0    0    0  0.00000000000E+00  0.00000000000E+00  0.99999998245E-14  0.12500000000E+03  0.12500000000E+03 0.  0.
        -13    1    3    3    0    0  0.35436005262E+02  0.12851595381E+02 -0.43545469436E+02  0.57594210171E+02  0.10566000000E+00 0. -1.
         23    2    1    0    0    0  0.11572036999E+02  0.22121138462E+02 -0.15281548402E+02  0.95729152238E+02  0.91144325438E+02 0.  0.
         13    1    3    3    0    0 -0.23863968263E+02  0.92695430814E+01  0.28263921035E+02  0.38134942067E+02  0.10566000000E+00 0.  1.
         22    1    1    0    0    0 -0.11572036999E+02 -0.22121138462E+02  0.15281548402E+02  0.29270847762E+02  0.00000000000E+00 0. -1.
</event>
<event>
 5    1  0.8943334E-005  0.9118800E+02  0.7818608E-02  0.1130116E+00
         25   -1    0    0    0    0  0.00000000000E+00  0.00000000000E+00  0.99999998245E-14  0.12500000000E+03  0.12500000000E+03 0.  0.
        -13    1    3    3    0    0 -0.34739131260E+02  0.14770685084E+02  0.37851794679E+02  0.53457926475E+02  0.10566000000E+00 0.  1.
         23    2    1    0    0    0 -0.27499710504E+02 -0.10447730339E+02  0.55656230611E+01  0.95060639501E+02  0.90222834556E+02 0.  0.
         13    1    3    3    0    0  0.72394207558E+01 -0.25218415423E+02 -0.32286171618E+02  0.41602713026E+02  0.10566000000E+00 0. -1.
         22    1    1    0    0    0  0.27499710504E+02  0.10447730339E+02 -0.55656230611E+01  0.29939360499E+02  0.00000000000E+00 0.  1.
</event>
<event>
 5    1  0.8943334E-005  0.9118800E+02  0.7818608E-02  0.1130116E+00
         25   -1    0    0    0    0  0.00000000000E+00  0.00000000000E+00  0.99999998245E-14  0.12500000000E+03  0.12500000000E+03 0.  0.
        -13    1    3    3    0    0 -0.35282324951E+02  0.44099620108E+02  0.72189806001E+01  0.56936313478E+02  0.10566000000E+00 0.  1.
         23    2    1    0    0    0 -0.27481274971E+02  0.60006834378E+01  0.77271160262E+01  0.95829175572E+02  0.91281399491E+02 0.  0.
         13    1    3    3    0    0  0.78010499802E+01 -0.38098936670E+02  0.50813542609E+00  0.38892862093E+02  0.10566000000E+00 0. -1.
         22    1    1    0    0    0  0.27481274971E+02 -0.60006834378E+01 -0.77271160262E+01  0.29170824428E+02  0.00000000000E+00 0.  1.
</event>
<event>
 5    1  0.8943334E-005  0.9118800E+02  0.7818608E-02  0.1130116E+00
         25   -1    0    0    0    0  0.00000000000E+00  0.00000000000E+00  0.99999998245E-14  0.12500000000E+03  0.12500000000E+03 0.  0.
        -13    1    3    3    0    0 -0.37046895767E+00 -0.92344447432E+01 -0.37645880183E+02  0.38763844956E+02  0.10566000000E+00 0.  1.
         23    2    1    0    0    0  0.51430782013E+01 -0.28453798670E+02  0.13062150066E+02  0.93271626633E+02  0.87709216496E+02 0.  0.
         13    1    3    3    0    0  0.55135471590E+01 -0.19219353927E+02  0.50708030249E+02  0.54507781678E+02  0.10566000000E+00 0. -1.
         22    1    1    0    0    0 -0.51430782013E+01  0.28453798670E+02 -0.13062150066E+02  0.31728373367E+02  0.00000000000E+00 0. -1.
</event>
<event>
 5    1  0.8943334E-005  0.9118800E+02  0.7818608E-02  0.1130116E+00
         25   -1    0    0    0    0  0.00000000000E+00  0.00000000000E+00  0.99999998245E-14  0.12500000000E+03  0.12500000000E+03 0.  0.
        -13    1    3    3    0    0  0.35643963306E+02 -0.37951072620E+01  0.13279168538E+02  0.38226200967E+02  0.10566000000E+00 0.  1.
         23    2    1    0    0    0 -0.42086525202E+01  0.12080024732E+02 -0.25766161346E+02  0.96233094986E+02  0.91832857663E+02 0.  0.
         13    1    3    3    0    0 -0.39852615826E+02  0.15875131994E+02 -0.39045329884E+02  0.58006894019E+02  0.10566000000E+00 0. -1.
         22    1    1    0    0    0  0.42086525202E+01 -0.12080024732E+02  0.25766161346E+02  0.28766905014E+02  0.00000000000E+00 0. -1.
</event>
<event>
 5    1  0.8943334E-005  0.9118800E+02  0.7818608E-02  0.1130116E+00
         25   -1    0    0    0    0  0.00000000000E+00  0.00000000000E+00  0.99999998245E-14  0.12500000000E+03  0.12500000000E+03 0.  0.
        -13    1    3    3    0    0  0.15202383062E+02 -0.25840496373E+02 -0.36391094154E+02  0.47150467668E+02  0.10566000000E+00 0. -1.
         23    2    1    0    0    0 -0.14617173528E+02 -0.31933070493E+02 -0.75555357236E+01  0.89076903347E+02  0.81512120796E+02 0.  0.
         13    1    3    3    0    0 -0.29819556590E+02 -0.60925741202E+01  0.28835558431E+02  0.41926435678E+02  0.10566000000E+00 0.  1.
         22    1    1    0    0    0  0.14617173528E+02  0.31933070493E+02  0.75555357236E+01  0.35923096653E+02  0.00000000000E+00 0.  1.
</event>
<event>
 5    1  0.8943334E-005  0.9118800E+02  0.7818608E-02  0.1130116E+00
         25   -1    0    0    0    0  0.00000000000E+00  0.00000000000E+00  0.99999998245E-14  0.12500000000E+03  0.12500000000E+03 0.  0.
        -13    1    3    3    0    0  0.36744729508E+02 -0.46941417451E+01 -0.37528817208E+02  0.52731711506E+02  0.10566000000E+00 0.  1.
         23    2    1    0    0    0  0.70456030067E+01 -0.24854147654E+02 -0.14576872509E+02  0.95337660418E+02  0.90605822685E+02 0.  0.
         13    1    3    3    0    0 -0.29699126501E+02 -0.20160005909E+02  0.22951944698E+02  0.42605948912E+02  0.10566000000E+00 0. -1.
         22    1    1    0    0    0 -0.70456030067E+01  0.24854147654E+02  0.14576872509E+02  0.29662339582E+02  0.00000000000E+00 0.  1.
</event>
<event>
 5    1  0.8943334E-005  0.9118800E+02  0.7818608E-02  0.1130116E+00
         25   -1    0    0    0    0  0.00000000000E+00  0.00000000000E+00  0.99999998245E-14  0.12500000000E+03  0.12500000000E+03 0.  0.
        -13    1    3    3    0    0 -0.22200432761E+02 -0.42255166760E+02  0.12153609367E+02  0.49255250658E+02  0.10566000000E+00 0. -1.
         23    2    1    0    0    0  0.64550581745E+01 -0.13931981543E+02  0.28413257154E+02  0.92703234406E+02  0.86895388839E+02 0.  0.
         13    1    3    3    0    0  0.28655490936E+02  0.28323185217E+02  0.16259647786E+02  0.43447983748E+02  0.10566000000E+00 0.  1.
         22    1    1    0    0    0 -0.64550581745E+01  0.13931981543E+02 -0.28413257154E+02  0.32296765594E+02  0.00000000000E+00 0. -1.
</event>
<event>
 5    1  0.8943334E-005  0.9118800E+02  0.7818608E-02  0.1130116E+00
         25   -1    0    0    0    0  0.00000000000E+00  0.00000000000E+00  0.99999998245E-14  0.12500000000E+03  0.12500000000E+03 0.  0.
        -13    1    3    3    0    0 -0.10832638865E+02  0.54078922190E+02 -0.21327911762E+02  0.59133466617E+02  0.10566000000E+00 0.  1.
         23    2    1    0    0    0  0.68931346756E+01  0.34696793621E+02 -0.16996512465E+02  0.85753799812E+02  0.76245983192E+02 0.  0.
         13    1    3    3    0    0  0.17725773541E+02 -0.19382128569E+02  0.43313992970E+01  0.26620333195E+02  0.10566000000E+00 0. -1.
         22    1    1    0    0    0 -0.68931346756E+01 -0.34696793621E+02  0.16996512465E+02  0.39246200188E+02  0.00000000000E+00 0.  1.
</event>
<event>
 5    1  0.8943334E-005  0.9118800E+02  0.7818608E-02  0.1130116E+00
         25   -1    0    0    0    0  0.00000000000E+00  0.00000000000E+00  0.99999998245E-14  0.12500000000E+03  0.12500000000E+03 0.  0.
        -13    1    3    3    0    0  0.89118445860E+01  0.16249676265E+02 -0.26780235170E+02  0.32567853974E+02  0.10566000000E+00 0. -1.
         23    2    1    0    0    0  0.35015376446E+01 -0.23128095350E+01  0.31113388085E+02  0.93604892548E+02  0.88182895943E+02 0.  0.
         13    1    3    3    0    0 -0.54103069415E+01 -0.18562485800E+02  0.57893623255E+02  0.61037038574E+02  0.10566000000E+00 0.  1.
         22    1    1    0    0    0 -0.35015376446E+01  0.23128095350E+01 -0.31113388085E+02  0.31395107452E+02  0.00000000000E+00 0.  1.
</event>
<event>
 5    1  0.8943334E-005  0.9118800E+02  0.7818608E-02  0.1130116E+00
         25   -1    0    0    0    0  0.00000000000E+00  0.00000000000E+00  0.99999998245E-14  0.12500000000E+03  0.12500000000E+03 0.  0.
        -13    1    3    3    0    0 -0.96828495749E+01 -0.60344134584E+01 -0.40093885197E+02  0.41685759150E+02  0.10566000000E+00 0. -1.
         23    2    1    0    0    0 -0.17459933547E+02  0.27249704057E+02 -0.24328219521E+01  0.92545196452E+02  0.86667751286E+02 0.  0.
         13    1    3    3    0    0 -0.77770839720E+01  0.33284117516E+02  0.37661063245E+02  0.50859437302E+02  0.10566000000E+00 0.  1.
         22    1    1    0    0    0  0.17459933547E+02 -0.27249704057E+02  0.24328219521E+01  0.32454803548E+02  0.00000000000E+00 0.  1.
</event>
<event>
 5    1  0.8943334E-005  0.9118800E+02  0.7818608E-02  0.1130116E+00
         25   -1    0    0    0    0  0.00000000000E+00  0.00000000000E+00  0.99999998245E-14  0.12500000000E+03  0.12500000000E+03 0.  0.
        -13    1    3    3    0    0  0.24788771773E+02 -0.27004929458E+02 -0.42310589017E+02  0.55981662427E+02  0.10566000000E+00 0.  1.
         23    2    1    0    0    0 -0.44038396097E+00  0.32949910286E+01 -0.26225004162E+02  0.98565141438E+02  0.94954122393E+02 0.  0.
         13    1    3    3    0    0 -0.25229155734E+02  0.30299920486E+02  0.16085584856E+02  0.42583479011E+02  0.10566000000E+00 0. -1.
         22    1    1    0    0    0  0.44038396097E+00 -0.32949910286E+01  0.26225004162E+02  0.26434858562E+02  0.00000000000E+00 0.  1.
</event>
<event>
 5    1  0.8943334E-005  0.9118800E+02  0.7818608E-02  0.1130116E+00
         25   -1    0    0    0    0  0.00000000000E+00  0.00000000000E+00  0.99999998245E-14  0.12500000000E+03  0.12500000000E+03 0.  0.
        -13    1    3    3    0    0 -0.24954397404E+02 -0.51677315353E+02  0.42888413044E+01  0.57547130213E+02  0.10566000000E+00 0.  1.
         23    2    1    0    0    0 -0.20452893559E+02 -0.16877648606E+02 -0.11587414493E+02  0.96061374393E+02  0.91598818760E+02 0.  0.
         13    1    3    3    0    0  0.45015038452E+01  0.34799666748E+02 -0.15876255797E+02  0.38514244180E+02  0.10566000000E+00 0. -1.
         22    1    1    0    0    0  0.20452893559E+02  0.16877648606E+02  0.11587414493E+02  0.28938625607E+02  0.00000000000E+00 0.  1.
</event>
<event>
 5    1  0.8943334E-005  0.9118800E+02  0.7818608E-02  0.1130116E+00
         25   -1    0    0    0    0  0.00000000000E+00  0.00000000000E+00  0.99999998245E-14  0.12500000000E+03  0.12500000000E+03 0.  0.
        -13    1    3    3    0    0  0.28644869515E+02  0.29202121150E+02 -0.10765493393E+02  0.42298929551E+02  0.10566000000E+00 0.  1.
         23    2    1    0    0    0  0.15533499202E+02 -0.57755404118E+01  0.25647149220E+02  0.94464402288E+02  0.89392955942E+02 0.  0.
         13    1    3    3    0    0 -0.13111370312E+02 -0.34977661561E+02  0.36412642613E+02  0.52165472737E+02  0.10566000000E+00 0. -1.
         22    1    1    0    0    0 -0.15533499202E+02  0.57755404118E+01 -0.25647149220E+02  0.30535597712E+02  0.00000000000E+00 0. -1.
</event>
<event>
 5    1  0.8943334E-005  0.9118800E+02  0.7818608E-02  0.1130116E+00
         25   -1    0    0    0    0  0.00000000000E+00  0.00000000000E+00  0.99999998245E-14  0.12500000000E+03  0.12500000000E+03 0.  0.
        -13    1    3    3    0    0 -0.36656264001E+02 -0.17259764798E+02 -0.91356158646E+01  0.41533743061E+02  0.10566000000E+00 0.  1.
         23    2    1    0    0    0  0.13985748570E+02 -0.21053729135E+01 -0.24611988792E+02  0.96613669655E+02  0.92349431041E+02 0.  0.
         13    1    3    3    0    0  0.50642012570E+02  0.15154391885E+02 -0.15476372928E+02  0.55079926594E+02  0.10566000000E+00 0. -1.
         22    1    1    0    0    0 -0.13985748570E+02  0.21053729135E+01  0.24611988792E+02  0.28386330345E+02  0.00000000000E+00 0. -1.
</event>
<event>
 5    1  0.8943334E-005  0.9118800E+02  0.7818608E-02  0.1130116E+00
         25   -1    0    0    0    0  0.00000000000E+00  0.00000000000E+00  0.99999998245E-14  0.12500000000E+03  0.12500000000E+03 0.  0.
        -13    1    3    3    0    0 -0.30675032478E+01 -0.27646263696E+02 -0.44342276555E+02  0.52344762171E+02  0.10566000000E+00 0.  1.
         23    2    1    0    0    0  0.15700887023E+02  0.64060094913E+01 -0.22115739988E+02  0.97131365909E+02  0.93047522681E+02 0.  0.
         13    1    3    3    0    0  0.18768390270E+02  0.34052273188E+02  0.22226536567E+02  0.44786603738E+02  0.10566000000E+00 0. -1.
         22    1    1    0    0    0 -0.15700887023E+02 -0.64060094913E+01  0.22115739988E+02  0.27868634091E+02  0.00000000000E+00 0.  1.
</event>
<event>
 5    1  0.8943334E-005  0.9118800E+02  0.7818608E-02  0.1130116E+00
         25   -1    0    0    0    0  0.00000000000E+00  0.00000000000E+00  0.99999998245E-14  0.12500000000E+03  0.12500000000E+03 0.  0.
        -13    1    3    3    0    0  0.26231978503E+02  0.30428634941E+02 -0.19452980661E+02  0.44636847348E+02  0.10566000000E+00 0.  1.
         23    2    1    0    0    0  0.10507612783E+02  0.68520268468E+01  0.24812434031E+02  0.97196815275E+02  0.93135405828E+02 0.  0.
         13    1    3    3    0    0 -0.15724365720E+02 -0.23576608095E+02  0.44265414692E+02  0.52559967927E+02  0.10566000000E+00 0. -1.
         22    1    1    0    0    0 -0.10507612783E+02 -0.68520268468E+01 -0.24812434031E+02  0.27803184725E+02  0.00000000000E+00 0.  1.
</event>
<event>
 5    1  0.8943334E-005  0.9118800E+02  0.7818608E-02  0.1130116E+00
         25   -1    0    0    0    0  0.00000000000E+00  0.00000000000E+00  0.99999998245E-14  0.12500000000E+03  0.12500000000E+03 0.  0.
        -13    1    3    3    0    0  0.11340873115E+02  0.27887095273E+02 -0.26807701811E+02  0.40310910759E+02  0.10566000000E+00 0. -1.
         23    2    1    0    0    0  0.28247412053E+02 -0.85969861170E+01  0.89767184243E+01  0.94138925300E+02  0.88936670305E+02 0.  0.
         13    1    3    3    0    0  0.16906538938E+02 -0.36484081390E+02  0.35784420236E+02  0.53828014541E+02  0.10566000000E+00 0.  1.
         22    1    1    0    0    0 -0.28247412053E+02  0.85969861170E+01 -0.89767184243E+01  0.30861074700E+02  0.00000000000E+00 0. -1.
</event>
<event>
 5    1  0.8943334E-005  0.9118800E+02  0.7818608E-02  0.1130116E+00
         25   -1    0    0    0    0  0.00000000000E+00  0.00000000000E+00  0.99999998245E-14  0.12500000000E+03  0.12500000000E+03 0.  0.
        -13    1    3    3    0    0 -0.87548162701E+01 -0.34239685333E+02  0.11771418137E+02  0.37250239041E+02  0.10566000000E+00 0.  1.
         23    2    1    0    0    0  0.30693245414E+01  0.53453041894E+01 -0.29034498562E+02  0.95318437765E+02  0.90579299187E+02 0.  0.
         13    1    3    3    0    0  0.11824140811E+02  0.39584989522E+02 -0.40805916699E+02  0.58068198724E+02  0.10566000000E+00 0. -1.
         22    1    1    0    0    0 -0.30693245414E+01 -0.53453041894E+01  0.29034498562E+02  0.29681562235E+02  0.00000000000E+00 0. -1.
</event>
<event>
 5    1  0.8943334E-005  0.9118800E+02  0.7818608E-02  0.1130116E+00
         25   -1    0    0    0    0  0.00000000000E+00  0.00000000000E+00  0.99999998245E-14  0.12500000000E+03  0.12500000000E+03 0.  0.
        -13    1    3    3    0    0 -0.37169555558E+01  0.42068970601E+02  0.56807915522E+01  0.42613338319E+02  0.10566000000E+00 0. -1.
         23    2    1    0    0    0 -0.23793620936E+02 -0.77804386506E+01  0.12902833762E+02  0.96836996930E+02  0.92651223589E+02 0.  0.
         13    1    3    3    0    0 -0.20076665380E+02 -0.49849409251E+02  0.72220422096E+01  0.54223658611E+02  0.10566000000E+00 0.  1.
         22    1    1    0    0    0  0.23793620936E+02  0.77804386506E+01 -0.12902833762E+02  0.28163003070E+02  0.00000000000E+00 0.  1.
</event>
<event>
 5    1  0.8943334E-005  0.9118800E+02  0.7818608E-02  0.1130116E+00
         25   -1    0    0    0    0  0.00000000000E+00  0.00000000000E+00  0.99999998245E-14  0.12500000000E+03  0.12500000000E+03 0.  0.
        -13    1    3    3    0    0  0.29007406984E+02 -0.74183934229E+00  0.18389897508E+02  0.34353740406E+02  0.10566000000E+00 0.  1.
         23    2    1    0    0    0 -0.22185137187E+02 -0.42126652315E+01 -0.17042532133E+02  0.96709104612E+02  0.92478517251E+02 0.  0.
         13    1    3    3    0    0 -0.51192544170E+02 -0.34708258892E+01 -0.35432429641E+02  0.62355364206E+02  0.10566000000E+00 0. -1.
         22    1    1    0    0    0  0.22185137187E+02  0.42126652315E+01  0.17042532133E+02  0.28290895388E+02  0.00000000000E+00 0. -1.
</event>
<event>
 5    1  0.8943334E-005  0.9118800E+02  0.7818608E-02  0.1130116E+00
         25   -1    0    0    0    0  0.00000000000E+00  0.00000000000E+00  0.99999998245E-14  0.12500000000E+03  0.12500000000E+03 0.  0.
        -13    1    3    3    0    0 -0.34127088884E+02  0.17546305057E+02  0.48342323526E+02  0.61721328767E+02  0.10566000000E+00 0. -1.
         23    2    1    0    0    0 -0.22838500352E+02  0.41333110824E+01  0.25439817043E+02  0.90563599927E+02  0.83760969322E+02 0.  0.
         13    1    3    3    0    0  0.11288588532E+02 -0.13412993975E+02 -0.22902506483E+02  0.28842271160E+02  0.10566000000E+00 0.  1.
         22    1    1    0    0    0  0.22838500352E+02 -0.41333110824E+01 -0.25439817043E+02  0.34436400073E+02  0.00000000000E+00 0. -1.
</event>
<event>
 4    1  0.8943334E-005  0.9118800E+02  0.7818608E-02  0.1130116E+00
         25   -1    0    0    0    0  0.00000000000E+00  0.00000000000E+00  0.99999998245E-14  0.12500000000E+03  0.12500000000E+03 0.  0.
        -13    1    1    0    0    0 -0.22024728869E+01 -0.38294491408E+01  0.42166061911E+02  0.42396975230E+02  0.10566000000E+00 0.  1.
         13    1    1    0    0    0  0.10555426604E+02  0.26489140711E+02  0.56177577302E+01  0.29063068874E+02  0.10566000000E+00 0. -1.
         22    1    1    0    0    0 -0.83529537172E+01 -0.22659691570E+02 -0.47783819641E+02  0.53539955896E+02  0.00000000000E+00 0.  1.
</event>
<event>
 5    1  0.8943334E-005  0.9118800E+02  0.7818608E-02  0.1130116E+00
         25   -1    0    0    0    0  0.00000000000E+00  0.00000000000E+00  0.99999998245E-14  0.12500000000E+03  0.12500000000E+03 0.  0.
        -13    1    3    3    0    0 -0.11145975470E+02 -0.33135471739E+02  0.13922711479E+02  0.37630377562E+02  0.10566000000E+00 0.  1.
         23    2    1    0    0    0 -0.12856259385E+02  0.24896483669E+02  0.19276733490E+01  0.96913807146E+02  0.92754793874E+02 0.  0.
         13    1    3    3    0    0 -0.17102839156E+01  0.58031955408E+02 -0.11995038130E+02  0.59283429584E+02  0.10566000000E+00 0. -1.
         22    1    1    0    0    0  0.12856259385E+02 -0.24896483669E+02 -0.19276733490E+01  0.28086192854E+02  0.00000000000E+00 0. -1.
</event>
<event>
 5    1  0.8943334E-005  0.9118800E+02  0.7818608E-02  0.1130116E+00
         25   -1    0    0    0    0  0.00000000000E+00  0.00000000000E+00  0.99999998245E-14  0.12500000000E+03  0.12500000000E+03 0.  0.
        -13    1    3    3    0    0 -0.10379897430E+01  0.35853038765E+02  0.32364806877E+02  0.48311589702E+02  0.10566000000E+00 0. -1.
         23    2    1    0    0    0  0.20053352926E+02 -0.59103978777E+01  0.18430591696E+02  0.97129648784E+02  0.93045215869E+02 0.  0.
         13    1    3    3    0    0  0.21091342669E+02 -0.41763436642E+02 -0.13934215181E+02  0.48818059082E+02  0.10566000000E+00 0.  1.
         22    1    1    0    0    0 -0.20053352926E+02  0.59103978777E+01 -0.18430591696E+02  0.27870351216E+02  0.00000000000E+00 0.  1.
</event>
<event>
 5    1  0.8943334E-005  0.9118800E+02  0.7818608E-02  0.1130116E+00
         25   -1    0    0    0    0  0.00000000000E+00  0.00000000000E+00  0.99999998245E-14  0.12500000000E+03  0.12500000000E+03 0.  0.
        -13    1    3    3    0    0 -0.30090059510E+02 -0.18896478165E+02  0.47510657942E+02  0.59327585072E+02  0.10566000000E+00 0.  1.
         23    2    1    0    0    0 -0.25370787265E+02  0.44221570528E+00  0.24973502604E+02  0.89397356370E+02  0.82002067610E+02 0.  0.
         13    1    3    3    0    0  0.47192722449E+01  0.19338693870E+02 -0.22537155338E+02  0.30069771298E+02  0.10566000000E+00 0. -1.
         22    1    1    0    0    0  0.25370787265E+02 -0.44221570528E+00 -0.24973502604E+02  0.35602643630E+02  0.00000000000E+00 0.  1.
</event>
<event>
 5    1  0.8943334E-005  0.9118800E+02  0.7818608E-02  0.1130116E+00
         25   -1    0    0    0    0  0.00000000000E+00  0.00000000000E+00  0.99999998245E-14  0.12500000000E+03  0.12500000000E+03 0.  0.
        -13    1    3    3    0    0 -0.42945678466E+01  0.50079279495E+02  0.19234116754E+02  0.53817654716E+02  0.10566000000E+00 0.  1.
         23    2    1    0    0    0 -0.24585656137E+02  0.18610647320E+02  0.56354570995E+01  0.93654042396E+02  0.88252538768E+02 0.  0.
         13    1    3    3    0    0 -0.20291088291E+02 -0.31468632175E+02 -0.13598659654E+02  0.39836387681E+02  0.10566000000E+00 0. -1.
         22    1    1    0    0    0  0.24585656137E+02 -0.18610647320E+02 -0.56354570995E+01  0.31345957604E+02  0.00000000000E+00 0.  1.
</event>
<event>
 5    1  0.8943334E-005  0.9118800E+02  0.7818608E-02  0.1130116E+00
         25   -1    0    0    0    0  0.00000000000E+00  0.00000000000E+00  0.99999998245E-14  0.12500000000E+03  0.12500000000E+03 0.  0.
        -13    1    3    3    0    0  0.83812098384E+01 -0.24990930213E+02  0.24039471018E+02  0.35674901572E+02  0.10566000000E+00 0.  1.
         23    2    1    0    0    0 -0.22865172348E+02  0.17293103495E+02 -0.52435956390E+01  0.95856169947E+02  0.91318357884E+02 0.  0.
         13    1    3    3    0    0 -0.31246382186E+02  0.42284033708E+02 -0.29283066657E+02  0.60181268375E+02  0.10566000000E+00 0. -1.
         22    1    1    0    0    0  0.22865172348E+02 -0.17293103495E+02  0.52435956390E+01  0.29143830053E+02  0.00000000000E+00 0. -1.
</event>
<event>
 5    1  0.8943334E-005  0.9118800E+02  0.7818608E-02  0.1130116E+00
         25   -1    0    0    0    0  0.00000000000E+00  0.00000000000E+00  0.99999998245E-14  0.12500000000E+03  0.12500000000E+03 0.  0.
        -13    1    3    3    0    0  0.94602769557E+01 -0.11449458496E+02 -0.37157913326E+02  0.40016354491E+02  0.10566000000E+00 0.  1.
         23    2    1    0    0    0 -0.29075464003E+02  0.50196262421E+01 -0.82197385037E+00  0.95482972785E+02  0.90806074666E+02 0.  0.
         13    1    3    3    0    0 -0.38535740959E+02  0.16469084738E+02  0.36335939476E+02  0.55466618294E+02  0.10566000000E+00 0. -1.
         22    1    1    0    0    0  0.29075464003E+02 -0.50196262421E+01  0.82197385037E+00  0.29517027215E+02  0.00000000000E+00 0.  1.
</event>
<event>
 5    1  0.8943334E-005  0.9118800E+02  0.7818608E-02  0.1130116E+00
         25   -1    0    0    0    0  0.00000000000E+00  0.00000000000E+00  0.99999998245E-14  0.12500000000E+03  0.12500000000E+03 0.  0.
        -13    1    3    3    0    0  0.20775927424E+01 -0.16735846798E+02  0.29993741995E+02  0.34409892219E+02  0.10566000000E+00 0. -1.
         23    2    1    0    0    0  0.10947053414E+02  0.68732133662E+01 -0.26079022396E+02  0.95893395087E+02  0.91369298847E+02 0.  0.
         13    1    3    3    0    0  0.88694606719E+01  0.23609060164E+02 -0.56072764391E+02  0.61483502868E+02  0.10566000000E+00 0.  1.
         22    1    1    0    0    0 -0.10947053414E+02 -0.68732133662E+01  0.26079022396E+02  0.29106604913E+02  0.00000000000E+00 0.  1.
</event>
<event>
 5    1  0.8943334E-005  0.9118800E+02  0.7818608E-02  0.1130116E+00
         25   -1    0    0    0    0  0.00000000000E+00  0.00000000000E+00  0.99999998245E-14  0.12500000000E+03  0.12500000000E+03 0.  0.
        -13    1    3    3    0    0  0.66168180232E+01  0.33635161294E+02 -0.95656275204E+01  0.35589587661E+02  0.10566000000E+00 0. -1.
         23    2    1    0    0    0 -0.29876572271E+02 -0.10086087457E+02 -0.75507733802E+01  0.92575427382E+02  0.86711342081E+02 0.  0.
         13    1    3    3    0    0 -0.36493390294E+02 -0.43721248750E+02  0.20148541403E+01  0.56985839721E+02  0.10566000000E+00 0.  1.
         22    1    1    0    0    0  0.29876572271E+02  0.10086087457E+02  0.75507733802E+01  0.32424572618E+02  0.00000000000E+00 0.  1.
</event>
<event>
 5    1  0.8943334E-005  0.9118800E+02  0.7818608E-02  0.1130116E+00
         25   -1    0    0    0    0  0.00000000000E+00  0.00000000000E+00  0.99999998245E-14  0.12500000000E+03  0.12500000000E+03 0.  0.
        -13    1    3    3    0    0 -0.25034730950E+02  0.41757313920E+02 -0.22461786379E+02  0.53618597808E+02  0.10566000000E+00 0.  1.
         23    2    1    0    0    0 -0.22689163301E+02  0.20721114461E+02  0.10273271013E+02  0.92600882526E+02  0.86748029554E+02 0.  0.
         13    1    3    3    0    0  0.23455676490E+01 -0.21036199459E+02  0.32735057392E+02  0.38982284717E+02  0.10566000000E+00 0. -1.
         22    1    1    0    0    0  0.22689163301E+02 -0.20721114461E+02 -0.10273271013E+02  0.32399117474E+02  0.00000000000E+00 0.  1.
</event>
<event>
 5    1  0.8943334E-005  0.9118800E+02  0.7818608E-02  0.1130116E+00
         25   -1    0    0    0    0  0.00000000000E+00  0.00000000000E+00  0.99999998245E-14  0.12500000000E+03  0.12500000000E+03 0.  0.
        -13    1    3    3    0    0  0.33262795059E+02  0.67597340714E+01  0.22125672809E+02  0.40517454278E+02  0.10566000000E+00 0.  1.
         23    2    1    0    0    0 -0.17226873751E+02  0.22689910522E+02  0.57341982087E+01  0.95940092089E+02  0.91433161502E+02 0.  0.
         13    1    3    3    0    0 -0.50489668810E+02  0.15930176450E+02 -0.16391474601E+02  0.55422637811E+02  0.10566000000E+00 0. -1.
         22    1    1    0    0    0  0.17226873751E+02 -0.22689910522E+02 -0.57341982087E+01  0.29059907911E+02  0.00000000000E+00 0. -1.
</event>
<event>
 5    1  0.8943334E-005  0.9118800E+02  0.7818608E-02  0.1130116E+00
         25   -1    0    0    0    0  0.00000000000E+00  0.00000000000E+00  0.99999998245E-14  0.12500000000E+03  0.12500000000E+03 0.  0.
        -13    1    3    3    0    0  0.37490569848E+02 -0.21417550370E+01 -0.15207600382E+02  0.40514345800E+02  0.10566000000E+00 0.  1.
         23    2    1    0    0    0 -0.19955495526E+02  0.99563604058E+01 -0.12835845376E+02  0.99268504887E+02  0.95875576774E+02 0.  0.
         13    1    3    3    0    0 -0.57446065374E+02  0.12098115443E+02  0.23717550064E+01  0.58754159087E+02  0.10566000000E+00 0. -1.
         22    1    1    0    0    0  0.19955495526E+02 -0.99563604058E+01  0.12835845376E+02  0.25731495113E+02  0.00000000000E+00 0. -1.
</event>
<event>
 5    1  0.8943334E-005  0.9118800E+02  0.7818608E-02  0.1130116E+00
         25   -1    0    0    0    0  0.00000000000E+00  0.00000000000E+00  0.99999998245E-14  0.12500000000E+03  0.12500000000E+03 0.  0.
        -13    1    3    3    0    0 -0.43210350368E+02 -0.71065452549E+01  0.11480328610E+02  0.45270812599E+02  0.10566000000E+00 0.  1.
         23    2    1    0    0    0 -0.10411310378E+02  0.15868955307E+02 -0.20898888513E+02  0.96769118551E+02  0.92559600462E+02 0.  0.
         13    1    3    3    0    0  0.32799039990E+02  0.22975500561E+02 -0.32379217124E+02  0.51498305951E+02  0.10566000000E+00 0. -1.
         22    1    1    0    0    0  0.10411310378E+02 -0.15868955307E+02  0.20898888513E+02  0.28230881449E+02  0.00000000000E+00 0. -1.
</event>
<event>
 5    1  0.8943334E-005  0.9118800E+02  0.7818608E-02  0.1130116E+00
         25   -1    0    0    0    0  0.00000000000E+00  0.00000000000E+00  0.99999998245E-14  0.12500000000E+03  0.12500000000E+03 0.  0.
        -13    1    3    3    0    0  0.32826487552E+02 -0.44451983783E+01 -0.25326267915E+02  0.41698550145E+02  0.10566000000E+00 0. -1.
         23    2    1    0    0    0  0.37469176725E+01  0.27151411797E+02  0.84349573310E+01  0.96322708290E+02  0.91954755573E+02 0.  0.
         13    1    3    3    0    0 -0.29079569880E+02  0.31596610176E+02  0.33761225246E+02  0.54624158146E+02  0.10566000000E+00 0.  1.
         22    1    1    0    0    0 -0.37469176725E+01 -0.27151411797E+02 -0.84349573310E+01  0.28677291710E+02  0.00000000000E+00 0.  1.
</event>
<event>
 5    1  0.8943334E-005  0.9118800E+02  0.7818608E-02  0.1130116E+00
         25   -1    0    0    0    0  0.00000000000E+00  0.00000000000E+00  0.99999998245E-14  0.12500000000E+03  0.12500000000E+03 0.  0.
        -13    1    3    3    0    0  0.50610589481E+02  0.28259618137E+00 -0.29108106040E+02  0.58384969209E+02  0.10566000000E+00 0.  1.
         23    2    1    0    0    0  0.15773154040E+02  0.10840524087E+02 -0.22634321843E+02  0.95358443426E+02  0.90634490435E+02 0.  0.
         13    1    3    3    0    0 -0.34837435442E+02  0.10557927906E+02  0.64737841969E+01  0.36973474217E+02  0.10566000000E+00 0. -1.
         22    1    1    0    0    0 -0.15773154040E+02 -0.10840524087E+02  0.22634321843E+02  0.29641556574E+02  0.00000000000E+00 0.  1.
</event>
<event>
 5    1  0.8943334E-005  0.9118800E+02  0.7818608E-02  0.1130116E+00
         25   -1    0    0    0    0  0.00000000000E+00  0.00000000000E+00  0.99999998245E-14  0.12500000000E+03  0.12500000000E+03 0.  0.
        -13    1    3    3    0    0  0.13730064607E+02  0.41086081774E+02  0.13389640968E+02  0.45341751609E+02  0.10566000000E+00 0.  1.
         23    2    1    0    0    0 -0.25340145488E+02  0.79191728618E+01 -0.52211479858E+00  0.98446113730E+02  0.94797301821E+02 0.  0.
         13    1    3    3    0    0 -0.39070210095E+02 -0.33166908913E+02 -0.13911755766E+02  0.53104362121E+02  0.10566000000E+00 0. -1.
         22    1    1    0    0    0  0.25340145488E+02 -0.79191728618E+01  0.52211479858E+00  0.26553886270E+02  0.00000000000E+00 0.  1.
</event>
<event>
 5    1  0.8943334E-005  0.9118800E+02  0.7818608E-02  0.1130116E+00
         25   -1    0    0    0    0  0.00000000000E+00  0.00000000000E+00  0.99999998245E-14  0.12500000000E+03  0.12500000000E+03 0.  0.
        -13    1    3    3    0    0 -0.42078352263E+02 -0.19527085435E+02  0.19450269982E+02  0.50301281903E+02  0.10566000000E+00 0. -1.
         23    2    1    0    0    0 -0.91044827744E+00  0.58603810797E+00  0.28057734602E+02  0.96921381307E+02  0.92765000549E+02 0.  0.
         13    1    3    3    0    0  0.41167903985E+02  0.20113123543E+02  0.86074646200E+01  0.46620099404E+02  0.10566000000E+00 0.  1.
         22    1    1    0    0    0  0.91044827744E+00 -0.58603810797E+00 -0.28057734602E+02  0.28078618693E+02  0.00000000000E+00 0. -1.
</event>
<event>
 5    1  0.8943334E-005  0.9118800E+02  0.7818608E-02  0.1130116E+00
         25   -1    0    0    0    0  0.00000000000E+00  0.00000000000E+00  0.99999998245E-14  0.12500000000E+03  0.12500000000E+03 0.  0.
        -13    1    3    3    0    0 -0.15371263925E+02  0.18141174120E+02  0.44010545099E+02  0.50023166603E+02  0.10566000000E+00 0. -1.
         23    2    1    0    0    0 -0.17311892471E+02 -0.17726424567E+02  0.18338772854E+02  0.94174063864E+02  0.88986043659E+02 0.  0.
         13    1    3    3    0    0 -0.19406285452E+01 -0.35867598687E+02 -0.25671772245E+02  0.44150897261E+02  0.10566000000E+00 0.  1.
         22    1    1    0    0    0  0.17311892471E+02  0.17726424567E+02 -0.18338772854E+02  0.30825936136E+02  0.00000000000E+00 0. -1.
</event>
<event>
 5    1  0.8943334E-005  0.9118800E+02  0.7818608E-02  0.1130116E+00
         25   -1    0    0    0    0  0.00000000000E+00  0.00000000000E+00  0.99999998245E-14  0.12500000000E+03  0.12500000000E+03 0.  0.
        -13    1    3    3    0    0  0.47674530699E+02  0.20272305608E+02 -0.16978498060E+01  0.51833590557E+02  0.10566000000E+00 0. -1.
         23    2    1    0    0    0  0.19247755826E+02 -0.37083897895E+01  0.21688321493E+02  0.95766260103E+02  0.91195202866E+02 0.  0.
         13    1    3    3    0    0 -0.28426774873E+02 -0.23980695397E+02  0.23386171299E+02  0.43932669547E+02  0.10566000000E+00 0.  1.
         22    1    1    0    0    0 -0.19247755826E+02  0.37083897895E+01 -0.21688321493E+02  0.29233739897E+02  0.00000000000E+00 0. -1.
</event>
<event>
 5    1  0.8943334E-005  0.9118800E+02  0.7818608E-02  0.1130116E+00
         25   -1    0    0    0    0  0.00000000000E+00  0.00000000000E+00  0.99999998245E-14  0.12500000000E+03  0.12500000000E+03 0.  0.
        -13    1    3    3    0    0  0.27744605353E+02  0.28510772431E+01 -0.26306924048E+02  0.38340020665E+02  0.10566000000E+00 0.  1.
         23    2    1    0    0    0 -0.21054241718E+02  0.15704680167E+02  0.57327475690E+01  0.98115386033E+02  0.94360195572E+02 0.  0.
         13    1    3    3    0    0 -0.48798847071E+02  0.12853602924E+02  0.32039671617E+02  0.59775365369E+02  0.10566000000E+00 0. -1.
         22    1    1    0    0    0  0.21054241718E+02 -0.15704680167E+02 -0.57327475690E+01  0.26884613967E+02  0.00000000000E+00 0. -1.
</event>
<event>
 5    1  0.8943334E-005  0.9118800E+02  0.7818608E-02  0.1130116E+00
         25   -1    0    0    0    0  0.00000000000E+00  0.00000000000E+00  0.99999998245E-14  0.12500000000E+03  0.12500000000E+03 0.  0.
        -13    1    3    3    0    0 -0.35480113214E+02 -0.13673194325E+01 -0.18339952746E+02  0.39963396088E+02  0.10566000000E+00 0.  1.
         23    2    1    0    0    0 -0.10290822490E+02 -0.17155076872E+02  0.25287339088E+02  0.92756439276E+02  0.86971890970E+02 0.  0.
         13    1    3    3    0    0  0.25189290725E+02 -0.15787757440E+02  0.43627291834E+02  0.52793043188E+02  0.10566000000E+00 0. -1.
         22    1    1    0    0    0  0.10290822490E+02  0.17155076872E+02 -0.25287339088E+02  0.32243560724E+02  0.00000000000E+00 0. -1.
</event>
<event>
 5    1  0.8943334E-005  0.9118800E+02  0.7818608E-02  0.1130116E+00
         25   -1    0    0    0    0  0.00000000000E+00  0.00000000000E+00  0.99999998245E-14  0.12500000000E+03  0.12500000000E+03 0.  0.
        -13    1    3    3    0    0 -0.47737355919E+01 -0.36122475250E+02  0.37591299882E+01  0.36630096806E+02  0.10566000000E+00 0.  1.
         23    2    1    0    0    0 -0.24667826856E+02  0.13087826098E+02 -0.15459159298E+02  0.93081690522E+02  0.87438107428E+02 0.  0.
         13    1    3    3    0    0 -0.19894091264E+02  0.49210301348E+02 -0.19218289286E+02  0.56451593716E+02  0.10566000000E+00 0. -1.
         22    1    1    0    0    0  0.24667826856E+02 -0.13087826098E+02  0.15459159298E+02  0.31918309478E+02  0.00000000000E+00 0. -1.
</event>
<event>
 5    1  0.8943334E-005  0.9118800E+02  0.7818608E-02  0.1130116E+00
         25   -1    0    0    0    0  0.00000000000E+00  0.00000000000E+00  0.99999998245E-14  0.12500000000E+03  0.12500000000E+03 0.  0.
        -13    1    3    3    0    0  0.72144100123E+01  0.26804230232E+00  0.33311513937E+02  0.34085006723E+02  0.10566000000E+00 0.  1.
         23    2    1    0    0    0 -0.13545857688E+02 -0.27799870303E+01 -0.25205556627E+02  0.96250414381E+02  0.91856429253E+02 0.  0.
         13    1    3    3    0    0 -0.20760267700E+02 -0.30480293326E+01 -0.58517070564E+02  0.62165407658E+02  0.10566000000E+00 0. -1.
         22    1    1    0    0    0  0.13545857688E+02  0.27799870303E+01  0.25205556627E+02  0.28749585619E+02  0.00000000000E+00 0. -1.
</event>
<event>
 5    1  0.8943334E-005  0.9118800E+02  0.7818608E-02  0.1130116E+00
         25   -1    0    0    0    0  0.00000000000E+00  0.00000000000E+00  0.99999998245E-14  0.12500000000E+03  0.12500000000E+03 0.  0.
        -13    1    3    3    0    0 -0.45466295777E+02 -0.31590156995E+02 -0.67242284612E+01  0.55770498322E+02  0.10566000000E+00 0.  1.
         23    2    1    0    0    0 -0.66085923446E+01 -0.26259425679E+02  0.64834745525E+01  0.97156394414E+02  0.93081139891E+02 0.  0.
         13    1    3    3    0    0  0.38857703432E+02  0.53307313163E+01  0.13207703014E+02  0.41385896092E+02  0.10566000000E+00 0. -1.
         22    1    1    0    0    0  0.66085923446E+01  0.26259425679E+02 -0.64834745525E+01  0.27843605586E+02  0.00000000000E+00 0.  1.
</event>
<event>
 5    1  0.8943334E-005  0.9118800E+02  0.7818608E-02  0.1130116E+00
         25   -1    0    0    0    0  0.00000000000E+00  0.00000000000E+00  0.99999998245E-14  0.12500000000E+03  0.12500000000E+03 0.  0.
        -13    1    3    3    0    0 -0.80343516254E+01 -0.36152443774E+02 -0.38378081572E+01  0.37232914637E+02  0.10566000000E+00 0.  1.
         23    2    1    0    0    0 -0.25198091500E+02  0.16593324614E+02  0.76414107962E+01  0.93876481626E+02  0.88567039052E+02 0.  0.
         13    1    3    3    0    0 -0.17163739875E+02  0.52745768389E+02  0.11479218953E+02  0.56643566989E+02  0.10566000000E+00 0. -1.
         22    1    1    0    0    0  0.25198091500E+02 -0.16593324614E+02 -0.76414107962E+01  0.31123518374E+02  0.00000000000E+00 0. -1.
</event>
<event>
 5    1  0.8943334E-005  0.9118800E+02  0.7818608E-02  0.1130116E+00
         25   -1    0    0    0    0  0.00000000000E+00  0.00000000000E+00  0.99999998245E-14  0.12500000000E+03  0.12500000000E+03 0.  0.
        -13    1    3    3    0    0  0.75621839608E+01  0.18039584829E+02 -0.33343203250E+02  0.38657387575E+02  0.10566000000E+00 0.  1.
         23    2    1    0    0    0  0.72309923995E+01  0.18540567298E+02  0.22761547143E+02  0.94765451630E+02  0.89812932852E+02 0.  0.
         13    1    3    3    0    0 -0.33119156122E+00  0.50098246893E+00  0.56104750393E+02  0.56108064055E+02  0.10566000000E+00 0. -1.
         22    1    1    0    0    0 -0.72309923995E+01 -0.18540567298E+02 -0.22761547143E+02  0.30234548370E+02  0.00000000000E+00 0. -1.
</event>
<event>
 5    1  0.8943334E-005  0.9118800E+02  0.7818608E-02  0.1130116E+00
         25   -1    0    0    0    0  0.00000000000E+00  0.00000000000E+00  0.99999998245E-14  0.12500000000E+03  0.12500000000E+03 0.  0.
        -13    1    3    3    0    0  0.41767844203E+01  0.46938120689E+02 -0.21159790710E+01  0.47171190714E+02  0.10566000000E+00 0. -1.
         23    2    1    0    0    0  0.23376016053E+02  0.39813376952E+01 -0.16195158481E+02  0.96284632432E+02  0.91902982041E+02 0.  0.
         13    1    3    3    0    0  0.19199231633E+02 -0.42956782994E+02 -0.14079179410E+02  0.49113441718E+02  0.10566000000E+00 0.  1.
         22    1    1    0    0    0 -0.23376016053E+02 -0.39813376952E+01  0.16195158481E+02  0.28715367568E+02  0.00000000000E+00 0. -1.
</event>
<event>
 5    1  0.8943334E-005  0.9118800E+02  0.7818608E-02  0.1130116E+00
         25   -1    0    0    0    0  0.00000000000E+00  0.00000000000E+00  0.99999998245E-14  0.12500000000E+03  0.12500000000E+03 0.  0.
        -13    1    3    3    0    0 -0.34549275573E+02 -0.84827331027E+01  0.15476029541E+02  0.38795977342E+02  0.10566000000E+00 0. -1.
         23    2    1    0    0    0  0.17908386189E+02  0.17775311455E+02  0.10502895871E+02  0.97669013649E+02  0.93767016655E+02 0.  0.
         13    1    3    3    0    0  0.52457661762E+02  0.26258044558E+02 -0.49731336699E+01  0.58873036307E+02  0.10566000000E+00 0.  1.
         22    1    1    0    0    0 -0.17908386189E+02 -0.17775311455E+02 -0.10502895871E+02  0.27330986351E+02  0.00000000000E+00 0.  1.
</event>
<event>
 5    1  0.8943334E-005  0.9118800E+02  0.7818608E-02  0.1130116E+00
         25   -1    0    0    0    0  0.00000000000E+00  0.00000000000E+00  0.99999998245E-14  0.12500000000E+03  0.12500000000E+03 0.  0.
        -13    1    3    3    0    0 -0.38049650987E+00 -0.49325058792E+02  0.23499325089E+02  0.54638225136E+02  0.10566000000E+00 0.  1.
         23    2    1    0    0    0  0.21107272387E+02 -0.20090946117E+02  0.16242443026E+02  0.91638644828E+02  0.85350226754E+02 0.  0.
         13    1    3    3    0    0  0.21487768897E+02  0.29234112675E+02 -0.72568820633E+01  0.37000419692E+02  0.10566000000E+00 0. -1.
         22    1    1    0    0    0 -0.21107272387E+02  0.20090946117E+02 -0.16242443026E+02  0.33361355172E+02  0.00000000000E+00 0.  1.
</event>
<event>
 5    1  0.8943334E-005  0.9118800E+02  0.7818608E-02  0.1130116E+00
         25   -1    0    0    0    0  0.00000000000E+00  0.00000000000E+00  0.99999998245E-14  0.12500000000E+03  0.12500000000E+03 0.  0.
        -13    1    3    3    0    0 -0.44282140064E+02 -0.16623876901E+02 -0.23577686555E+02  0.52850540954E+02  0.10566000000E+00 0.  1.
         23    2    1    0    0    0 -0.25281768860E+02 -0.22603805188E+02  0.79721676756E+01  0.90162444071E+02  0.83160152824E+02 0.  0.
         13    1    3    3    0    0  0.19000371204E+02 -0.59799282874E+01  0.31549854231E+02  0.37311903117E+02  0.10566000000E+00 0. -1.
         22    1    1    0    0    0  0.25281768860E+02  0.22603805188E+02 -0.79721676756E+01  0.34837555929E+02  0.00000000000E+00 0.  1.
</event>
<event>
 5    1  0.8943334E-005  0.9118800E+02  0.7818608E-02  0.1130116E+00
         25   -1    0    0    0    0  0.00000000000E+00  0.00000000000E+00  0.99999998245E-14  0.12500000000E+03  0.12500000000E+03 0.  0.
        -13    1    3    3    0    0 -0.19476982073E+02  0.50983837487E+02 -0.27454776233E+02  0.61094029313E+02  0.10566000000E+00 0.  1.
         23    2    1    0    0    0  0.15290575700E+00  0.25036885608E+02 -0.14110875897E+02  0.96260030625E+02  0.91869514291E+02 0.  0.
         13    1    3    3    0    0  0.19629887830E+02 -0.25946951879E+02  0.13343900336E+02  0.35166001312E+02  0.10566000000E+00 0. -1.
         22    1    1    0    0    0 -0.15290575700E+00 -0.25036885608E+02  0.14110875897E+02  0.28739969375E+02  0.00000000000E+00 0.  1.
</event>
<event>
 5    1  0.8943334E-005  0.9118800E+02  0.7818608E-02  0.1130116E+00
         25   -1    0    0    0    0  0.00000000000E+00  0.00000000000E+00  0.99999998245E-14  0.12500000000E+03  0.12500000000E+03 0.  0.
        -13    1    3    3    0    0  0.28392542953E+02 -0.42632486940E+02  0.35797310509E+02  0.62490991685E+02  0.10566000000E+00 0.  1.
         23    2    1    0    0    0  0.13574473728E+02 -0.20468726775E+02  0.16254774429E+02  0.95547448251E+02  0.90894785674E+02 0.  0.
         13    1    3    3    0    0 -0.14818069225E+02  0.22163760165E+02 -0.19542536080E+02  0.33056456566E+02  0.10566000000E+00 0. -1.
         22    1    1    0    0    0 -0.13574473728E+02  0.20468726775E+02 -0.16254774429E+02  0.29452551749E+02  0.00000000000E+00 0.  1.
</event>
<event>
 5    1  0.8943334E-005  0.9118800E+02  0.7818608E-02  0.1130116E+00
         25   -1    0    0    0    0  0.00000000000E+00  0.00000000000E+00  0.99999998245E-14  0.12500000000E+03  0.12500000000E+03 0.  0.
        -13    1    3    3    0    0  0.39058752799E+02 -0.29417148072E+02 -0.60065343118E+01  0.49265042264E+02  0.10566000000E+00 0. -1.
         23    2    1    0    0    0  0.14008184096E+02 -0.80261398702E+01  0.25481252925E+02  0.94834748576E+02  0.89909327347E+02 0.  0.
         13    1    3    3    0    0 -0.25050568703E+02  0.21391008201E+02  0.31487787237E+02  0.45569706311E+02  0.10566000000E+00 0.  1.
         22    1    1    0    0    0 -0.14008184096E+02  0.80261398702E+01 -0.25481252925E+02  0.30165251424E+02  0.00000000000E+00 0. -1.
</event>
<event>
 5    1  0.8943334E-005  0.9118800E+02  0.7818608E-02  0.1130116E+00
         25   -1    0    0    0    0  0.00000000000E+00  0.00000000000E+00  0.99999998245E-14  0.12500000000E+03  0.12500000000E+03 0.  0.
        -13    1    3    3    0    0 -0.54248299486E+02  0.12922880070E+02 -0.26719534385E+02  0.61837072281E+02  0.10566000000E+00 0. -1.
         23    2    1    0    0    0 -0.25804852603E+02 -0.30776004593E+00 -0.13454231394E+02  0.95896710211E+02  0.91373834071E+02 0.  0.
         13    1    3    3    0    0  0.28443446883E+02 -0.13230640116E+02  0.13265302991E+02  0.34059637931E+02  0.10566000000E+00 0.  1.
         22    1    1    0    0    0  0.25804852603E+02  0.30776004593E+00  0.13454231394E+02  0.29103289789E+02  0.00000000000E+00 0. -1.
</event>
<event>
 5    1  0.8943334E-005  0.9118800E+02  0.7818608E-02  0.1130116E+00
         25   -1    0    0    0    0  0.00000000000E+00  0.00000000000E+00  0.99999998245E-14  0.12500000000E+03  0.12500000000E+03 0.  0.
        -13    1    3    3    0    0  0.55326158728E+02  0.69061029737E+01  0.10414809357E+02  0.56719992206E+02  0.10566000000E+00 0. -1.
         23    2    1    0    0    0  0.25372353663E+02 -0.15212359077E+02 -0.11838407668E+00  0.95416453663E+02  0.90714460896E+02 0.  0.
         13    1    3    3    0    0 -0.29953805064E+02 -0.22118462051E+02 -0.10533193434E+02  0.38696461457E+02  0.10566000000E+00 0.  1.
         22    1    1    0    0    0 -0.25372353663E+02  0.15212359077E+02  0.11838407668E+00  0.29583546337E+02  0.00000000000E+00 0. -1.
</event>
<event>
 5    1  0.8943334E-005  0.9118800E+02  0.7818608E-02  0.1130116E+00
         25   -1    0    0    0    0  0.00000000000E+00  0.00000000000E+00  0.99999998245E-14  0.12500000000E+03  0.12500000000E+03 0.  0.
        -13    1    3    3    0    0 -0.21041513797E+02 -0.26787524004E+02 -0.23795233113E+02  0.41551666971E+02  0.10566000000E+00 0.  1.
         23    2    1    0    0    0  0.18996500775E+02  0.24337968446E+01  0.11735792279E+02  0.10253849450E+03  0.10004810656E+03 0.  0.
         13    1    3    3    0    0  0.40038014572E+02  0.29221320848E+02  0.35531025392E+02  0.60986827532E+02  0.10566000000E+00 0. -1.
         22    1    1    0    0    0 -0.18996500775E+02 -0.24337968446E+01 -0.11735792279E+02  0.22461505497E+02  0.00000000000E+00 0. -1.
</event>
<event>
 5    1  0.8943334E-005  0.9118800E+02  0.7818608E-02  0.1130116E+00
         25   -1    0    0    0    0  0.00000000000E+00  0.00000000000E+00  0.99999998245E-14  0.12500000000E+03  0.12500000000E+03 0.  0.
        -13    1    3    3    0    0  0.54175104058E+02  0.91879066670E+01 -0.25586609357E+02  0.60613903282E+02  0.10566000000E+00 0.  1.
         23    2    1    0    0    0  0.24518168651E+02  0.12371578649E+02 -0.44310211155E+01  0.97182190949E+02  0.93115775985E+02 0.  0.
         13    1    3    3    0    0 -0.29656935408E+02  0.31836719820E+01  0.21155588241E+02  0.36568287667E+02  0.10566000000E+00 0. -1.
         22    1    1    0    0    0 -0.24518168651E+02 -0.12371578649E+02  0.44310211155E+01  0.27817809051E+02  0.00000000000E+00 0. -1.
</event>
<event>
 5    1  0.8943334E-005  0.9118800E+02  0.7818608E-02  0.1130116E+00
         25   -1    0    0    0    0  0.00000000000E+00  0.00000000000E+00  0.99999998245E-14  0.12500000000E+03  0.12500000000E+03 0.  0.
        -13    1    3    3    0    0  0.26250889814E+02  0.34445630305E+02  0.44112052559E+02  0.61818241710E+02  0.10566000000E+00 0.  1.
         23    2    1    0    0    0  0.15160285211E+02  0.10787489737E+02  0.23037852024E+02  0.95386712300E+02  0.90673469521E+02 0.  0.
         13    1    3    3    0    0 -0.11090604603E+02 -0.23658140568E+02 -0.21074200534E+02  0.33568470590E+02  0.10566000000E+00 0. -1.
         22    1    1    0    0    0 -0.15160285211E+02 -0.10787489737E+02 -0.23037852024E+02  0.29613287700E+02  0.00000000000E+00 0.  1.
</event>
<event>
 5    1  0.8943334E-005  0.9118800E+02  0.7818608E-02  0.1130116E+00
         25   -1    0    0    0    0  0.00000000000E+00  0.00000000000E+00  0.99999998245E-14  0.12500000000E+03  0.12500000000E+03 0.  0.
        -13    1    3    3    0    0 -0.65440765532E+01 -0.19264496746E+02  0.56507692413E+02  0.60058939706E+02  0.10566000000E+00 0.  1.
         23    2    1    0    0    0  0.71237024559E+01 -0.15932916523E+02  0.25613148920E+02  0.94005833400E+02  0.88749413238E+02 0.  0.
         13    1    3    3    0    0  0.13667779009E+02  0.33315802229E+01 -0.30894543492E+02  0.33946893694E+02  0.10566000000E+00 0. -1.
         22    1    1    0    0    0 -0.71237024559E+01  0.15932916523E+02 -0.25613148920E+02  0.30994166600E+02  0.00000000000E+00 0.  1.
</event>
<event>
 5    1  0.8943334E-005  0.9118800E+02  0.7818608E-02  0.1130116E+00
         25   -1    0    0    0    0  0.00000000000E+00  0.00000000000E+00  0.99999998245E-14  0.12500000000E+03  0.12500000000E+03 0.  0.
        -13    1    3    3    0    0 -0.15788453330E+02 -0.17376404647E+02 -0.42728746145E+02  0.48754195801E+02  0.10566000000E+00 0.  1.
         23    2    1    0    0    0 -0.11540841213E+01  0.21493016309E+02 -0.12665525209E+02  0.10002606981E+03  0.96858233790E+02 0.  0.
         13    1    3    3    0    0  0.14634369209E+02  0.38869420955E+02  0.30063220936E+02  0.51271874011E+02  0.10566000000E+00 0. -1.
         22    1    1    0    0    0  0.11540841213E+01 -0.21493016309E+02  0.12665525209E+02  0.24973930188E+02  0.00000000000E+00 0.  1.
</event>
<event>
 5    1  0.8943334E-005  0.9118800E+02  0.7818608E-02  0.1130116E+00
         25   -1    0    0    0    0  0.00000000000E+00  0.00000000000E+00  0.99999998245E-14  0.12500000000E+03  0.12500000000E+03 0.  0.
        -13    1    3    3    0    0  0.29709833695E+02 -0.13685227931E+02  0.62211195450E+01  0.33296744197E+02  0.10566000000E+00 0.  1.
         23    2    1    0    0    0 -0.27594436175E+02  0.98756130959E+01  0.50035293067E+01  0.95267594323E+02  0.90509107722E+02 0.  0.
         13    1    3    3    0    0 -0.57304269870E+02  0.23560841027E+02 -0.12175902383E+01  0.61970850125E+02  0.10566000000E+00 0. -1.
         22    1    1    0    0    0  0.27594436175E+02 -0.98756130959E+01 -0.50035293067E+01  0.29732405677E+02  0.00000000000E+00 0. -1.
</event>
<event>
 5    1  0.8943334E-005  0.9118800E+02  0.7818608E-02  0.1130116E+00
         25   -1    0    0    0    0  0.00000000000E+00  0.00000000000E+00  0.99999998245E-14  0.12500000000E+03  0.12500000000E+03 0.  0.
        -13    1    3    3    0    0  0.27652927740E+02 -0.21338453231E+02  0.28724361447E+02  0.45222937802E+02  0.10566000000E+00 0. -1.
         23    2    1    0    0    0 -0.82413959008E+01 -0.26268424989E+02 -0.75091335904E+01  0.96463394647E+02  0.92145801108E+02 0.  0.
         13    1    3    3    0    0 -0.35894323640E+02 -0.49299717573E+01 -0.36233495037E+02  0.51240456846E+02  0.10566000000E+00 0.  1.
         22    1    1    0    0    0  0.82413959008E+01  0.26268424989E+02  0.75091335904E+01  0.28536605353E+02  0.00000000000E+00 0.  1.
</event>
<event>
 5    1  0.8943334E-005  0.9118800E+02  0.7818608E-02  0.1130116E+00
         25   -1    0    0    0    0  0.00000000000E+00  0.00000000000E+00  0.99999998245E-14  0.12500000000E+03  0.12500000000E+03 0.  0.
        -13    1    3    3    0    0  0.21927132303E+02  0.55727702763E+02  0.20377862183E+01  0.59921112498E+02  0.10566000000E+00 0.  1.
         23    2    1    0    0    0  0.10157406062E+02  0.24019435011E+02  0.13501491654E+02  0.95633412983E+02  0.91012929003E+02 0.  0.
         13    1    3    3    0    0 -0.11769726242E+02 -0.31708267751E+02  0.11463705435E+02  0.35712300485E+02  0.10566000000E+00 0. -1.
         22    1    1    0    0    0 -0.10157406062E+02 -0.24019435011E+02 -0.13501491654E+02  0.29366587017E+02  0.00000000000E+00 0.  1.
</event>
<event>
 5    1  0.8943334E-005  0.9118800E+02  0.7818608E-02  0.1130116E+00
         25   -1    0    0    0    0  0.00000000000E+00  0.00000000000E+00  0.99999998245E-14  0.12500000000E+03  0.12500000000E+03 0.  0.
        -13    1    3    3    0    0  0.29488718247E+02 -0.39230943669E+01  0.19329005597E+02  0.35476707776E+02  0.10566000000E+00 0.  1.
         23    2    1    0    0    0  0.17912883037E+02 -0.90246793103E+01 -0.31389587592E+02  0.87749195653E+02  0.79449977427E+02 0.  0.
         13    1    3    3    0    0 -0.11575835210E+02 -0.51015849434E+01 -0.50718593188E+02  0.52272487876E+02  0.10566000000E+00 0. -1.
         22    1    1    0    0    0 -0.17912883037E+02  0.90246793103E+01  0.31389587592E+02  0.37250804347E+02  0.00000000000E+00 0.  1.
</event>
<event>
 5    1  0.8943334E-005  0.9118800E+02  0.7818608E-02  0.1130116E+00
         25   -1    0    0    0    0  0.00000000000E+00  0.00000000000E+00  0.99999998245E-14  0.12500000000E+03  0.12500000000E+03 0.  0.
        -13    1    3    3    0    0 -0.45056207826E+02 -0.21830427038E+02  0.16646328382E+02  0.52761167737E+02  0.10566000000E+00 0.  1.
         23    2    1    0    0    0 -0.78321887383E+01  0.64256141528E+01  0.22945553248E+02  0.99917533783E+02  0.96718061632E+02 0.  0.
         13    1    3    3    0    0  0.37224019087E+02  0.28256041191E+02  0.62992248657E+01  0.47156366047E+02  0.10566000000E+00 0. -1.
         22    1    1    0    0    0  0.78321887383E+01 -0.64256141528E+01 -0.22945553248E+02  0.25082466217E+02  0.00000000000E+00 0.  1.
</event>
<event>
 5    1  0.8943334E-005  0.9118800E+02  0.7818608E-02  0.1130116E+00
         25   -1    0    0    0    0  0.00000000000E+00  0.00000000000E+00  0.99999998245E-14  0.12500000000E+03  0.12500000000E+03 0.  0.
        -13    1    3    3    0    0 -0.87725532089E+01 -0.24838235788E+02 -0.26009103759E+02  0.37018647858E+02  0.10566000000E+00 0.  1.
         23    2    1    0    0    0 -0.77683001140E+01  0.25258687389E+02  0.77780385039E+01  0.97452846640E+02  0.93478402105E+02 0.  0.
         13    1    3    3    0    0  0.10042530949E+01  0.50096923177E+02  0.33787142263E+02  0.60434198782E+02  0.10566000000E+00 0. -1.
         22    1    1    0    0    0  0.77683001140E+01 -0.25258687389E+02 -0.77780385039E+01  0.27547153360E+02  0.00000000000E+00 0. -1.
</event>
<event>
 5    1  0.8943334E-005  0.9118800E+02  0.7818608E-02  0.1130116E+00
         25   -1    0    0    0    0  0.00000000000E+00  0.00000000000E+00  0.99999998245E-14  0.12500000000E+03  0.12500000000E+03 0.  0.
        -13    1    3    3    0    0  0.51003113724E+01  0.47418965319E+02 -0.34700873272E+02  0.58980786853E+02  0.10566000000E+00 0. -1.
         23    2    1    0    0    0  0.14773171200E+02  0.17039703574E+02 -0.22572809940E+02  0.93091853175E+02  0.87452634573E+02 0.  0.
         13    1    3    3    0    0  0.96728598273E+01 -0.30379261745E+02  0.12128063331E+02  0.34111066322E+02  0.10566000000E+00 0.  1.
         22    1    1    0    0    0 -0.14773171200E+02 -0.17039703574E+02  0.22572809940E+02  0.31908146825E+02  0.00000000000E+00 0. -1.
</event>
<event>
 5    1  0.8943334E-005  0.9118800E+02  0.7818608E-02  0.1130116E+00
         25   -1    0    0    0    0  0.00000000000E+00  0.00000000000E+00  0.99999998245E-14  0.12500000000E+03  0.12500000000E+03 0.  0.
        -13    1    3    3    0    0  0.26339616875E+02  0.29031707452E+02 -0.62174867639E+01  0.39689844550E+02  0.10566000000E+00 0. -1.
         23    2    1    0    0    0 -0.15277859153E+02 -0.59825323574E+01 -0.23125607926E+02  0.96645151814E+02  0.92392034037E+02 0.  0.
         13    1    3    3    0    0 -0.41617476027E+02 -0.35014239810E+02 -0.16908121162E+02  0.56955307265E+02  0.10566000000E+00 0.  1.
         22    1    1    0    0    0  0.15277859153E+02  0.59825323574E+01  0.23125607926E+02  0.28354848186E+02  0.00000000000E+00 0.  1.
</event>
<event>
 5    1  0.8943334E-005  0.9118800E+02  0.7818608E-02  0.1130116E+00
         25   -1    0    0    0    0  0.00000000000E+00  0.00000000000E+00  0.99999998245E-14  0.12500000000E+03  0.12500000000E+03 0.  0.
        -13    1    3    3    0    0 -0.13596556428E+02 -0.28325527464E+02  0.33435988166E+02  0.45882222282E+02  0.10566000000E+00 0. -1.
         23    2    1    0    0    0  0.28756195971E+00  0.15797475434E+02  0.28516190161E+02  0.92399140759E+02  0.86456840040E+02 0.  0.
         13    1    3    3    0    0  0.13884118387E+02  0.44123002899E+02 -0.49197980054E+01  0.46516918477E+02  0.10566000000E+00 0.  1.
         22    1    1    0    0    0 -0.28756195971E+00 -0.15797475434E+02 -0.28516190161E+02  0.32600859241E+02  0.00000000000E+00 0. -1.
</event>
