<event>
 5    1  0.1094625E-009  0.9118800E+02  0.7818608E-02  0.1130116E+00
         25   -1    0    0    0    0  0.00000000000E+00  0.00000000000E+00  0.99999998245E-14  0.12500000000E+03  0.12500000000E+03 0.  0.
        -11    1    3    3    0    0 -0.19860498756E+02 -0.27427234336E+02 -0.54491659995E+01  0.34298483997E+02  0.51100000000E-03 0.  1.
         23    2    1    0    0    0  0.18625907521E+02  0.21270593992E+02  0.10480240113E+01  0.96707581332E+02  0.92476458264E+02 0.  0.
         11    1    3    3    0    0  0.38486406277E+02  0.48697828327E+02  0.64971900108E+01  0.62409097335E+02  0.51100000000E-03 0. -1.
         22    1    1    0    0    0 -0.18625907521E+02 -0.21270593992E+02 -0.10480240113E+01  0.28292418668E+02  0.00000000000E+00 0. -1.
</event>
<event>
 5    1  0.1094625E-009  0.9118800E+02  0.7818608E-02  0.1130116E+00
         25   -1    0    0    0    0  0.00000000000E+00  0.00000000000E+00  0.99999998245E-14  0.12500000000E+03  0.12500000000E+03 0.  0.
        -11    1    3    3    0    0 -0.63435612101E+01  0.42242157748E+02  0.32562597544E+01  0.42839746589E+02  0.51100000000E-03 0.  1.
         23    2    1    0    0    0 -0.25688863670E+02 -0.45463028683E+01 -0.12781443919E+02  0.95949149839E+02  0.91445543684E+02 0.  0.
         11    1    3    3    0    0 -0.19345302460E+02 -0.46788460616E+02 -0.16037703673E+02  0.53109403249E+02  0.51100000000E-03 0. -1.
         22    1    1    0    0    0  0.25688863670E+02  0.45463028683E+01  0.12781443919E+02  0.29050850161E+02  0.00000000000E+00 0. -1.
</event>
<event>
 5    1  0.1094625E-009  0.9118800E+02  0.7818608E-02  0.1130116E+00
         25   -1    0    0    0    0  0.00000000000E+00  0.00000000000E+00  0.99999998245E-14  0.12500000000E+03  0.12500000000E+03 0.  0.
        -11    1    3    3    0    0 -0.26875871512E+02  0.25918777067E+02  0.46595263584E+02  0.59709413520E+02  0.51100000000E-03 0.  1.
         23    2    1    0    0    0 -0.23070078769E+01  0.78115358948E+01  0.28868519100E+02  0.95004437439E+02  0.90144935297E+02 0.  0.
         11    1    3    3    0    0  0.24568863635E+02 -0.18107241172E+02 -0.17726744484E+02  0.35295023919E+02  0.51100000000E-03 0. -1.
         22    1    1    0    0    0  0.23070078769E+01 -0.78115358948E+01 -0.28868519100E+02  0.29995562561E+02  0.00000000000E+00 0.  1.
</event>
<event>
 5    1  0.1094625E-009  0.9118800E+02  0.7818608E-02  0.1130116E+00
         25   -1    0    0    0    0  0.00000000000E+00  0.00000000000E+00  0.99999998245E-14  0.12500000000E+03  0.12500000000E+03 0.  0.
        -11    1    3    3    0    0  0.33865866216E+02 -0.40227601061E+02  0.31159747832E+02  0.61123536113E+02  0.51100000000E-03 0. -1.
         23    2    1    0    0    0  0.69259405324E+01 -0.21868322353E+02  0.15688752195E+02  0.97209190004E+02  0.93152012866E+02 0.  0.
         11    1    3    3    0    0 -0.26939925683E+02  0.18359278708E+02 -0.15470995637E+02  0.36085653891E+02  0.51100000000E-03 0.  1.
         22    1    1    0    0    0 -0.69259405324E+01  0.21868322353E+02 -0.15688752195E+02  0.27790809996E+02  0.00000000000E+00 0. -1.
</event>
<event>
 5    1  0.1094625E-009  0.9118800E+02  0.7818608E-02  0.1130116E+00
         25   -1    0    0    0    0  0.00000000000E+00  0.00000000000E+00  0.99999998245E-14  0.12500000000E+03  0.12500000000E+03 0.  0.
        -11    1    3    3    0    0 -0.37682495287E+01 -0.90519020927E+01  0.49842952036E+02  0.50798193904E+02  0.51100000000E-03 0. -1.
         23    2    1    0    0    0 -0.39411592976E+01 -0.26721763694E+02  0.70675289402E+01  0.97079839598E+02  0.92978276492E+02 0.  0.
         11    1    3    3    0    0 -0.17290976888E+00 -0.17669861602E+02 -0.42775423096E+02  0.46281645694E+02  0.51100000000E-03 0.  1.
         22    1    1    0    0    0  0.39411592976E+01  0.26721763694E+02 -0.70675289402E+01  0.27920160402E+02  0.00000000000E+00 0. -1.
</event>
<event>
 5    1  0.1094625E-009  0.9118800E+02  0.7818608E-02  0.1130116E+00
         25   -1    0    0    0    0  0.00000000000E+00  0.00000000000E+00  0.99999998245E-14  0.12500000000E+03  0.12500000000E+03 0.  0.
        -11    1    3    3    0    0 -0.68702309992E+01  0.14930497020E+02  0.55522697532E+02  0.57904142829E+02  0.51100000000E-03 0.  1.
         23    2    1    0    0    0 -0.18774563591E+02  0.40724589952E+00  0.25163964695E+02  0.93601350246E+02  0.88177874557E+02 0.  0.
         11    1    3    3    0    0 -0.11904332592E+02 -0.14523251120E+02 -0.30358732838E+02  0.35697207416E+02  0.51100000000E-03 0. -1.
         22    1    1    0    0    0  0.18774563591E+02 -0.40724589952E+00 -0.25163964695E+02  0.31398649754E+02  0.00000000000E+00 0.  1.
</event>
<event>
 5    1  0.1094625E-009  0.9118800E+02  0.7818608E-02  0.1130116E+00
         25   -1    0    0    0    0  0.00000000000E+00  0.00000000000E+00  0.99999998245E-14  0.12500000000E+03  0.12500000000E+03 0.  0.
        -11    1    3    3    0    0 -0.40568330101E+02  0.42732420857E+02  0.20550580859E+02  0.62403329827E+02  0.51100000000E-03 0.  1.
         23    2    1    0    0    0 -0.21046444032E+02  0.18969293707E+02  0.11004019772E+02  0.94604681918E+02  0.89588897077E+02 0.  0.
         11    1    3    3    0    0  0.19521886069E+02 -0.23763127150E+02 -0.95465610872E+01  0.32201352091E+02  0.51100000000E-03 0. -1.
         22    1    1    0    0    0  0.21046444032E+02 -0.18969293707E+02 -0.11004019772E+02  0.30395318082E+02  0.00000000000E+00 0.  1.
</event>
<event>
 5    1  0.1094625E-009  0.9118800E+02  0.7818608E-02  0.1130116E+00
         25   -1    0    0    0    0  0.00000000000E+00  0.00000000000E+00  0.99999998245E-14  0.12500000000E+03  0.12500000000E+03 0.  0.
        -11    1    3    3    0    0 -0.43229991863E+02  0.65466689973E+01  0.34201765237E+02  0.55510826124E+02  0.51100000000E-03 0. -1.
         23    2    1    0    0    0 -0.30555728719E+02 -0.51606797123E+01 -0.21549307719E+00  0.94010782360E+02  0.88756383377E+02 0.  0.
         11    1    3    3    0    0  0.12674263144E+02 -0.11707348710E+02 -0.34417258314E+02  0.38499956236E+02  0.51100000000E-03 0.  1.
         22    1    1    0    0    0  0.30555728719E+02  0.51606797123E+01  0.21549307719E+00  0.30989217640E+02  0.00000000000E+00 0. -1.
</event>
<event>
 5    1  0.1094625E-009  0.9118800E+02  0.7818608E-02  0.1130116E+00
         25   -1    0    0    0    0  0.00000000000E+00  0.00000000000E+00  0.99999998245E-14  0.12500000000E+03  0.12500000000E+03 0.  0.
        -11    1    3    3    0    0  0.91914738691E+01 -0.52497707768E+02 -0.21987298234E+02  0.57653567077E+02  0.51100000000E-03 0.  1.
         23    2    1    0    0    0  0.19831968817E+02 -0.17721633216E+02 -0.14218508590E+02  0.94841597232E+02  0.89918848458E+02 0.  0.
         11    1    3    3    0    0  0.10640494948E+02  0.34776074552E+02  0.77687896447E+01  0.37188030155E+02  0.51100000000E-03 0. -1.
         22    1    1    0    0    0 -0.19831968817E+02  0.17721633216E+02  0.14218508590E+02  0.30158402768E+02  0.00000000000E+00 0.  1.
</event>
<event>
 5    1  0.1094625E-009  0.9118800E+02  0.7818608E-02  0.1130116E+00
         25   -1    0    0    0    0  0.00000000000E+00  0.00000000000E+00  0.99999998245E-14  0.12500000000E+03  0.12500000000E+03 0.  0.
        -11    1    3    3    0    0 -0.39067900649E+01 -0.11486229111E+02 -0.40439931760E+02  0.42220664950E+02  0.51100000000E-03 0. -1.
         23    2    1    0    0    0 -0.16253681868E+02  0.24508267795E+02 -0.32776723000E+01  0.95409790466E+02  0.90705278878E+02 0.  0.
         11    1    3    3    0    0 -0.12346891803E+02  0.35994496906E+02  0.37162259460E+02  0.53189125516E+02  0.51100000000E-03 0.  1.
         22    1    1    0    0    0  0.16253681868E+02 -0.24508267795E+02  0.32776723000E+01  0.29590209534E+02  0.00000000000E+00 0.  1.
</event>
<event>
 5    1  0.1094625E-009  0.9118800E+02  0.7818608E-02  0.1130116E+00
         25   -1    0    0    0    0  0.00000000000E+00  0.00000000000E+00  0.99999998245E-14  0.12500000000E+03  0.12500000000E+03 0.  0.
        -11    1    3    3    0    0  0.43666880083E+02 -0.26262139742E+02 -0.23612409219E+02  0.56160860654E+02  0.51100000000E-03 0. -1.
         23    2    1    0    0    0  0.69663831039E+01 -0.82549257871E+01 -0.25728829524E+02  0.97095753692E+02  0.92999668941E+02 0.  0.
         11    1    3    3    0    0 -0.36700496979E+02  0.18007213955E+02 -0.21164203050E+01  0.40934893038E+02  0.51100000000E-03 0.  1.
         22    1    1    0    0    0 -0.69663831039E+01  0.82549257871E+01  0.25728829524E+02  0.27904246308E+02  0.00000000000E+00 0. -1.
</event>
<event>
 5    1  0.1094625E-009  0.9118800E+02  0.7818608E-02  0.1130116E+00
         25   -1    0    0    0    0  0.00000000000E+00  0.00000000000E+00  0.99999998245E-14  0.12500000000E+03  0.12500000000E+03 0.  0.
        -11    1    3    3    0    0 -0.46130269767E+02  0.76824828742E+01 -0.13597795510E+02  0.48702385721E+02  0.51100000000E-03 0. -1.
         23    2    1    0    0    0 -0.10722862395E+02 -0.19813019056E+02 -0.21074171337E+02  0.94151074580E+02  0.88953744412E+02 0.  0.
         11    1    3    3    0    0  0.35407407372E+02 -0.27495501930E+02 -0.74763758266E+01  0.45448688858E+02  0.51100000000E-03 0.  1.
         22    1    1    0    0    0  0.10722862395E+02  0.19813019056E+02  0.21074171337E+02  0.30848925420E+02  0.00000000000E+00 0. -1.
</event>
<event>
 5    1  0.1094625E-009  0.9118800E+02  0.7818608E-02  0.1130116E+00
         25   -1    0    0    0    0  0.00000000000E+00  0.00000000000E+00  0.99999998245E-14  0.12500000000E+03  0.12500000000E+03 0.  0.
        -11    1    3    3    0    0  0.52619327616E+02  0.18785954573E+02  0.20881669911E+02  0.59646876419E+02  0.51100000000E-03 0. -1.
         23    2    1    0    0    0  0.26136573963E+02 -0.40461886686E+01  0.13174097099E+02  0.95452597819E+02  0.90764252076E+02 0.  0.
         11    1    3    3    0    0 -0.26482753653E+02 -0.22832143242E+02 -0.77075728125E+01  0.35805721400E+02  0.51100000000E-03 0.  1.
         22    1    1    0    0    0 -0.26136573963E+02  0.40461886686E+01 -0.13174097099E+02  0.29547402181E+02  0.00000000000E+00 0. -1.
</event>
<event>
 5    1  0.1094625E-009  0.9118800E+02  0.7818608E-02  0.1130116E+00
         25   -1    0    0    0    0  0.00000000000E+00  0.00000000000E+00  0.99999998245E-14  0.12500000000E+03  0.12500000000E+03 0.  0.
        -11    1    3    3    0    0 -0.19943361786E+02  0.14937838868E+02  0.23616635892E+02  0.34331067570E+02  0.51100000000E-03 0. -1.
         23    2    1    0    0    0  0.88774917573E+01  0.49895201338E+00 -0.28241648729E+02  0.95391731967E+02  0.90680389235E+02 0.  0.
         11    1    3    3    0    0  0.28820853543E+02 -0.14438886855E+02 -0.51858284621E+02  0.61060664397E+02  0.51100000000E-03 0.  1.
         22    1    1    0    0    0 -0.88774917573E+01 -0.49895201338E+00  0.28241648729E+02  0.29608268033E+02  0.00000000000E+00 0.  1.
</event>
<event>
 5    1  0.1094625E-009  0.9118800E+02  0.7818608E-02  0.1130116E+00
         25   -1    0    0    0    0  0.00000000000E+00  0.00000000000E+00  0.99999998245E-14  0.12500000000E+03  0.12500000000E+03 0.  0.
        -11    1    3    3    0    0  0.28244600654E+02  0.11098110286E+02  0.20587477416E+02  0.36671102310E+02  0.51100000000E-03 0.  1.
         23    2    1    0    0    0 -0.28398503569E+02  0.21163026143E+01  0.51802119402E+01  0.96055426460E+02  0.91590701574E+02 0.  0.
         11    1    3    3    0    0 -0.56643104223E+02 -0.89818076714E+01 -0.15407265476E+02  0.59384324150E+02  0.51100000000E-03 0. -1.
         22    1    1    0    0    0  0.28398503569E+02 -0.21163026143E+01 -0.51802119402E+01  0.28944573540E+02  0.00000000000E+00 0. -1.
</event>
<event>
 5    1  0.1094625E-009  0.9118800E+02  0.7818608E-02  0.1130116E+00
         25   -1    0    0    0    0  0.00000000000E+00  0.00000000000E+00  0.99999998245E-14  0.12500000000E+03  0.12500000000E+03 0.  0.
        -11    1    3    3    0    0  0.94306795739E+00  0.60613668993E+02 -0.25214371348E+01  0.60673419975E+02  0.51100000000E-03 0. -1.
         23    2    1    0    0    0  0.25166684311E+01  0.29126100166E+02  0.92664022857E+01  0.94331945902E+02  0.89207547189E+02 0.  0.
         11    1    3    3    0    0  0.15736004737E+01 -0.31487568827E+02  0.11787839421E+02  0.33658525927E+02  0.51100000000E-03 0.  1.
         22    1    1    0    0    0 -0.25166684311E+01 -0.29126100166E+02 -0.92664022857E+01  0.30668054098E+02  0.00000000000E+00 0. -1.
</event>
<event>
 5    1  0.1094625E-009  0.9118800E+02  0.7818608E-02  0.1130116E+00
         25   -1    0    0    0    0  0.00000000000E+00  0.00000000000E+00  0.99999998245E-14  0.12500000000E+03  0.12500000000E+03 0.  0.
        -11    1    3    3    0    0 -0.33381801076E+02 -0.27208605870E+02  0.24605830281E+02  0.49599392744E+02  0.51100000000E-03 0.  1.
         23    2    1    0    0    0 -0.25051625548E+02  0.14160526804E+02  0.66220436830E+01  0.95471100181E+02  0.90789729845E+02 0.  0.
         11    1    3    3    0    0  0.83301755277E+01  0.41369132675E+02 -0.17983786598E+02  0.45871707437E+02  0.51100000000E-03 0. -1.
         22    1    1    0    0    0  0.25051625548E+02 -0.14160526804E+02 -0.66220436830E+01  0.29528899819E+02  0.00000000000E+00 0.  1.
</event>
<event>
 5    1  0.1094625E-009  0.9118800E+02  0.7818608E-02  0.1130116E+00
         25   -1    0    0    0    0  0.00000000000E+00  0.00000000000E+00  0.99999998245E-14  0.12500000000E+03  0.12500000000E+03 0.  0.
        -11    1    3    3    0    0  0.19416884648E+02 -0.67667266890E+01 -0.28038859048E+02  0.34770412947E+02  0.51100000000E-03 0.  1.
         23    2    1    0    0    0 -0.19044897703E+02 -0.10280160642E+02  0.19394673596E+02  0.95938974636E+02  0.91431633798E+02 0.  0.
         11    1    3    3    0    0 -0.38461782350E+02 -0.35134339533E+01  0.47433532644E+02  0.61168561689E+02  0.51100000000E-03 0. -1.
         22    1    1    0    0    0  0.19044897703E+02  0.10280160642E+02 -0.19394673596E+02  0.29061025364E+02  0.00000000000E+00 0. -1.
</event>
<event>
 5    1  0.1094625E-009  0.9118800E+02  0.7818608E-02  0.1130116E+00
         25   -1    0    0    0    0  0.00000000000E+00  0.00000000000E+00  0.99999998245E-14  0.12500000000E+03  0.12500000000E+03 0.  0.
        -11    1    3    3    0    0 -0.27104681809E+02  0.18978829228E+02  0.13777072058E+02  0.35842257875E+02  0.51100000000E-03 0. -1.
         23    2    1    0    0    0  0.29335397514E+02  0.75270843758E+01  0.76904235930E+01  0.93753157574E+02  0.88392813020E+02 0.  0.
         11    1    3    3    0    0  0.56440079323E+02 -0.11451744853E+02 -0.60866484652E+01  0.57910899699E+02  0.51100000000E-03 0.  1.
         22    1    1    0    0    0 -0.29335397514E+02 -0.75270843758E+01 -0.76904235930E+01  0.31246842426E+02  0.00000000000E+00 0.  1.
</event>
<event>
 5    1  0.1094625E-009  0.9118800E+02  0.7818608E-02  0.1130116E+00
         25   -1    0    0    0    0  0.00000000000E+00  0.00000000000E+00  0.99999998245E-14  0.12500000000E+03  0.12500000000E+03 0.  0.
        -11    1    3    3    0    0 -0.25915836851E+02 -0.21167443115E+02 -0.50877803105E+01  0.33846369916E+02  0.51100000000E-03 0. -1.
         23    2    1    0    0    0  0.25502484169E+02  0.10965942379E+02  0.84688756544E+01  0.95976725790E+02  0.91483230416E+02 0.  0.
         11    1    3    3    0    0  0.51418321020E+02  0.32133385494E+02  0.13556655965E+02  0.62130355874E+02  0.51100000000E-03 0.  1.
         22    1    1    0    0    0 -0.25502484169E+02 -0.10965942379E+02 -0.84688756544E+01  0.29023274210E+02  0.00000000000E+00 0.  1.
</event>
<event>
 5    1  0.1094625E-009  0.9118800E+02  0.7818608E-02  0.1130116E+00
         25   -1    0    0    0    0  0.00000000000E+00  0.00000000000E+00  0.99999998245E-14  0.12500000000E+03  0.12500000000E+03 0.  0.
        -11    1    3    3    0    0 -0.63581388179E+00 -0.40939762505E+02  0.46768150983E+02  0.62158896064E+02  0.51100000000E-03 0. -1.
         23    2    1    0    0    0 -0.45489750816E+01 -0.13881508001E+02  0.15251035636E+02  0.10388167794E+03  0.10171243525E+03 0.  0.
         11    1    3    3    0    0 -0.39131611998E+01  0.27058254505E+02 -0.31517115347E+02  0.41722781876E+02  0.51100000000E-03 0.  1.
         22    1    1    0    0    0  0.45489750816E+01  0.13881508001E+02 -0.15251035636E+02  0.21118322060E+02  0.00000000000E+00 0. -1.
</event>
<event>
 5    1  0.1094625E-009  0.9118800E+02  0.7818608E-02  0.1130116E+00
         25   -1    0    0    0    0  0.00000000000E+00  0.00000000000E+00  0.99999998245E-14  0.12500000000E+03  0.12500000000E+03 0.  0.
        -11    1    3    3    0    0  0.65921818099E+01 -0.17467983540E+02  0.29908112770E+02  0.35257375394E+02  0.51100000000E-03 0. -1.
         23    2    1    0    0    0  0.45819038149E+01  0.93786214942E+01 -0.25821272805E+02  0.97148778968E+02  0.93070912437E+02 0.  0.
         11    1    3    3    0    0 -0.20102779949E+01  0.26846605034E+02 -0.55729385575E+02  0.61891403574E+02  0.51100000000E-03 0.  1.
         22    1    1    0    0    0 -0.45819038149E+01 -0.93786214942E+01  0.25821272805E+02  0.27851221032E+02  0.00000000000E+00 0.  1.
</event>
<event>
 5    1  0.1094625E-009  0.9118800E+02  0.7818608E-02  0.1130116E+00
         25   -1    0    0    0    0  0.00000000000E+00  0.00000000000E+00  0.99999998245E-14  0.12500000000E+03  0.12500000000E+03 0.  0.
        -11    1    3    3    0    0 -0.20701486448E+02 -0.14539692260E+02 -0.32485513662E+02  0.41173569074E+02  0.51100000000E-03 0.  1.
         23    2    1    0    0    0  0.11126490532E+02  0.24480793760E+02 -0.12430681628E+02  0.95375181006E+02  0.90657571396E+02 0.  0.
         11    1    3    3    0    0  0.31827976980E+02  0.39020486020E+02  0.20054832033E+02  0.54201611932E+02  0.51100000000E-03 0. -1.
         22    1    1    0    0    0 -0.11126490532E+02 -0.24480793760E+02  0.12430681628E+02  0.29624818994E+02  0.00000000000E+00 0. -1.
</event>
<event>
 5    1  0.1094625E-009  0.9118800E+02  0.7818608E-02  0.1130116E+00
         25   -1    0    0    0    0  0.00000000000E+00  0.00000000000E+00  0.99999998245E-14  0.12500000000E+03  0.12500000000E+03 0.  0.
        -11    1    3    3    0    0 -0.52875615316E+01 -0.58716083403E+02  0.18045710484E+02  0.61653746231E+02  0.51100000000E-03 0.  1.
         23    2    1    0    0    0  0.33497062238E+01 -0.28980237923E+02  0.43809326677E+01  0.95499706901E+02  0.90829107258E+02 0.  0.
         11    1    3    3    0    0  0.86372677554E+01  0.29735845480E+02 -0.13664777817E+02  0.33845960670E+02  0.51100000000E-03 0. -1.
         22    1    1    0    0    0 -0.33497062238E+01  0.28980237923E+02 -0.43809326677E+01  0.29500293099E+02  0.00000000000E+00 0.  1.
</event>
<event>
 5    1  0.1094625E-009  0.9118800E+02  0.7818608E-02  0.1130116E+00
         25   -1    0    0    0    0  0.00000000000E+00  0.00000000000E+00  0.99999998245E-14  0.12500000000E+03  0.12500000000E+03 0.  0.
        -11    1    3    3    0    0 -0.38668758887E+02  0.63044223212E+01  0.44360624118E+02  0.59185163910E+02  0.51100000000E-03 0. -1.
         23    2    1    0    0    0 -0.55338821528E+01  0.23653278564E+01  0.28022568423E+02  0.96338475816E+02  0.91976186885E+02 0.  0.
         11    1    3    3    0    0  0.33134876735E+02 -0.39390944648E+01 -0.16338055695E+02  0.37153311906E+02  0.51100000000E-03 0.  1.
         22    1    1    0    0    0  0.55338821528E+01 -0.23653278564E+01 -0.28022568423E+02  0.28661524184E+02  0.00000000000E+00 0. -1.
</event>
<event>
 5    1  0.1094625E-009  0.9118800E+02  0.7818608E-02  0.1130116E+00
         25   -1    0    0    0    0  0.00000000000E+00  0.00000000000E+00  0.99999998245E-14  0.12500000000E+03  0.12500000000E+03 0.  0.
        -11    1    3    3    0    0  0.14162575304E+02 -0.36663906086E+02  0.46915965177E+02  0.61203989555E+02  0.51100000000E-03 0.  1.
         23    2    1    0    0    0  0.11883903726E+01 -0.22134793361E+02  0.16322993433E+02  0.97471806026E+02  0.93503751297E+02 0.  0.
         11    1    3    3    0    0 -0.12974184931E+02  0.14529112724E+02 -0.30592971744E+02  0.36267816471E+02  0.51100000000E-03 0. -1.
         22    1    1    0    0    0 -0.11883903726E+01  0.22134793361E+02 -0.16322993433E+02  0.27528193974E+02  0.00000000000E+00 0.  1.
</event>
<event>
 5    1  0.1094625E-009  0.9118800E+02  0.7818608E-02  0.1130116E+00
         25   -1    0    0    0    0  0.00000000000E+00  0.00000000000E+00  0.99999998245E-14  0.12500000000E+03  0.12500000000E+03 0.  0.
        -11    1    3    3    0    0  0.16378853412E+02 -0.52519360606E+02 -0.52085072863E+01  0.55260099764E+02  0.51100000000E-03 0.  1.
         23    2    1    0    0    0  0.87512797586E+01 -0.16732921025E+02 -0.22412491632E+02  0.95693084014E+02  0.91094846197E+02 0.  0.
         11    1    3    3    0    0 -0.76275736530E+01  0.35786439581E+02 -0.17203984346E+02  0.40432984250E+02  0.51100000000E-03 0. -1.
         22    1    1    0    0    0 -0.87512797586E+01  0.16732921025E+02  0.22412491632E+02  0.29306915986E+02  0.00000000000E+00 0. -1.
</event>
<event>
 5    1  0.1094625E-009  0.9118800E+02  0.7818608E-02  0.1130116E+00
         25   -1    0    0    0    0  0.00000000000E+00  0.00000000000E+00  0.99999998245E-14  0.12500000000E+03  0.12500000000E+03 0.  0.
        -11    1    3    3    0    0  0.11631188076E+02  0.58995154072E+02 -0.91827930265E+01  0.60827924739E+02  0.51100000000E-03 0.  1.
         23    2    1    0    0    0  0.92903496880E+01  0.24435623089E+02 -0.13227392238E+02  0.95701976543E+02  0.91107047674E+02 0.  0.
         11    1    3    3    0    0 -0.23408383880E+01 -0.34559530984E+02 -0.40445992114E+01  0.34874051804E+02  0.51100000000E-03 0. -1.
         22    1    1    0    0    0 -0.92903496880E+01 -0.24435623089E+02  0.13227392238E+02  0.29298023457E+02  0.00000000000E+00 0.  1.
</event>
<event>
 5    1  0.1094625E-009  0.9118800E+02  0.7818608E-02  0.1130116E+00
         25   -1    0    0    0    0  0.00000000000E+00  0.00000000000E+00  0.99999998245E-14  0.12500000000E+03  0.12500000000E+03 0.  0.
        -11    1    3    3    0    0 -0.21493828154E+02  0.47335219315E+01  0.32456666943E+02  0.39215126009E+02  0.51100000000E-03 0.  1.
         23    2    1    0    0    0  0.12481412884E+02  0.15034608942E+02 -0.16317725423E+02  0.99542323425E+02  0.96231911839E+02 0.  0.
         11    1    3    3    0    0  0.33975241038E+02  0.10301087011E+02 -0.48774392366E+02  0.60327197416E+02  0.51100000000E-03 0. -1.
         22    1    1    0    0    0 -0.12481412884E+02 -0.15034608942E+02  0.16317725423E+02  0.25457676575E+02  0.00000000000E+00 0. -1.
</event>
<event>
 5    1  0.1094625E-009  0.9118800E+02  0.7818608E-02  0.1130116E+00
         25   -1    0    0    0    0  0.00000000000E+00  0.00000000000E+00  0.99999998245E-14  0.12500000000E+03  0.12500000000E+03 0.  0.
        -11    1    3    3    0    0  0.37828535367E+02 -0.34960206160E+02 -0.10780748847E+02  0.52625456281E+02  0.51100000000E-03 0.  1.
         23    2    1    0    0    0  0.10131233215E+02 -0.20044153722E+02  0.18727493540E+02  0.95757411209E+02  0.91183073003E+02 0.  0.
         11    1    3    3    0    0 -0.27697302153E+02  0.14916052438E+02  0.29508242387E+02  0.43131954928E+02  0.51100000000E-03 0. -1.
         22    1    1    0    0    0 -0.10131233215E+02  0.20044153722E+02 -0.18727493540E+02  0.29242588791E+02  0.00000000000E+00 0.  1.
</event>
<event>
 5    1  0.1094625E-009  0.9118800E+02  0.7818608E-02  0.1130116E+00
         25   -1    0    0    0    0  0.00000000000E+00  0.00000000000E+00  0.99999998245E-14  0.12500000000E+03  0.12500000000E+03 0.  0.
        -11    1    3    3    0    0  0.74199164135E+00  0.24065513857E+02 -0.19560337613E+02  0.31021062468E+02  0.51100000000E-03 0. -1.
         23    2    1    0    0    0 -0.23160373883E+02 -0.12255825619E+02  0.21711653188E+02  0.90970541231E+02  0.84366079129E+02 0.  0.
         11    1    3    3    0    0 -0.23902365524E+02 -0.36321339476E+02  0.41271990801E+02  0.59949478763E+02  0.51100000000E-03 0.  1.
         22    1    1    0    0    0  0.23160373883E+02  0.12255825619E+02 -0.21711653188E+02  0.34029458769E+02  0.00000000000E+00 0.  1.
</event>
<event>
 5    1  0.1094625E-009  0.9118800E+02  0.7818608E-02  0.1130116E+00
         25   -1    0    0    0    0  0.00000000000E+00  0.00000000000E+00  0.99999998245E-14  0.12500000000E+03  0.12500000000E+03 0.  0.
        -11    1    3    3    0    0  0.28986136117E+02  0.18306499684E+02  0.11858546407E+02  0.36276013298E+02  0.51100000000E-03 0.  1.
         23    2    1    0    0    0 -0.22952697934E+02  0.89228661057E+01 -0.15677637106E+02  0.95806983930E+02  0.91251005379E+02 0.  0.
         11    1    3    3    0    0 -0.51938834051E+02 -0.93836335785E+01 -0.27536183513E+02  0.59530970632E+02  0.51100000000E-03 0. -1.
         22    1    1    0    0    0  0.22952697934E+02 -0.89228661057E+01  0.15677637106E+02  0.29193016070E+02  0.00000000000E+00 0. -1.
</event>
<event>
 5    1  0.1094625E-009  0.9118800E+02  0.7818608E-02  0.1130116E+00
         25   -1    0    0    0    0  0.00000000000E+00  0.00000000000E+00  0.99999998245E-14  0.12500000000E+03  0.12500000000E+03 0.  0.
        -11    1    3    3    0    0  0.50907464615E+02  0.12925620640E+02  0.26023817404E+02  0.58616385892E+02  0.51100000000E-03 0. -1.
         23    2    1    0    0    0  0.13810276518E+02  0.14929264571E+02  0.20406157928E+02  0.96189967728E+02  0.91774135420E+02 0.  0.
         11    1    3    3    0    0 -0.37097188097E+02  0.20036439313E+01 -0.56176594766E+01  0.37573581836E+02  0.51100000000E-03 0.  1.
         22    1    1    0    0    0 -0.13810276518E+02 -0.14929264571E+02 -0.20406157928E+02  0.28810032272E+02  0.00000000000E+00 0. -1.
</event>
<event>
 5    1  0.1094625E-009  0.9118800E+02  0.7818608E-02  0.1130116E+00
         25   -1    0    0    0    0  0.00000000000E+00  0.00000000000E+00  0.99999998245E-14  0.12500000000E+03  0.12500000000E+03 0.  0.
        -11    1    3    3    0    0 -0.19958378274E+02 -0.42134336233E+02  0.10499085561E+02  0.47789851967E+02  0.51100000000E-03 0.  1.
         23    2    1    0    0    0 -0.19710441984E+02 -0.42523096019E+01 -0.20131510712E+02  0.96506818646E+02  0.92204688934E+02 0.  0.
         11    1    3    3    0    0  0.24793628947E+00  0.37882026631E+02 -0.30630596273E+02  0.48716966679E+02  0.51100000000E-03 0. -1.
         22    1    1    0    0    0  0.19710441984E+02  0.42523096019E+01  0.20131510712E+02  0.28493181354E+02  0.00000000000E+00 0.  1.
</event>
<event>
 5    1  0.1094625E-009  0.9118800E+02  0.7818608E-02  0.1130116E+00
         25   -1    0    0    0    0  0.00000000000E+00  0.00000000000E+00  0.99999998245E-14  0.12500000000E+03  0.12500000000E+03 0.  0.
        -11    1    3    3    0    0  0.23538038236E+02  0.47531443485E+02 -0.26153134680E+02  0.59137668347E+02  0.51100000000E-03 0. -1.
         23    2    1    0    0    0 -0.16198229698E+01  0.29155935896E+02 -0.14471724304E+02  0.92409767893E+02  0.86472203472E+02 0.  0.
         11    1    3    3    0    0 -0.25157861205E+02 -0.18375507588E+02  0.11681410376E+02  0.33272099546E+02  0.51100000000E-03 0.  1.
         22    1    1    0    0    0  0.16198229698E+01 -0.29155935896E+02  0.14471724304E+02  0.32590232107E+02  0.00000000000E+00 0. -1.
</event>
<event>
 5    1  0.1094625E-009  0.9118800E+02  0.7818608E-02  0.1130116E+00
         25   -1    0    0    0    0  0.00000000000E+00  0.00000000000E+00  0.99999998245E-14  0.12500000000E+03  0.12500000000E+03 0.  0.
        -11    1    3    3    0    0  0.31543952569E+02 -0.66037831126E+01 -0.29859366861E+02  0.43934185832E+02  0.51100000000E-03 0. -1.
         23    2    1    0    0    0 -0.15040202993E+02  0.14885267907E+02 -0.19401973485E+02  0.96290846723E+02  0.91911433896E+02 0.  0.
         11    1    3    3    0    0 -0.46584155563E+02  0.21489051020E+02  0.10457393376E+02  0.52356660891E+02  0.51100000000E-03 0.  1.
         22    1    1    0    0    0  0.15040202993E+02 -0.14885267907E+02  0.19401973485E+02  0.28709153277E+02  0.00000000000E+00 0.  1.
</event>
<event>
 5    1  0.1094625E-009  0.9118800E+02  0.7818608E-02  0.1130116E+00
         25   -1    0    0    0    0  0.00000000000E+00  0.00000000000E+00  0.99999998245E-14  0.12500000000E+03  0.12500000000E+03 0.  0.
        -11    1    3    3    0    0 -0.45169330798E+02  0.54057002227E+01  0.24597456123E+02  0.51715808875E+02  0.51100000000E-03 0.  1.
         23    2    1    0    0    0  0.38079213269E+01  0.83575473888E+01  0.22353629030E+02  0.10083321300E+03  0.97894347383E+02 0.  0.
         11    1    3    3    0    0  0.48977252125E+02  0.29518471662E+01 -0.22438270927E+01  0.49117404122E+02  0.51100000000E-03 0. -1.
         22    1    1    0    0    0 -0.38079213269E+01 -0.83575473888E+01 -0.22353629030E+02  0.24166787002E+02  0.00000000000E+00 0.  1.
</event>
<event>
 5    1  0.1094625E-009  0.9118800E+02  0.7818608E-02  0.1130116E+00
         25   -1    0    0    0    0  0.00000000000E+00  0.00000000000E+00  0.99999998245E-14  0.12500000000E+03  0.12500000000E+03 0.  0.
        -11    1    3    3    0    0 -0.14829457637E+02  0.22325553576E+02  0.35703237244E+02  0.44643748792E+02  0.51100000000E-03 0. -1.
         23    2    1    0    0    0  0.21294961835E+02 -0.85970423906E+01  0.19477128008E+02  0.94887825504E+02  0.89983089389E+02 0.  0.
         11    1    3    3    0    0  0.36124419471E+02 -0.30922595967E+02 -0.16226109235E+02  0.50244076712E+02  0.51100000000E-03 0.  1.
         22    1    1    0    0    0 -0.21294961835E+02  0.85970423906E+01 -0.19477128008E+02  0.30112174496E+02  0.00000000000E+00 0.  1.
</event>
<event>
 5    1  0.1094625E-009  0.9118800E+02  0.7818608E-02  0.1130116E+00
         25   -1    0    0    0    0  0.00000000000E+00  0.00000000000E+00  0.99999998245E-14  0.12500000000E+03  0.12500000000E+03 0.  0.
        -11    1    3    3    0    0  0.41831315092E+02  0.35368664078E+02  0.16412952473E+02  0.57185543017E+02  0.51100000000E-03 0. -1.
         23    2    1    0    0    0  0.73226563375E+01  0.28782402253E+02  0.17655988102E+01  0.95248272076E+02  0.90482418287E+02 0.  0.
         11    1    3    3    0    0 -0.34508658754E+02 -0.65862618250E+01 -0.14647353663E+02  0.38062729059E+02  0.51100000000E-03 0.  1.
         22    1    1    0    0    0 -0.73226563375E+01 -0.28782402253E+02 -0.17655988102E+01  0.29751727924E+02  0.00000000000E+00 0. -1.
</event>
<event>
 5    1  0.1094625E-009  0.9118800E+02  0.7818608E-02  0.1130116E+00
         25   -1    0    0    0    0  0.00000000000E+00  0.00000000000E+00  0.99999998245E-14  0.12500000000E+03  0.12500000000E+03 0.  0.
        -11    1    3    3    0    0 -0.27486201975E+02  0.30520250799E+02 -0.53457733441E+01  0.41419250364E+02  0.51100000000E-03 0. -1.
         23    2    1    0    0    0 -0.19996770124E+02 -0.20894520874E+02  0.78617438328E+01  0.95029033482E+02  0.90179035094E+02 0.  0.
         11    1    3    3    0    0  0.74894318509E+01 -0.51414771673E+02  0.13207517177E+02  0.53609783118E+02  0.51100000000E-03 0.  1.
         22    1    1    0    0    0  0.19996770124E+02  0.20894520874E+02 -0.78617438328E+01  0.29970966518E+02  0.00000000000E+00 0.  1.
</event>
<event>
 5    1  0.1094625E-009  0.9118800E+02  0.7818608E-02  0.1130116E+00
         25   -1    0    0    0    0  0.00000000000E+00  0.00000000000E+00  0.99999998245E-14  0.12500000000E+03  0.12500000000E+03 0.  0.
        -11    1    3    3    0    0 -0.74458503527E+00  0.25421622721E+01 -0.56238846386E+02  0.56301197492E+02  0.51100000000E-03 0.  1.
         23    2    1    0    0    0 -0.28249132636E+01 -0.18293123331E+02 -0.27007066493E+02  0.92258586825E+02  0.86253386636E+02 0.  0.
         11    1    3    3    0    0 -0.20803282283E+01 -0.20835285603E+02  0.29231779893E+02  0.35957389333E+02  0.51100000000E-03 0. -1.
         22    1    1    0    0    0  0.28249132636E+01  0.18293123331E+02  0.27007066493E+02  0.32741413175E+02  0.00000000000E+00 0.  1.
</event>
<event>
 5    1  0.1094625E-009  0.9118800E+02  0.7818608E-02  0.1130116E+00
         25   -1    0    0    0    0  0.00000000000E+00  0.00000000000E+00  0.99999998245E-14  0.12500000000E+03  0.12500000000E+03 0.  0.
        -11    1    3    3    0    0 -0.50420111959E+02  0.35710815183E+02 -0.62317564173E+01  0.62098991935E+02  0.51100000000E-03 0.  1.
         23    2    1    0    0    0 -0.25119781700E+02  0.13450612110E+02 -0.63885002434E+01  0.95798367612E+02  0.91239201569E+02 0.  0.
         11    1    3    3    0    0  0.25300330259E+02 -0.22260203074E+02 -0.15674382616E+00  0.33699375677E+02  0.51100000000E-03 0. -1.
         22    1    1    0    0    0  0.25119781700E+02 -0.13450612110E+02  0.63885002434E+01  0.29201632388E+02  0.00000000000E+00 0.  1.
</event>
<event>
 5    1  0.1094625E-009  0.9118800E+02  0.7818608E-02  0.1130116E+00
         25   -1    0    0    0    0  0.00000000000E+00  0.00000000000E+00  0.99999998245E-14  0.12500000000E+03  0.12500000000E+03 0.  0.
        -11    1    3    3    0    0  0.52511575584E+02  0.25736926462E+02 -0.22288016767E+01  0.58521983145E+02  0.51100000000E-03 0.  1.
         23    2    1    0    0    0  0.11938343408E+02  0.22376518277E+02 -0.42502894058E+01  0.99284293252E+02  0.95896159010E+02 0.  0.
         11    1    3    3    0    0 -0.40573232176E+02 -0.33604081847E+01 -0.20214877291E+01  0.40762310107E+02  0.51100000000E-03 0. -1.
         22    1    1    0    0    0 -0.11938343408E+02 -0.22376518277E+02  0.42502894058E+01  0.25715706748E+02  0.00000000000E+00 0.  1.
</event>
<event>
 5    1  0.1094625E-009  0.9118800E+02  0.7818608E-02  0.1130116E+00
         25   -1    0    0    0    0  0.00000000000E+00  0.00000000000E+00  0.99999998245E-14  0.12500000000E+03  0.12500000000E+03 0.  0.
        -11    1    3    3    0    0  0.43040067490E+01 -0.58848436151E+02 -0.16579532339E+02  0.61290650220E+02  0.51100000000E-03 0.  1.
         23    2    1    0    0    0  0.10432517024E+02 -0.26273647712E+02 -0.94330875236E+01  0.95198571917E+02  0.90413732249E+02 0.  0.
         11    1    3    3    0    0  0.61285102751E+01  0.32574788439E+02  0.71464448153E+01  0.33907921697E+02  0.51100000000E-03 0. -1.
         22    1    1    0    0    0 -0.10432517024E+02  0.26273647712E+02  0.94330875236E+01  0.29801428083E+02  0.00000000000E+00 0.  1.
</event>
<event>
 5    1  0.1094625E-009  0.9118800E+02  0.7818608E-02  0.1130116E+00
         25   -1    0    0    0    0  0.00000000000E+00  0.00000000000E+00  0.99999998245E-14  0.12500000000E+03  0.12500000000E+03 0.  0.
        -11    1    3    3    0    0 -0.34465508273E+02  0.13590722196E+02  0.13049341500E+02  0.39279311401E+02  0.51100000000E-03 0.  1.
         23    2    1    0    0    0 -0.23184570408E+02 -0.30567857475E+02  0.11753254863E+02  0.84874481742E+02  0.74790510331E+02 0.  0.
         11    1    3    3    0    0  0.11280937865E+02 -0.44158579670E+02 -0.12960866368E+01  0.45595170341E+02  0.51100000000E-03 0. -1.
         22    1    1    0    0    0  0.23184570408E+02  0.30567857475E+02 -0.11753254863E+02  0.40125518258E+02  0.00000000000E+00 0. -1.
</event>
<event>
 5    1  0.1094625E-009  0.9118800E+02  0.7818608E-02  0.1130116E+00
         25   -1    0    0    0    0  0.00000000000E+00  0.00000000000E+00  0.99999998245E-14  0.12500000000E+03  0.12500000000E+03 0.  0.
        -11    1    3    3    0    0 -0.32135002977E+02 -0.14252757770E+02  0.15892570996E+01  0.35189845961E+02  0.51100000000E-03 0.  1.
         23    2    1    0    0    0  0.16004043356E+02  0.21655613080E+02  0.10873846725E+02  0.95959760259E+02  0.91460046276E+02 0.  0.
         11    1    3    3    0    0  0.48139046333E+02  0.35908370850E+02  0.92845896254E+01  0.60769914298E+02  0.51100000000E-03 0. -1.
         22    1    1    0    0    0 -0.16004043356E+02 -0.21655613080E+02 -0.10873846725E+02  0.29040239741E+02  0.00000000000E+00 0. -1.
</event>
<event>
 5    1  0.1094625E-009  0.9118800E+02  0.7818608E-02  0.1130116E+00
         25   -1    0    0    0    0  0.00000000000E+00  0.00000000000E+00  0.99999998245E-14  0.12500000000E+03  0.12500000000E+03 0.  0.
        -11    1    3    3    0    0 -0.28139529462E+01  0.25383232287E+02  0.44040875036E+02  0.50909974334E+02  0.51100000000E-03 0. -1.
         23    2    1    0    0    0  0.22256062790E+02 -0.44194183924E+00  0.24623580313E+02  0.91805898853E+02  0.85594828777E+02 0.  0.
         11    1    3    3    0    0  0.25070015736E+02 -0.25825174126E+02 -0.19417294723E+02  0.40895924519E+02  0.51100000000E-03 0.  1.
         22    1    1    0    0    0 -0.22256062790E+02  0.44194183924E+00 -0.24623580313E+02  0.33194101147E+02  0.00000000000E+00 0. -1.
</event>
<event>
 5    1  0.1094625E-009  0.9118800E+02  0.7818608E-02  0.1130116E+00
         25   -1    0    0    0    0  0.00000000000E+00  0.00000000000E+00  0.99999998245E-14  0.12500000000E+03  0.12500000000E+03 0.  0.
        -11    1    3    3    0    0  0.36615738384E+02  0.23069496473E+02  0.41187220320E+02  0.59743627969E+02  0.51100000000E-03 0. -1.
         23    2    1    0    0    0  0.22373461641E+02  0.17668034142E+02  0.94172538479E+01  0.94976411169E+02  0.90106064126E+02 0.  0.
         11    1    3    3    0    0 -0.14242276744E+02 -0.54014623306E+01 -0.31769966472E+02  0.35232783200E+02  0.51100000000E-03 0.  1.
         22    1    1    0    0    0 -0.22373461641E+02 -0.17668034142E+02 -0.94172538479E+01  0.30023588831E+02  0.00000000000E+00 0. -1.
</event>
<event>
 5    1  0.1094625E-009  0.9118800E+02  0.7818608E-02  0.1130116E+00
         25   -1    0    0    0    0  0.00000000000E+00  0.00000000000E+00  0.99999998245E-14  0.12500000000E+03  0.12500000000E+03 0.  0.
        -11    1    3    3    0    0  0.40773085230E+02 -0.36169551161E+01  0.16421761726E+02  0.44104434039E+02  0.51100000000E-03 0. -1.
         23    2    1    0    0    0  0.26818414329E+01 -0.28183715817E+02 -0.79854412294E+01  0.95584334405E+02  0.90945497972E+02 0.  0.
         11    1    3    3    0    0 -0.38091243797E+02 -0.24566760701E+02 -0.24407202955E+02  0.51479900366E+02  0.51100000000E-03 0.  1.
         22    1    1    0    0    0 -0.26818414329E+01  0.28183715817E+02  0.79854412294E+01  0.29415665595E+02  0.00000000000E+00 0.  1.
</event>
<event>
 5    1  0.1094625E-009  0.9118800E+02  0.7818608E-02  0.1130116E+00
         25   -1    0    0    0    0  0.00000000000E+00  0.00000000000E+00  0.99999998245E-14  0.12500000000E+03  0.12500000000E+03 0.  0.
        -11    1    3    3    0    0  0.11481399054E+02  0.25360344947E+02 -0.36771493406E+02  0.46120628222E+02  0.51100000000E-03 0. -1.
         23    2    1    0    0    0  0.15581847074E+02  0.14361990561E+02  0.14891232869E+02  0.99100008736E+02  0.95655643765E+02 0.  0.
         11    1    3    3    0    0  0.41004480204E+01 -0.10998354386E+02  0.51662726275E+02  0.52979380514E+02  0.51100000000E-03 0.  1.
         22    1    1    0    0    0 -0.15581847074E+02 -0.14361990561E+02 -0.14891232869E+02  0.25899991264E+02  0.00000000000E+00 0.  1.
</event>
<event>
 5    1  0.1094625E-009  0.9118800E+02  0.7818608E-02  0.1130116E+00
         25   -1    0    0    0    0  0.00000000000E+00  0.00000000000E+00  0.99999998245E-14  0.12500000000E+03  0.12500000000E+03 0.  0.
        -11    1    3    3    0    0 -0.43489026910E+01  0.48767325689E+02  0.28487308300E+02  0.56645315287E+02  0.51100000000E-03 0.  1.
         23    2    1    0    0    0 -0.94498524122E+01  0.10950415148E+02  0.26443224764E+02  0.94859405473E+02  0.89943601041E+02 0.  0.
         11    1    3    3    0    0 -0.51009497212E+01 -0.37816910542E+02 -0.20440835359E+01  0.38214090186E+02  0.51100000000E-03 0. -1.
         22    1    1    0    0    0  0.94498524122E+01 -0.10950415148E+02 -0.26443224764E+02  0.30140594527E+02  0.00000000000E+00 0.  1.
</event>
<event>
 5    1  0.1094625E-009  0.9118800E+02  0.7818608E-02  0.1130116E+00
         25   -1    0    0    0    0  0.00000000000E+00  0.00000000000E+00  0.99999998245E-14  0.12500000000E+03  0.12500000000E+03 0.  0.
        -11    1    3    3    0    0 -0.27029349937E+02  0.16691919603E+02 -0.16263305727E+02  0.35688948590E+02  0.51100000000E-03 0.  1.
         23    2    1    0    0    0  0.19645598364E+02 -0.19946379171E+02 -0.96189487619E+01  0.95397098919E+02  0.90687787104E+02 0.  0.
         11    1    3    3    0    0  0.46674948301E+02 -0.36638298774E+02  0.66443569651E+01  0.59708150329E+02  0.51100000000E-03 0. -1.
         22    1    1    0    0    0 -0.19645598364E+02  0.19946379171E+02  0.96189487619E+01  0.29602901081E+02  0.00000000000E+00 0. -1.
</event>
<event>
 5    1  0.1094625E-009  0.9118800E+02  0.7818608E-02  0.1130116E+00
         25   -1    0    0    0    0  0.00000000000E+00  0.00000000000E+00  0.99999998245E-14  0.12500000000E+03  0.12500000000E+03 0.  0.
        -11    1    3    3    0    0  0.12906054409E+02 -0.48062978927E+02 -0.36397838937E+02  0.61655647456E+02  0.51100000000E-03 0. -1.
         23    2    1    0    0    0  0.24295784203E+01 -0.18234199132E+02 -0.21793124132E+02  0.96481074202E+02  0.92169781113E+02 0.  0.
         11    1    3    3    0    0 -0.10476475988E+02  0.29828779795E+02  0.14604714805E+02  0.34825426746E+02  0.51100000000E-03 0.  1.
         22    1    1    0    0    0 -0.24295784203E+01  0.18234199132E+02  0.21793124132E+02  0.28518925798E+02  0.00000000000E+00 0. -1.
</event>
<event>
 5    1  0.1094625E-009  0.9118800E+02  0.7818608E-02  0.1130116E+00
         25   -1    0    0    0    0  0.00000000000E+00  0.00000000000E+00  0.99999998245E-14  0.12500000000E+03  0.12500000000E+03 0.  0.
        -11    1    3    3    0    0 -0.36598025485E+02  0.21179042822E+02  0.19749645913E+02  0.46669217245E+02  0.51100000000E-03 0.  1.
         23    2    1    0    0    0  0.12673378150E+02  0.13316558253E+02  0.21647402726E+02  0.96600083060E+02  0.92331039011E+02 0.  0.
         11    1    3    3    0    0  0.49271403636E+02 -0.78624845687E+01  0.18977568120E+01  0.49930865815E+02  0.51100000000E-03 0. -1.
         22    1    1    0    0    0 -0.12673378150E+02 -0.13316558253E+02 -0.21647402726E+02  0.28399916940E+02  0.00000000000E+00 0. -1.
</event>
<event>
 5    1  0.1094625E-009  0.9118800E+02  0.7818608E-02  0.1130116E+00
         25   -1    0    0    0    0  0.00000000000E+00  0.00000000000E+00  0.99999998245E-14  0.12500000000E+03  0.12500000000E+03 0.  0.
        -11    1    3    3    0    0 -0.38572544750E+02  0.13543357115E+02  0.87423365330E+01  0.41805408487E+02  0.51100000000E-03 0.  1.
         23    2    1    0    0    0  0.13093628549E+02  0.13373358466E+02 -0.17166019438E+02  0.99603896981E+02  0.96311859318E+02 0.  0.
         11    1    3    3    0    0  0.51666173298E+02 -0.16999864973E+00 -0.25908355971E+02  0.57798488494E+02  0.51100000000E-03 0. -1.
         22    1    1    0    0    0 -0.13093628549E+02 -0.13373358466E+02  0.17166019438E+02  0.25396103019E+02  0.00000000000E+00 0. -1.
</event>
<event>
 5    1  0.1094625E-009  0.9118800E+02  0.7818608E-02  0.1130116E+00
         25   -1    0    0    0    0  0.00000000000E+00  0.00000000000E+00  0.99999998245E-14  0.12500000000E+03  0.12500000000E+03 0.  0.
        -11    1    3    3    0    0 -0.42305544387E+02 -0.35499346921E+02 -0.13516481538E+02  0.56856468332E+02  0.51100000000E-03 0.  1.
         23    2    1    0    0    0 -0.18353387176E+02 -0.23107020676E+02 -0.25150740744E+02  0.86227058594E+02  0.77017950170E+02 0.  0.
         11    1    3    3    0    0  0.23952157211E+02  0.12392326246E+02 -0.11634259206E+02  0.29370590262E+02  0.51100000000E-03 0. -1.
         22    1    1    0    0    0  0.18353387176E+02  0.23107020676E+02  0.25150740744E+02  0.38772941406E+02  0.00000000000E+00 0.  1.
</event>
<event>
 5    1  0.1094625E-009  0.9118800E+02  0.7818608E-02  0.1130116E+00
         25   -1    0    0    0    0  0.00000000000E+00  0.00000000000E+00  0.99999998245E-14  0.12500000000E+03  0.12500000000E+03 0.  0.
        -11    1    3    3    0    0  0.37026450837E+02  0.10125073438E+02 -0.40567279293E+02  0.55849613456E+02  0.51100000000E-03 0. -1.
         23    2    1    0    0    0  0.17589258322E+02 -0.15758093668E+02 -0.16294694513E+02  0.96308248683E+02  0.91935097600E+02 0.  0.
         11    1    3    3    0    0 -0.19437192515E+02 -0.25883167105E+02  0.24272584779E+02  0.40458635227E+02  0.51100000000E-03 0.  1.
         22    1    1    0    0    0 -0.17589258322E+02  0.15758093668E+02  0.16294694513E+02  0.28691751317E+02  0.00000000000E+00 0. -1.
</event>
<event>
 5    1  0.1094625E-009  0.9118800E+02  0.7818608E-02  0.1130116E+00
         25   -1    0    0    0    0  0.00000000000E+00  0.00000000000E+00  0.99999998245E-14  0.12500000000E+03  0.12500000000E+03 0.  0.
        -11    1    3    3    0    0  0.44159633090E+02  0.38615599282E+02  0.25287777115E+00  0.58662608619E+02  0.51100000000E-03 0. -1.
         23    2    1    0    0    0  0.11293932230E+02  0.28981817423E+02  0.58050608139E+01  0.93358296863E+02  0.87832648917E+02 0.  0.
         11    1    3    3    0    0 -0.32865700860E+02 -0.96337818591E+01  0.55521830428E+01  0.34695688244E+02  0.51100000000E-03 0.  1.
         22    1    1    0    0    0 -0.11293932230E+02 -0.28981817423E+02 -0.58050608139E+01  0.31641703137E+02  0.00000000000E+00 0. -1.
</event>
<event>
 5    1  0.1094625E-009  0.9118800E+02  0.7818608E-02  0.1130116E+00
         25   -1    0    0    0    0  0.00000000000E+00  0.00000000000E+00  0.99999998245E-14  0.12500000000E+03  0.12500000000E+03 0.  0.
        -11    1    3    3    0    0 -0.20374807363E+02 -0.54256570817E+01 -0.56829257607E+02  0.60614643860E+02  0.51100000000E-03 0.  1.
         23    2    1    0    0    0 -0.19613331411E+02 -0.85099219998E+00 -0.22997680500E+02  0.94762601548E+02  0.89808966072E+02 0.  0.
         11    1    3    3    0    0  0.76147595149E+00  0.45746648817E+01  0.33831577107E+02  0.34147957688E+02  0.51100000000E-03 0. -1.
         22    1    1    0    0    0  0.19613331411E+02  0.85099219998E+00  0.22997680500E+02  0.30237398452E+02  0.00000000000E+00 0.  1.
</event>
<event>
 5    1  0.1094625E-009  0.9118800E+02  0.7818608E-02  0.1130116E+00
         25   -1    0    0    0    0  0.00000000000E+00  0.00000000000E+00  0.99999998245E-14  0.12500000000E+03  0.12500000000E+03 0.  0.
        -11    1    3    3    0    0 -0.34362285088E+02  0.47878778870E+02  0.18506125242E+02  0.61770711298E+02  0.51100000000E-03 0.  1.
         23    2    1    0    0    0 -0.29692164870E+02  0.30914802001E+02  0.13290695138E+02  0.80122475395E+02  0.66374835960E+02 0.  0.
         11    1    3    3    0    0  0.46701202177E+01 -0.16963976869E+02 -0.52154301033E+01  0.18351764097E+02  0.51100000000E-03 0. -1.
         22    1    1    0    0    0  0.29692164870E+02 -0.30914802001E+02 -0.13290695138E+02  0.44877524605E+02  0.00000000000E+00 0.  1.
</event>
<event>
 5    1  0.1094625E-009  0.9118800E+02  0.7818608E-02  0.1130116E+00
         25   -1    0    0    0    0  0.00000000000E+00  0.00000000000E+00  0.99999998245E-14  0.12500000000E+03  0.12500000000E+03 0.  0.
        -11    1    3    3    0    0  0.41062350128E+02 -0.13781161448E+02  0.18028383000E+01  0.43350746649E+02  0.51100000000E-03 0. -1.
         23    2    1    0    0    0 -0.52314541680E+01 -0.14702760308E+02 -0.24010987917E+02  0.96363191272E+02  0.92009770231E+02 0.  0.
         11    1    3    3    0    0 -0.46293804296E+02 -0.92159886005E+00 -0.25813826217E+02  0.53012444622E+02  0.51100000000E-03 0.  1.
         22    1    1    0    0    0  0.52314541680E+01  0.14702760308E+02  0.24010987917E+02  0.28636808728E+02  0.00000000000E+00 0.  1.
</event>
<event>
 5    1  0.1094625E-009  0.9118800E+02  0.7818608E-02  0.1130116E+00
         25   -1    0    0    0    0  0.00000000000E+00  0.00000000000E+00  0.99999998245E-14  0.12500000000E+03  0.12500000000E+03 0.  0.
        -11    1    3    3    0    0  0.43648715625E+02  0.72385304240E+00  0.14600670666E+02  0.46031662181E+02  0.51100000000E-03 0.  1.
         23    2    1    0    0    0 -0.17063091354E+01 -0.15648155355E+02  0.25092022457E+02  0.95379300348E+02  0.90663251028E+02 0.  0.
         11    1    3    3    0    0 -0.45355024761E+02 -0.16372008398E+02  0.10491351791E+02  0.49347638167E+02  0.51100000000E-03 0. -1.
         22    1    1    0    0    0  0.17063091354E+01  0.15648155355E+02 -0.25092022457E+02  0.29620699652E+02  0.00000000000E+00 0. -1.
</event>
<event>
 5    1  0.1094625E-009  0.9118800E+02  0.7818608E-02  0.1130116E+00
         25   -1    0    0    0    0  0.00000000000E+00  0.00000000000E+00  0.99999998245E-14  0.12500000000E+03  0.12500000000E+03 0.  0.
        -11    1    3    3    0    0 -0.28869419977E+01 -0.89687849294E+01 -0.61693024898E+02  0.62408355679E+02  0.51100000000E-03 0.  1.
         23    2    1    0    0    0 -0.27204326853E+01 -0.23019058742E+01 -0.29547992641E+02  0.95237886605E+02  0.90468069788E+02 0.  0.
         11    1    3    3    0    0  0.16650931238E+00  0.66668790552E+01  0.32145032258E+02  0.32829530926E+02  0.51100000000E-03 0. -1.
         22    1    1    0    0    0  0.27204326853E+01  0.23019058742E+01  0.29547992641E+02  0.29762113395E+02  0.00000000000E+00 0.  1.
</event>
<event>
 5    1  0.1094625E-009  0.9118800E+02  0.7818608E-02  0.1130116E+00
         25   -1    0    0    0    0  0.00000000000E+00  0.00000000000E+00  0.99999998245E-14  0.12500000000E+03  0.12500000000E+03 0.  0.
        -11    1    3    3    0    0  0.42618602958E+01 -0.29904688826E+02 -0.25557910982E+02  0.39568430358E+02  0.51100000000E-03 0.  1.
         23    2    1    0    0    0 -0.29603107906E+02 -0.49026280793E+01  0.86081229219E+01  0.93783345150E+02  0.88435492239E+02 0.  0.
         11    1    3    3    0    0 -0.33864968202E+02  0.25002060747E+02  0.34166033904E+02  0.54214914792E+02  0.51100000000E-03 0. -1.
         22    1    1    0    0    0  0.29603107906E+02  0.49026280793E+01 -0.86081229219E+01  0.31216654850E+02  0.00000000000E+00 0. -1.
</event>
<event>
 5    1  0.1094625E-009  0.9118800E+02  0.7818608E-02  0.1130116E+00
         25   -1    0    0    0    0  0.00000000000E+00  0.00000000000E+00  0.99999998245E-14  0.12500000000E+03  0.12500000000E+03 0.  0.
        -11    1    3    3    0    0  0.22573877871E+02  0.16267549342E+02  0.23155866040E+02  0.36199547732E+02  0.51100000000E-03 0. -1.
         23    2    1    0    0    0 -0.27202743141E+02  0.97859748123E+01 -0.76501428423E+01  0.95095498283E+02  0.90271117035E+02 0.  0.
         11    1    3    3    0    0 -0.49776621012E+02 -0.64815745298E+01 -0.30806008882E+02  0.58895950551E+02  0.51100000000E-03 0.  1.
         22    1    1    0    0    0  0.27202743141E+02 -0.97859748123E+01  0.76501428423E+01  0.29904501717E+02  0.00000000000E+00 0.  1.
</event>
<event>
 5    1  0.1094625E-009  0.9118800E+02  0.7818608E-02  0.1130116E+00
         25   -1    0    0    0    0  0.00000000000E+00  0.00000000000E+00  0.99999998245E-14  0.12500000000E+03  0.12500000000E+03 0.  0.
        -11    1    3    3    0    0 -0.67542101536E+01  0.50614165940E+02 -0.26157691308E+02  0.57372798114E+02  0.51100000000E-03 0.  1.
         23    2    1    0    0    0 -0.11527474188E+02  0.15262564298E+02 -0.25592877951E+02  0.93049664604E+02  0.87392311738E+02 0.  0.
         11    1    3    3    0    0 -0.47732640341E+01 -0.35351601642E+02  0.56481335676E+00  0.35676866490E+02  0.51100000000E-03 0. -1.
         22    1    1    0    0    0  0.11527474188E+02 -0.15262564298E+02  0.25592877951E+02  0.31950335396E+02  0.00000000000E+00 0.  1.
</event>
<event>
 5    1  0.1094625E-009  0.9118800E+02  0.7818608E-02  0.1130116E+00
         25   -1    0    0    0    0  0.00000000000E+00  0.00000000000E+00  0.99999998245E-14  0.12500000000E+03  0.12500000000E+03 0.  0.
        -11    1    3    3    0    0 -0.79555158461E+01  0.31693653729E+02  0.43958729148E+02  0.54773604844E+02  0.51100000000E-03 0. -1.
         23    2    1    0    0    0  0.20650258754E+01  0.29504568560E+02  0.50704518385E+01  0.94991778133E+02  0.90127379487E+02 0.  0.
         11    1    3    3    0    0  0.10020541721E+02 -0.21890851686E+01 -0.38888277310E+02  0.40218173288E+02  0.51100000000E-03 0.  1.
         22    1    1    0    0    0 -0.20650258754E+01 -0.29504568560E+02 -0.50704518385E+01  0.30008221867E+02  0.00000000000E+00 0. -1.
</event>
<event>
 5    1  0.1094625E-009  0.9118800E+02  0.7818608E-02  0.1130116E+00
         25   -1    0    0    0    0  0.00000000000E+00  0.00000000000E+00  0.99999998245E-14  0.12500000000E+03  0.12500000000E+03 0.  0.
        -11    1    3    3    0    0  0.55256148133E+02 -0.20559960212E+02  0.97626558886E+00  0.58965303062E+02  0.51100000000E-03 0.  1.
         23    2    1    0    0    0  0.23593748282E+02 -0.13147234643E+02  0.14686337627E+02  0.94255842024E+02  0.89100844587E+02 0.  0.
         11    1    3    3    0    0 -0.31662399851E+02  0.74127255689E+01  0.13710072038E+02  0.35290538962E+02  0.51100000000E-03 0. -1.
         22    1    1    0    0    0 -0.23593748282E+02  0.13147234643E+02 -0.14686337627E+02  0.30744157976E+02  0.00000000000E+00 0.  1.
</event>
<event>
 5    1  0.1094625E-009  0.9118800E+02  0.7818608E-02  0.1130116E+00
         25   -1    0    0    0    0  0.00000000000E+00  0.00000000000E+00  0.99999998245E-14  0.12500000000E+03  0.12500000000E+03 0.  0.
        -11    1    3    3    0    0 -0.28544804868E+02  0.21998701920E+02 -0.13522667616E+02  0.38491704442E+02  0.51100000000E-03 0.  1.
         23    2    1    0    0    0 -0.11266760510E+02 -0.16228841291E+02  0.23398817169E+02  0.94376155909E+02  0.89269473938E+02 0.  0.
         11    1    3    3    0    0  0.17278044358E+02 -0.38227543211E+02  0.36921484785E+02  0.55884451467E+02  0.51100000000E-03 0. -1.
         22    1    1    0    0    0  0.11266760510E+02  0.16228841291E+02 -0.23398817169E+02  0.30623844091E+02  0.00000000000E+00 0. -1.
</event>
<event>
 5    1  0.1094625E-009  0.9118800E+02  0.7818608E-02  0.1130116E+00
         25   -1    0    0    0    0  0.00000000000E+00  0.00000000000E+00  0.99999998245E-14  0.12500000000E+03  0.12500000000E+03 0.  0.
        -11    1    3    3    0    0  0.39382228422E+02  0.10796232882E+02  0.11009097949E+02  0.42293247663E+02  0.51100000000E-03 0. -1.
         23    2    1    0    0    0 -0.92995277120E+01 -0.16177834269E+01  0.28097328514E+02  0.95359515718E+02  0.90635969292E+02 0.  0.
         11    1    3    3    0    0 -0.48681756134E+02 -0.12414016309E+02  0.17088230565E+02  0.53066268055E+02  0.51100000000E-03 0.  1.
         22    1    1    0    0    0  0.92995277120E+01  0.16177834269E+01 -0.28097328514E+02  0.29640484282E+02  0.00000000000E+00 0. -1.
</event>
<event>
 5    1  0.1094625E-009  0.9118800E+02  0.7818608E-02  0.1130116E+00
         25   -1    0    0    0    0  0.00000000000E+00  0.00000000000E+00  0.99999998245E-14  0.12500000000E+03  0.12500000000E+03 0.  0.
        -11    1    3    3    0    0  0.37477044037E+02 -0.18692354808E+00  0.19282914500E+02  0.42147296023E+02  0.51100000000E-03 0.  1.
         23    2    1    0    0    0 -0.85441520471E+01 -0.26102914896E+02  0.99825522520E+01  0.95776447003E+02  0.91209164840E+02 0.  0.
         11    1    3    3    0    0 -0.46021196084E+02 -0.25915991348E+02 -0.93003622485E+01  0.53629150980E+02  0.51100000000E-03 0. -1.
         22    1    1    0    0    0  0.85441520471E+01  0.26102914896E+02 -0.99825522520E+01  0.29223552997E+02  0.00000000000E+00 0. -1.
</event>
<event>
 5    1  0.1094625E-009  0.9118800E+02  0.7818608E-02  0.1130116E+00
         25   -1    0    0    0    0  0.00000000000E+00  0.00000000000E+00  0.99999998245E-14  0.12500000000E+03  0.12500000000E+03 0.  0.
        -11    1    3    3    0    0  0.20154198999E+02  0.11762776779E+02 -0.49660292039E+02  0.54869839261E+02  0.51100000000E-03 0.  1.
         23    2    1    0    0    0  0.22782035619E+02  0.62570294366E+01 -0.38763506797E+01  0.10105845329E+03  0.98181532491E+02 0.  0.
         11    1    3    3    0    0  0.26278366196E+01 -0.55057473428E+01  0.45783941360E+02  0.46188614028E+02  0.51100000000E-03 0. -1.
         22    1    1    0    0    0 -0.22782035619E+02 -0.62570294366E+01  0.38763506797E+01  0.23941546711E+02  0.00000000000E+00 0.  1.
</event>
<event>
 5    1  0.1094625E-009  0.9118800E+02  0.7818608E-02  0.1130116E+00
         25   -1    0    0    0    0  0.00000000000E+00  0.00000000000E+00  0.99999998245E-14  0.12500000000E+03  0.12500000000E+03 0.  0.
        -11    1    3    3    0    0 -0.43382885116E+02 -0.35096123466E+02  0.26906343007E+02  0.61949688438E+02  0.51100000000E-03 0.  1.
         23    2    1    0    0    0 -0.24009782907E+02 -0.14676515385E+02  0.84116905435E+01  0.95629499206E+02  0.91007553541E+02 0.  0.
         11    1    3    3    0    0  0.19373102209E+02  0.20419608081E+02 -0.18494652464E+02  0.33679810768E+02  0.51100000000E-03 0. -1.
         22    1    1    0    0    0  0.24009782907E+02  0.14676515385E+02 -0.84116905435E+01  0.29370500794E+02  0.00000000000E+00 0.  1.
</event>
<event>
 5    1  0.1094625E-009  0.9118800E+02  0.7818608E-02  0.1130116E+00
         25   -1    0    0    0    0  0.00000000000E+00  0.00000000000E+00  0.99999998245E-14  0.12500000000E+03  0.12500000000E+03 0.  0.
        -11    1    3    3    0    0 -0.14957083503E+02 -0.34003384006E+02  0.57846310063E+01  0.37595297936E+02  0.51100000000E-03 0.  1.
         23    2    1    0    0    0  0.20389613970E+02  0.88183533252E+01  0.20213789134E+02  0.94965070595E+02  0.90090330495E+02 0.  0.
         11    1    3    3    0    0  0.35346697474E+02  0.42821737331E+02  0.14429158128E+02  0.57369772658E+02  0.51100000000E-03 0. -1.
         22    1    1    0    0    0 -0.20389613970E+02 -0.88183533252E+01 -0.20213789134E+02  0.30034929405E+02  0.00000000000E+00 0. -1.
</event>
<event>
 5    1  0.1094625E-009  0.9118800E+02  0.7818608E-02  0.1130116E+00
         25   -1    0    0    0    0  0.00000000000E+00  0.00000000000E+00  0.99999998245E-14  0.12500000000E+03  0.12500000000E+03 0.  0.
        -11    1    3    3    0    0 -0.54756151042E+02 -0.11678767115E+02 -0.95428069946E+00  0.55995895654E+02  0.51100000000E-03 0.  1.
         23    2    1    0    0    0 -0.20047458572E+02  0.13743285003E+02  0.69082613923E+01  0.99731391939E+02  0.96477188935E+02 0.  0.
         11    1    3    3    0    0  0.34708692470E+02  0.25422052119E+02  0.78625420917E+01  0.43735496285E+02  0.51100000000E-03 0. -1.
         22    1    1    0    0    0  0.20047458572E+02 -0.13743285003E+02 -0.69082613923E+01  0.25268608061E+02  0.00000000000E+00 0.  1.
</event>
<event>
 5    1  0.1094625E-009  0.9118800E+02  0.7818608E-02  0.1130116E+00
         25   -1    0    0    0    0  0.00000000000E+00  0.00000000000E+00  0.99999998245E-14  0.12500000000E+03  0.12500000000E+03 0.  0.
        -11    1    3    3    0    0  0.38298177386E+02  0.24732744045E+02  0.26546465683E+02  0.52755794560E+02  0.51100000000E-03 0. -1.
         23    2    1    0    0    0 -0.71995449924E+01  0.68416407984E+01  0.20760638424E+02  0.10198596939E+03  0.99355384095E+02 0.  0.
         11    1    3    3    0    0 -0.45497722378E+02 -0.17891103247E+02 -0.57858272591E+01  0.49230174835E+02  0.51100000000E-03 0.  1.
         22    1    1    0    0    0  0.71995449924E+01 -0.68416407984E+01 -0.20760638424E+02  0.23014030605E+02  0.00000000000E+00 0.  1.
</event>
<event>
 5    1  0.1094625E-009  0.9118800E+02  0.7818608E-02  0.1130116E+00
         25   -1    0    0    0    0  0.00000000000E+00  0.00000000000E+00  0.99999998245E-14  0.12500000000E+03  0.12500000000E+03 0.  0.
        -11    1    3    3    0    0 -0.16781074718E+02  0.48597655705E+02  0.35162390252E+02  0.62287481064E+02  0.51100000000E-03 0. -1.
         23    2    1    0    0    0 -0.47936899126E+01  0.24923129568E+02  0.16539856295E+02  0.94706292787E+02  0.89730558879E+02 0.  0.
         11    1    3    3    0    0  0.11987384805E+02 -0.23674526137E+02 -0.18622533958E+02  0.32418811723E+02  0.51100000000E-03 0.  1.
         22    1    1    0    0    0  0.47936899126E+01 -0.24923129568E+02 -0.16539856295E+02  0.30293707213E+02  0.00000000000E+00 0. -1.
</event>
<event>
 5    1  0.1094625E-009  0.9118800E+02  0.7818608E-02  0.1130116E+00
         25   -1    0    0    0    0  0.00000000000E+00  0.00000000000E+00  0.99999998245E-14  0.12500000000E+03  0.12500000000E+03 0.  0.
        -11    1    3    3    0    0  0.27266893579E+02  0.30703154406E+00  0.20855285955E+02  0.34329589371E+02  0.51100000000E-03 0. -1.
         23    2    1    0    0    0 -0.27736463700E+02  0.85699516023E+01 -0.47892591034E+01  0.95577347301E+02  0.90935894043E+02 0.  0.
         11    1    3    3    0    0 -0.55003357280E+02  0.82629200583E+01 -0.25644545059E+02  0.61247757930E+02  0.51100000000E-03 0.  1.
         22    1    1    0    0    0  0.27736463700E+02 -0.85699516023E+01  0.47892591034E+01  0.29422652699E+02  0.00000000000E+00 0.  1.
</event>
<event>
 5    1  0.1094625E-009  0.9118800E+02  0.7818608E-02  0.1130116E+00
         25   -1    0    0    0    0  0.00000000000E+00  0.00000000000E+00  0.99999998245E-14  0.12500000000E+03  0.12500000000E+03 0.  0.
        -11    1    3    3    0    0 -0.45253342502E+02 -0.17408402953E+02  0.14590755827E+02  0.50634056294E+02  0.51100000000E-03 0.  1.
         23    2    1    0    0    0 -0.86032349196E+01 -0.28010700757E+02 -0.75432873575E+01  0.94742501886E+02  0.89780986135E+02 0.  0.
         11    1    3    3    0    0  0.36650107582E+02 -0.10602297804E+02 -0.22134043184E+02  0.44108445591E+02  0.51100000000E-03 0. -1.
         22    1    1    0    0    0  0.86032349196E+01  0.28010700757E+02  0.75432873575E+01  0.30257498114E+02  0.00000000000E+00 0. -1.
</event>
<event>
 5    1  0.1094625E-009  0.9118800E+02  0.7818608E-02  0.1130116E+00
         25   -1    0    0    0    0  0.00000000000E+00  0.00000000000E+00  0.99999998245E-14  0.12500000000E+03  0.12500000000E+03 0.  0.
        -11    1    3    3    0    0 -0.26849524324E+02 -0.29591316704E+02 -0.49395456905E+01  0.40260925133E+02  0.51100000000E-03 0.  1.
         23    2    1    0    0    0  0.25067975324E+02 -0.83136788804E+01 -0.10358843651E+02  0.96630539569E+02  0.92372262570E+02 0.  0.
         11    1    3    3    0    0  0.51917499648E+02  0.21277637823E+02 -0.54192979606E+01  0.56369614436E+02  0.51100000000E-03 0. -1.
         22    1    1    0    0    0 -0.25067975324E+02  0.83136788804E+01  0.10358843651E+02  0.28369460431E+02  0.00000000000E+00 0. -1.
</event>
<event>
 5    1  0.1094625E-009  0.9118800E+02  0.7818608E-02  0.1130116E+00
         25   -1    0    0    0    0  0.00000000000E+00  0.00000000000E+00  0.99999998245E-14  0.12500000000E+03  0.12500000000E+03 0.  0.
        -11    1    3    3    0    0 -0.24872791029E+02 -0.30073648803E+01  0.23464721658E+02  0.34326274774E+02  0.51100000000E-03 0.  1.
         23    2    1    0    0    0  0.15451183958E+02  0.22532417706E+02 -0.13336412142E+02  0.94597552365E+02  0.89578948930E+02 0.  0.
         11    1    3    3    0    0  0.40323974987E+02  0.25539782586E+02 -0.36801133800E+02  0.60271277591E+02  0.51100000000E-03 0. -1.
         22    1    1    0    0    0 -0.15451183958E+02 -0.22532417706E+02  0.13336412142E+02  0.30402447635E+02  0.00000000000E+00 0. -1.
</event>
<event>
 5    1  0.1094625E-009  0.9118800E+02  0.7818608E-02  0.1130116E+00
         25   -1    0    0    0    0  0.00000000000E+00  0.00000000000E+00  0.99999998245E-14  0.12500000000E+03  0.12500000000E+03 0.  0.
        -11    1    3    3    0    0 -0.43813658070E+02  0.10788110737E+02  0.14373552992E+02  0.47356298341E+02  0.51100000000E-03 0. -1.
         23    2    1    0    0    0 -0.81646156687E+01 -0.23457479189E+02  0.13354428420E+02  0.96799733382E+02  0.92600935986E+02 0.  0.
         11    1    3    3    0    0  0.35649042401E+02 -0.34245589925E+02 -0.10191245728E+01  0.49443435041E+02  0.51100000000E-03 0.  1.
         22    1    1    0    0    0  0.81646156687E+01  0.23457479189E+02 -0.13354428420E+02  0.28200266618E+02  0.00000000000E+00 0. -1.
</event>
<event>
 5    1  0.1094625E-009  0.9118800E+02  0.7818608E-02  0.1130116E+00
         25   -1    0    0    0    0  0.00000000000E+00  0.00000000000E+00  0.99999998245E-14  0.12500000000E+03  0.12500000000E+03 0.  0.
        -11    1    3    3    0    0  0.30196749537E+02  0.11287082447E+02 -0.23719797228E+02  0.40023376838E+02  0.51100000000E-03 0.  1.
         23    2    1    0    0    0 -0.23129077493E+02  0.15907901172E+02 -0.84236736848E+01  0.95691744785E+02  0.91093008493E+02 0.  0.
         11    1    3    3    0    0 -0.53325827030E+02  0.46208187250E+01  0.15296123543E+02  0.55668367947E+02  0.51100000000E-03 0. -1.
         22    1    1    0    0    0  0.23129077493E+02 -0.15907901172E+02  0.84236736848E+01  0.29308255215E+02  0.00000000000E+00 0. -1.
</event>
<event>
 5    1  0.1094625E-009  0.9118800E+02  0.7818608E-02  0.1130116E+00
         25   -1    0    0    0    0  0.00000000000E+00  0.00000000000E+00  0.99999998245E-14  0.12500000000E+03  0.12500000000E+03 0.  0.
        -11    1    3    3    0    0 -0.44056492119E+02  0.34299527177E+02 -0.26590202523E+01  0.55897249050E+02  0.51100000000E-03 0.  1.
         23    2    1    0    0    0 -0.78053122434E+01  0.25283871768E+02 -0.14166793612E+02  0.94985085173E+02  0.90118096370E+02 0.  0.
         11    1    3    3    0    0  0.36251179876E+02 -0.90156554090E+01 -0.11507773360E+02  0.39087836123E+02  0.51100000000E-03 0. -1.
         22    1    1    0    0    0  0.78053122434E+01 -0.25283871768E+02  0.14166793612E+02  0.30014914827E+02  0.00000000000E+00 0.  1.
</event>
<event>
 5    1  0.1094625E-009  0.9118800E+02  0.7818608E-02  0.1130116E+00
         25   -1    0    0    0    0  0.00000000000E+00  0.00000000000E+00  0.99999998245E-14  0.12500000000E+03  0.12500000000E+03 0.  0.
        -11    1    3    3    0    0 -0.28915428313E+02 -0.10538653284E+02 -0.31603370912E+02  0.44112790218E+02  0.51100000000E-03 0.  1.
         23    2    1    0    0    0 -0.14331445028E+02 -0.20415659659E+02  0.16334246181E+02  0.95183946032E+02  0.90393509214E+02 0.  0.
         11    1    3    3    0    0  0.14583983285E+02 -0.98770063750E+01  0.47937617093E+02  0.51071155814E+02  0.51100000000E-03 0. -1.
         22    1    1    0    0    0  0.14331445028E+02  0.20415659659E+02 -0.16334246181E+02  0.29816053968E+02  0.00000000000E+00 0. -1.
</event>
<event>
 5    1  0.1094625E-009  0.9118800E+02  0.7818608E-02  0.1130116E+00
         25   -1    0    0    0    0  0.00000000000E+00  0.00000000000E+00  0.99999998245E-14  0.12500000000E+03  0.12500000000E+03 0.  0.
        -11    1    3    3    0    0  0.40395242016E+02 -0.28756707901E+02 -0.35634021938E+02  0.61061504621E+02  0.51100000000E-03 0. -1.
         23    2    1    0    0    0  0.15355738235E+02 -0.22034261873E+02 -0.14707674870E+02  0.94379368179E+02  0.89273971822E+02 0.  0.
         11    1    3    3    0    0 -0.25039503781E+02  0.67224460285E+01  0.20926347068E+02  0.33317863558E+02  0.51100000000E-03 0.  1.
         22    1    1    0    0    0 -0.15355738235E+02  0.22034261873E+02  0.14707674870E+02  0.30620631821E+02  0.00000000000E+00 0. -1.
</event>
<event>
 5    1  0.1094625E-009  0.9118800E+02  0.7818608E-02  0.1130116E+00
         25   -1    0    0    0    0  0.00000000000E+00  0.00000000000E+00  0.99999998245E-14  0.12500000000E+03  0.12500000000E+03 0.  0.
        -11    1    3    3    0    0 -0.62080065202E+01  0.35071802519E+02  0.27575290171E+02  0.45044059599E+02  0.51100000000E-03 0.  1.
         23    2    1    0    0    0  0.25089880069E+02  0.15764591595E+02 -0.59164782578E+01  0.94783627865E+02  0.89838226643E+02 0.  0.
         11    1    3    3    0    0  0.31297886589E+02 -0.19307210924E+02 -0.33491768429E+02  0.49739568267E+02  0.51100000000E-03 0. -1.
         22    1    1    0    0    0 -0.25089880069E+02 -0.15764591595E+02  0.59164782578E+01  0.30216372135E+02  0.00000000000E+00 0. -1.
</event>
<event>
 5    1  0.1094625E-009  0.9118800E+02  0.7818608E-02  0.1130116E+00
         25   -1    0    0    0    0  0.00000000000E+00  0.00000000000E+00  0.99999998245E-14  0.12500000000E+03  0.12500000000E+03 0.  0.
        -11    1    3    3    0    0 -0.17867681086E+02  0.21278848748E+02 -0.23391147249E+02  0.36320644286E+02  0.51100000000E-03 0.  1.
         23    2    1    0    0    0  0.30994736602E+02  0.76860513024E+01  0.19303609392E+01  0.93008198316E+02  0.87332981049E+02 0.  0.
         11    1    3    3    0    0  0.48862417688E+02 -0.13592797445E+02  0.25321508188E+02  0.56687554030E+02  0.51100000000E-03 0. -1.
         22    1    1    0    0    0 -0.30994736602E+02 -0.76860513024E+01 -0.19303609392E+01  0.31991801684E+02  0.00000000000E+00 0. -1.
</event>
<event>
 5    1  0.1094625E-009  0.9118800E+02  0.7818608E-02  0.1130116E+00
         25   -1    0    0    0    0  0.00000000000E+00  0.00000000000E+00  0.99999998245E-14  0.12500000000E+03  0.12500000000E+03 0.  0.
        -11    1    3    3    0    0  0.16107911551E+02  0.25779795910E+02 -0.43803721025E+02  0.53318183273E+02  0.51100000000E-03 0.  1.
         23    2    1    0    0    0  0.13214683800E+02  0.25304188906E+02 -0.77930793364E+00  0.96442388668E+02  0.92117301127E+02 0.  0.
         11    1    3    3    0    0 -0.28932277504E+01 -0.47560700377E+00  0.43024413091E+02  0.43124205395E+02  0.51100000000E-03 0. -1.
         22    1    1    0    0    0 -0.13214683800E+02 -0.25304188906E+02  0.77930793364E+00  0.28557611332E+02  0.00000000000E+00 0.  1.
</event>
<event>
 5    1  0.1094625E-009  0.9118800E+02  0.7818608E-02  0.1130116E+00
         25   -1    0    0    0    0  0.00000000000E+00  0.00000000000E+00  0.99999998245E-14  0.12500000000E+03  0.12500000000E+03 0.  0.
        -11    1    3    3    0    0 -0.31837210765E+02 -0.49996381248E+02 -0.48659654764E+01  0.59472041729E+02  0.51100000000E-03 0. -1.
         23    2    1    0    0    0 -0.75728662461E+01 -0.28307132719E+02  0.82461638341E+01  0.94559216765E+02  0.89525438794E+02 0.  0.
         11    1    3    3    0    0  0.24264344519E+02  0.21689248528E+02  0.13112129311E+02  0.35087175036E+02  0.51100000000E-03 0.  1.
         22    1    1    0    0    0  0.75728662461E+01  0.28307132719E+02 -0.82461638341E+01  0.30440783235E+02  0.00000000000E+00 0. -1.
</event>
<event>
 5    1  0.1094625E-009  0.9118800E+02  0.7818608E-02  0.1130116E+00
         25   -1    0    0    0    0  0.00000000000E+00  0.00000000000E+00  0.99999998245E-14  0.12500000000E+03  0.12500000000E+03 0.  0.
        -11    1    3    3    0    0 -0.44510813619E+02  0.41135023409E+02 -0.12807425614E+01  0.60621307984E+02  0.51100000000E-03 0.  1.
         23    2    1    0    0    0 -0.13658061911E+02  0.26916014247E+02 -0.32043417501E+01  0.94647367755E+02  0.89648435228E+02 0.  0.
         11    1    3    3    0    0  0.30852751708E+02 -0.14219009162E+02 -0.19235991887E+01  0.34026059772E+02  0.51100000000E-03 0. -1.
         22    1    1    0    0    0  0.13658061911E+02 -0.26916014247E+02  0.32043417501E+01  0.30352632245E+02  0.00000000000E+00 0.  1.
</event>
<event>
 5    1  0.1094625E-009  0.9118800E+02  0.7818608E-02  0.1130116E+00
         25   -1    0    0    0    0  0.00000000000E+00  0.00000000000E+00  0.99999998245E-14  0.12500000000E+03  0.12500000000E+03 0.  0.
        -11    1    3    3    0    0  0.21082751705E+02 -0.29384231837E+02 -0.23413244792E+01  0.36240823676E+02  0.51100000000E-03 0.  1.
         23    2    1    0    0    0 -0.14247640754E+02  0.70717775310E+01  0.26102453646E+02  0.94432968890E+02  0.89348991167E+02 0.  0.
         11    1    3    3    0    0 -0.35330392458E+02  0.36456009369E+02  0.28443778126E+02  0.58192145214E+02  0.51100000000E-03 0. -1.
         22    1    1    0    0    0  0.14247640754E+02 -0.70717775310E+01 -0.26102453646E+02  0.30567031110E+02  0.00000000000E+00 0. -1.
</event>
<event>
 5    1  0.1094625E-009  0.9118800E+02  0.7818608E-02  0.1130116E+00
         25   -1    0    0    0    0  0.00000000000E+00  0.00000000000E+00  0.99999998245E-14  0.12500000000E+03  0.12500000000E+03 0.  0.
        -11    1    3    3    0    0 -0.39017417989E+02  0.76839189523E+01 -0.66249762630E+01  0.40314908256E+02  0.51100000000E-03 0.  1.
         23    2    1    0    0    0 -0.20724306031E+01 -0.18150326625E+02  0.24017351069E+02  0.94824472207E+02  0.89895039083E+02 0.  0.
         11    1    3    3    0    0  0.36944987385E+02 -0.25834245578E+02  0.30642327332E+02  0.54509563951E+02  0.51100000000E-03 0. -1.
         22    1    1    0    0    0  0.20724306031E+01  0.18150326625E+02 -0.24017351069E+02  0.30175527793E+02  0.00000000000E+00 0. -1.
</event>
<event>
 5    1  0.1094625E-009  0.9118800E+02  0.7818608E-02  0.1130116E+00
         25   -1    0    0    0    0  0.00000000000E+00  0.00000000000E+00  0.99999998245E-14  0.12500000000E+03  0.12500000000E+03 0.  0.
        -11    1    3    3    0    0  0.23107448194E+02  0.37731352548E+01 -0.24533893906E+02  0.33913163553E+02  0.51100000000E-03 0.  1.
         23    2    1    0    0    0 -0.30937995576E+02 -0.45845923058E+00  0.14397817095E+01  0.94025127499E+02  0.88776584045E+02 0.  0.
         11    1    3    3    0    0 -0.54045443770E+02 -0.42315944854E+01  0.25973675616E+02  0.60111963946E+02  0.51100000000E-03 0. -1.
         22    1    1    0    0    0  0.30937995576E+02  0.45845923058E+00 -0.14397817095E+01  0.30974872501E+02  0.00000000000E+00 0. -1.
</event>
<event>
 5    1  0.1094625E-009  0.9118800E+02  0.7818608E-02  0.1130116E+00
         25   -1    0    0    0    0  0.00000000000E+00  0.00000000000E+00  0.99999998245E-14  0.12500000000E+03  0.12500000000E+03 0.  0.
        -11    1    3    3    0    0  0.43848688786E+02 -0.29451457745E+02  0.17607637531E+02  0.55678764096E+02  0.51100000000E-03 0. -1.
         23    2    1    0    0    0  0.69625869458E+01 -0.28095087216E+02  0.13164457432E+01  0.96025104452E+02  0.91549309735E+02 0.  0.
         11    1    3    3    0    0 -0.36886101840E+02  0.13563705292E+01 -0.16291191788E+02  0.40346340356E+02  0.51100000000E-03 0.  1.
         22    1    1    0    0    0 -0.69625869458E+01  0.28095087216E+02 -0.13164457432E+01  0.28974895548E+02  0.00000000000E+00 0. -1.
</event>
<event>
 5    1  0.1094625E-009  0.9118800E+02  0.7818608E-02  0.1130116E+00
         25   -1    0    0    0    0  0.00000000000E+00  0.00000000000E+00  0.99999998245E-14  0.12500000000E+03  0.12500000000E+03 0.  0.
        -11    1    3    3    0    0 -0.20039704991E+02 -0.24979877572E+02  0.33411908929E+02  0.46281094609E+02  0.51100000000E-03 0. -1.
         23    2    1    0    0    0 -0.13247836885E+02  0.20685243781E+02  0.16310509023E+02  0.95514118683E+02  0.90848938744E+02 0.  0.
         11    1    3    3    0    0  0.67918681055E+01  0.45665121353E+02 -0.17101399905E+02  0.49233024075E+02  0.51100000000E-03 0.  1.
         22    1    1    0    0    0  0.13247836885E+02 -0.20685243781E+02 -0.16310509023E+02  0.29485881317E+02  0.00000000000E+00 0. -1.
</event>
<event>
 5    1  0.1094625E-009  0.9118800E+02  0.7818608E-02  0.1130116E+00
         25   -1    0    0    0    0  0.00000000000E+00  0.00000000000E+00  0.99999998245E-14  0.12500000000E+03  0.12500000000E+03 0.  0.
        -11    1    3    3    0    0  0.18640031312E+02  0.96755888456E+01 -0.44333048659E+02  0.49055957747E+02  0.51100000000E-03 0.  1.
         23    2    1    0    0    0  0.10109939649E+02  0.28187900784E+02 -0.33001679671E+01  0.94872608162E+02  0.89961947736E+02 0.  0.
         11    1    3    3    0    0 -0.85300916625E+01  0.18512311939E+02  0.41032880692E+02  0.45816650415E+02  0.51100000000E-03 0. -1.
         22    1    1    0    0    0 -0.10109939649E+02 -0.28187900784E+02  0.33001679671E+01  0.30127391838E+02  0.00000000000E+00 0.  1.
</event>
<event>
 5    1  0.1094625E-009  0.9118800E+02  0.7818608E-02  0.1130116E+00
         25   -1    0    0    0    0  0.00000000000E+00  0.00000000000E+00  0.99999998245E-14  0.12500000000E+03  0.12500000000E+03 0.  0.
        -11    1    3    3    0    0  0.39726715270E+02  0.14551553434E+02  0.31038913784E+02  0.52472600304E+02  0.51100000000E-03 0. -1.
         23    2    1    0    0    0  0.24275473499E+02  0.17037942202E+02 -0.77894525730E+01  0.94336248444E+02  0.89213575822E+02 0.  0.
         11    1    3    3    0    0 -0.15451241771E+02  0.24863887678E+01 -0.38828366357E+02  0.41863648140E+02  0.51100000000E-03 0.  1.
         22    1    1    0    0    0 -0.24275473499E+02 -0.17037942202E+02  0.77894525730E+01  0.30663751556E+02  0.00000000000E+00 0. -1.
</event>
<event>
 5    1  0.1094625E-009  0.9118800E+02  0.7818608E-02  0.1130116E+00
         25   -1    0    0    0    0  0.00000000000E+00  0.00000000000E+00  0.99999998245E-14  0.12500000000E+03  0.12500000000E+03 0.  0.
        -11    1    3    3    0    0 -0.34185900105E+02 -0.22802627771E+02 -0.13886293280E+02  0.43375854350E+02  0.51100000000E-03 0. -1.
         23    2    1    0    0    0  0.69069751508E+01 -0.23886365654E+02  0.17073546852E+02  0.94837593398E+02  0.89913282387E+02 0.  0.
         11    1    3    3    0    0  0.41092875256E+02 -0.10837378831E+01  0.30959840133E+02  0.51461739049E+02  0.51100000000E-03 0.  1.
         22    1    1    0    0    0 -0.69069751508E+01  0.23886365654E+02 -0.17073546852E+02  0.30162406602E+02  0.00000000000E+00 0.  1.
</event>
<event>
 5    1  0.1094625E-009  0.9118800E+02  0.7818608E-02  0.1130116E+00
         25   -1    0    0    0    0  0.00000000000E+00  0.00000000000E+00  0.99999998245E-14  0.12500000000E+03  0.12500000000E+03 0.  0.
        -11    1    3    3    0    0 -0.35087757256E+02  0.65930770081E+01  0.11407480329E+02  0.37479994416E+02  0.51100000000E-03 0.  1.
         23    2    1    0    0    0  0.22792007267E+02  0.81140188331E+01  0.16671977716E+02  0.95618581759E+02  0.90992557057E+02 0.  0.
         11    1    3    3    0    0  0.57879764523E+02  0.15209418250E+01  0.52644973865E+01  0.58138587343E+02  0.51100000000E-03 0. -1.
         22    1    1    0    0    0 -0.22792007267E+02 -0.81140188331E+01 -0.16671977716E+02  0.29381418241E+02  0.00000000000E+00 0. -1.
</event>
<event>
 5    1  0.1094625E-009  0.9118800E+02  0.7818608E-02  0.1130116E+00
         25   -1    0    0    0    0  0.00000000000E+00  0.00000000000E+00  0.99999998245E-14  0.12500000000E+03  0.12500000000E+03 0.  0.
        -11    1    3    3    0    0  0.27401310218E+02  0.33572863746E+02 -0.10374422304E+02  0.44560045110E+02  0.51100000000E-03 0.  1.
         23    2    1    0    0    0 -0.17463890737E+02  0.11040302483E+02 -0.20630507947E+02  0.95802506670E+02  0.91244872007E+02 0.  0.
         11    1    3    3    0    0 -0.44865200955E+02 -0.22532561263E+02 -0.10256085643E+02  0.51242461561E+02  0.51100000000E-03 0. -1.
         22    1    1    0    0    0  0.17463890737E+02 -0.11040302483E+02  0.20630507947E+02  0.29197493330E+02  0.00000000000E+00 0.  1.
</event>
<event>
 5    1  0.1094625E-009  0.9118800E+02  0.7818608E-02  0.1130116E+00
         25   -1    0    0    0    0  0.00000000000E+00  0.00000000000E+00  0.99999998245E-14  0.12500000000E+03  0.12500000000E+03 0.  0.
        -11    1    3    3    0    0  0.41194006277E+02 -0.21653300997E+01  0.35447748873E+02  0.54389132260E+02  0.51100000000E-03 0.  1.
         23    2    1    0    0    0  0.10880993401E+02  0.20421016843E+02  0.15686142881E+02  0.97045232521E+02  0.92931739090E+02 0.  0.
         11    1    3    3    0    0 -0.30313012876E+02  0.22586346943E+02 -0.19761605992E+02  0.42656100261E+02  0.51100000000E-03 0. -1.
         22    1    1    0    0    0 -0.10880993401E+02 -0.20421016843E+02 -0.15686142881E+02  0.27954767479E+02  0.00000000000E+00 0.  1.
</event>
<event>
 5    1  0.1094625E-009  0.9118800E+02  0.7818608E-02  0.1130116E+00
         25   -1    0    0    0    0  0.00000000000E+00  0.00000000000E+00  0.99999998245E-14  0.12500000000E+03  0.12500000000E+03 0.  0.
        -11    1    3    3    0    0 -0.16767278759E+02  0.26676608313E+02  0.13589744788E+02  0.34314198690E+02  0.51100000000E-03 0.  1.
         23    2    1    0    0    0  0.20719573932E+02 -0.13612054187E+02 -0.14686978237E+02  0.96185141110E+02  0.91767561140E+02 0.  0.
         11    1    3    3    0    0  0.37486852690E+02 -0.40288662500E+02 -0.28276723025E+02  0.61870942420E+02  0.51100000000E-03 0. -1.
         22    1    1    0    0    0 -0.20719573932E+02  0.13612054187E+02  0.14686978237E+02  0.28814858890E+02  0.00000000000E+00 0. -1.
</event>
<event>
 5    1  0.1094625E-009  0.9118800E+02  0.7818608E-02  0.1130116E+00
         25   -1    0    0    0    0  0.00000000000E+00  0.00000000000E+00  0.99999998245E-14  0.12500000000E+03  0.12500000000E+03 0.  0.
        -11    1    3    3    0    0 -0.26750519323E+02  0.27137298733E+02  0.35638595055E+02  0.52174061796E+02  0.51100000000E-03 0. -1.
         23    2    1    0    0    0 -0.28393550551E+02 -0.39132202310E+01  0.48529053185E+01  0.95930123917E+02  0.91419532810E+02 0.  0.
         11    1    3    3    0    0 -0.16430312282E+01 -0.31050518964E+02 -0.30785689736E+02  0.43756062121E+02  0.51100000000E-03 0.  1.
         22    1    1    0    0    0  0.28393550551E+02  0.39132202310E+01 -0.48529053185E+01  0.29069876083E+02  0.00000000000E+00 0. -1.
</event>
<event>
 5    1  0.1094625E-009  0.9118800E+02  0.7818608E-02  0.1130116E+00
         25   -1    0    0    0    0  0.00000000000E+00  0.00000000000E+00  0.99999998245E-14  0.12500000000E+03  0.12500000000E+03 0.  0.
        -11    1    3    3    0    0  0.24270589765E+02 -0.51510754132E+02  0.21277815511E+02  0.60787866816E+02  0.51100000000E-03 0. -1.
         23    2    1    0    0    0  0.12652491464E+02 -0.27611673739E+02  0.32900971276E+00  0.94625696480E+02  0.89618213104E+02 0.  0.
         11    1    3    3    0    0 -0.11618098301E+02  0.23899080393E+02 -0.20948805799E+02  0.33837829664E+02  0.51100000000E-03 0.  1.
         22    1    1    0    0    0 -0.12652491464E+02  0.27611673739E+02 -0.32900971276E+00  0.30374303520E+02  0.00000000000E+00 0. -1.
</event>
<event>
 5    1  0.1094625E-009  0.9118800E+02  0.7818608E-02  0.1130116E+00
         25   -1    0    0    0    0  0.00000000000E+00  0.00000000000E+00  0.99999998245E-14  0.12500000000E+03  0.12500000000E+03 0.  0.
        -11    1    3    3    0    0  0.70204250451E+01  0.28373290504E+02  0.15560637321E+02  0.33112888970E+02  0.51100000000E-03 0. -1.
         23    2    1    0    0    0 -0.10716100797E+02 -0.19302273187E+02 -0.20025974460E+02  0.95193084367E+02  0.90406145210E+02 0.  0.
         11    1    3    3    0    0 -0.17736525842E+02 -0.47675563691E+02 -0.35586611781E+02  0.62080195397E+02  0.51100000000E-03 0.  1.
         22    1    1    0    0    0  0.10716100797E+02  0.19302273187E+02  0.20025974460E+02  0.29806915633E+02  0.00000000000E+00 0.  1.
</event>
<event>
 5    1  0.1094625E-009  0.9118800E+02  0.7818608E-02  0.1130116E+00
         25   -1    0    0    0    0  0.00000000000E+00  0.00000000000E+00  0.99999998245E-14  0.12500000000E+03  0.12500000000E+03 0.  0.
        -11    1    3    3    0    0 -0.44247816630E+02 -0.11258343323E+01 -0.41757778515E+02  0.60851038169E+02  0.51100000000E-03 0.  1.
         23    2    1    0    0    0 -0.26402726275E+02 -0.63664454625E+01 -0.13525226359E+02  0.94659147496E+02  0.89664858635E+02 0.  0.
         11    1    3    3    0    0  0.17845090355E+02 -0.52406111302E+01  0.28232552156E+02  0.33808109327E+02  0.51100000000E-03 0. -1.
         22    1    1    0    0    0  0.26402726275E+02  0.63664454625E+01  0.13525226359E+02  0.30340852504E+02  0.00000000000E+00 0.  1.
</event>
<event>
 5    1  0.1094625E-009  0.9118800E+02  0.7818608E-02  0.1130116E+00
         25   -1    0    0    0    0  0.00000000000E+00  0.00000000000E+00  0.99999998245E-14  0.12500000000E+03  0.12500000000E+03 0.  0.
        -11    1    3    3    0    0 -0.40492277408E+02  0.34508256730E+02  0.87625875240E+01  0.53918709671E+02  0.51100000000E-03 0.  1.
         23    2    1    0    0    0 -0.43027133464E+00  0.20296342059E+02  0.18506910532E+02  0.97529427166E+02  0.93580750112E+02 0.  0.
         11    1    3    3    0    0  0.40062006074E+02 -0.14211914671E+02  0.97443230078E+01  0.43610717495E+02  0.51100000000E-03 0. -1.
         22    1    1    0    0    0  0.43027133464E+00 -0.20296342059E+02 -0.18506910532E+02  0.27470572834E+02  0.00000000000E+00 0.  1.
</event>
<event>
 5    1  0.1094625E-009  0.9118800E+02  0.7818608E-02  0.1130116E+00
         25   -1    0    0    0    0  0.00000000000E+00  0.00000000000E+00  0.99999998245E-14  0.12500000000E+03  0.12500000000E+03 0.  0.
        -11    1    3    3    0    0 -0.30672562755E+02  0.18386925807E+02 -0.46714893481E+02  0.58831678709E+02  0.51100000000E-03 0.  1.
         23    2    1    0    0    0 -0.10715171527E+02 -0.52395686677E+01 -0.26931706862E+02  0.95545207263E+02  0.90891703778E+02 0.  0.
         11    1    3    3    0    0  0.19957391228E+02 -0.23626494475E+02  0.19783186618E+02  0.36713528553E+02  0.51100000000E-03 0. -1.
         22    1    1    0    0    0  0.10715171527E+02  0.52395686677E+01  0.26931706862E+02  0.29454792737E+02  0.00000000000E+00 0.  1.
</event>
<event>
 5    1  0.1094625E-009  0.9118800E+02  0.7818608E-02  0.1130116E+00
         25   -1    0    0    0    0  0.00000000000E+00  0.00000000000E+00  0.99999998245E-14  0.12500000000E+03  0.12500000000E+03 0.  0.
        -11    1    3    3    0    0 -0.23907159041E+02 -0.25358062573E+02  0.36463394194E+02  0.50439693767E+02  0.51100000000E-03 0.  1.
         23    2    1    0    0    0 -0.11852989405E+01  0.10043344251E+02  0.30426815667E+02  0.92936550264E+02  0.87230370663E+02 0.  0.
         11    1    3    3    0    0  0.22721860101E+02  0.35401406824E+02 -0.60365785264E+01  0.42496856497E+02  0.51100000000E-03 0. -1.
         22    1    1    0    0    0  0.11852989405E+01 -0.10043344251E+02 -0.30426815667E+02  0.32063449736E+02  0.00000000000E+00 0.  1.
</event>
<event>
 5    1  0.1094625E-009  0.9118800E+02  0.7818608E-02  0.1130116E+00
         25   -1    0    0    0    0  0.00000000000E+00  0.00000000000E+00  0.99999998245E-14  0.12500000000E+03  0.12500000000E+03 0.  0.
        -11    1    3    3    0    0 -0.33982204794E+02 -0.22461650933E+01  0.50787418898E+02  0.61148977252E+02  0.51100000000E-03 0.  1.
         23    2    1    0    0    0 -0.18298983635E+02  0.76570420964E+01  0.22175160231E+02  0.95247339161E+02  0.90481129470E+02 0.  0.
         11    1    3    3    0    0  0.15683221159E+02  0.99032071897E+01 -0.28612258668E+02  0.34098361909E+02  0.51100000000E-03 0. -1.
         22    1    1    0    0    0  0.18298983635E+02 -0.76570420964E+01 -0.22175160231E+02  0.29752660839E+02  0.00000000000E+00 0.  1.
</event>
<event>
 5    1  0.1094625E-009  0.9118800E+02  0.7818608E-02  0.1130116E+00
         25   -1    0    0    0    0  0.00000000000E+00  0.00000000000E+00  0.99999998245E-14  0.12500000000E+03  0.12500000000E+03 0.  0.
        -11    1    3    3    0    0 -0.13346296139E+02 -0.43827726429E+02 -0.40686177129E+02  0.61272818070E+02  0.51100000000E-03 0. -1.
         23    2    1    0    0    0 -0.34089036055E+01 -0.14835246621E+02 -0.25071125170E+02  0.95669700250E+02  0.91062753432E+02 0.  0.
         11    1    3    3    0    0  0.99373925335E+01  0.28992479808E+02  0.15615051959E+02  0.34396882180E+02  0.51100000000E-03 0.  1.
         22    1    1    0    0    0  0.34089036055E+01  0.14835246621E+02  0.25071125170E+02  0.29330299750E+02  0.00000000000E+00 0. -1.
</event>
<event>
 5    1  0.1094625E-009  0.9118800E+02  0.7818608E-02  0.1130116E+00
         25   -1    0    0    0    0  0.00000000000E+00  0.00000000000E+00  0.99999998245E-14  0.12500000000E+03  0.12500000000E+03 0.  0.
        -11    1    3    3    0    0 -0.24019657808E+02 -0.26221221923E+02 -0.21209140061E+02  0.41404396660E+02  0.51100000000E-03 0.  1.
         23    2    1    0    0    0  0.10358453046E+02 -0.20450753376E+02  0.19432286778E+02  0.94947635158E+02  0.90066135643E+02 0.  0.
         11    1    3    3    0    0  0.34378110854E+02  0.57704685468E+01  0.40641426839E+02  0.53543238499E+02  0.51100000000E-03 0. -1.
         22    1    1    0    0    0 -0.10358453046E+02  0.20450753376E+02 -0.19432286778E+02  0.30052364842E+02  0.00000000000E+00 0. -1.
</event>
<event>
 5    1  0.1094625E-009  0.9118800E+02  0.7818608E-02  0.1130116E+00
         25   -1    0    0    0    0  0.00000000000E+00  0.00000000000E+00  0.99999998245E-14  0.12500000000E+03  0.12500000000E+03 0.  0.
        -11    1    3    3    0    0 -0.14683289872E+02 -0.16136349599E+02  0.42042286467E+02  0.47365964906E+02  0.51100000000E-03 0. -1.
         23    2    1    0    0    0  0.71885756998E+01  0.20299102344E+02  0.21512623873E+02  0.94561173438E+02  0.89528170760E+02 0.  0.
         11    1    3    3    0    0  0.21871865571E+02  0.36435451943E+02 -0.20529662595E+02  0.47195208532E+02  0.51100000000E-03 0.  1.
         22    1    1    0    0    0 -0.71885756998E+01 -0.20299102344E+02 -0.21512623873E+02  0.30438826562E+02  0.00000000000E+00 0. -1.
</event>
<event>
 5    1  0.1094625E-009  0.9118800E+02  0.7818608E-02  0.1130116E+00
         25   -1    0    0    0    0  0.00000000000E+00  0.00000000000E+00  0.99999998245E-14  0.12500000000E+03  0.12500000000E+03 0.  0.
        -11    1    3    3    0    0 -0.22082376982E+02 -0.43215875286E+01 -0.40878663436E+02  0.46662325452E+02  0.51100000000E-03 0. -1.
         23    2    1    0    0    0  0.21785197009E+02 -0.62828946896E+00 -0.20138105385E+02  0.95326226313E+02  0.90590046794E+02 0.  0.
         11    1    3    3    0    0  0.43867573991E+02  0.36932980596E+01  0.20740558052E+02  0.48663900861E+02  0.51100000000E-03 0.  1.
         22    1    1    0    0    0 -0.21785197009E+02  0.62828946896E+00  0.20138105385E+02  0.29673773687E+02  0.00000000000E+00 0. -1.
</event>
<event>
 5    1  0.1094625E-009  0.9118800E+02  0.7818608E-02  0.1130116E+00
         25   -1    0    0    0    0  0.00000000000E+00  0.00000000000E+00  0.99999998245E-14  0.12500000000E+03  0.12500000000E+03 0.  0.
        -11    1    3    3    0    0  0.20641751232E+02 -0.28905537518E+02 -0.10523356402E+02  0.37045283416E+02  0.51100000000E-03 0. -1.
         23    2    1    0    0    0 -0.21073231857E+02  0.18116320345E+01  0.18910965989E+02  0.96627694028E+02  0.92368411846E+02 0.  0.
         11    1    3    3    0    0 -0.41714983089E+02  0.30717169552E+02  0.29434322391E+02  0.59582410612E+02  0.51100000000E-03 0.  1.
         22    1    1    0    0    0  0.21073231857E+02 -0.18116320345E+01 -0.18910965989E+02  0.28372305972E+02  0.00000000000E+00 0.  1.
</event>
<event>
 5    1  0.1094625E-009  0.9118800E+02  0.7818608E-02  0.1130116E+00
         25   -1    0    0    0    0  0.00000000000E+00  0.00000000000E+00  0.99999998245E-14  0.12500000000E+03  0.12500000000E+03 0.  0.
        -11    1    3    3    0    0 -0.34875749027E+02  0.44515299255E+02 -0.17505963246E+02  0.59197875700E+02  0.51100000000E-03 0.  1.
         23    2    1    0    0    0 -0.12575346810E+02  0.16795288866E+02 -0.21452432178E+02  0.94992868817E+02  0.90128892172E+02 0.  0.
         11    1    3    3    0    0  0.22300402217E+02 -0.27720010389E+02 -0.39464689316E+01  0.35794993117E+02  0.51100000000E-03 0. -1.
         22    1    1    0    0    0  0.12575346810E+02 -0.16795288866E+02  0.21452432178E+02  0.30007131183E+02  0.00000000000E+00 0.  1.
</event>
<event>
 5    1  0.1094625E-009  0.9118800E+02  0.7818608E-02  0.1130116E+00
         25   -1    0    0    0    0  0.00000000000E+00  0.00000000000E+00  0.99999998245E-14  0.12500000000E+03  0.12500000000E+03 0.  0.
        -11    1    3    3    0    0 -0.15405436327E+02  0.98970623038E+01 -0.43689055933E+02  0.47371013492E+02  0.51100000000E-03 0. -1.
         23    2    1    0    0    0  0.19740480494E+02 -0.11664197593E+02 -0.16138543152E+02  0.96960872861E+02  0.92818199807E+02 0.  0.
         11    1    3    3    0    0  0.35145916821E+02 -0.21561259897E+02  0.27550512781E+02  0.49589859370E+02  0.51100000000E-03 0.  1.
         22    1    1    0    0    0 -0.19740480494E+02  0.11664197593E+02  0.16138543152E+02  0.28039127139E+02  0.00000000000E+00 0.  1.
</event>
<event>
 5    1  0.1094625E-009  0.9118800E+02  0.7818608E-02  0.1130116E+00
         25   -1    0    0    0    0  0.00000000000E+00  0.00000000000E+00  0.99999998245E-14  0.12500000000E+03  0.12500000000E+03 0.  0.
        -11    1    3    3    0    0 -0.31644479733E+02 -0.15736258179E+02  0.32935257648E+02  0.48308737467E+02  0.51100000000E-03 0. -1.
         23    2    1    0    0    0  0.12570689330E+02 -0.20545280257E+02  0.16855148562E+02  0.95602265323E+02  0.90970139776E+02 0.  0.
         11    1    3    3    0    0  0.44215169063E+02 -0.48090220775E+01 -0.16080109086E+02  0.47293527856E+02  0.51100000000E-03 0.  1.
         22    1    1    0    0    0 -0.12570689330E+02  0.20545280257E+02 -0.16855148562E+02  0.29397734677E+02  0.00000000000E+00 0. -1.
</event>
<event>
 5    1  0.1094625E-009  0.9118800E+02  0.7818608E-02  0.1130116E+00
         25   -1    0    0    0    0  0.00000000000E+00  0.00000000000E+00  0.99999998245E-14  0.12500000000E+03  0.12500000000E+03 0.  0.
        -11    1    3    3    0    0  0.10973161381E+02 -0.29012865664E+02 -0.19044720058E+02  0.36398598971E+02  0.51100000000E-03 0. -1.
         23    2    1    0    0    0  0.76481577714E+01 -0.30798627409E+01  0.31032848494E+02  0.92890537883E+02  0.87164410574E+02 0.  0.
         11    1    3    3    0    0 -0.33250036099E+01  0.25933002923E+02  0.50077568552E+02  0.56491938911E+02  0.51100000000E-03 0.  1.
         22    1    1    0    0    0 -0.76481577714E+01  0.30798627409E+01 -0.31032848494E+02  0.32109462117E+02  0.00000000000E+00 0.  1.
</event>
<event>
 5    1  0.1094625E-009  0.9118800E+02  0.7818608E-02  0.1130116E+00
         25   -1    0    0    0    0  0.00000000000E+00  0.00000000000E+00  0.99999998245E-14  0.12500000000E+03  0.12500000000E+03 0.  0.
        -11    1    3    3    0    0  0.22064725186E+02  0.26370441174E+02  0.17175599343E+02  0.38435055331E+02  0.51100000000E-03 0.  1.
         23    2    1    0    0    0 -0.78208482800E+01  0.72477950246E+01 -0.27511561090E+02  0.95494370128E+02  0.90821762436E+02 0.  0.
         11    1    3    3    0    0 -0.29885573466E+02 -0.19122646150E+02 -0.44687160434E+02  0.57059314796E+02  0.51100000000E-03 0. -1.
         22    1    1    0    0    0  0.78208482800E+01 -0.72477950246E+01  0.27511561090E+02  0.29505629872E+02  0.00000000000E+00 0. -1.
</event>
<event>
 5    1  0.1094625E-009  0.9118800E+02  0.7818608E-02  0.1130116E+00
         25   -1    0    0    0    0  0.00000000000E+00  0.00000000000E+00  0.99999998245E-14  0.12500000000E+03  0.12500000000E+03 0.  0.
        -11    1    3    3    0    0  0.19346950784E+02 -0.41194697475E+02 -0.40215267227E+02  0.60733642433E+02  0.51100000000E-03 0.  1.
         23    2    1    0    0    0  0.98879261173E+01 -0.11782815912E+02 -0.26108187503E+02  0.94697470594E+02  0.89718268198E+02 0.  0.
         11    1    3    3    0    0 -0.94590246671E+01  0.29411881563E+02  0.14107079725E+02  0.33963828161E+02  0.51100000000E-03 0. -1.
         22    1    1    0    0    0 -0.98879261173E+01  0.11782815912E+02  0.26108187503E+02  0.30302529406E+02  0.00000000000E+00 0.  1.
</event>
<event>
 5    1  0.1094625E-009  0.9118800E+02  0.7818608E-02  0.1130116E+00
         25   -1    0    0    0    0  0.00000000000E+00  0.00000000000E+00  0.99999998245E-14  0.12500000000E+03  0.12500000000E+03 0.  0.
        -11    1    3    3    0    0 -0.33678982808E+02  0.12895597682E+02  0.29508286089E+02  0.46597309694E+02  0.51100000000E-03 0. -1.
         23    2    1    0    0    0 -0.86707803155E+01  0.22993956150E+02 -0.13197130364E+02  0.97106117148E+02  0.93013597323E+02 0.  0.
         11    1    3    3    0    0  0.25008202492E+02  0.10098358468E+02 -0.42705416453E+02  0.50508807453E+02  0.51100000000E-03 0.  1.
         22    1    1    0    0    0  0.86707803155E+01 -0.22993956150E+02  0.13197130364E+02  0.27893882852E+02  0.00000000000E+00 0.  1.
</event>
<event>
 5    1  0.1094625E-009  0.9118800E+02  0.7818608E-02  0.1130116E+00
         25   -1    0    0    0    0  0.00000000000E+00  0.00000000000E+00  0.99999998245E-14  0.12500000000E+03  0.12500000000E+03 0.  0.
        -11    1    3    3    0    0  0.23130247779E+02 -0.18985371185E+02  0.14236161567E+02  0.33137908470E+02  0.51100000000E-03 0.  1.
         23    2    1    0    0    0 -0.16810405682E+02  0.70238864465E+01 -0.24438633002E+02  0.94517685406E+02  0.89467431792E+02 0.  0.
         11    1    3    3    0    0 -0.39940653461E+02  0.26009257631E+02 -0.38674794569E+02  0.61379776936E+02  0.51100000000E-03 0. -1.
         22    1    1    0    0    0  0.16810405682E+02 -0.70238864465E+01  0.24438633002E+02  0.30482314594E+02  0.00000000000E+00 0. -1.
</event>
<event>
 5    1  0.1094625E-009  0.9118800E+02  0.7818608E-02  0.1130116E+00
         25   -1    0    0    0    0  0.00000000000E+00  0.00000000000E+00  0.99999998245E-14  0.12500000000E+03  0.12500000000E+03 0.  0.
        -11    1    3    3    0    0  0.43029015587E+02 -0.78661674560E+01 -0.39249215792E+02  0.58769666610E+02  0.51100000000E-03 0. -1.
         23    2    1    0    0    0  0.15585802747E+02  0.10133489582E+02 -0.23103728819E+02  0.95345537541E+02  0.90616689330E+02 0.  0.
         11    1    3    3    0    0 -0.27443212840E+02  0.17999657038E+02  0.16145486973E+02  0.36575870931E+02  0.51100000000E-03 0.  1.
         22    1    1    0    0    0 -0.15585802747E+02 -0.10133489582E+02  0.23103728819E+02  0.29654462459E+02  0.00000000000E+00 0. -1.
</event>
<event>
 5    1  0.1094625E-009  0.9118800E+02  0.7818608E-02  0.1130116E+00
         25   -1    0    0    0    0  0.00000000000E+00  0.00000000000E+00  0.99999998245E-14  0.12500000000E+03  0.12500000000E+03 0.  0.
        -11    1    3    3    0    0  0.26396802220E+02 -0.14472863227E+02 -0.12744231675E+02  0.32690524295E+02  0.51100000000E-03 0.  1.
         23    2    1    0    0    0 -0.46124029006E+01 -0.40608437850E+02 -0.27382033083E+02  0.75805536685E+02  0.57674814011E+02 0.  0.
         11    1    3    3    0    0 -0.31009205120E+02 -0.26135574623E+02 -0.14637801408E+02  0.43115012390E+02  0.51100000000E-03 0. -1.
         22    1    1    0    0    0  0.46124029006E+01  0.40608437850E+02  0.27382033083E+02  0.49194463315E+02  0.00000000000E+00 0. -1.
</event>
<event>
 5    1  0.1094625E-009  0.9118800E+02  0.7818608E-02  0.1130116E+00
         25   -1    0    0    0    0  0.00000000000E+00  0.00000000000E+00  0.99999998245E-14  0.12500000000E+03  0.12500000000E+03 0.  0.
        -11    1    3    3    0    0  0.20527789699E+02  0.13297463310E+02  0.37934011831E+02  0.45135373426E+02  0.51100000000E-03 0.  1.
         23    2    1    0    0    0 -0.22797868158E+02 -0.33597832911E+01  0.18465550816E+02  0.95470226834E+02  0.90788527406E+02 0.  0.
         11    1    3    3    0    0 -0.43325657857E+02 -0.16657246601E+02 -0.19468461015E+02  0.50334853408E+02  0.51100000000E-03 0. -1.
         22    1    1    0    0    0  0.22797868158E+02  0.33597832911E+01 -0.18465550816E+02  0.29529773166E+02  0.00000000000E+00 0. -1.
</event>
<event>
 5    1  0.1094625E-009  0.9118800E+02  0.7818608E-02  0.1130116E+00
         25   -1    0    0    0    0  0.00000000000E+00  0.00000000000E+00  0.99999998245E-14  0.12500000000E+03  0.12500000000E+03 0.  0.
        -11    1    3    3    0    0 -0.35129014860E+02  0.45604539129E+01 -0.19719840397E+01  0.35478643523E+02  0.51100000000E-03 0. -1.
         23    2    1    0    0    0  0.16568742811E+02 -0.21819632207E+02  0.11863554010E+02  0.95144288624E+02  0.90338652614E+02 0.  0.
         11    1    3    3    0    0  0.51697757671E+02 -0.26380086120E+02  0.13835538050E+02  0.59665645101E+02  0.51100000000E-03 0.  1.
         22    1    1    0    0    0 -0.16568742811E+02  0.21819632207E+02 -0.11863554010E+02  0.29855711376E+02  0.00000000000E+00 0.  1.
</event>
<event>
 5    1  0.1094625E-009  0.9118800E+02  0.7818608E-02  0.1130116E+00
         25   -1    0    0    0    0  0.00000000000E+00  0.00000000000E+00  0.99999998245E-14  0.12500000000E+03  0.12500000000E+03 0.  0.
        -11    1    3    3    0    0  0.44043029127E+02  0.68919222061E+01  0.28768492504E+02  0.53055755273E+02  0.51100000000E-03 0.  1.
         23    2    1    0    0    0  0.17887936360E+02  0.10720145717E+01 -0.13126586004E+02  0.10278660894E+03  0.10035762170E+03 0.  0.
         11    1    3    3    0    0 -0.26155092767E+02 -0.58199076345E+01 -0.41895078508E+02  0.49730853662E+02  0.51100000000E-03 0. -1.
         22    1    1    0    0    0 -0.17887936360E+02 -0.10720145717E+01  0.13126586004E+02  0.22213391064E+02  0.00000000000E+00 0. -1.
</event>
<event>
 5    1  0.1094625E-009  0.9118800E+02  0.7818608E-02  0.1130116E+00
         25   -1    0    0    0    0  0.00000000000E+00  0.00000000000E+00  0.99999998245E-14  0.12500000000E+03  0.12500000000E+03 0.  0.
        -11    1    3    3    0    0 -0.21293095105E+02  0.18595523338E+02 -0.55228441628E+02  0.62043292565E+02  0.51100000000E-03 0. -1.
         23    2    1    0    0    0 -0.13260145134E+02  0.11299313110E+02 -0.22375441988E+02  0.96642173392E+02  0.92388004352E+02 0.  0.
         11    1    3    3    0    0  0.80329499705E+01 -0.72962102279E+01  0.32852999640E+02  0.34598880828E+02  0.51100000000E-03 0.  1.
         22    1    1    0    0    0  0.13260145134E+02 -0.11299313110E+02  0.22375441988E+02  0.28357826608E+02  0.00000000000E+00 0. -1.
</event>
<event>
 5    1  0.1094625E-009  0.9118800E+02  0.7818608E-02  0.1130116E+00
         25   -1    0    0    0    0  0.00000000000E+00  0.00000000000E+00  0.99999998245E-14  0.12500000000E+03  0.12500000000E+03 0.  0.
        -11    1    3    3    0    0  0.56285473188E+01 -0.34291596911E+02  0.13328896783E+02  0.37218995867E+02  0.51100000000E-03 0. -1.
         23    2    1    0    0    0  0.80786232948E+01  0.24915851028E+02 -0.28675990295E+01  0.98650675322E+02  0.95066654672E+02 0.  0.
         11    1    3    3    0    0  0.24500759760E+01  0.59207447939E+02 -0.16196495813E+02  0.61431679455E+02  0.51100000000E-03 0.  1.
         22    1    1    0    0    0 -0.80786232948E+01 -0.24915851028E+02  0.28675990295E+01  0.26349324678E+02  0.00000000000E+00 0.  1.
</event>
<event>
 5    1  0.1094625E-009  0.9118800E+02  0.7818608E-02  0.1130116E+00
         25   -1    0    0    0    0  0.00000000000E+00  0.00000000000E+00  0.99999998245E-14  0.12500000000E+03  0.12500000000E+03 0.  0.
        -11    1    3    3    0    0  0.20407911837E+02 -0.26816231516E+02  0.52631007137E+02  0.62494928200E+02  0.51100000000E-03 0. -1.
         23    2    1    0    0    0  0.10261643465E+02 -0.14268480041E+02  0.27996283285E+02  0.91944248200E+02  0.85796631927E+02 0.  0.
         11    1    3    3    0    0 -0.10146268371E+02  0.12547751475E+02 -0.24634723852E+02  0.29449320000E+02  0.51100000000E-03 0.  1.
         22    1    1    0    0    0 -0.10261643465E+02  0.14268480041E+02 -0.27996283285E+02  0.33055751800E+02  0.00000000000E+00 0. -1.
</event>
<event>
 5    1  0.1094625E-009  0.9118800E+02  0.7818608E-02  0.1130116E+00
         25   -1    0    0    0    0  0.00000000000E+00  0.00000000000E+00  0.99999998245E-14  0.12500000000E+03  0.12500000000E+03 0.  0.
        -11    1    3    3    0    0  0.80297469772E+00  0.48831987846E+01 -0.50315995968E+02  0.50558776184E+02  0.51100000000E-03 0.  1.
         23    2    1    0    0    0  0.24036901503E+02 -0.57676703116E+01 -0.99132963632E+01  0.98367086162E+02  0.94693038501E+02 0.  0.
         11    1    3    3    0    0  0.23233926806E+02 -0.10650869096E+02  0.40402699605E+02  0.47808309978E+02  0.51100000000E-03 0. -1.
         22    1    1    0    0    0 -0.24036901503E+02  0.57676703116E+01  0.99132963632E+01  0.26632913838E+02  0.00000000000E+00 0. -1.
</event>
<event>
 5    1  0.1094625E-009  0.9118800E+02  0.7818608E-02  0.1130116E+00
         25   -1    0    0    0    0  0.00000000000E+00  0.00000000000E+00  0.99999998245E-14  0.12500000000E+03  0.12500000000E+03 0.  0.
        -11    1    3    3    0    0  0.96131190405E+01 -0.40936303173E+02 -0.76734591840E+01  0.42744297296E+02  0.51100000000E-03 0.  1.
         23    2    1    0    0    0 -0.17867794103E+02 -0.10296567522E+02  0.23024941824E+02  0.94090045052E+02  0.88867942831E+02 0.  0.
         11    1    3    3    0    0 -0.27480913144E+02  0.30639735651E+02  0.30698401008E+02  0.51345747757E+02  0.51100000000E-03 0. -1.
         22    1    1    0    0    0  0.17867794103E+02  0.10296567522E+02 -0.23024941824E+02  0.30909954948E+02  0.00000000000E+00 0.  1.
</event>
<event>
 5    1  0.1094625E-009  0.9118800E+02  0.7818608E-02  0.1130116E+00
         25   -1    0    0    0    0  0.00000000000E+00  0.00000000000E+00  0.99999998245E-14  0.12500000000E+03  0.12500000000E+03 0.  0.
        -11    1    3    3    0    0  0.46365410054E+02  0.27856507351E+02 -0.16892961999E+02  0.56666642892E+02  0.51100000000E-03 0. -1.
         23    2    1    0    0    0  0.11281953806E+02  0.83698681803E+01 -0.23775533834E+02  0.97384548091E+02  0.93387028129E+02 0.  0.
         11    1    3    3    0    0 -0.35083456248E+02 -0.19486639171E+02 -0.68825718346E+01  0.40717905199E+02  0.51100000000E-03 0.  1.
         22    1    1    0    0    0 -0.11281953806E+02 -0.83698681803E+01  0.23775533834E+02  0.27615451909E+02  0.00000000000E+00 0. -1.
</event>
<event>
 5    1  0.1094625E-009  0.9118800E+02  0.7818608E-02  0.1130116E+00
         25   -1    0    0    0    0  0.00000000000E+00  0.00000000000E+00  0.99999998245E-14  0.12500000000E+03  0.12500000000E+03 0.  0.
        -11    1    3    3    0    0 -0.28867946888E+02  0.44084700268E+02  0.75593718119E+01  0.53234981523E+02  0.51100000000E-03 0.  1.
         23    2    1    0    0    0 -0.31038950769E+02  0.65224529486E+01 -0.49802852326E+01  0.92894516071E+02  0.87170115394E+02 0.  0.
         11    1    3    3    0    0 -0.21710038808E+01 -0.37562247319E+02 -0.12539657044E+02  0.39659534548E+02  0.51100000000E-03 0. -1.
         22    1    1    0    0    0  0.31038950769E+02 -0.65224529486E+01  0.49802852326E+01  0.32105483929E+02  0.00000000000E+00 0.  1.
</event>
<event>
 5    1  0.1094625E-009  0.9118800E+02  0.7818608E-02  0.1130116E+00
         25   -1    0    0    0    0  0.00000000000E+00  0.00000000000E+00  0.99999998245E-14  0.12500000000E+03  0.12500000000E+03 0.  0.
        -11    1    3    3    0    0  0.26441593902E+02 -0.41874343132E+01 -0.39760233807E+02  0.47932960339E+02  0.51100000000E-03 0.  1.
         23    2    1    0    0    0 -0.17812055182E+02 -0.54643436649E+00 -0.24121780542E+02  0.95009531567E+02  0.90151998823E+02 0.  0.
         11    1    3    3    0    0 -0.44253649084E+02  0.36409999468E+01  0.15638453265E+02  0.47076571228E+02  0.51100000000E-03 0. -1.
         22    1    1    0    0    0  0.17812055182E+02  0.54643436649E+00  0.24121780542E+02  0.29990468433E+02  0.00000000000E+00 0. -1.
</event>
<event>
 5    1  0.1094625E-009  0.9118800E+02  0.7818608E-02  0.1130116E+00
         25   -1    0    0    0    0  0.00000000000E+00  0.00000000000E+00  0.99999998245E-14  0.12500000000E+03  0.12500000000E+03 0.  0.
        -11    1    3    3    0    0 -0.38423576138E+02 -0.22240617706E+02 -0.31381284768E+02  0.54367281642E+02  0.51100000000E-03 0. -1.
         23    2    1    0    0    0 -0.92018561641E+01 -0.26997874566E+02 -0.14912938293E+01  0.96438078754E+02  0.92111452538E+02 0.  0.
         11    1    3    3    0    0  0.29221719974E+02 -0.47572568601E+01  0.29889990939E+02  0.42070797112E+02  0.51100000000E-03 0.  1.
         22    1    1    0    0    0  0.92018561641E+01  0.26997874566E+02  0.14912938293E+01  0.28561921246E+02  0.00000000000E+00 0.  1.
</event>
<event>
 5    1  0.1094625E-009  0.9118800E+02  0.7818608E-02  0.1130116E+00
         25   -1    0    0    0    0  0.00000000000E+00  0.00000000000E+00  0.99999998245E-14  0.12500000000E+03  0.12500000000E+03 0.  0.
        -11    1    3    3    0    0  0.21292244523E+02 -0.35783483789E+02 -0.68630737492E+01  0.42200938028E+02  0.51100000000E-03 0. -1.
         23    2    1    0    0    0  0.10492889197E+02  0.47510715502E+01  0.26698400085E+02  0.95922896092E+02  0.91409649507E+02 0.  0.
         11    1    3    3    0    0 -0.10799355326E+02  0.40534555339E+02  0.33561473835E+02  0.53721958064E+02  0.51100000000E-03 0.  1.
         22    1    1    0    0    0 -0.10492889197E+02 -0.47510715502E+01 -0.26698400085E+02  0.29077103908E+02  0.00000000000E+00 0.  1.
</event>
<event>
 5    1  0.1094625E-009  0.9118800E+02  0.7818608E-02  0.1130116E+00
         25   -1    0    0    0    0  0.00000000000E+00  0.00000000000E+00  0.99999998245E-14  0.12500000000E+03  0.12500000000E+03 0.  0.
        -11    1    3    3    0    0  0.11954400088E+02  0.45506033287E+02  0.40053528181E+02  0.61789901012E+02  0.51100000000E-03 0.  1.
         23    2    1    0    0    0  0.35265480173E+01  0.25155668417E+02  0.13689378667E+02  0.96144441043E+02  0.91712105312E+02 0.  0.
         11    1    3    3    0    0 -0.84278520705E+01 -0.20350364870E+02 -0.26364149515E+02  0.34354540031E+02  0.51100000000E-03 0. -1.
         22    1    1    0    0    0 -0.35265480173E+01 -0.25155668417E+02 -0.13689378667E+02  0.28855558957E+02  0.00000000000E+00 0.  1.
</event>
<event>
 5    1  0.1094625E-009  0.9118800E+02  0.7818608E-02  0.1130116E+00
         25   -1    0    0    0    0  0.00000000000E+00  0.00000000000E+00  0.99999998245E-14  0.12500000000E+03  0.12500000000E+03 0.  0.
        -11    1    3    3    0    0  0.39429779417E+02  0.21047333759E+02  0.24190933787E+02  0.50822229792E+02  0.51100000000E-03 0. -1.
         23    2    1    0    0    0  0.10109210367E+02  0.18723442469E+02 -0.14372842242E+02  0.99322343833E+02  0.95945744868E+02 0.  0.
         11    1    3    3    0    0 -0.29320569050E+02 -0.23238912904E+01 -0.38563776029E+02  0.48500114041E+02  0.51100000000E-03 0.  1.
         22    1    1    0    0    0 -0.10109210367E+02 -0.18723442469E+02  0.14372842242E+02  0.25677656167E+02  0.00000000000E+00 0.  1.
</event>
<event>
 5    1  0.1094625E-009  0.9118800E+02  0.7818608E-02  0.1130116E+00
         25   -1    0    0    0    0  0.00000000000E+00  0.00000000000E+00  0.99999998245E-14  0.12500000000E+03  0.12500000000E+03 0.  0.
        -11    1    3    3    0    0  0.35751478036E+02  0.15703021668E+02  0.44125612905E+02  0.58922175670E+02  0.51100000000E-03 0. -1.
         23    2    1    0    0    0  0.18990499977E+02 -0.74859528210E+01  0.21026660343E+02  0.95694727024E+02  0.91097100700E+02 0.  0.
         11    1    3    3    0    0 -0.16760978058E+02 -0.23188974489E+02 -0.23098952562E+02  0.36772551353E+02  0.51100000000E-03 0.  1.
         22    1    1    0    0    0 -0.18990499977E+02  0.74859528210E+01 -0.21026660343E+02  0.29305272976E+02  0.00000000000E+00 0. -1.
</event>
<event>
 5    1  0.1094625E-009  0.9118800E+02  0.7818608E-02  0.1130116E+00
         25   -1    0    0    0    0  0.00000000000E+00  0.00000000000E+00  0.99999998245E-14  0.12500000000E+03  0.12500000000E+03 0.  0.
        -11    1    3    3    0    0  0.19218678000E+02 -0.33556328096E+02 -0.30850925479E+02  0.49468821924E+02  0.51100000000E-03 0.  1.
         23    2    1    0    0    0 -0.18120908240E+02 -0.23173094219E+02 -0.77827729967E+01  0.94570882914E+02  0.89541726187E+02 0.  0.
         11    1    3    3    0    0 -0.37339586240E+02  0.10383233877E+02  0.23068152483E+02  0.45102060990E+02  0.51100000000E-03 0. -1.
         22    1    1    0    0    0  0.18120908240E+02  0.23173094219E+02  0.77827729967E+01  0.30429117086E+02  0.00000000000E+00 0. -1.
</event>
<event>
 5    1  0.1094625E-009  0.9118800E+02  0.7818608E-02  0.1130116E+00
         25   -1    0    0    0    0  0.00000000000E+00  0.00000000000E+00  0.99999998245E-14  0.12500000000E+03  0.12500000000E+03 0.  0.
        -11    1    3    3    0    0  0.40641964468E+02 -0.35712635081E+02 -0.96107568961E+01  0.54950234109E+02  0.51100000000E-03 0. -1.
         23    2    1    0    0    0  0.31038780869E+01 -0.23924839849E+02 -0.17648834298E+02  0.95108305952E+02  0.90288850298E+02 0.  0.
         11    1    3    3    0    0 -0.37538086381E+02  0.11787795232E+02 -0.80380774016E+01  0.40158071843E+02  0.51100000000E-03 0.  1.
         22    1    1    0    0    0 -0.31038780869E+01  0.23924839849E+02  0.17648834298E+02  0.29891694048E+02  0.00000000000E+00 0. -1.
</event>
<event>
 5    1  0.1094625E-009  0.9118800E+02  0.7818608E-02  0.1130116E+00
         25   -1    0    0    0    0  0.00000000000E+00  0.00000000000E+00  0.99999998245E-14  0.12500000000E+03  0.12500000000E+03 0.  0.
        -11    1    3    3    0    0  0.42254274522E+02  0.64716135594E+01  0.35809506304E+02  0.55764022805E+02  0.51100000000E-03 0.  1.
         23    2    1    0    0    0  0.28183925346E+02 -0.39377953318E+01 -0.10021779141E+01  0.96524673126E+02  0.92228890710E+02 0.  0.
         11    1    3    3    0    0 -0.14070349176E+02 -0.10409408891E+02 -0.36811684218E+02  0.40760650321E+02  0.51100000000E-03 0. -1.
         22    1    1    0    0    0 -0.28183925346E+02  0.39377953318E+01  0.10021779141E+01  0.28475326874E+02  0.00000000000E+00 0.  1.
</event>
<event>
 5    1  0.1094625E-009  0.9118800E+02  0.7818608E-02  0.1130116E+00
         25   -1    0    0    0    0  0.00000000000E+00  0.00000000000E+00  0.99999998245E-14  0.12500000000E+03  0.12500000000E+03 0.  0.
        -11    1    3    3    0    0  0.35201397813E+02  0.36511478041E+01 -0.20056072550E+02  0.40678192372E+02  0.51100000000E-03 0.  1.
         23    2    1    0    0    0  0.89213619620E+00 -0.29696055944E+02  0.52914829187E+01  0.94822998209E+02  0.89892989450E+02 0.  0.
         11    1    3    3    0    0 -0.34309261617E+02 -0.33347203748E+02  0.25347555469E+02  0.54144805836E+02  0.51100000000E-03 0. -1.
         22    1    1    0    0    0 -0.89213619620E+00  0.29696055944E+02 -0.52914829187E+01  0.30177001791E+02  0.00000000000E+00 0. -1.
</event>
<event>
 5    1  0.1094625E-009  0.9118800E+02  0.7818608E-02  0.1130116E+00
         25   -1    0    0    0    0  0.00000000000E+00  0.00000000000E+00  0.99999998245E-14  0.12500000000E+03  0.12500000000E+03 0.  0.
        -11    1    3    3    0    0 -0.57598926970E+01 -0.46789484940E+01 -0.46698307841E+02  0.47284256136E+02  0.51100000000E-03 0. -1.
         23    2    1    0    0    0 -0.11010234739E+02 -0.26988539448E+02 -0.42241172706E+01  0.95547501002E+02  0.90894858218E+02 0.  0.
         11    1    3    3    0    0 -0.52503420416E+01 -0.22309590954E+02  0.42474190570E+02  0.48263244866E+02  0.51100000000E-03 0.  1.
         22    1    1    0    0    0  0.11010234739E+02  0.26988539448E+02  0.42241172706E+01  0.29452498998E+02  0.00000000000E+00 0. -1.
</event>
<event>
 5    1  0.1094625E-009  0.9118800E+02  0.7818608E-02  0.1130116E+00
         25   -1    0    0    0    0  0.00000000000E+00  0.00000000000E+00  0.99999998245E-14  0.12500000000E+03  0.12500000000E+03 0.  0.
        -11    1    3    3    0    0 -0.12613717113E+02 -0.32596695654E+02 -0.30455976171E+00  0.34953443090E+02  0.51100000000E-03 0. -1.
         23    2    1    0    0    0  0.22492841716E+02 -0.10183591668E+02  0.29766885315E+02  0.86325707128E+02  0.77177890500E+02 0.  0.
         11    1    3    3    0    0  0.35106558830E+02  0.22413103985E+02  0.30071445077E+02  0.51372264038E+02  0.51100000000E-03 0.  1.
         22    1    1    0    0    0 -0.22492841716E+02  0.10183591668E+02 -0.29766885315E+02  0.38674292872E+02  0.00000000000E+00 0. -1.
</event>
<event>
 5    1  0.1094625E-009  0.9118800E+02  0.7818608E-02  0.1130116E+00
         25   -1    0    0    0    0  0.00000000000E+00  0.00000000000E+00  0.99999998245E-14  0.12500000000E+03  0.12500000000E+03 0.  0.
        -11    1    3    3    0    0 -0.15832357833E+02  0.55016449597E+02  0.20949376418E+02  0.60961870488E+02  0.51100000000E-03 0.  1.
         23    2    1    0    0    0 -0.10637789197E+02  0.26104164687E+02  0.40464629568E+00  0.96808623453E+02  0.92612935723E+02 0.  0.
         11    1    3    3    0    0  0.51945686360E+01 -0.28912284911E+02 -0.20544730122E+02  0.35846752965E+02  0.51100000000E-03 0. -1.
         22    1    1    0    0    0  0.10637789197E+02 -0.26104164687E+02 -0.40464629568E+00  0.28191376547E+02  0.00000000000E+00 0.  1.
</event>
<event>
 5    1  0.1094625E-009  0.9118800E+02  0.7818608E-02  0.1130116E+00
         25   -1    0    0    0    0  0.00000000000E+00  0.00000000000E+00  0.99999998245E-14  0.12500000000E+03  0.12500000000E+03 0.  0.
        -11    1    3    3    0    0  0.28291230646E+02  0.27968673475E+02  0.73863772267E+01  0.40462315754E+02  0.51100000000E-03 0.  1.
         23    2    1    0    0    0 -0.10254938438E+01  0.21672601311E+01 -0.30223712096E+02  0.94681335337E+02  0.89695784930E+02 0.  0.
         11    1    3    3    0    0 -0.29316724489E+02 -0.25801413344E+02 -0.37610089323E+02  0.54219019582E+02  0.51100000000E-03 0. -1.
         22    1    1    0    0    0  0.10254938438E+01 -0.21672601311E+01  0.30223712096E+02  0.30318664663E+02  0.00000000000E+00 0.  1.
</event>
<event>
 5    1  0.1094625E-009  0.9118800E+02  0.7818608E-02  0.1130116E+00
         25   -1    0    0    0    0  0.00000000000E+00  0.00000000000E+00  0.99999998245E-14  0.12500000000E+03  0.12500000000E+03 0.  0.
        -11    1    3    3    0    0 -0.29889280572E+02  0.20033129531E+01 -0.64156004277E+01  0.30635637500E+02  0.51100000000E-03 0. -1.
         23    2    1    0    0    0  0.18487302942E+02 -0.25484042225E+02  0.14835450412E+02  0.90196158730E+02  0.83210814697E+02 0.  0.
         11    1    3    3    0    0  0.48376583514E+02 -0.27487355178E+02  0.21251050840E+02  0.59560521231E+02  0.51100000000E-03 0.  1.
         22    1    1    0    0    0 -0.18487302942E+02  0.25484042225E+02 -0.14835450412E+02  0.34803841270E+02  0.00000000000E+00 0.  1.
</event>
<event>
 5    1  0.1094625E-009  0.9118800E+02  0.7818608E-02  0.1130116E+00
         25   -1    0    0    0    0  0.00000000000E+00  0.00000000000E+00  0.99999998245E-14  0.12500000000E+03  0.12500000000E+03 0.  0.
        -11    1    3    3    0    0 -0.42162385907E+01 -0.51648989493E+02 -0.15866507894E+02  0.54195395160E+02  0.51100000000E-03 0.  1.
         23    2    1    0    0    0 -0.93842280371E+01 -0.26216368322E+02  0.14058991457E+02  0.93806780470E+02  0.88468610916E+02 0.  0.
         11    1    3    3    0    0 -0.51679894464E+01  0.25432621171E+02  0.29925499351E+02  0.39611385310E+02  0.51100000000E-03 0. -1.
         22    1    1    0    0    0  0.93842280371E+01  0.26216368322E+02 -0.14058991457E+02  0.31193219530E+02  0.00000000000E+00 0.  1.
</event>
<event>
 5    1  0.1094625E-009  0.9118800E+02  0.7818608E-02  0.1130116E+00
         25   -1    0    0    0    0  0.00000000000E+00  0.00000000000E+00  0.99999998245E-14  0.12500000000E+03  0.12500000000E+03 0.  0.
        -11    1    3    3    0    0  0.56916678219E+01 -0.20244931705E+02  0.29414476945E+02  0.36158868850E+02  0.51100000000E-03 0.  1.
         23    2    1    0    0    0  0.11378430882E+01 -0.11415370658E+02 -0.28164559831E+02  0.94588689528E+02  0.89566580720E+02 0.  0.
         11    1    3    3    0    0 -0.45538247337E+01  0.88295610469E+01 -0.57579036777E+02  0.58429820677E+02  0.51100000000E-03 0. -1.
         22    1    1    0    0    0 -0.11378430882E+01  0.11415370658E+02  0.28164559831E+02  0.30411310472E+02  0.00000000000E+00 0. -1.
</event>
<event>
 5    1  0.1094625E-009  0.9118800E+02  0.7818608E-02  0.1130116E+00
         25   -1    0    0    0    0  0.00000000000E+00  0.00000000000E+00  0.99999998245E-14  0.12500000000E+03  0.12500000000E+03 0.  0.
        -11    1    3    3    0    0  0.30975273399E+02 -0.28965461016E+02  0.14220286757E+02  0.44728984448E+02  0.51100000000E-03 0. -1.
         23    2    1    0    0    0  0.21099908931E+02  0.18955056744E+02 -0.27200932827E+01  0.96506154339E+02  0.92203788343E+02 0.  0.
         11    1    3    3    0    0 -0.98753644685E+01  0.47920517760E+02 -0.16940380040E+02  0.51777169891E+02  0.51100000000E-03 0.  1.
         22    1    1    0    0    0 -0.21099908931E+02 -0.18955056744E+02  0.27200932827E+01  0.28493845661E+02  0.00000000000E+00 0.  1.
</event>
<event>
 5    1  0.1094625E-009  0.9118800E+02  0.7818608E-02  0.1130116E+00
         25   -1    0    0    0    0  0.00000000000E+00  0.00000000000E+00  0.99999998245E-14  0.12500000000E+03  0.12500000000E+03 0.  0.
        -11    1    3    3    0    0 -0.35270149888E+01  0.32092939687E+02 -0.11655122066E+02  0.34325478629E+02  0.51100000000E-03 0. -1.
         23    2    1    0    0    0  0.19535807645E+02 -0.17424928254E+02  0.14701169378E+02  0.94976670969E+02  0.90106424534E+02 0.  0.
         11    1    3    3    0    0  0.23062822634E+02 -0.49517867941E+02  0.26356291444E+02  0.60651192340E+02  0.51100000000E-03 0.  1.
         22    1    1    0    0    0 -0.19535807645E+02  0.17424928254E+02 -0.14701169378E+02  0.30023329031E+02  0.00000000000E+00 0.  1.
</event>
<event>
 5    1  0.1094625E-009  0.9118800E+02  0.7818608E-02  0.1130116E+00
         25   -1    0    0    0    0  0.00000000000E+00  0.00000000000E+00  0.99999998245E-14  0.12500000000E+03  0.12500000000E+03 0.  0.
        -11    1    3    3    0    0  0.14589320555E+02  0.57792397767E+02 -0.50233457004E+01  0.59816749462E+02  0.51100000000E-03 0.  1.
         23    2    1    0    0    0  0.14364806539E+02  0.19354329629E+02 -0.10621138641E+02  0.98660935318E+02  0.95080144244E+02 0.  0.
         11    1    3    3    0    0 -0.22451401608E+00 -0.38438068138E+02 -0.55977929403E+01  0.38844185856E+02  0.51100000000E-03 0. -1.
         22    1    1    0    0    0 -0.14364806539E+02 -0.19354329629E+02  0.10621138641E+02  0.26339064682E+02  0.00000000000E+00 0.  1.
</event>
<event>
 5    1  0.1094625E-009  0.9118800E+02  0.7818608E-02  0.1130116E+00
         25   -1    0    0    0    0  0.00000000000E+00  0.00000000000E+00  0.99999998245E-14  0.12500000000E+03  0.12500000000E+03 0.  0.
        -11    1    3    3    0    0 -0.29174170542E+02  0.27308810470E+02 -0.31518565403E+02  0.50895219043E+02  0.51100000000E-03 0.  1.
         23    2    1    0    0    0 -0.33039505554E+01  0.29139014915E+02  0.45535401407E+01  0.95322853788E+02  0.90585393121E+02 0.  0.
         11    1    3    3    0    0  0.25870219987E+02  0.18302044446E+01  0.36072105543E+02  0.44427634745E+02  0.51100000000E-03 0. -1.
         22    1    1    0    0    0  0.33039505554E+01 -0.29139014915E+02 -0.45535401407E+01  0.29677146212E+02  0.00000000000E+00 0.  1.
</event>
<event>
 5    1  0.1094625E-009  0.9118800E+02  0.7818608E-02  0.1130116E+00
         25   -1    0    0    0    0  0.00000000000E+00  0.00000000000E+00  0.99999998245E-14  0.12500000000E+03  0.12500000000E+03 0.  0.
        -11    1    3    3    0    0  0.26923952861E+02  0.56548523503E+00 -0.21895528678E+02  0.34707826028E+02  0.51100000000E-03 0.  1.
         23    2    1    0    0    0 -0.25407307086E+02 -0.99373381426E+01  0.88677685110E+01  0.96313430649E+02  0.91942143016E+02 0.  0.
         11    1    3    3    0    0 -0.52331259947E+02 -0.10502823378E+02  0.30763297189E+02  0.61605604622E+02  0.51100000000E-03 0. -1.
         22    1    1    0    0    0  0.25407307086E+02  0.99373381426E+01 -0.88677685110E+01  0.28686569351E+02  0.00000000000E+00 0. -1.
</event>
<event>
 5    1  0.1094625E-009  0.9118800E+02  0.7818608E-02  0.1130116E+00
         25   -1    0    0    0    0  0.00000000000E+00  0.00000000000E+00  0.99999998245E-14  0.12500000000E+03  0.12500000000E+03 0.  0.
        -11    1    3    3    0    0  0.23856805759E+02  0.23266914278E+01  0.42417491874E+02  0.48721702466E+02  0.51100000000E-03 0. -1.
         23    2    1    0    0    0  0.17989576748E+02 -0.21963711399E+02  0.16210292062E+01  0.96563100984E+02  0.92280958198E+02 0.  0.
         11    1    3    3    0    0 -0.58672290115E+01 -0.24290402826E+02 -0.40796462667E+02  0.47841398518E+02  0.51100000000E-03 0.  1.
         22    1    1    0    0    0 -0.17989576748E+02  0.21963711399E+02 -0.16210292062E+01  0.28436899016E+02  0.00000000000E+00 0. -1.
</event>
<event>
 5    1  0.1094625E-009  0.9118800E+02  0.7818608E-02  0.1130116E+00
         25   -1    0    0    0    0  0.00000000000E+00  0.00000000000E+00  0.99999998245E-14  0.12500000000E+03  0.12500000000E+03 0.  0.
        -11    1    3    3    0    0  0.17136976379E+02 -0.44249984372E+02  0.15472465686E+01  0.47477690008E+02  0.51100000000E-03 0. -1.
         23    2    1    0    0    0 -0.23168001124E+02 -0.18244513911E+02 -0.77832743996E+00  0.95500434621E+02  0.90830108748E+02 0.  0.
         11    1    3    3    0    0 -0.40304977503E+02  0.26005470460E+02 -0.23255740085E+01  0.48022744613E+02  0.51100000000E-03 0.  1.
         22    1    1    0    0    0  0.23168001124E+02  0.18244513911E+02  0.77832743996E+00  0.29499565379E+02  0.00000000000E+00 0.  1.
</event>
<event>
 5    1  0.1094625E-009  0.9118800E+02  0.7818608E-02  0.1130116E+00
         25   -1    0    0    0    0  0.00000000000E+00  0.00000000000E+00  0.99999998245E-14  0.12500000000E+03  0.12500000000E+03 0.  0.
        -11    1    3    3    0    0 -0.44027873303E+02  0.37971476075E+02  0.96767329712E+01  0.58940018529E+02  0.51100000000E-03 0. -1.
         23    2    1    0    0    0 -0.30464114844E+02  0.13719729774E+02 -0.63109323563E+01  0.90998218495E+02  0.84407076859E+02 0.  0.
         11    1    3    3    0    0  0.13563758459E+02 -0.24251746301E+02 -0.15987665328E+02  0.32058199966E+02  0.51100000000E-03 0.  1.
         22    1    1    0    0    0  0.30464114844E+02 -0.13719729774E+02  0.63109323563E+01  0.34001781505E+02  0.00000000000E+00 0. -1.
</event>
<event>
 5    1  0.1094625E-009  0.9118800E+02  0.7818608E-02  0.1130116E+00
         25   -1    0    0    0    0  0.00000000000E+00  0.00000000000E+00  0.99999998245E-14  0.12500000000E+03  0.12500000000E+03 0.  0.
        -11    1    3    3    0    0  0.51763778946E+02  0.92659096684E+01  0.26403090585E+02  0.58842748792E+02  0.51100000000E-03 0. -1.
         23    2    1    0    0    0  0.17092628419E+02  0.46815714173E+01  0.25649192045E+02  0.93823789362E+02  0.88492640036E+02 0.  0.
         11    1    3    3    0    0 -0.34671150527E+02 -0.45843382511E+01 -0.75389854026E+00  0.34981040570E+02  0.51100000000E-03 0.  1.
         22    1    1    0    0    0 -0.17092628419E+02 -0.46815714173E+01 -0.25649192045E+02  0.31176210638E+02  0.00000000000E+00 0. -1.
</event>
<event>
 5    1  0.1094625E-009  0.9118800E+02  0.7818608E-02  0.1130116E+00
         25   -1    0    0    0    0  0.00000000000E+00  0.00000000000E+00  0.99999998245E-14  0.12500000000E+03  0.12500000000E+03 0.  0.
        -11    1    3    3    0    0  0.25099849527E+02 -0.38831321638E+00  0.55924356647E+02  0.61299974715E+02  0.51100000000E-03 0.  1.
         23    2    1    0    0    0  0.17286477866E+02  0.55740371257E+01  0.22810551973E+02  0.95841579464E+02  0.91298383698E+02 0.  0.
         11    1    3    3    0    0 -0.78133716612E+01  0.59623503421E+01 -0.33113804675E+02  0.34541604749E+02  0.51100000000E-03 0. -1.
         22    1    1    0    0    0 -0.17286477866E+02 -0.55740371257E+01 -0.22810551973E+02  0.29158420536E+02  0.00000000000E+00 0.  1.
</event>
<event>
 5    1  0.1094625E-009  0.9118800E+02  0.7818608E-02  0.1130116E+00
         25   -1    0    0    0    0  0.00000000000E+00  0.00000000000E+00  0.99999998245E-14  0.12500000000E+03  0.12500000000E+03 0.  0.
        -11    1    3    3    0    0 -0.12766537601E+02 -0.16095281757E+02  0.28105797681E+02  0.34813480732E+02  0.51100000000E-03 0. -1.
         23    2    1    0    0    0 -0.84626745119E+01  0.16801598763E+02 -0.22715664767E+02  0.95505729257E+02  0.90837394911E+02 0.  0.
         11    1    3    3    0    0  0.43038630891E+01  0.32896880520E+02 -0.50821462447E+02  0.60692248525E+02  0.51100000000E-03 0.  1.
         22    1    1    0    0    0  0.84626745119E+01 -0.16801598763E+02  0.22715664767E+02  0.29494270743E+02  0.00000000000E+00 0.  1.
</event>
<event>
 5    1  0.1094625E-009  0.9118800E+02  0.7818608E-02  0.1130116E+00
         25   -1    0    0    0    0  0.00000000000E+00  0.00000000000E+00  0.99999998245E-14  0.12500000000E+03  0.12500000000E+03 0.  0.
        -11    1    3    3    0    0  0.18464185435E+02  0.33698117756E+02  0.13789420050E+02  0.40824470476E+02  0.51100000000E-03 0.  1.
         23    2    1    0    0    0  0.16827066508E+02 -0.97482823748E+01 -0.20905268206E+02  0.96448127639E+02  0.92125088384E+02 0.  0.
         11    1    3    3    0    0 -0.16371189266E+01 -0.43446400131E+02 -0.34694688256E+02  0.55623657163E+02  0.51100000000E-03 0. -1.
         22    1    1    0    0    0 -0.16827066508E+02  0.97482823748E+01  0.20905268206E+02  0.28551872361E+02  0.00000000000E+00 0. -1.
</event>
<event>
 5    1  0.1094625E-009  0.9118800E+02  0.7818608E-02  0.1130116E+00
         25   -1    0    0    0    0  0.00000000000E+00  0.00000000000E+00  0.99999998245E-14  0.12500000000E+03  0.12500000000E+03 0.  0.
        -11    1    3    3    0    0  0.24393934947E+02 -0.33680085548E+02 -0.28145243417E+02  0.50215206382E+02  0.51100000000E-03 0.  1.
         23    2    1    0    0    0  0.27579849616E+02  0.63228126819E+01 -0.59068903237E+01  0.96094681833E+02  0.91644260367E+02 0.  0.
         11    1    3    3    0    0  0.31859146692E+01  0.40002898230E+02  0.22238353093E+02  0.45879475451E+02  0.51100000000E-03 0. -1.
         22    1    1    0    0    0 -0.27579849616E+02 -0.63228126819E+01  0.59068903237E+01  0.28905318167E+02  0.00000000000E+00 0. -1.
</event>
<event>
 5    1  0.1094625E-009  0.9118800E+02  0.7818608E-02  0.1130116E+00
         25   -1    0    0    0    0  0.00000000000E+00  0.00000000000E+00  0.99999998245E-14  0.12500000000E+03  0.12500000000E+03 0.  0.
        -11    1    3    3    0    0  0.31182353153E+02  0.18026322413E+02 -0.50074325388E+02  0.61682457078E+02  0.51100000000E-03 0. -1.
         23    2    1    0    0    0  0.11475622069E+02  0.30120824067E+01 -0.26871557086E+02  0.95625808564E+02  0.91002484257E+02 0.  0.
         11    1    3    3    0    0 -0.19706731083E+02 -0.15014240006E+02  0.23202768302E+02  0.33943351486E+02  0.51100000000E-03 0.  1.
         22    1    1    0    0    0 -0.11475622069E+02 -0.30120824067E+01  0.26871557086E+02  0.29374191436E+02  0.00000000000E+00 0. -1.
</event>
<event>
 5    1  0.1094625E-009  0.9118800E+02  0.7818608E-02  0.1130116E+00
         25   -1    0    0    0    0  0.00000000000E+00  0.00000000000E+00  0.99999998245E-14  0.12500000000E+03  0.12500000000E+03 0.  0.
        -11    1    3    3    0    0 -0.94475132406E+01  0.38179659603E+02 -0.36768404066E+02  0.53841038731E+02  0.51100000000E-03 0. -1.
         23    2    1    0    0    0 -0.23866970442E+02  0.16324584841E+02 -0.39637441102E+01  0.95813776954E+02  0.91260310313E+02 0.  0.
         11    1    3    3    0    0 -0.14419457202E+02 -0.21855074762E+02  0.32804659956E+02  0.41972738223E+02  0.51100000000E-03 0.  1.
         22    1    1    0    0    0  0.23866970442E+02 -0.16324584841E+02  0.39637441102E+01  0.29186223046E+02  0.00000000000E+00 0. -1.
</event>
<event>
 5    1  0.1094625E-009  0.9118800E+02  0.7818608E-02  0.1130116E+00
         25   -1    0    0    0    0  0.00000000000E+00  0.00000000000E+00  0.99999998245E-14  0.12500000000E+03  0.12500000000E+03 0.  0.
        -11    1    3    3    0    0  0.32523741204E+00 -0.33654453571E+02  0.29757226379E+02  0.44924609587E+02  0.51100000000E-03 0.  1.
         23    2    1    0    0    0  0.20926333302E+02 -0.15148221099E+02 -0.13165192660E+02  0.96005132770E+02  0.91522036649E+02 0.  0.
         11    1    3    3    0    0  0.20601095889E+02  0.18506232472E+02 -0.42922419039E+02  0.51080523182E+02  0.51100000000E-03 0. -1.
         22    1    1    0    0    0 -0.20926333302E+02  0.15148221099E+02  0.13165192660E+02  0.28994867230E+02  0.00000000000E+00 0.  1.
</event>
<event>
 5    1  0.1094625E-009  0.9118800E+02  0.7818608E-02  0.1130116E+00
         25   -1    0    0    0    0  0.00000000000E+00  0.00000000000E+00  0.99999998245E-14  0.12500000000E+03  0.12500000000E+03 0.  0.
        -11    1    3    3    0    0  0.15636354812E+02 -0.28300769218E+02 -0.18525366515E+02  0.37264169586E+02  0.51100000000E-03 0.  1.
         23    2    1    0    0    0 -0.30168291736E+02  0.19888400209E+01 -0.16134013866E+01  0.94723204018E+02  0.89754114138E+02 0.  0.
         11    1    3    3    0    0 -0.45804646548E+02  0.30289609239E+02  0.16911965129E+02  0.57459034433E+02  0.51100000000E-03 0. -1.
         22    1    1    0    0    0  0.30168291736E+02 -0.19888400209E+01  0.16134013866E+01  0.30276795982E+02  0.00000000000E+00 0. -1.
</event>
<event>
 5    1  0.1094625E-009  0.9118800E+02  0.7818608E-02  0.1130116E+00
         25   -1    0    0    0    0  0.00000000000E+00  0.00000000000E+00  0.99999998245E-14  0.12500000000E+03  0.12500000000E+03 0.  0.
        -11    1    3    3    0    0  0.17209317245E+02  0.12689764666E+02  0.52719042418E+02  0.56890141158E+02  0.51100000000E-03 0. -1.
         23    2    1    0    0    0 -0.42243461917E+01 -0.78292146655E+01  0.28351456365E+02  0.95285579578E+02  0.90533943328E+02 0.  0.
         11    1    3    3    0    0 -0.21433663437E+02 -0.20518979332E+02 -0.24367586053E+02  0.38395438420E+02  0.51100000000E-03 0.  1.
         22    1    1    0    0    0  0.42243461917E+01  0.78292146655E+01 -0.28351456365E+02  0.29714420422E+02  0.00000000000E+00 0. -1.
</event>
<event>
 5    1  0.1094625E-009  0.9118800E+02  0.7818608E-02  0.1130116E+00
         25   -1    0    0    0    0  0.00000000000E+00  0.00000000000E+00  0.99999998245E-14  0.12500000000E+03  0.12500000000E+03 0.  0.
        -11    1    3    3    0    0 -0.47678555635E+02  0.32068708256E+02 -0.11398673709E+02  0.58579659262E+02  0.51100000000E-03 0.  1.
         23    2    1    0    0    0 -0.23196653725E+02  0.14313431607E+02  0.10364305226E+02  0.95838760465E+02  0.91294524021E+02 0.  0.
         11    1    3    3    0    0  0.24481901910E+02 -0.17755276650E+02  0.21762978935E+02  0.37259101203E+02  0.51100000000E-03 0. -1.
         22    1    1    0    0    0  0.23196653725E+02 -0.14313431607E+02 -0.10364305226E+02  0.29161239535E+02  0.00000000000E+00 0.  1.
</event>
<event>
 5    1  0.1094625E-009  0.9118800E+02  0.7818608E-02  0.1130116E+00
         25   -1    0    0    0    0  0.00000000000E+00  0.00000000000E+00  0.99999998245E-14  0.12500000000E+03  0.12500000000E+03 0.  0.
        -11    1    3    3    0    0  0.22994517009E+02 -0.42185342143E+02 -0.35856202767E+02  0.59950130787E+02  0.51100000000E-03 0.  1.
         23    2    1    0    0    0  0.19547618630E+02 -0.19402546373E+02 -0.75643742010E+01  0.96437998023E+02  0.92111342981E+02 0.  0.
         11    1    3    3    0    0 -0.34468983785E+01  0.22782795770E+02  0.28291828566E+02  0.36487867236E+02  0.51100000000E-03 0. -1.
         22    1    1    0    0    0 -0.19547618630E+02  0.19402546373E+02  0.75643742010E+01  0.28562001977E+02  0.00000000000E+00 0.  1.
</event>
<event>
 5    1  0.1094625E-009  0.9118800E+02  0.7818608E-02  0.1130116E+00
         25   -1    0    0    0    0  0.00000000000E+00  0.00000000000E+00  0.99999998245E-14  0.12500000000E+03  0.12500000000E+03 0.  0.
        -11    1    3    3    0    0 -0.18979129633E+02 -0.10884707232E+01  0.28959403171E+02  0.34641581408E+02  0.51100000000E-03 0.  1.
         23    2    1    0    0    0  0.16649849841E+02  0.15843071845E+02 -0.17881410388E+02  0.95880156891E+02  0.91351186215E+02 0.  0.
         11    1    3    3    0    0  0.35628979474E+02  0.16931542568E+02 -0.46840813559E+02  0.61238575483E+02  0.51100000000E-03 0. -1.
         22    1    1    0    0    0 -0.16649849841E+02 -0.15843071845E+02  0.17881410388E+02  0.29119843109E+02  0.00000000000E+00 0. -1.
</event>
<event>
 5    1  0.1094625E-009  0.9118800E+02  0.7818608E-02  0.1130116E+00
         25   -1    0    0    0    0  0.00000000000E+00  0.00000000000E+00  0.99999998245E-14  0.12500000000E+03  0.12500000000E+03 0.  0.
        -11    1    3    3    0    0  0.17897593225E+02 -0.25521660230E+02  0.18881237788E+02  0.36444205641E+02  0.51100000000E-03 0.  1.
         23    2    1    0    0    0  0.12193519036E+02  0.27415698118E+02 -0.46153731813E+01  0.94642067274E+02  0.89641044274E+02 0.  0.
         11    1    3    3    0    0 -0.57040741889E+01  0.52937358349E+02 -0.23496610969E+02  0.58197861632E+02  0.51100000000E-03 0. -1.
         22    1    1    0    0    0 -0.12193519036E+02 -0.27415698118E+02  0.46153731813E+01  0.30357932726E+02  0.00000000000E+00 0. -1.
</event>
<event>
 5    1  0.1094625E-009  0.9118800E+02  0.7818608E-02  0.1130116E+00
         25   -1    0    0    0    0  0.00000000000E+00  0.00000000000E+00  0.99999998245E-14  0.12500000000E+03  0.12500000000E+03 0.  0.
        -11    1    3    3    0    0 -0.38484743022E+02 -0.26438117721E+02  0.18833975624E+02  0.50346481031E+02  0.51100000000E-03 0. -1.
         23    2    1    0    0    0  0.23798013904E+01 -0.28147916816E+02 -0.27952047782E+01  0.96613703209E+02  0.92349476459E+02 0.  0.
         11    1    3    3    0    0  0.40864544412E+02 -0.17097990951E+01 -0.21629180402E+02  0.46267222178E+02  0.51100000000E-03 0.  1.
         22    1    1    0    0    0 -0.23798013904E+01  0.28147916816E+02  0.27952047782E+01  0.28386296791E+02  0.00000000000E+00 0. -1.
</event>
<event>
 5    1  0.1094625E-009  0.9118800E+02  0.7818608E-02  0.1130116E+00
         25   -1    0    0    0    0  0.00000000000E+00  0.00000000000E+00  0.99999998245E-14  0.12500000000E+03  0.12500000000E+03 0.  0.
        -11    1    3    3    0    0  0.38434700887E+02 -0.35256165982E+02  0.26530826966E+01  0.52223197145E+02  0.51100000000E-03 0.  1.
         23    2    1    0    0    0 -0.19147494289E+01 -0.28867504379E+02  0.11230024293E+02  0.93965945800E+02  0.88693215355E+02 0.  0.
         11    1    3    3    0    0 -0.40349450316E+02  0.63886616033E+01  0.85769415967E+01  0.41742748655E+02  0.51100000000E-03 0. -1.
         22    1    1    0    0    0  0.19147494289E+01  0.28867504379E+02 -0.11230024293E+02  0.31034054200E+02  0.00000000000E+00 0.  1.
</event>
<event>
 5    1  0.1094625E-009  0.9118800E+02  0.7818608E-02  0.1130116E+00
         25   -1    0    0    0    0  0.00000000000E+00  0.00000000000E+00  0.99999998245E-14  0.12500000000E+03  0.12500000000E+03 0.  0.
        -11    1    3    3    0    0 -0.23342253295E+02  0.20533522563E+02 -0.24072071660E+02  0.39318583036E+02  0.51100000000E-03 0. -1.
         23    2    1    0    0    0 -0.13807303762E+02 -0.26028304421E+02  0.51183996789E+01  0.95094945520E+02  0.90270351611E+02 0.  0.
         11    1    3    3    0    0  0.95349495328E+01 -0.46561826984E+02  0.29190471339E+02  0.55776362484E+02  0.51100000000E-03 0.  1.
         22    1    1    0    0    0  0.13807303762E+02  0.26028304421E+02 -0.51183996789E+01  0.29905054480E+02  0.00000000000E+00 0.  1.
</event>
<event>
 5    1  0.1094625E-009  0.9118800E+02  0.7818608E-02  0.1130116E+00
         25   -1    0    0    0    0  0.00000000000E+00  0.00000000000E+00  0.99999998245E-14  0.12500000000E+03  0.12500000000E+03 0.  0.
        -11    1    3    3    0    0  0.57714632935E+01  0.39179808588E+02  0.15106630916E+01  0.39631418001E+02  0.51100000000E-03 0. -1.
         23    2    1    0    0    0  0.21330211885E+02 -0.11051711757E+02 -0.17207871441E+02  0.95449549726E+02  0.90760054163E+02 0.  0.
         11    1    3    3    0    0  0.15558748592E+02 -0.50231520345E+02 -0.18718534533E+02  0.55818131725E+02  0.51100000000E-03 0.  1.
         22    1    1    0    0    0 -0.21330211885E+02  0.11051711757E+02  0.17207871441E+02  0.29550450274E+02  0.00000000000E+00 0.  1.
</event>
<event>
 5    1  0.1094625E-009  0.9118800E+02  0.7818608E-02  0.1130116E+00
         25   -1    0    0    0    0  0.00000000000E+00  0.00000000000E+00  0.99999998245E-14  0.12500000000E+03  0.12500000000E+03 0.  0.
        -11    1    3    3    0    0  0.53989164050E+01  0.16588987876E+02  0.56830443846E+02  0.59447810432E+02  0.51100000000E-03 0.  1.
         23    2    1    0    0    0  0.12585648145E+02 -0.18316737191E+01  0.25665558518E+02  0.96356074607E+02  0.92000101368E+02 0.  0.
         11    1    3    3    0    0  0.71867317402E+01 -0.18420661595E+02 -0.31164885328E+02  0.36908264176E+02  0.51100000000E-03 0. -1.
         22    1    1    0    0    0 -0.12585648145E+02  0.18316737191E+01 -0.25665558518E+02  0.28643925393E+02  0.00000000000E+00 0.  1.
</event>
<event>
 5    1  0.1094625E-009  0.9118800E+02  0.7818608E-02  0.1130116E+00
         25   -1    0    0    0    0  0.00000000000E+00  0.00000000000E+00  0.99999998245E-14  0.12500000000E+03  0.12500000000E+03 0.  0.
        -11    1    3    3    0    0  0.28383856126E+02 -0.13330819996E+02  0.41027169833E+02  0.51638965086E+02  0.51100000000E-03 0. -1.
         23    2    1    0    0    0 -0.11740221103E+02 -0.16806710251E+02  0.15117173263E+02  0.99527912757E+02  0.96213191348E+02 0.  0.
         11    1    3    3    0    0 -0.40124077229E+02 -0.34758902551E+01 -0.25909996571E+02  0.47888947672E+02  0.51100000000E-03 0.  1.
         22    1    1    0    0    0  0.11740221103E+02  0.16806710251E+02 -0.15117173263E+02  0.25472087243E+02  0.00000000000E+00 0.  1.
</event>
<event>
 5    1  0.1094625E-009  0.9118800E+02  0.7818608E-02  0.1130116E+00
         25   -1    0    0    0    0  0.00000000000E+00  0.00000000000E+00  0.99999998245E-14  0.12500000000E+03  0.12500000000E+03 0.  0.
        -11    1    3    3    0    0 -0.21429009848E+02  0.13837118714E+02  0.53732618915E+02  0.59479934878E+02  0.51100000000E-03 0.  1.
         23    2    1    0    0    0 -0.21312273492E+02  0.10593145587E+02  0.18515853126E+02  0.94845986141E+02  0.89924949459E+02 0.  0.
         11    1    3    3    0    0  0.11673635583E+00 -0.32439731263E+01 -0.35216765789E+02  0.35366051263E+02  0.51100000000E-03 0. -1.
         22    1    1    0    0    0  0.21312273492E+02 -0.10593145587E+02 -0.18515853126E+02  0.30154013859E+02  0.00000000000E+00 0.  1.
</event>
<event>
 5    1  0.1094625E-009  0.9118800E+02  0.7818608E-02  0.1130116E+00
         25   -1    0    0    0    0  0.00000000000E+00  0.00000000000E+00  0.99999998245E-14  0.12500000000E+03  0.12500000000E+03 0.  0.
        -11    1    3    3    0    0 -0.38626632653E+02 -0.28806455361E+01  0.43605453961E+02  0.58324527296E+02  0.51100000000E-03 0. -1.
         23    2    1    0    0    0 -0.76491627297E+01 -0.12658937696E+02  0.25519725795E+02  0.95503986732E+02  0.90834997017E+02 0.  0.
         11    1    3    3    0    0  0.30977469924E+02 -0.97782921595E+01 -0.18085728167E+02  0.37179459437E+02  0.51100000000E-03 0.  1.
         22    1    1    0    0    0  0.76491627297E+01  0.12658937696E+02 -0.25519725795E+02  0.29496013268E+02  0.00000000000E+00 0. -1.
</event>
<event>
 5    1  0.1094625E-009  0.9118800E+02  0.7818608E-02  0.1130116E+00
         25   -1    0    0    0    0  0.00000000000E+00  0.00000000000E+00  0.99999998245E-14  0.12500000000E+03  0.12500000000E+03 0.  0.
        -11    1    3    3    0    0  0.10376971258E+02  0.26715974758E+00 -0.31562024769E+02  0.33225206013E+02  0.51100000000E-03 0. -1.
         23    2    1    0    0    0  0.85092217300E-01  0.13102025261E+02  0.27501336515E+02  0.94537009064E+02  0.89494425894E+02 0.  0.
         11    1    3    3    0    0 -0.10291879041E+02  0.12834865513E+02  0.59063361284E+02  0.61311803051E+02  0.51100000000E-03 0.  1.
         22    1    1    0    0    0 -0.85092217300E-01 -0.13102025261E+02 -0.27501336515E+02  0.30462990936E+02  0.00000000000E+00 0.  1.
</event>
<event>
 5    1  0.1094625E-009  0.9118800E+02  0.7818608E-02  0.1130116E+00
         25   -1    0    0    0    0  0.00000000000E+00  0.00000000000E+00  0.99999998245E-14  0.12500000000E+03  0.12500000000E+03 0.  0.
        -11    1    3    3    0    0 -0.50387561688E+02  0.32376865456E+02 -0.24063588554E+01  0.59941290884E+02  0.51100000000E-03 0.  1.
         23    2    1    0    0    0 -0.26538919344E+02  0.88882591893E+01  0.94613112177E+01  0.95456273063E+02  0.90769313459E+02 0.  0.
         11    1    3    3    0    0  0.23848642344E+02 -0.23488606267E+02  0.11867670073E+02  0.35514982180E+02  0.51100000000E-03 0. -1.
         22    1    1    0    0    0  0.26538919344E+02 -0.88882591893E+01 -0.94613112177E+01  0.29543726937E+02  0.00000000000E+00 0.  1.
</event>
<event>
 5    1  0.1094625E-009  0.9118800E+02  0.7818608E-02  0.1130116E+00
         25   -1    0    0    0    0  0.00000000000E+00  0.00000000000E+00  0.99999998245E-14  0.12500000000E+03  0.12500000000E+03 0.  0.
        -11    1    3    3    0    0  0.28064802480E+02  0.18911933847E+02  0.37950682771E+02  0.50848291054E+02  0.51100000000E-03 0.  1.
         23    2    1    0    0    0 -0.57049611657E+01 -0.87950839869E+01  0.27223584014E+02  0.95827691027E+02  0.91279366544E+02 0.  0.
         11    1    3    3    0    0 -0.33769763646E+02 -0.27707017833E+02 -0.10727098757E+02  0.44979399973E+02  0.51100000000E-03 0. -1.
         22    1    1    0    0    0  0.57049611657E+01  0.87950839869E+01 -0.27223584014E+02  0.29172308973E+02  0.00000000000E+00 0.  1.
</event>
<event>
 5    1  0.1094625E-009  0.9118800E+02  0.7818608E-02  0.1130116E+00
         25   -1    0    0    0    0  0.00000000000E+00  0.00000000000E+00  0.99999998245E-14  0.12500000000E+03  0.12500000000E+03 0.  0.
        -11    1    3    3    0    0  0.49697207208E+02 -0.15908502235E+02  0.23012524763E+02  0.57030422968E+02  0.51100000000E-03 0. -1.
         23    2    1    0    0    0  0.12427192963E+02 -0.19958102159E+02  0.19071789588E+02  0.94726346028E+02  0.89758489888E+02 0.  0.
         11    1    3    3    0    0 -0.37270014245E+02 -0.40495999239E+01 -0.39407351747E+01  0.37695923060E+02  0.51100000000E-03 0.  1.
         22    1    1    0    0    0 -0.12427192963E+02  0.19958102159E+02 -0.19071789588E+02  0.30273653972E+02  0.00000000000E+00 0. -1.
</event>
<event>
 5    1  0.1094625E-009  0.9118800E+02  0.7818608E-02  0.1130116E+00
         25   -1    0    0    0    0  0.00000000000E+00  0.00000000000E+00  0.99999998245E-14  0.12500000000E+03  0.12500000000E+03 0.  0.
        -11    1    3    3    0    0  0.33344702700E+02 -0.25467358317E+01 -0.12291864785E+02  0.35629271698E+02  0.51100000000E-03 0. -1.
         23    2    1    0    0    0 -0.10611468771E+02  0.29575903737E+02 -0.15087220781E+02  0.90143700968E+02  0.83131974847E+02 0.  0.
         11    1    3    3    0    0 -0.43956171471E+02  0.32122639569E+02 -0.27953559958E+01  0.54514429270E+02  0.51100000000E-03 0.  1.
         22    1    1    0    0    0  0.10611468771E+02 -0.29575903737E+02  0.15087220781E+02  0.34856299032E+02  0.00000000000E+00 0.  1.
</event>
<event>
 5    1  0.1094625E-009  0.9118800E+02  0.7818608E-02  0.1130116E+00
         25   -1    0    0    0    0  0.00000000000E+00  0.00000000000E+00  0.99999998245E-14  0.12500000000E+03  0.12500000000E+03 0.  0.
        -11    1    3    3    0    0 -0.19775244161E+02 -0.21100427419E+02  0.22824395939E+02  0.36840756902E+02  0.51100000000E-03 0.  1.
         23    2    1    0    0    0 -0.71967303090E+01  0.28768695360E+02 -0.43793874295E+01  0.95023179052E+02  0.90170919720E+02 0.  0.
         11    1    3    3    0    0  0.12578513852E+02  0.49869122779E+02 -0.27203783368E+02  0.58182422150E+02  0.51100000000E-03 0. -1.
         22    1    1    0    0    0  0.71967303090E+01 -0.28768695360E+02  0.43793874295E+01  0.29976820948E+02  0.00000000000E+00 0. -1.
</event>
<event>
 5    1  0.1094625E-009  0.9118800E+02  0.7818608E-02  0.1130116E+00
         25   -1    0    0    0    0  0.00000000000E+00  0.00000000000E+00  0.99999998245E-14  0.12500000000E+03  0.12500000000E+03 0.  0.
        -11    1    3    3    0    0  0.31087123908E+02  0.38202478779E+02 -0.45096912381E+01  0.49458831093E+02  0.51100000000E-03 0.  1.
         23    2    1    0    0    0  0.27640279805E+02 -0.81118046370E+01 -0.41050148330E+01  0.95902962540E+02  0.91382386897E+02 0.  0.
         11    1    3    3    0    0 -0.34468441032E+01 -0.46314283416E+02  0.40467640502E+00  0.46444131447E+02  0.51100000000E-03 0. -1.
         22    1    1    0    0    0 -0.27640279805E+02  0.81118046370E+01  0.41050148330E+01  0.29097037460E+02  0.00000000000E+00 0. -1.
</event>
<event>
 5    1  0.1094625E-009  0.9118800E+02  0.7818608E-02  0.1130116E+00
         25   -1    0    0    0    0  0.00000000000E+00  0.00000000000E+00  0.99999998245E-14  0.12500000000E+03  0.12500000000E+03 0.  0.
        -11    1    3    3    0    0  0.29403289221E+01 -0.86480741302E+01 -0.34013012762E+02  0.35218173685E+02  0.51100000000E-03 0. -1.
         23    2    1    0    0    0 -0.11911859769E+02  0.25178114334E+02  0.12376255503E+02  0.94520473349E+02  0.89471326900E+02 0.  0.
         11    1    3    3    0    0 -0.14852188692E+02  0.33826188465E+02  0.46389268265E+02  0.59302299664E+02  0.51100000000E-03 0.  1.
         22    1    1    0    0    0  0.11911859769E+02 -0.25178114334E+02 -0.12376255503E+02  0.30479526651E+02  0.00000000000E+00 0.  1.
</event>
<event>
 5    1  0.1094625E-009  0.9118800E+02  0.7818608E-02  0.1130116E+00
         25   -1    0    0    0    0  0.00000000000E+00  0.00000000000E+00  0.99999998245E-14  0.12500000000E+03  0.12500000000E+03 0.  0.
        -11    1    3    3    0    0  0.13591495367E+02 -0.26124131244E+02 -0.21312990334E+02  0.36351651088E+02  0.51100000000E-03 0.  1.
         23    2    1    0    0    0  0.27485870384E+01  0.28727133212E+02 -0.13327592164E+00  0.96141367397E+02  0.91707915957E+02 0.  0.
         11    1    3    3    0    0 -0.10842908329E+02  0.54851264456E+02  0.21179714412E+02  0.59789716309E+02  0.51100000000E-03 0. -1.
         22    1    1    0    0    0 -0.27485870384E+01 -0.28727133212E+02  0.13327592164E+00  0.28858632603E+02  0.00000000000E+00 0. -1.
</event>
<event>
 5    1  0.1094625E-009  0.9118800E+02  0.7818608E-02  0.1130116E+00
         25   -1    0    0    0    0  0.00000000000E+00  0.00000000000E+00  0.99999998245E-14  0.12500000000E+03  0.12500000000E+03 0.  0.
        -11    1    3    3    0    0  0.19782998599E+02 -0.35644418039E+02  0.53254984037E+01  0.41112680579E+02  0.51100000000E-03 0. -1.
         23    2    1    0    0    0 -0.14573338809E+02 -0.42930206841E+01 -0.24360790571E+02  0.96290065345E+02  0.91910371212E+02 0.  0.
         11    1    3    3    0    0 -0.34356337408E+02  0.31351397355E+02 -0.29686288975E+02  0.55177384766E+02  0.51100000000E-03 0.  1.
         22    1    1    0    0    0  0.14573338809E+02  0.42930206841E+01  0.24360790571E+02  0.28709934655E+02  0.00000000000E+00 0.  1.
</event>
<event>
 5    1  0.1094625E-009  0.9118800E+02  0.7818608E-02  0.1130116E+00
         25   -1    0    0    0    0  0.00000000000E+00  0.00000000000E+00  0.99999998245E-14  0.12500000000E+03  0.12500000000E+03 0.  0.
        -11    1    3    3    0    0  0.20718282992E+02  0.21208665537E+02  0.26661416577E+02  0.39873373047E+02  0.51100000000E-03 0. -1.
         23    2    1    0    0    0  0.20207609467E+02 -0.23204590772E+02 -0.41799175197E+01  0.93947267049E+02  0.88666886503E+02 0.  0.
         11    1    3    3    0    0 -0.51067352438E+00 -0.44413256309E+02 -0.30841334097E+02  0.54073894002E+02  0.51100000000E-03 0.  1.
         22    1    1    0    0    0 -0.20207609467E+02  0.23204590772E+02  0.41799175197E+01  0.31052732951E+02  0.00000000000E+00 0.  1.
</event>
<event>
 5    1  0.1094625E-009  0.9118800E+02  0.7818608E-02  0.1130116E+00
         25   -1    0    0    0    0  0.00000000000E+00  0.00000000000E+00  0.99999998245E-14  0.12500000000E+03  0.12500000000E+03 0.  0.
        -11    1    3    3    0    0  0.34917180782E+02  0.14309679062E+02  0.33623126517E+01  0.37885110205E+02  0.51100000000E-03 0. -1.
         23    2    1    0    0    0 -0.16379628576E+02  0.89767225000E+01  0.24982723206E+02  0.93806887973E+02  0.88468762811E+02 0.  0.
         11    1    3    3    0    0 -0.51296809358E+02 -0.53329565618E+01  0.21620410554E+02  0.55921777768E+02  0.51100000000E-03 0.  1.
         22    1    1    0    0    0  0.16379628576E+02 -0.89767225000E+01 -0.24982723206E+02  0.31193112027E+02  0.00000000000E+00 0.  1.
</event>
<event>
 5    1  0.1094625E-009  0.9118800E+02  0.7818608E-02  0.1130116E+00
         25   -1    0    0    0    0  0.00000000000E+00  0.00000000000E+00  0.99999998245E-14  0.12500000000E+03  0.12500000000E+03 0.  0.
        -11    1    3    3    0    0 -0.12284611526E+02  0.19984966654E+02 -0.20488920776E+02  0.31146531867E+02  0.51100000000E-03 0. -1.
         23    2    1    0    0    0  0.17503445118E+02  0.98046099376E+01  0.28962549705E+02  0.89767483024E+02  0.82564343127E+02 0.  0.
         11    1    3    3    0    0  0.29788056644E+02 -0.10180356717E+02  0.49451470481E+02  0.58620951157E+02  0.51100000000E-03 0.  1.
         22    1    1    0    0    0 -0.17503445118E+02 -0.98046099376E+01 -0.28962549705E+02  0.35232516976E+02  0.00000000000E+00 0.  1.
</event>
<event>
 5    1  0.1094625E-009  0.9118800E+02  0.7818608E-02  0.1130116E+00
         25   -1    0    0    0    0  0.00000000000E+00  0.00000000000E+00  0.99999998245E-14  0.12500000000E+03  0.12500000000E+03 0.  0.
        -11    1    3    3    0    0 -0.26091981923E+01  0.33373319914E+02  0.12701078668E+02  0.35803684124E+02  0.51100000000E-03 0.  1.
         23    2    1    0    0    0 -0.18360498673E+01 -0.27330412845E+02  0.66438633315E+01  0.96813771708E+02  0.92619884080E+02 0.  0.
         11    1    3    3    0    0  0.77314832500E+00 -0.60703732758E+02 -0.60572153361E+01  0.61010087584E+02  0.51100000000E-03 0. -1.
         22    1    1    0    0    0  0.18360498673E+01  0.27330412845E+02 -0.66438633315E+01  0.28186228292E+02  0.00000000000E+00 0. -1.
</event>
<event>
 5    1  0.1094625E-009  0.9118800E+02  0.7818608E-02  0.1130116E+00
         25   -1    0    0    0    0  0.00000000000E+00  0.00000000000E+00  0.99999998245E-14  0.12500000000E+03  0.12500000000E+03 0.  0.
        -11    1    3    3    0    0 -0.13211497974E+02  0.19950401988E+02  0.25697718686E+02  0.35113173655E+02  0.51100000000E-03 0. -1.
         23    2    1    0    0    0 -0.10931719628E+01 -0.23775445249E+02 -0.15661715857E+02  0.96508665084E+02  0.92207192079E+02 0.  0.
         11    1    3    3    0    0  0.12118326011E+02 -0.43725847237E+02 -0.41359434542E+02  0.61395491429E+02  0.51100000000E-03 0.  1.
         22    1    1    0    0    0  0.10931719628E+01  0.23775445249E+02  0.15661715857E+02  0.28491334916E+02  0.00000000000E+00 0.  1.
</event>
<event>
 5    1  0.1094625E-009  0.9118800E+02  0.7818608E-02  0.1130116E+00
         25   -1    0    0    0    0  0.00000000000E+00  0.00000000000E+00  0.99999998245E-14  0.12500000000E+03  0.12500000000E+03 0.  0.
        -11    1    3    3    0    0  0.36819986658E+01 -0.38903767989E+01  0.54066602069E+02  0.54331294898E+02  0.51100000000E-03 0. -1.
         23    2    1    0    0    0  0.21373038961E+02 -0.10436353715E+02  0.17519764492E+02  0.95459072101E+02  0.90773167980E+02 0.  0.
         11    1    3    3    0    0  0.17691040295E+02 -0.65459769165E+01 -0.36546837576E+02  0.41127777202E+02  0.51100000000E-03 0.  1.
         22    1    1    0    0    0 -0.21373038961E+02  0.10436353715E+02 -0.17519764492E+02  0.29540927899E+02  0.00000000000E+00 0. -1.
</event>
<event>
 5    1  0.1094625E-009  0.9118800E+02  0.7818608E-02  0.1130116E+00
         25   -1    0    0    0    0  0.00000000000E+00  0.00000000000E+00  0.99999998245E-14  0.12500000000E+03  0.12500000000E+03 0.  0.
        -11    1    3    3    0    0  0.49378529227E+02  0.15473940737E+02 -0.21687363096E+02  0.56107251839E+02  0.51100000000E-03 0.  1.
         23    2    1    0    0    0  0.11311677750E+02  0.19522491593E+02 -0.20667189727E+02  0.94402378152E+02  0.89306184210E+02 0.  0.
         11    1    3    3    0    0 -0.38066851477E+02  0.40485508558E+01  0.10201733688E+01  0.38295126314E+02  0.51100000000E-03 0. -1.
         22    1    1    0    0    0 -0.11311677750E+02 -0.19522491593E+02  0.20667189727E+02  0.30597621848E+02  0.00000000000E+00 0.  1.
</event>
<event>
 5    1  0.1094625E-009  0.9118800E+02  0.7818608E-02  0.1130116E+00
         25   -1    0    0    0    0  0.00000000000E+00  0.00000000000E+00  0.99999998245E-14  0.12500000000E+03  0.12500000000E+03 0.  0.
        -11    1    3    3    0    0 -0.94998284102E+01 -0.16837583988E+02  0.28191161806E+02  0.34183220717E+02  0.51100000000E-03 0. -1.
         23    2    1    0    0    0 -0.29591518389E+02  0.24667570554E+02  0.39658897670E+01  0.86271776709E+02  0.77090493430E+02 0.  0.
         11    1    3    3    0    0 -0.20091689979E+02  0.41505154542E+02 -0.24225272039E+02  0.52088555992E+02  0.51100000000E-03 0.  1.
         22    1    1    0    0    0  0.29591518389E+02 -0.24667570554E+02 -0.39658897670E+01  0.38728223291E+02  0.00000000000E+00 0.  1.
</event>
<event>
 5    1  0.1094625E-009  0.9118800E+02  0.7818608E-02  0.1130116E+00
         25   -1    0    0    0    0  0.00000000000E+00  0.00000000000E+00  0.99999998245E-14  0.12500000000E+03  0.12500000000E+03 0.  0.
        -11    1    3    3    0    0 -0.14536804886E+02 -0.20000705346E+01  0.27907952738E+02  0.31530505939E+02  0.51100000000E-03 0. -1.
         23    2    1    0    0    0  0.10585584940E+02  0.21595105772E+01 -0.29095693673E+02  0.93963288113E+02  0.88689469658E+02 0.  0.
         11    1    3    3    0    0  0.25122389826E+02  0.41595811118E+01 -0.57003646411E+02  0.62432782174E+02  0.51100000000E-03 0.  1.
         22    1    1    0    0    0 -0.10585584940E+02 -0.21595105772E+01  0.29095693673E+02  0.31036711887E+02  0.00000000000E+00 0.  1.
</event>
<event>
 5    1  0.1094625E-009  0.9118800E+02  0.7818608E-02  0.1130116E+00
         25   -1    0    0    0    0  0.00000000000E+00  0.00000000000E+00  0.99999998245E-14  0.12500000000E+03  0.12500000000E+03 0.  0.
        -11    1    3    3    0    0 -0.22718990488E+02 -0.36800002989E+02  0.41503316590E+02  0.59940954589E+02  0.51100000000E-03 0.  1.
         23    2    1    0    0    0 -0.19044373338E+02 -0.96605005504E+01  0.25793379079E+02  0.91514005450E+02  0.85167490056E+02 0.  0.
         11    1    3    3    0    0  0.36746171496E+01  0.27139502438E+02 -0.15709937512E+02  0.31573050861E+02  0.51100000000E-03 0. -1.
         22    1    1    0    0    0  0.19044373338E+02  0.96605005504E+01 -0.25793379079E+02  0.33485994550E+02  0.00000000000E+00 0.  1.
</event>
<event>
 5    1  0.1094625E-009  0.9118800E+02  0.7818608E-02  0.1130116E+00
         25   -1    0    0    0    0  0.00000000000E+00  0.00000000000E+00  0.99999998245E-14  0.12500000000E+03  0.12500000000E+03 0.  0.
        -11    1    3    3    0    0  0.42334792914E+02  0.84874397603E+01 -0.14100276220E+02  0.45421240785E+02  0.51100000000E-03 0.  1.
         23    2    1    0    0    0  0.10843654283E+02 -0.20990247464E+02 -0.25701948168E+02  0.90089178376E+02  0.83049952402E+02 0.  0.
         11    1    3    3    0    0 -0.31491138631E+02 -0.29477687224E+02 -0.11601671949E+02  0.44667937591E+02  0.51100000000E-03 0. -1.
         22    1    1    0    0    0 -0.10843654283E+02  0.20990247464E+02  0.25701948168E+02  0.34910821624E+02  0.00000000000E+00 0. -1.
</event>
<event>
 5    1  0.1094625E-009  0.9118800E+02  0.7818608E-02  0.1130116E+00
         25   -1    0    0    0    0  0.00000000000E+00  0.00000000000E+00  0.99999998245E-14  0.12500000000E+03  0.12500000000E+03 0.  0.
        -11    1    3    3    0    0 -0.84769380590E+01 -0.31301169872E+02 -0.20507171733E+02  0.38368812946E+02  0.51100000000E-03 0.  1.
         23    2    1    0    0    0  0.75405493846E+00  0.25974150327E+02 -0.89002130431E+01  0.97532949261E+02  0.93585454614E+02 0.  0.
         11    1    3    3    0    0  0.92309929975E+01  0.57275320199E+02  0.11606958689E+02  0.59164136315E+02  0.51100000000E-03 0. -1.
         22    1    1    0    0    0 -0.75405493846E+00 -0.25974150327E+02  0.89002130431E+01  0.27467050739E+02  0.00000000000E+00 0. -1.
</event>
<event>
 5    1  0.1094625E-009  0.9118800E+02  0.7818608E-02  0.1130116E+00
         25   -1    0    0    0    0  0.00000000000E+00  0.00000000000E+00  0.99999998245E-14  0.12500000000E+03  0.12500000000E+03 0.  0.
        -11    1    3    3    0    0  0.33897672447E+02  0.15449639133E+02  0.45568922626E+02  0.58858051754E+02  0.51100000000E-03 0. -1.
         23    2    1    0    0    0  0.12582812528E+02  0.21687728722E+02  0.18679276001E+02  0.93733402805E+02  0.88364872553E+02 0.  0.
         11    1    3    3    0    0 -0.21314859919E+02  0.62380895889E+01 -0.26889646625E+02  0.34875351052E+02  0.51100000000E-03 0.  1.
         22    1    1    0    0    0 -0.12582812528E+02 -0.21687728722E+02 -0.18679276001E+02  0.31266597195E+02  0.00000000000E+00 0. -1.
</event>
<event>
 5    1  0.1094625E-009  0.9118800E+02  0.7818608E-02  0.1130116E+00
         25   -1    0    0    0    0  0.00000000000E+00  0.00000000000E+00  0.99999998245E-14  0.12500000000E+03  0.12500000000E+03 0.  0.
        -11    1    3    3    0    0  0.61891288862E+02  0.24461906319E+01  0.43062348587E+01  0.62089122594E+02  0.51100000000E-03 0.  1.
         23    2    1    0    0    0  0.29041019552E+02  0.37260516296E+01 -0.23333687560E+01  0.95628093574E+02  0.91005622867E+02 0.  0.
         11    1    3    3    0    0 -0.32850269310E+02  0.12798609977E+01 -0.66396036146E+01  0.33538970979E+02  0.51100000000E-03 0. -1.
         22    1    1    0    0    0 -0.29041019552E+02 -0.37260516296E+01  0.23333687560E+01  0.29371906426E+02  0.00000000000E+00 0.  1.
</event>
<event>
 5    1  0.1094625E-009  0.9118800E+02  0.7818608E-02  0.1130116E+00
         25   -1    0    0    0    0  0.00000000000E+00  0.00000000000E+00  0.99999998245E-14  0.12500000000E+03  0.12500000000E+03 0.  0.
        -11    1    3    3    0    0 -0.39598196845E+02  0.26110204125E+02 -0.10335880974E+02  0.48544725651E+02  0.51100000000E-03 0. -1.
         23    2    1    0    0    0 -0.27026273998E+02 -0.14467526118E+02  0.54513721723E+01  0.93864068077E+02  0.88549517329E+02 0.  0.
         11    1    3    3    0    0  0.12571922847E+02 -0.40577730242E+02  0.15787253146E+02  0.45319342425E+02  0.51100000000E-03 0.  1.
         22    1    1    0    0    0  0.27026273998E+02  0.14467526118E+02 -0.54513721723E+01  0.31135931923E+02  0.00000000000E+00 0.  1.
</event>
<event>
 5    1  0.1094625E-009  0.9118800E+02  0.7818608E-02  0.1130116E+00
         25   -1    0    0    0    0  0.00000000000E+00  0.00000000000E+00  0.99999998245E-14  0.12500000000E+03  0.12500000000E+03 0.  0.
        -11    1    3    3    0    0  0.38262812110E+02  0.13158538937E+02 -0.16041549077E+02  0.43526098315E+02  0.51100000000E-03 0.  1.
         23    2    1    0    0    0  0.11390988948E+02 -0.26855347575E+02  0.36663823298E+01  0.95599206100E+02  0.90965936070E+02 0.  0.
         11    1    3    3    0    0 -0.26871823162E+02 -0.40013886511E+02  0.19707931406E+02  0.52073107785E+02  0.51100000000E-03 0. -1.
         22    1    1    0    0    0 -0.11390988948E+02  0.26855347575E+02 -0.36663823298E+01  0.29400793900E+02  0.00000000000E+00 0. -1.
</event>
<event>
 5    1  0.1094625E-009  0.9118800E+02  0.7818608E-02  0.1130116E+00
         25   -1    0    0    0    0  0.00000000000E+00  0.00000000000E+00  0.99999998245E-14  0.12500000000E+03  0.12500000000E+03 0.  0.
        -11    1    3    3    0    0 -0.12907121636E+02  0.36885562292E+02  0.15582882330E+02  0.42070948605E+02  0.51100000000E-03 0. -1.
         23    2    1    0    0    0 -0.29357189424E+02 -0.37270592677E+01 -0.11123241712E+02  0.93385730313E+02  0.87871682460E+02 0.  0.
         11    1    3    3    0    0 -0.16450067787E+02 -0.40612621560E+02 -0.26706124042E+02  0.51314781708E+02  0.51100000000E-03 0.  1.
         22    1    1    0    0    0  0.29357189424E+02  0.37270592677E+01  0.11123241712E+02  0.31614269687E+02  0.00000000000E+00 0. -1.
</event>
<event>
 5    1  0.1094625E-009  0.9118800E+02  0.7818608E-02  0.1130116E+00
         25   -1    0    0    0    0  0.00000000000E+00  0.00000000000E+00  0.99999998245E-14  0.12500000000E+03  0.12500000000E+03 0.  0.
        -11    1    3    3    0    0  0.90338103481E+01  0.16878304820E+02  0.26956352849E+02  0.33062544702E+02  0.51100000000E-03 0.  1.
         23    2    1    0    0    0  0.16373579916E+01 -0.29548799935E+02 -0.10941261579E+02  0.93448078922E+02  0.87960330436E+02 0.  0.
         11    1    3    3    0    0 -0.73964523565E+01 -0.46427104755E+02 -0.37897614428E+02  0.60385534220E+02  0.51100000000E-03 0. -1.
         22    1    1    0    0    0 -0.16373579916E+01  0.29548799935E+02  0.10941261579E+02  0.31551921078E+02  0.00000000000E+00 0. -1.
</event>
<event>
 5    1  0.1094625E-009  0.9118800E+02  0.7818608E-02  0.1130116E+00
         25   -1    0    0    0    0  0.00000000000E+00  0.00000000000E+00  0.99999998245E-14  0.12500000000E+03  0.12500000000E+03 0.  0.
        -11    1    3    3    0    0  0.33921468573E+02  0.29849023790E+02  0.19159939841E+02  0.49078850295E+02  0.51100000000E-03 0. -1.
         23    2    1    0    0    0  0.11825787545E+02  0.16310084666E+02 -0.20373092001E+02  0.96348106685E+02  0.91989274761E+02 0.  0.
         11    1    3    3    0    0 -0.22095681027E+02 -0.13538939124E+02 -0.39533031842E+02  0.47269256389E+02  0.51100000000E-03 0.  1.
         22    1    1    0    0    0 -0.11825787545E+02 -0.16310084666E+02  0.20373092001E+02  0.28651893315E+02  0.00000000000E+00 0.  1.
</event>
<event>
 5    1  0.1094625E-009  0.9118800E+02  0.7818608E-02  0.1130116E+00
         25   -1    0    0    0    0  0.00000000000E+00  0.00000000000E+00  0.99999998245E-14  0.12500000000E+03  0.12500000000E+03 0.  0.
        -11    1    3    3    0    0  0.31021525336E+01  0.54004564200E+01  0.61270680412E+02  0.61586399134E+02  0.51100000000E-03 0.  1.
         23    2    1    0    0    0 -0.19424886390E+01  0.89042012860E+01  0.24637214649E+02  0.98731189439E+02  0.95172461141E+02 0.  0.
         11    1    3    3    0    0 -0.50446411726E+01  0.35037448659E+01 -0.36633465764E+02  0.37144790304E+02  0.51100000000E-03 0. -1.
         22    1    1    0    0    0  0.19424886390E+01 -0.89042012860E+01 -0.24637214649E+02  0.26268810561E+02  0.00000000000E+00 0.  1.
</event>
<event>
 5    1  0.1094625E-009  0.9118800E+02  0.7818608E-02  0.1130116E+00
         25   -1    0    0    0    0  0.00000000000E+00  0.00000000000E+00  0.99999998245E-14  0.12500000000E+03  0.12500000000E+03 0.  0.
        -11    1    3    3    0    0 -0.18330910424E+02 -0.56386894222E+02  0.15789325576E+02  0.61358022453E+02  0.51100000000E-03 0. -1.
         23    2    1    0    0    0 -0.46222017131E+00 -0.27785534914E+02  0.92587572658E+01  0.95708803643E+02  0.91116414058E+02 0.  0.
         11    1    3    3    0    0  0.17868690253E+02  0.28601359308E+02 -0.65305683101E+01  0.34350781190E+02  0.51100000000E-03 0.  1.
         22    1    1    0    0    0  0.46222017131E+00  0.27785534914E+02 -0.92587572658E+01  0.29291196357E+02  0.00000000000E+00 0. -1.
</event>
<event>
 5    1  0.1094625E-009  0.9118800E+02  0.7818608E-02  0.1130116E+00
         25   -1    0    0    0    0  0.00000000000E+00  0.00000000000E+00  0.99999998245E-14  0.12500000000E+03  0.12500000000E+03 0.  0.
        -11    1    3    3    0    0 -0.30593400269E+02  0.37293698622E+02  0.27982279471E+02  0.55765437876E+02  0.51100000000E-03 0. -1.
         23    2    1    0    0    0 -0.27681565901E+01  0.13264014886E+02  0.29473859932E+02  0.92560745984E+02  0.86690175314E+02 0.  0.
         11    1    3    3    0    0  0.27825243679E+02 -0.24029683736E+02  0.14915804618E+01  0.36795308108E+02  0.51100000000E-03 0.  1.
         22    1    1    0    0    0  0.27681565901E+01 -0.13264014886E+02 -0.29473859932E+02  0.32439254016E+02  0.00000000000E+00 0. -1.
</event>
<event>
 5    1  0.1094625E-009  0.9118800E+02  0.7818608E-02  0.1130116E+00
         25   -1    0    0    0    0  0.00000000000E+00  0.00000000000E+00  0.99999998245E-14  0.12500000000E+03  0.12500000000E+03 0.  0.
        -11    1    3    3    0    0 -0.74562012667E+01  0.14585966016E+02 -0.49537408696E+02  0.52175666767E+02  0.51100000000E-03 0.  1.
         23    2    1    0    0    0  0.21648720931E+02  0.64170957401E+01 -0.16001718127E+02  0.97325079608E+02  0.93307394680E+02 0.  0.
         11    1    3    3    0    0  0.29104922198E+02 -0.81688702764E+01  0.33535690569E+02  0.45149412841E+02  0.51100000000E-03 0. -1.
         22    1    1    0    0    0 -0.21648720931E+02 -0.64170957401E+01  0.16001718127E+02  0.27674920392E+02  0.00000000000E+00 0.  1.
</event>
<event>
 5    1  0.1094625E-009  0.9118800E+02  0.7818608E-02  0.1130116E+00
         25   -1    0    0    0    0  0.00000000000E+00  0.00000000000E+00  0.99999998245E-14  0.12500000000E+03  0.12500000000E+03 0.  0.
        -11    1    3    3    0    0  0.63826939245E+01  0.33426800219E+02  0.20467789212E+02  0.39711713009E+02  0.51100000000E-03 0. -1.
         23    2    1    0    0    0  0.10353270205E+02 -0.22273394555E+02  0.15902124444E+02  0.95739585260E+02  0.91158632695E+02 0.  0.
         11    1    3    3    0    0  0.39705762805E+01 -0.55700194774E+02 -0.45656647679E+01  0.56027872251E+02  0.51100000000E-03 0.  1.
         22    1    1    0    0    0 -0.10353270205E+02  0.22273394555E+02 -0.15902124444E+02  0.29260414740E+02  0.00000000000E+00 0.  1.
</event>
<event>
 5    1  0.1094625E-009  0.9118800E+02  0.7818608E-02  0.1130116E+00
         25   -1    0    0    0    0  0.00000000000E+00  0.00000000000E+00  0.99999998245E-14  0.12500000000E+03  0.12500000000E+03 0.  0.
        -11    1    3    3    0    0 -0.22596196096E+02 -0.43010440278E+02 -0.32602553564E+01  0.48694099398E+02  0.51100000000E-03 0.  1.
         23    2    1    0    0    0  0.62349712564E+01 -0.15442424207E+02 -0.25634622000E+02  0.94430780562E+02  0.89345929625E+02 0.  0.
         11    1    3    3    0    0  0.28831167352E+02  0.27568016071E+02 -0.22374366644E+02  0.45736681164E+02  0.51100000000E-03 0. -1.
         22    1    1    0    0    0 -0.62349712564E+01  0.15442424207E+02  0.25634622000E+02  0.30569219438E+02  0.00000000000E+00 0.  1.
</event>
<event>
 5    1  0.1094625E-009  0.9118800E+02  0.7818608E-02  0.1130116E+00
         25   -1    0    0    0    0  0.00000000000E+00  0.00000000000E+00  0.99999998245E-14  0.12500000000E+03  0.12500000000E+03 0.  0.
        -11    1    3    3    0    0 -0.32754141394E+02 -0.45619069514E+02  0.18823719714E+01  0.56191428228E+02  0.51100000000E-03 0.  1.
         23    2    1    0    0    0 -0.12511616136E+02 -0.20153500638E+02 -0.18792939020E+02  0.94736512374E+02  0.89772646689E+02 0.  0.
         11    1    3    3    0    0  0.20242525258E+02  0.25465568876E+02 -0.20675310991E+02  0.38545084146E+02  0.51100000000E-03 0. -1.
         22    1    1    0    0    0  0.12511616136E+02  0.20153500638E+02  0.18792939020E+02  0.30263487626E+02  0.00000000000E+00 0.  1.
</event>
<event>
 5    1  0.1094625E-009  0.9118800E+02  0.7818608E-02  0.1130116E+00
         25   -1    0    0    0    0  0.00000000000E+00  0.00000000000E+00  0.99999998245E-14  0.12500000000E+03  0.12500000000E+03 0.  0.
        -11    1    3    3    0    0  0.20316548904E+02 -0.89401071283E+01  0.42715515547E+02  0.48138372880E+02  0.51100000000E-03 0.  1.
         23    2    1    0    0    0 -0.13417412153E+02  0.15399772788E+02  0.23209977366E+02  0.94082642413E+02  0.88857529806E+02 0.  0.
         11    1    3    3    0    0 -0.33733961057E+02  0.24339879917E+02 -0.19505538181E+02  0.45944269533E+02  0.51100000000E-03 0. -1.
         22    1    1    0    0    0  0.13417412153E+02 -0.15399772788E+02 -0.23209977366E+02  0.30917357587E+02  0.00000000000E+00 0.  1.
</event>
<event>
 5    1  0.1094625E-009  0.9118800E+02  0.7818608E-02  0.1130116E+00
         25   -1    0    0    0    0  0.00000000000E+00  0.00000000000E+00  0.99999998245E-14  0.12500000000E+03  0.12500000000E+03 0.  0.
        -11    1    3    3    0    0  0.21172020483E+02  0.28338262752E+02 -0.96919000450E+00  0.35387157510E+02  0.51100000000E-03 0.  1.
         23    2    1    0    0    0 -0.17792482113E+02 -0.15527835803E+02 -0.16633491293E+02  0.96114724563E+02  0.91671593969E+02 0.  0.
         11    1    3    3    0    0 -0.38964502596E+02 -0.43866098555E+02 -0.15664301288E+02  0.60727567053E+02  0.51100000000E-03 0. -1.
         22    1    1    0    0    0  0.17792482113E+02  0.15527835803E+02  0.16633491293E+02  0.28885275437E+02  0.00000000000E+00 0. -1.
</event>
<event>
 5    1  0.1094625E-009  0.9118800E+02  0.7818608E-02  0.1130116E+00
         25   -1    0    0    0    0  0.00000000000E+00  0.00000000000E+00  0.99999998245E-14  0.12500000000E+03  0.12500000000E+03 0.  0.
        -11    1    3    3    0    0 -0.54694376424E+02  0.15518355875E+01 -0.27816185453E+02  0.61380967567E+02  0.51100000000E-03 0.  1.
         23    2    1    0    0    0 -0.29244044047E+02 -0.73763478822E+01 -0.12953482998E+02  0.92175963958E+02  0.86133564825E+02 0.  0.
         11    1    3    3    0    0  0.25450332377E+02 -0.89281834697E+01  0.14862702455E+02  0.30794996390E+02  0.51100000000E-03 0. -1.
         22    1    1    0    0    0  0.29244044047E+02  0.73763478822E+01  0.12953482998E+02  0.32824036042E+02  0.00000000000E+00 0.  1.
</event>
<event>
 5    1  0.1094625E-009  0.9118800E+02  0.7818608E-02  0.1130116E+00
         25   -1    0    0    0    0  0.00000000000E+00  0.00000000000E+00  0.99999998245E-14  0.12500000000E+03  0.12500000000E+03 0.  0.
        -11    1    3    3    0    0 -0.39755034708E+02  0.33197744985E+02  0.30308816895E+02  0.60009811185E+02  0.51100000000E-03 0. -1.
         23    2    1    0    0    0 -0.24417028302E+02  0.17077208238E+02  0.32738198905E+01  0.95024339724E+02  0.90172528693E+02 0.  0.
         11    1    3    3    0    0  0.15338006405E+02 -0.16120536747E+02 -0.27034997004E+02  0.35014528538E+02  0.51100000000E-03 0.  1.
         22    1    1    0    0    0  0.24417028302E+02 -0.17077208238E+02 -0.32738198905E+01  0.29975660276E+02  0.00000000000E+00 0. -1.
</event>
<event>
 5    1  0.1094625E-009  0.9118800E+02  0.7818608E-02  0.1130116E+00
         25   -1    0    0    0    0  0.00000000000E+00  0.00000000000E+00  0.99999998245E-14  0.12500000000E+03  0.12500000000E+03 0.  0.
        -11    1    3    3    0    0 -0.42205070510E+02 -0.50345516425E+01 -0.55478300250E+01  0.42864823635E+02  0.51100000000E-03 0.  1.
         23    2    1    0    0    0 -0.18482737572E+02  0.25102770510E+02  0.19086091594E+02  0.88448124976E+02  0.80542108514E+02 0.  0.
         11    1    3    3    0    0  0.23722332938E+02  0.30137322153E+02  0.24633921619E+02  0.45583301341E+02  0.51100000000E-03 0. -1.
         22    1    1    0    0    0  0.18482737572E+02 -0.25102770510E+02 -0.19086091594E+02  0.36551875024E+02  0.00000000000E+00 0.  1.
</event>
<event>
 5    1  0.1094625E-009  0.9118800E+02  0.7818608E-02  0.1130116E+00
         25   -1    0    0    0    0  0.00000000000E+00  0.00000000000E+00  0.99999998245E-14  0.12500000000E+03  0.12500000000E+03 0.  0.
        -11    1    3    3    0    0 -0.42747379759E+02 -0.95576709130E+01  0.19995176764E+02  0.48150749150E+02  0.51100000000E-03 0. -1.
         23    2    1    0    0    0 -0.72050356322E+01  0.22054535545E+02  0.17780258445E+02  0.95768977661E+02  0.91198927710E+02 0.  0.
         11    1    3    3    0    0  0.35542344127E+02  0.31612206458E+02 -0.22149183188E+01  0.47618228512E+02  0.51100000000E-03 0.  1.
         22    1    1    0    0    0  0.72050356322E+01 -0.22054535545E+02 -0.17780258445E+02  0.29231022339E+02  0.00000000000E+00 0.  1.
</event>
<event>
 5    1  0.1094625E-009  0.9118800E+02  0.7818608E-02  0.1130116E+00
         25   -1    0    0    0    0  0.00000000000E+00  0.00000000000E+00  0.99999998245E-14  0.12500000000E+03  0.12500000000E+03 0.  0.
        -11    1    3    3    0    0 -0.23080099286E+02 -0.14013033313E+02 -0.13351657197E+02  0.30121800010E+02  0.51100000000E-03 0. -1.
         23    2    1    0    0    0 -0.21853141207E+02  0.36094944062E+02  0.26088548430E+01  0.82724582899E+02  0.71106580038E+02 0.  0.
         11    1    3    3    0    0  0.12269580791E+01  0.50107977375E+02  0.15960512040E+02  0.52602782888E+02  0.51100000000E-03 0.  1.
         22    1    1    0    0    0  0.21853141207E+02 -0.36094944062E+02 -0.26088548430E+01  0.42275417101E+02  0.00000000000E+00 0.  1.
</event>
<event>
 5    1  0.1094625E-009  0.9118800E+02  0.7818608E-02  0.1130116E+00
         25   -1    0    0    0    0  0.00000000000E+00  0.00000000000E+00  0.99999998245E-14  0.12500000000E+03  0.12500000000E+03 0.  0.
        -11    1    3    3    0    0 -0.32959323112E+02 -0.17397262209E+01 -0.23966660036E+02  0.40789023289E+02  0.51100000000E-03 0.  1.
         23    2    1    0    0    0  0.17672188263E+02  0.18932836311E+02 -0.53989117633E+01  0.98544248697E+02  0.94926614678E+02 0.  0.
         11    1    3    3    0    0  0.50631511375E+02  0.20672562532E+02  0.18567748273E+02  0.57755225408E+02  0.51100000000E-03 0. -1.
         22    1    1    0    0    0 -0.17672188263E+02 -0.18932836311E+02  0.53989117633E+01  0.26455751303E+02  0.00000000000E+00 0. -1.
</event>
<event>
 5    1  0.1094625E-009  0.9118800E+02  0.7818608E-02  0.1130116E+00
         25   -1    0    0    0    0  0.00000000000E+00  0.00000000000E+00  0.99999998245E-14  0.12500000000E+03  0.12500000000E+03 0.  0.
        -11    1    3    3    0    0 -0.44177895148E+01 -0.18127963778E+02 -0.57956007215E+02  0.60885455632E+02  0.51100000000E-03 0.  1.
         23    2    1    0    0    0 -0.12000082882E+02 -0.85810255077E+01 -0.25725902265E+02  0.95344342272E+02  0.90615040517E+02 0.  0.
         11    1    3    3    0    0 -0.75822933673E+01  0.95469382707E+01  0.32230104950E+02  0.34458886639E+02  0.51100000000E-03 0. -1.
         22    1    1    0    0    0  0.12000082882E+02  0.85810255077E+01  0.25725902265E+02  0.29655657728E+02  0.00000000000E+00 0.  1.
</event>
<event>
 5    1  0.1094625E-009  0.9118800E+02  0.7818608E-02  0.1130116E+00
         25   -1    0    0    0    0  0.00000000000E+00  0.00000000000E+00  0.99999998245E-14  0.12500000000E+03  0.12500000000E+03 0.  0.
        -11    1    3    3    0    0  0.28940252543E+02  0.10206963740E+01 -0.10740422619E+02  0.30885865969E+02  0.51100000000E-03 0. -1.
         23    2    1    0    0    0 -0.34252659387E+01  0.19451282466E+02  0.31886562015E+02  0.87492165172E+02  0.79044552583E+02 0.  0.
         11    1    3    3    0    0 -0.32365518481E+02  0.18430586092E+02  0.42626984634E+02  0.56606299204E+02  0.51100000000E-03 0.  1.
         22    1    1    0    0    0  0.34252659387E+01 -0.19451282466E+02 -0.31886562015E+02  0.37507834828E+02  0.00000000000E+00 0.  1.
</event>
<event>
 5    1  0.1094625E-009  0.9118800E+02  0.7818608E-02  0.1130116E+00
         25   -1    0    0    0    0  0.00000000000E+00  0.00000000000E+00  0.99999998245E-14  0.12500000000E+03  0.12500000000E+03 0.  0.
        -11    1    3    3    0    0  0.31439993987E+02 -0.15388945522E+02 -0.32978836474E+02  0.48092582813E+02  0.51100000000E-03 0.  1.
         23    2    1    0    0    0  0.14688916396E+01 -0.29137273155E+02  0.14824114830E+01  0.95788086790E+02  0.91225115497E+02 0.  0.
         11    1    3    3    0    0 -0.29971102347E+02 -0.13748327634E+02  0.34461247957E+02  0.47695503977E+02  0.51100000000E-03 0. -1.
         22    1    1    0    0    0 -0.14688916396E+01  0.29137273155E+02 -0.14824114830E+01  0.29211913210E+02  0.00000000000E+00 0. -1.
</event>
<event>
 5    1  0.1094625E-009  0.9118800E+02  0.7818608E-02  0.1130116E+00
         25   -1    0    0    0    0  0.00000000000E+00  0.00000000000E+00  0.99999998245E-14  0.12500000000E+03  0.12500000000E+03 0.  0.
        -11    1    3    3    0    0 -0.27538574435E+01  0.29953947032E+02 -0.16691883140E+02  0.34401186559E+02  0.51100000000E-03 0. -1.
         23    2    1    0    0    0  0.32988007280E+02 -0.60464554387E+01  0.75462499278E+01  0.90623930771E+02  0.83850955229E+02 0.  0.
         11    1    3    3    0    0  0.35741864723E+02 -0.36000402471E+02  0.24238133068E+02  0.56222744213E+02  0.51100000000E-03 0.  1.
         22    1    1    0    0    0 -0.32988007280E+02  0.60464554387E+01 -0.75462499278E+01  0.34376069229E+02  0.00000000000E+00 0.  1.
</event>
<event>
 5    1  0.1094625E-009  0.9118800E+02  0.7818608E-02  0.1130116E+00
         25   -1    0    0    0    0  0.00000000000E+00  0.00000000000E+00  0.99999998245E-14  0.12500000000E+03  0.12500000000E+03 0.  0.
        -11    1    3    3    0    0  0.56173029724E+02  0.21614499414E+02  0.10681278706E+02  0.61128435023E+02  0.51100000000E-03 0.  1.
         23    2    1    0    0    0  0.25881696014E+02  0.23834275655E+00  0.50777062879E+01  0.98623834680E+02  0.95031356246E+02 0.  0.
         11    1    3    3    0    0 -0.30291333710E+02 -0.21376156657E+02 -0.56035724182E+01  0.37495399657E+02  0.51100000000E-03 0. -1.
         22    1    1    0    0    0 -0.25881696014E+02 -0.23834275655E+00 -0.50777062879E+01  0.26376165320E+02  0.00000000000E+00 0.  1.
</event>
<event>
 5    1  0.1094625E-009  0.9118800E+02  0.7818608E-02  0.1130116E+00
         25   -1    0    0    0    0  0.00000000000E+00  0.00000000000E+00  0.99999998245E-14  0.12500000000E+03  0.12500000000E+03 0.  0.
        -11    1    3    3    0    0  0.26337585699E+02  0.19990100091E+02 -0.43768857599E+02  0.54854219691E+02  0.51100000000E-03 0.  1.
         23    2    1    0    0    0  0.26123811284E+02  0.13962556166E+02 -0.39622893976E+01  0.95115117066E+02  0.90298279422E+02 0.  0.
         11    1    3    3    0    0 -0.21377441463E+00 -0.60275439250E+01  0.39806568201E+02  0.40260897376E+02  0.51100000000E-03 0. -1.
         22    1    1    0    0    0 -0.26123811284E+02 -0.13962556166E+02  0.39622893976E+01  0.29884882934E+02  0.00000000000E+00 0. -1.
</event>
<event>
 5    1  0.1094625E-009  0.9118800E+02  0.7818608E-02  0.1130116E+00
         25   -1    0    0    0    0  0.00000000000E+00  0.00000000000E+00  0.99999998245E-14  0.12500000000E+03  0.12500000000E+03 0.  0.
        -11    1    3    3    0    0  0.29587590473E+02  0.28006487758E+02  0.27470301615E+01  0.40833014112E+02  0.51100000000E-03 0.  1.
         23    2    1    0    0    0 -0.22945478092E+02  0.15067369494E+02 -0.88369234915E+01  0.96162319700E+02  0.91736469983E+02 0.  0.
         11    1    3    3    0    0 -0.52533068565E+02 -0.12939118264E+02 -0.11583953653E+02  0.55329305587E+02  0.51100000000E-03 0. -1.
         22    1    1    0    0    0  0.22945478092E+02 -0.15067369494E+02  0.88369234915E+01  0.28837680300E+02  0.00000000000E+00 0. -1.
</event>
<event>
 5    1  0.1094625E-009  0.9118800E+02  0.7818608E-02  0.1130116E+00
         25   -1    0    0    0    0  0.00000000000E+00  0.00000000000E+00  0.99999998245E-14  0.12500000000E+03  0.12500000000E+03 0.  0.
        -11    1    3    3    0    0  0.29009572357E+02  0.36107796418E+02  0.17744045947E+02  0.49600195739E+02  0.51100000000E-03 0. -1.
         23    2    1    0    0    0  0.98399540088E+00  0.21316134111E+02 -0.17794369891E+02  0.97215374391E+02  0.93160311280E+02 0.  0.
         11    1    3    3    0    0 -0.28025576956E+02 -0.14791662307E+02 -0.35538415838E+02  0.47615178652E+02  0.51100000000E-03 0.  1.
         22    1    1    0    0    0 -0.98399540088E+00 -0.21316134111E+02  0.17794369891E+02  0.27784625609E+02  0.00000000000E+00 0. -1.
</event>
<event>
 5    1  0.1094625E-009  0.9118800E+02  0.7818608E-02  0.1130116E+00
         25   -1    0    0    0    0  0.00000000000E+00  0.00000000000E+00  0.99999998245E-14  0.12500000000E+03  0.12500000000E+03 0.  0.
        -11    1    3    3    0    0  0.27411917231E+02  0.52570738945E+02  0.79728231594E+01  0.59821916627E+02  0.51100000000E-03 0. -1.
         23    2    1    0    0    0  0.11829971589E+01  0.29668645572E+02  0.12767144708E+01  0.95280343000E+02  0.90526712909E+02 0.  0.
         11    1    3    3    0    0 -0.26228920072E+02 -0.22902093374E+02 -0.66961086886E+01  0.35458426373E+02  0.51100000000E-03 0.  1.
         22    1    1    0    0    0 -0.11829971589E+01 -0.29668645572E+02 -0.12767144708E+01  0.29719657000E+02  0.00000000000E+00 0. -1.
</event>
<event>
 5    1  0.1094625E-009  0.9118800E+02  0.7818608E-02  0.1130116E+00
         25   -1    0    0    0    0  0.00000000000E+00  0.00000000000E+00  0.99999998245E-14  0.12500000000E+03  0.12500000000E+03 0.  0.
        -11    1    3    3    0    0 -0.25431262883E+02 -0.11102117763E+02  0.38249931795E+02  0.47255300584E+02  0.51100000000E-03 0.  1.
         23    2    1    0    0    0 -0.23555748901E+02  0.19083133927E+02  0.17823628793E+01  0.94631988472E+02  0.89626988781E+02 0.  0.
         11    1    3    3    0    0  0.18755139825E+01  0.30185251690E+02 -0.36467568916E+02  0.47376687888E+02  0.51100000000E-03 0. -1.
         22    1    1    0    0    0  0.23555748901E+02 -0.19083133927E+02 -0.17823628793E+01  0.30368011528E+02  0.00000000000E+00 0. -1.
</event>
<event>
 5    1  0.1094625E-009  0.9118800E+02  0.7818608E-02  0.1130116E+00
         25   -1    0    0    0    0  0.00000000000E+00  0.00000000000E+00  0.99999998245E-14  0.12500000000E+03  0.12500000000E+03 0.  0.
        -11    1    3    3    0    0  0.44035857209E+02 -0.28098868011E+02 -0.28727350439E+02  0.59615130354E+02  0.51100000000E-03 0.  1.
         23    2    1    0    0    0  0.18589065783E+02 -0.22917415974E+02 -0.44632694532E+01  0.95155702457E+02  0.90354444352E+02 0.  0.
         11    1    3    3    0    0 -0.25446791426E+02  0.51814520360E+01  0.24264080985E+02  0.35540572103E+02  0.51100000000E-03 0. -1.
         22    1    1    0    0    0 -0.18589065783E+02  0.22917415974E+02  0.44632694532E+01  0.29844297543E+02  0.00000000000E+00 0.  1.
</event>
<event>
 5    1  0.1094625E-009  0.9118800E+02  0.7818608E-02  0.1130116E+00
         25   -1    0    0    0    0  0.00000000000E+00  0.00000000000E+00  0.99999998245E-14  0.12500000000E+03  0.12500000000E+03 0.  0.
        -11    1    3    3    0    0 -0.25796201746E+02 -0.10442534087E+02  0.32112390948E+02  0.42493484152E+02  0.51100000000E-03 0.  1.
         23    2    1    0    0    0  0.24078169762E+02  0.66895649692E+00  0.16047294974E+02  0.96056582132E+02  0.91592278785E+02 0.  0.
         11    1    3    3    0    0  0.49874371508E+02  0.11111490584E+02 -0.16065095974E+02  0.53563097981E+02  0.51100000000E-03 0. -1.
         22    1    1    0    0    0 -0.24078169762E+02 -0.66895649692E+00 -0.16047294974E+02  0.28943417868E+02  0.00000000000E+00 0.  1.
</event>
<event>
 5    1  0.1094625E-009  0.9118800E+02  0.7818608E-02  0.1130116E+00
         25   -1    0    0    0    0  0.00000000000E+00  0.00000000000E+00  0.99999998245E-14  0.12500000000E+03  0.12500000000E+03 0.  0.
        -11    1    3    3    0    0  0.28445714413E+02 -0.36538084093E+02  0.17341328272E+02  0.49446050643E+02  0.51100000000E-03 0.  1.
         23    2    1    0    0    0  0.26580760065E+02  0.84408496811E+01  0.11468991435E+02  0.94845025062E+02  0.89923613504E+02 0.  0.
         11    1    3    3    0    0 -0.18649543480E+01  0.44978933774E+02 -0.58723368374E+01  0.45398974420E+02  0.51100000000E-03 0. -1.
         22    1    1    0    0    0 -0.26580760065E+02 -0.84408496811E+01 -0.11468991435E+02  0.30154974938E+02  0.00000000000E+00 0.  1.
</event>
<event>
 5    1  0.1094625E-009  0.9118800E+02  0.7818608E-02  0.1130116E+00
         25   -1    0    0    0    0  0.00000000000E+00  0.00000000000E+00  0.99999998245E-14  0.12500000000E+03  0.12500000000E+03 0.  0.
        -11    1    3    3    0    0  0.32066255261E+01  0.29101996869E+02 -0.22076717858E+02  0.36668653379E+02  0.51100000000E-03 0.  1.
         23    2    1    0    0    0 -0.28021885968E+01  0.25080682132E+01  0.29634878032E+02  0.95127459715E+02  0.90315363747E+02 0.  0.
         11    1    3    3    0    0 -0.60088141229E+01 -0.26593928656E+02  0.51711595890E+02  0.58458806336E+02  0.51100000000E-03 0. -1.
         22    1    1    0    0    0  0.28021885968E+01 -0.25080682132E+01 -0.29634878032E+02  0.29872540285E+02  0.00000000000E+00 0. -1.
</event>
<event>
 4    1  0.1094625E-009  0.9118800E+02  0.7818608E-02  0.1130116E+00
         25   -1    0    0    0    0  0.00000000000E+00  0.00000000000E+00  0.99999998245E-14  0.12500000000E+03  0.12500000000E+03 0.  0.
        -11    1    1    0    0    0  0.24492439209E+02  0.27580992720E+02 -0.37624741665E+02  0.52689770577E+02  0.51100000000E-03 0.  1.
         11    1    1    0    0    0 -0.42347323278E+01  0.14359466530E+02  0.11733361745E+02  0.19021015089E+02  0.51100000000E-03 0. -1.
         22    1    1    0    0    0 -0.20257706881E+02 -0.41940459250E+02  0.25891379920E+02  0.53289214334E+02  0.00000000000E+00 0.  1.
</event>
<event>
 5    1  0.1094625E-009  0.9118800E+02  0.7818608E-02  0.1130116E+00
         25   -1    0    0    0    0  0.00000000000E+00  0.00000000000E+00  0.99999998245E-14  0.12500000000E+03  0.12500000000E+03 0.  0.
        -11    1    3    3    0    0 -0.11367905587E+02  0.20645935147E+02 -0.54218701034E+02  0.59119805967E+02  0.51100000000E-03 0. -1.
         23    2    1    0    0    0 -0.11931744274E+02 -0.34467780450E+01 -0.25692995131E+02  0.96462712128E+02  0.92144875235E+02 0.  0.
         11    1    3    3    0    0 -0.56383868643E+00 -0.24092713192E+02  0.28525705903E+02  0.37342906161E+02  0.51100000000E-03 0.  1.
         22    1    1    0    0    0  0.11931744274E+02  0.34467780450E+01  0.25692995131E+02  0.28537287872E+02  0.00000000000E+00 0. -1.
</event>
<event>
 5    1  0.1094625E-009  0.9118800E+02  0.7818608E-02  0.1130116E+00
         25   -1    0    0    0    0  0.00000000000E+00  0.00000000000E+00  0.99999998245E-14  0.12500000000E+03  0.12500000000E+03 0.  0.
        -11    1    3    3    0    0 -0.47930084649E+02  0.27955767442E+02  0.28072828101E+01  0.55558066784E+02  0.51100000000E-03 0.  1.
         23    2    1    0    0    0 -0.25396757731E+02 -0.18764509233E+01  0.15674909679E+02  0.95096502466E+02  0.90272507534E+02 0.  0.
         11    1    3    3    0    0  0.22533326918E+02 -0.29832218366E+02  0.12867626869E+02  0.39538435681E+02  0.51100000000E-03 0. -1.
         22    1    1    0    0    0  0.25396757731E+02  0.18764509233E+01 -0.15674909679E+02  0.29903497534E+02  0.00000000000E+00 0.  1.
</event>
<event>
 5    1  0.1094625E-009  0.9118800E+02  0.7818608E-02  0.1130116E+00
         25   -1    0    0    0    0  0.00000000000E+00  0.00000000000E+00  0.99999998245E-14  0.12500000000E+03  0.12500000000E+03 0.  0.
        -11    1    3    3    0    0  0.32864551622E+02 -0.47179372549E+02  0.18060999765E+02  0.60267500863E+02  0.51100000000E-03 0.  1.
         23    2    1    0    0    0  0.55072626623E+01 -0.28469064359E+02  0.75804885577E+01  0.95028657450E+02  0.90178513863E+02 0.  0.
         11    1    3    3    0    0 -0.27357288960E+02  0.18710308190E+02 -0.10480511208E+02  0.34761156587E+02  0.51100000000E-03 0. -1.
         22    1    1    0    0    0 -0.55072626623E+01  0.28469064359E+02 -0.75804885577E+01  0.29971342550E+02  0.00000000000E+00 0.  1.
</event>
<event>
 5    1  0.1094625E-009  0.9118800E+02  0.7818608E-02  0.1130116E+00
         25   -1    0    0    0    0  0.00000000000E+00  0.00000000000E+00  0.99999998245E-14  0.12500000000E+03  0.12500000000E+03 0.  0.
        -11    1    3    3    0    0  0.28994650695E+02 -0.10304770736E+02  0.32288945475E+02  0.44603296616E+02  0.51100000000E-03 0.  1.
         23    2    1    0    0    0 -0.15422713607E+02  0.11656175184E+02  0.22893532300E+02  0.95036016017E+02  0.90188713287E+02 0.  0.
         11    1    3    3    0    0 -0.44417364302E+02  0.21960945921E+02 -0.93954131745E+01  0.50432719402E+02  0.51100000000E-03 0. -1.
         22    1    1    0    0    0  0.15422713607E+02 -0.11656175184E+02 -0.22893532300E+02  0.29963983983E+02  0.00000000000E+00 0. -1.
</event>
<event>
 5    1  0.1094625E-009  0.9118800E+02  0.7818608E-02  0.1130116E+00
         25   -1    0    0    0    0  0.00000000000E+00  0.00000000000E+00  0.99999998245E-14  0.12500000000E+03  0.12500000000E+03 0.  0.
        -11    1    3    3    0    0  0.13338795848E+02 -0.22854351037E+01 -0.31779823425E+02  0.34541335607E+02  0.51100000000E-03 0.  1.
         23    2    1    0    0    0 -0.72875329421E+01  0.27633680591E+02  0.14151249379E+02  0.93109777386E+02  0.87478250706E+02 0.  0.
         11    1    3    3    0    0 -0.20626328790E+02  0.29919115694E+02  0.45931072804E+02  0.58568441780E+02  0.51100000000E-03 0. -1.
         22    1    1    0    0    0  0.72875329421E+01 -0.27633680591E+02 -0.14151249379E+02  0.31890222614E+02  0.00000000000E+00 0. -1.
</event>
<event>
 5    1  0.1094625E-009  0.9118800E+02  0.7818608E-02  0.1130116E+00
         25   -1    0    0    0    0  0.00000000000E+00  0.00000000000E+00  0.99999998245E-14  0.12500000000E+03  0.12500000000E+03 0.  0.
        -11    1    3    3    0    0 -0.57259975113E+02 -0.23649614228E+02  0.67229357758E+00  0.61955314397E+02  0.51100000000E-03 0.  1.
         23    2    1    0    0    0 -0.24433235720E+02 -0.15478547386E+02  0.33169092300E+01  0.95886938949E+02  0.91360465942E+02 0.  0.
         11    1    3    3    0    0  0.32826739393E+02  0.81710668428E+01  0.26446156524E+01  0.33931624552E+02  0.51100000000E-03 0. -1.
         22    1    1    0    0    0  0.24433235720E+02  0.15478547386E+02 -0.33169092300E+01  0.29113061051E+02  0.00000000000E+00 0.  1.
</event>
<event>
 5    1  0.1094625E-009  0.9118800E+02  0.7818608E-02  0.1130116E+00
         25   -1    0    0    0    0  0.00000000000E+00  0.00000000000E+00  0.99999998245E-14  0.12500000000E+03  0.12500000000E+03 0.  0.
        -11    1    3    3    0    0 -0.18651289468E+02 -0.88340002532E+01  0.55676884908E+02  0.59378663446E+02  0.51100000000E-03 0. -1.
         23    2    1    0    0    0 -0.84797264060E+01 -0.17699157479E+02  0.22799192709E+02  0.94917295275E+02  0.90024018010E+02 0.  0.
         11    1    3    3    0    0  0.10171563062E+02 -0.88651572254E+01 -0.32877692198E+02  0.35538631829E+02  0.51100000000E-03 0.  1.
         22    1    1    0    0    0  0.84797264060E+01  0.17699157479E+02 -0.22799192709E+02  0.30082704725E+02  0.00000000000E+00 0. -1.
</event>
<event>
 5    1  0.1094625E-009  0.9118800E+02  0.7818608E-02  0.1130116E+00
         25   -1    0    0    0    0  0.00000000000E+00  0.00000000000E+00  0.99999998245E-14  0.12500000000E+03  0.12500000000E+03 0.  0.
        -11    1    3    3    0    0 -0.61954403300E+01 -0.30067944080E+02 -0.51592393506E+02  0.60035321353E+02  0.51100000000E-03 0.  1.
         23    2    1    0    0    0  0.59071363827E+01 -0.22006102546E+02 -0.20542789726E+02  0.94321521888E+02  0.89192939587E+02 0.  0.
         11    1    3    3    0    0  0.12102576713E+02  0.80618415341E+01  0.31049603779E+02  0.34286200535E+02  0.51100000000E-03 0. -1.
         22    1    1    0    0    0 -0.59071363827E+01  0.22006102546E+02  0.20542789726E+02  0.30678478112E+02  0.00000000000E+00 0.  1.
</event>
<event>
 5    1  0.1094625E-009  0.9118800E+02  0.7818608E-02  0.1130116E+00
         25   -1    0    0    0    0  0.00000000000E+00  0.00000000000E+00  0.99999998245E-14  0.12500000000E+03  0.12500000000E+03 0.  0.
        -11    1    3    3    0    0  0.98493927250E+01 -0.19438427060E+02  0.32127463783E+02  0.38820573321E+02  0.51100000000E-03 0.  1.
         23    2    1    0    0    0 -0.23438486813E+02 -0.10680835476E+02 -0.13455671717E+02  0.95939752033E+02  0.91432696604E+02 0.  0.
         11    1    3    3    0    0 -0.33287879538E+02  0.87575915842E+01 -0.45583135500E+02  0.57119178712E+02  0.51100000000E-03 0. -1.
         22    1    1    0    0    0  0.23438486813E+02  0.10680835476E+02  0.13455671717E+02  0.29060247967E+02  0.00000000000E+00 0. -1.
</event>
<event>
 5    1  0.1094625E-009  0.9118800E+02  0.7818608E-02  0.1130116E+00
         25   -1    0    0    0    0  0.00000000000E+00  0.00000000000E+00  0.99999998245E-14  0.12500000000E+03  0.12500000000E+03 0.  0.
        -11    1    3    3    0    0  0.10757978527E+01 -0.43170134467E+02  0.33113020416E+02  0.54417735824E+02  0.51100000000E-03 0. -1.
         23    2    1    0    0    0 -0.12693785536E+02 -0.33698639626E+00  0.20048961828E+02  0.10126802534E+03  0.98447987963E+02 0.  0.
         11    1    3    3    0    0 -0.13769583389E+02  0.42833148070E+02 -0.13064058588E+02  0.46850289512E+02  0.51100000000E-03 0.  1.
         22    1    1    0    0    0  0.12693785536E+02  0.33698639626E+00 -0.20048961828E+02  0.23731974664E+02  0.00000000000E+00 0. -1.
</event>
<event>
 5    1  0.1094625E-009  0.9118800E+02  0.7818608E-02  0.1130116E+00
         25   -1    0    0    0    0  0.00000000000E+00  0.00000000000E+00  0.99999998245E-14  0.12500000000E+03  0.12500000000E+03 0.  0.
        -11    1    3    3    0    0 -0.10558322466E+02  0.36790702449E+02  0.45477584003E+02  0.59441102001E+02  0.51100000000E-03 0.  1.
         23    2    1    0    0    0  0.62110351352E+01  0.23800027430E+02  0.16387886698E+02  0.95443594712E+02  0.90751852201E+02 0.  0.
         11    1    3    3    0    0  0.16769357602E+02 -0.12990675019E+02 -0.29089697306E+02  0.36002492711E+02  0.51100000000E-03 0. -1.
         22    1    1    0    0    0 -0.62110351352E+01 -0.23800027430E+02 -0.16387886698E+02  0.29556405288E+02  0.00000000000E+00 0.  1.
</event>
<event>
 5    1  0.1094625E-009  0.9118800E+02  0.7818608E-02  0.1130116E+00
         25   -1    0    0    0    0  0.00000000000E+00  0.00000000000E+00  0.99999998245E-14  0.12500000000E+03  0.12500000000E+03 0.  0.
        -11    1    3    3    0    0 -0.86557735038E+01 -0.13654626458E+02  0.36281423770E+02  0.39720434914E+02  0.51100000000E-03 0.  1.
         23    2    1    0    0    0 -0.22985498795E+02 -0.15088507246E+02 -0.15478992006E+02  0.93446943107E+02  0.87958716320E+02 0.  0.
         11    1    3    3    0    0 -0.14329725291E+02 -0.14338807878E+01 -0.51760415776E+02  0.53726508193E+02  0.51100000000E-03 0. -1.
         22    1    1    0    0    0  0.22985498795E+02  0.15088507246E+02  0.15478992006E+02  0.31553056893E+02  0.00000000000E+00 0. -1.
</event>
<event>
 5    1  0.1094625E-009  0.9118800E+02  0.7818608E-02  0.1130116E+00
         25   -1    0    0    0    0  0.00000000000E+00  0.00000000000E+00  0.99999998245E-14  0.12500000000E+03  0.12500000000E+03 0.  0.
        -11    1    3    3    0    0 -0.20573780048E+02  0.26850379720E+02 -0.11755118406E+02  0.35810698479E+02  0.51100000000E-03 0.  1.
         23    2    1    0    0    0 -0.45801807112E+01 -0.13214268288E+02  0.27507161183E+02  0.94141632284E+02  0.88940474875E+02 0.  0.
         11    1    3    3    0    0  0.15993599337E+02 -0.40064648008E+02  0.39262279589E+02  0.58330933805E+02  0.51100000000E-03 0. -1.
         22    1    1    0    0    0  0.45801807112E+01  0.13214268288E+02 -0.27507161183E+02  0.30858367716E+02  0.00000000000E+00 0. -1.
</event>
<event>
 5    1  0.1094625E-009  0.9118800E+02  0.7818608E-02  0.1130116E+00
         25   -1    0    0    0    0  0.00000000000E+00  0.00000000000E+00  0.99999998245E-14  0.12500000000E+03  0.12500000000E+03 0.  0.
        -11    1    3    3    0    0  0.58587897450E+02 -0.31397697274E+01 -0.18876927427E+02  0.61633905205E+02  0.51100000000E-03 0.  1.
         23    2    1    0    0    0  0.32903350385E+02 -0.53352169152E+01 -0.39195260577E+01  0.91437257403E+02  0.85054772652E+02 0.  0.
         11    1    3    3    0    0 -0.25684547065E+02 -0.21954471878E+01  0.14957401369E+02  0.29803352198E+02  0.51100000000E-03 0. -1.
         22    1    1    0    0    0 -0.32903350385E+02  0.53352169152E+01  0.39195260577E+01  0.33562742597E+02  0.00000000000E+00 0.  1.
</event>
<event>
 5    1  0.1094625E-009  0.9118800E+02  0.7818608E-02  0.1130116E+00
         25   -1    0    0    0    0  0.00000000000E+00  0.00000000000E+00  0.99999998245E-14  0.12500000000E+03  0.12500000000E+03 0.  0.
        -11    1    3    3    0    0 -0.92749079668E+01 -0.19859008920E+02  0.32434695756E+02  0.39146055257E+02  0.51100000000E-03 0.  1.
         23    2    1    0    0    0  0.49159092637E+01 -0.21223712386E+02 -0.21175157465E+02  0.94619094401E+02  0.89609004013E+02 0.  0.
         11    1    3    3    0    0  0.14190817230E+02 -0.13647034660E+01 -0.53609853221E+02  0.55473039144E+02  0.51100000000E-03 0. -1.
         22    1    1    0    0    0 -0.49159092637E+01  0.21223712386E+02  0.21175157465E+02  0.30380905599E+02  0.00000000000E+00 0. -1.
</event>
<event>
 5    1  0.1094625E-009  0.9118800E+02  0.7818608E-02  0.1130116E+00
         25   -1    0    0    0    0  0.00000000000E+00  0.00000000000E+00  0.99999998245E-14  0.12500000000E+03  0.12500000000E+03 0.  0.
        -11    1    3    3    0    0  0.20063599952E+02  0.21748867783E+02  0.55789612887E+01  0.30111228839E+02  0.51100000000E-03 0. -1.
         23    2    1    0    0    0 -0.29118696165E+02 -0.11694674197E+02 -0.10821998531E+02  0.91806935617E+02  0.85596342820E+02 0.  0.
         11    1    3    3    0    0 -0.49182296117E+02 -0.33443541980E+02 -0.16400959820E+02  0.61695706778E+02  0.51100000000E-03 0.  1.
         22    1    1    0    0    0  0.29118696165E+02  0.11694674197E+02  0.10821998531E+02  0.33193064383E+02  0.00000000000E+00 0.  1.
</event>
<event>
 5    1  0.1094625E-009  0.9118800E+02  0.7818608E-02  0.1130116E+00
         25   -1    0    0    0    0  0.00000000000E+00  0.00000000000E+00  0.99999998245E-14  0.12500000000E+03  0.12500000000E+03 0.  0.
        -11    1    3    3    0    0 -0.43274497628E+02 -0.39875187540E+02 -0.14951110454E+02  0.60714482872E+02  0.51100000000E-03 0. -1.
         23    2    1    0    0    0 -0.15479572864E+02 -0.28509618404E+02 -0.64428518386E+01  0.91925450004E+02  0.85769239830E+02 0.  0.
         11    1    3    3    0    0  0.27794924764E+02  0.11365569136E+02  0.85082586157E+01  0.31210967132E+02  0.51100000000E-03 0.  1.
         22    1    1    0    0    0  0.15479572864E+02  0.28509618404E+02  0.64428518386E+01  0.33074549996E+02  0.00000000000E+00 0. -1.
</event>
<event>
 5    1  0.1094625E-009  0.9118800E+02  0.7818608E-02  0.1130116E+00
         25   -1    0    0    0    0  0.00000000000E+00  0.00000000000E+00  0.99999998245E-14  0.12500000000E+03  0.12500000000E+03 0.  0.
        -11    1    3    3    0    0  0.47289471563E+02 -0.37146821708E+02 -0.10588039540E+02  0.61059700828E+02  0.51100000000E-03 0.  1.
         23    2    1    0    0    0  0.14754730751E+02 -0.19500077452E+02 -0.11261753254E+02  0.98078220962E+02  0.94310949739E+02 0.  0.
         11    1    3    3    0    0 -0.32534740811E+02  0.17646744256E+02 -0.67371371433E+00  0.37018520134E+02  0.51100000000E-03 0. -1.
         22    1    1    0    0    0 -0.14754730751E+02  0.19500077452E+02  0.11261753254E+02  0.26921779038E+02  0.00000000000E+00 0.  1.
</event>
<event>
 5    1  0.1094625E-009  0.9118800E+02  0.7818608E-02  0.1130116E+00
         25   -1    0    0    0    0  0.00000000000E+00  0.00000000000E+00  0.99999998245E-14  0.12500000000E+03  0.12500000000E+03 0.  0.
        -11    1    3    3    0    0 -0.14675623902E+02 -0.17940902038E+02 -0.29351633344E+02  0.37400110736E+02  0.51100000000E-03 0. -1.
         23    2    1    0    0    0 -0.26937251376E+01 -0.74856113083E+01  0.27468023550E+02  0.96403097204E+02  0.92063968527E+02 0.  0.
         11    1    3    3    0    0  0.11981898765E+02  0.10455290729E+02  0.56819656894E+02  0.59002986468E+02  0.51100000000E-03 0.  1.
         22    1    1    0    0    0  0.26937251376E+01  0.74856113083E+01 -0.27468023550E+02  0.28596902796E+02  0.00000000000E+00 0.  1.
</event>
<event>
 5    1  0.1094625E-009  0.9118800E+02  0.7818608E-02  0.1130116E+00
         25   -1    0    0    0    0  0.00000000000E+00  0.00000000000E+00  0.99999998245E-14  0.12500000000E+03  0.12500000000E+03 0.  0.
        -11    1    3    3    0    0 -0.26061447471E+02  0.98851400165E+01  0.92192553452E+01  0.29358298772E+02  0.51100000000E-03 0. -1.
         23    2    1    0    0    0  0.33188562196E+02 -0.62595558421E+01  0.40104335971E+01  0.90989027099E+02  0.84393464053E+02 0.  0.
         11    1    3    3    0    0  0.59250009667E+02 -0.16144695859E+02 -0.52088217480E+01  0.61630728327E+02  0.51100000000E-03 0.  1.
         22    1    1    0    0    0 -0.33188562196E+02  0.62595558421E+01 -0.40104335971E+01  0.34010972901E+02  0.00000000000E+00 0.  1.
</event>
<event>
 5    1  0.1094625E-009  0.9118800E+02  0.7818608E-02  0.1130116E+00
         25   -1    0    0    0    0  0.00000000000E+00  0.00000000000E+00  0.99999998245E-14  0.12500000000E+03  0.12500000000E+03 0.  0.
        -11    1    3    3    0    0 -0.45397062727E+02  0.40087299750E+02 -0.66781953590E+01  0.60930150164E+02  0.51100000000E-03 0.  1.
         23    2    1    0    0    0 -0.19576735614E+02  0.16329939793E+02 -0.12680683822E+02  0.96526938114E+02  0.92231960451E+02 0.  0.
         11    1    3    3    0    0  0.25820327113E+02 -0.23757359957E+02 -0.60024884627E+01  0.35596787950E+02  0.51100000000E-03 0. -1.
         22    1    1    0    0    0  0.19576735614E+02 -0.16329939793E+02  0.12680683822E+02  0.28473061886E+02  0.00000000000E+00 0.  1.
</event>
<event>
 5    1  0.1094625E-009  0.9118800E+02  0.7818608E-02  0.1130116E+00
         25   -1    0    0    0    0  0.00000000000E+00  0.00000000000E+00  0.99999998245E-14  0.12500000000E+03  0.12500000000E+03 0.  0.
        -11    1    3    3    0    0  0.42309422495E+02 -0.35211395331E+02 -0.20286379685E+02  0.58664016177E+02  0.51100000000E-03 0.  1.
         23    2    1    0    0    0  0.19457785508E+02 -0.24091520818E+02  0.39494818590E+01  0.93781332521E+02  0.88432647423E+02 0.  0.
         11    1    3    3    0    0 -0.22851636987E+02  0.11119874513E+02  0.24235861544E+02  0.35117316344E+02  0.51100000000E-03 0. -1.
         22    1    1    0    0    0 -0.19457785508E+02  0.24091520818E+02 -0.39494818590E+01  0.31218667479E+02  0.00000000000E+00 0.  1.
</event>
<event>
 5    1  0.1094625E-009  0.9118800E+02  0.7818608E-02  0.1130116E+00
         25   -1    0    0    0    0  0.00000000000E+00  0.00000000000E+00  0.99999998245E-14  0.12500000000E+03  0.12500000000E+03 0.  0.
        -11    1    3    3    0    0  0.12675393226E+02 -0.20162675600E+02  0.31421637790E+02  0.39427381380E+02  0.51100000000E-03 0.  1.
         23    2    1    0    0    0 -0.28314289339E+02 -0.23286014789E+01 -0.37993565211E+01  0.96337193515E+02  0.91974444161E+02 0.  0.
         11    1    3    3    0    0 -0.40989682566E+02  0.17834074122E+02 -0.35220994311E+02  0.56909812134E+02  0.51100000000E-03 0. -1.
         22    1    1    0    0    0  0.28314289339E+02  0.23286014789E+01  0.37993565211E+01  0.28662806485E+02  0.00000000000E+00 0. -1.
</event>
<event>
 5    1  0.1094625E-009  0.9118800E+02  0.7818608E-02  0.1130116E+00
         25   -1    0    0    0    0  0.00000000000E+00  0.00000000000E+00  0.99999998245E-14  0.12500000000E+03  0.12500000000E+03 0.  0.
        -11    1    3    3    0    0  0.29064965853E+00  0.18935316533E+02 -0.52825490521E+02  0.56117404951E+02  0.51100000000E-03 0.  1.
         23    2    1    0    0    0 -0.18413557318E+02  0.14311743610E+02 -0.19550627302E+02  0.94567909599E+02  0.89537575352E+02 0.  0.
         11    1    3    3    0    0 -0.18704206976E+02 -0.46235729225E+01  0.33274863219E+02  0.38450504648E+02  0.51100000000E-03 0. -1.
         22    1    1    0    0    0  0.18413557318E+02 -0.14311743610E+02  0.19550627302E+02  0.30432090401E+02  0.00000000000E+00 0.  1.
</event>
<event>
 5    1  0.1094625E-009  0.9118800E+02  0.7818608E-02  0.1130116E+00
         25   -1    0    0    0    0  0.00000000000E+00  0.00000000000E+00  0.99999998245E-14  0.12500000000E+03  0.12500000000E+03 0.  0.
        -11    1    3    3    0    0 -0.22284124175E+02 -0.13634453178E+02  0.22653427769E+02  0.34578292232E+02  0.51100000000E-03 0. -1.
         23    2    1    0    0    0 -0.31929211688E+01  0.16798263534E+02 -0.25280038076E+02  0.94480223977E+02  0.89415076997E+02 0.  0.
         11    1    3    3    0    0  0.19091203007E+02  0.30432716712E+02 -0.47933465845E+02  0.59901931746E+02  0.51100000000E-03 0.  1.
         22    1    1    0    0    0  0.31929211688E+01 -0.16798263534E+02  0.25280038076E+02  0.30519776023E+02  0.00000000000E+00 0.  1.
</event>
<event>
 5    1  0.1094625E-009  0.9118800E+02  0.7818608E-02  0.1130116E+00
         25   -1    0    0    0    0  0.00000000000E+00  0.00000000000E+00  0.99999998245E-14  0.12500000000E+03  0.12500000000E+03 0.  0.
        -11    1    3    3    0    0  0.53101130395E+01 -0.29074730589E+01 -0.39401311119E+02  0.39863692983E+02  0.51100000000E-03 0. -1.
         23    2    1    0    0    0 -0.27755338186E+02  0.11344387032E+02  0.22629821893E+01  0.94930497121E+02  0.90042347150E+02 0.  0.
         11    1    3    3    0    0 -0.33065451226E+02  0.14251860091E+02  0.41664293309E+02  0.55066804138E+02  0.51100000000E-03 0.  1.
         22    1    1    0    0    0  0.27755338186E+02 -0.11344387032E+02 -0.22629821893E+01  0.30069502879E+02  0.00000000000E+00 0. -1.
</event>
<event>
 5    1  0.1094625E-009  0.9118800E+02  0.7818608E-02  0.1130116E+00
         25   -1    0    0    0    0  0.00000000000E+00  0.00000000000E+00  0.99999998245E-14  0.12500000000E+03  0.12500000000E+03 0.  0.
        -11    1    3    3    0    0 -0.15025242012E+02  0.29384885560E+02  0.44729190135E+02  0.55587137427E+02  0.51100000000E-03 0. -1.
         23    2    1    0    0    0  0.44152661819E+01  0.25022909453E+02  0.63820189600E+01  0.98801321809E+02  0.95264528825E+02 0.  0.
         11    1    3    3    0    0  0.19440508194E+02 -0.43619761075E+01 -0.38347171175E+02  0.43214184382E+02  0.51100000000E-03 0.  1.
         22    1    1    0    0    0 -0.44152661819E+01 -0.25022909453E+02 -0.63820189600E+01  0.26198678191E+02  0.00000000000E+00 0. -1.
</event>
<event>
 5    1  0.1094625E-009  0.9118800E+02  0.7818608E-02  0.1130116E+00
         25   -1    0    0    0    0  0.00000000000E+00  0.00000000000E+00  0.99999998245E-14  0.12500000000E+03  0.12500000000E+03 0.  0.
        -11    1    3    3    0    0 -0.16654037593E+02 -0.37189695180E+02 -0.38743349761E+02  0.56227017942E+02  0.51100000000E-03 0. -1.
         23    2    1    0    0    0  0.12020893622E+02 -0.17447276016E+02 -0.20443904000E+02  0.95557470649E+02  0.90908567595E+02 0.  0.
         11    1    3    3    0    0  0.28674931216E+02  0.19742419164E+02  0.18299445761E+02  0.39330452706E+02  0.51100000000E-03 0.  1.
         22    1    1    0    0    0 -0.12020893622E+02  0.17447276016E+02  0.20443904000E+02  0.29442529351E+02  0.00000000000E+00 0. -1.
</event>
<event>
 5    1  0.1094625E-009  0.9118800E+02  0.7818608E-02  0.1130116E+00
         25   -1    0    0    0    0  0.00000000000E+00  0.00000000000E+00  0.99999998245E-14  0.12500000000E+03  0.12500000000E+03 0.  0.
        -11    1    3    3    0    0 -0.33186933267E+02  0.11407978241E+02  0.24618128127E+02  0.42866848962E+02  0.51100000000E-03 0.  1.
         23    2    1    0    0    0  0.18633272453E+02  0.65928946131E+01  0.22637590294E+02  0.94947951883E+02  0.90066575214E+02 0.  0.
         11    1    3    3    0    0  0.51820205719E+02 -0.48150836278E+01 -0.19805378329E+01  0.52081102922E+02  0.51100000000E-03 0. -1.
         22    1    1    0    0    0 -0.18633272453E+02 -0.65928946131E+01 -0.22637590294E+02  0.30052048117E+02  0.00000000000E+00 0. -1.
</event>
<event>
 5    1  0.1094625E-009  0.9118800E+02  0.7818608E-02  0.1130116E+00
         25   -1    0    0    0    0  0.00000000000E+00  0.00000000000E+00  0.99999998245E-14  0.12500000000E+03  0.12500000000E+03 0.  0.
        -11    1    3    3    0    0  0.19513792292E+02  0.26087949577E+01 -0.41016210633E+02  0.45496411240E+02  0.51100000000E-03 0. -1.
         23    2    1    0    0    0 -0.50843306623E+01  0.29306400730E+02 -0.89344887426E+01  0.93942945550E+02  0.88660793970E+02 0.  0.
         11    1    3    3    0    0 -0.24598122954E+02  0.26697605773E+02  0.32081721891E+02  0.48446534309E+02  0.51100000000E-03 0.  1.
         22    1    1    0    0    0  0.50843306623E+01 -0.29306400730E+02  0.89344887426E+01  0.31057054450E+02  0.00000000000E+00 0.  1.
</event>
<event>
 5    1  0.1094625E-009  0.9118800E+02  0.7818608E-02  0.1130116E+00
         25   -1    0    0    0    0  0.00000000000E+00  0.00000000000E+00  0.99999998245E-14  0.12500000000E+03  0.12500000000E+03 0.  0.
        -11    1    3    3    0    0  0.42977557187E+02  0.23800513146E+02 -0.14707151704E+02  0.51281918443E+02  0.51100000000E-03 0. -1.
         23    2    1    0    0    0  0.16567502086E+02  0.11254932812E+02  0.20021754863E+02  0.96679931042E+02  0.92439075939E+02 0.  0.
         11    1    3    3    0    0 -0.26410055101E+02 -0.12545580333E+02  0.34728906567E+02  0.45398012599E+02  0.51100000000E-03 0.  1.
         22    1    1    0    0    0 -0.16567502086E+02 -0.11254932812E+02 -0.20021754863E+02  0.28320068958E+02  0.00000000000E+00 0. -1.
</event>
<event>
 5    1  0.1094625E-009  0.9118800E+02  0.7818608E-02  0.1130116E+00
         25   -1    0    0    0    0  0.00000000000E+00  0.00000000000E+00  0.99999998245E-14  0.12500000000E+03  0.12500000000E+03 0.  0.
        -11    1    3    3    0    0  0.35511831643E+02 -0.94501366856E+01 -0.24848367519E+02  0.44360304763E+02  0.51100000000E-03 0.  1.
         23    2    1    0    0    0  0.14885903749E+02 -0.11463304224E+02  0.22286942134E+02  0.95850295648E+02  0.91310316569E+02 0.  0.
         11    1    3    3    0    0 -0.20625927894E+02 -0.20131675386E+01  0.47135309653E+02  0.51489990885E+02  0.51100000000E-03 0. -1.
         22    1    1    0    0    0 -0.14885903749E+02  0.11463304224E+02 -0.22286942134E+02  0.29149704352E+02  0.00000000000E+00 0. -1.
</event>
<event>
 5    1  0.1094625E-009  0.9118800E+02  0.7818608E-02  0.1130116E+00
         25   -1    0    0    0    0  0.00000000000E+00  0.00000000000E+00  0.99999998245E-14  0.12500000000E+03  0.12500000000E+03 0.  0.
        -11    1    3    3    0    0 -0.34483299424E+02 -0.85785094254E+01  0.20076354337E+02  0.40813585567E+02  0.51100000000E-03 0. -1.
         23    2    1    0    0    0  0.66939405712E+00 -0.22973897568E+02 -0.18903428226E+02  0.95241175149E+02  0.90472613465E+02 0.  0.
         11    1    3    3    0    0  0.35152693481E+02 -0.14395388142E+02 -0.38979782563E+02  0.54427589581E+02  0.51100000000E-03 0.  1.
         22    1    1    0    0    0 -0.66939405712E+00  0.22973897568E+02  0.18903428226E+02  0.29758824851E+02  0.00000000000E+00 0.  1.
</event>
<event>
 5    1  0.1094625E-009  0.9118800E+02  0.7818608E-02  0.1130116E+00
         25   -1    0    0    0    0  0.00000000000E+00  0.00000000000E+00  0.99999998245E-14  0.12500000000E+03  0.12500000000E+03 0.  0.
        -11    1    3    3    0    0  0.43483492829E+02  0.26055719904E+01  0.16763733398E+02  0.46675752932E+02  0.51100000000E-03 0. -1.
         23    2    1    0    0    0  0.11953430079E+02 -0.25094173872E+02 -0.88326665538E+01  0.95834642958E+02  0.91288886177E+02 0.  0.
         11    1    3    3    0    0 -0.31530062750E+02 -0.27699745862E+02 -0.25596399952E+02  0.49158890026E+02  0.51100000000E-03 0.  1.
         22    1    1    0    0    0 -0.11953430079E+02  0.25094173872E+02  0.88326665538E+01  0.29165357042E+02  0.00000000000E+00 0. -1.
</event>
<event>
 5    1  0.1094625E-009  0.9118800E+02  0.7818608E-02  0.1130116E+00
         25   -1    0    0    0    0  0.00000000000E+00  0.00000000000E+00  0.99999998245E-14  0.12500000000E+03  0.12500000000E+03 0.  0.
        -11    1    3    3    0    0  0.30329079027E+02 -0.12813930609E+02  0.92121755591E+01  0.34189384771E+02  0.51100000000E-03 0.  1.
         23    2    1    0    0    0 -0.26947044303E+02  0.98316351257E+01  0.12990027761E+01  0.96286037297E+02  0.91904892820E+02 0.  0.
         11    1    3    3    0    0 -0.57276123330E+02  0.22645565735E+02 -0.79131727830E+01  0.62096652525E+02  0.51100000000E-03 0. -1.
         22    1    1    0    0    0  0.26947044303E+02 -0.98316351257E+01 -0.12990027761E+01  0.28713962703E+02  0.00000000000E+00 0. -1.
</event>
<event>
 5    1  0.1094625E-009  0.9118800E+02  0.7818608E-02  0.1130116E+00
         25   -1    0    0    0    0  0.00000000000E+00  0.00000000000E+00  0.99999998245E-14  0.12500000000E+03  0.12500000000E+03 0.  0.
        -11    1    3    3    0    0  0.36176550109E+02  0.11895617171E+02  0.15163721418E+02  0.40990083352E+02  0.51100000000E-03 0.  1.
         23    2    1    0    0    0 -0.15394779873E+01 -0.26925411137E+02 -0.24752391626E+01  0.97917264424E+02  0.94097375659E+02 0.  0.
         11    1    3    3    0    0 -0.37716028096E+02 -0.38821028308E+02 -0.17638960581E+02  0.56927181072E+02  0.51100000000E-03 0. -1.
         22    1    1    0    0    0  0.15394779873E+01  0.26925411137E+02  0.24752391626E+01  0.27082735576E+02  0.00000000000E+00 0. -1.
</event>
<event>
 5    1  0.1094625E-009  0.9118800E+02  0.7818608E-02  0.1130116E+00
         25   -1    0    0    0    0  0.00000000000E+00  0.00000000000E+00  0.99999998245E-14  0.12500000000E+03  0.12500000000E+03 0.  0.
        -11    1    3    3    0    0 -0.10800041428E+02 -0.12793053230E+02 -0.29391667411E+02  0.33825629620E+02  0.51100000000E-03 0.  1.
         23    2    1    0    0    0  0.93286772679E+01  0.86485653930E+01  0.25727217885E+02  0.96299622946E+02  0.91923368827E+02 0.  0.
         11    1    3    3    0    0  0.20128718696E+02  0.21441618623E+02  0.55118885296E+02  0.62473993325E+02  0.51100000000E-03 0. -1.
         22    1    1    0    0    0 -0.93286772679E+01 -0.86485653930E+01 -0.25727217885E+02  0.28700377054E+02  0.00000000000E+00 0. -1.
</event>
<event>
 5    1  0.1094625E-009  0.9118800E+02  0.7818608E-02  0.1130116E+00
         25   -1    0    0    0    0  0.00000000000E+00  0.00000000000E+00  0.99999998245E-14  0.12500000000E+03  0.12500000000E+03 0.  0.
        -11    1    3    3    0    0 -0.78617044201E+01  0.93078434241E+01  0.20230153703E+02  0.23615703773E+02  0.51100000000E-03 0.  1.
         23    2    1    0    0    0  0.13715446657E+02 -0.32451690042E+02 -0.19118162846E+02  0.84915965595E+02  0.74859811640E+02 0.  0.
         11    1    3    3    0    0  0.21577151077E+02 -0.41759533466E+02 -0.39348316549E+02  0.61300261822E+02  0.51100000000E-03 0. -1.
         22    1    1    0    0    0 -0.13715446657E+02  0.32451690042E+02  0.19118162846E+02  0.40084034405E+02  0.00000000000E+00 0. -1.
</event>
<event>
 5    1  0.1094625E-009  0.9118800E+02  0.7818608E-02  0.1130116E+00
         25   -1    0    0    0    0  0.00000000000E+00  0.00000000000E+00  0.99999998245E-14  0.12500000000E+03  0.12500000000E+03 0.  0.
        -11    1    3    3    0    0 -0.41489363900E+01  0.40788672368E+02  0.32469327839E+02  0.52299012584E+02  0.51100000000E-03 0.  1.
         23    2    1    0    0    0 -0.24676802321E+01  0.25619667692E+02 -0.99692977911E+01  0.97398483432E+02  0.93405678939E+02 0.  0.
         11    1    3    3    0    0  0.16812561579E+01 -0.15169004676E+02 -0.42438625630E+02  0.45099470848E+02  0.51100000000E-03 0. -1.
         22    1    1    0    0    0  0.24676802321E+01 -0.25619667692E+02  0.99692977911E+01  0.27601516568E+02  0.00000000000E+00 0.  1.
</event>
<event>
 5    1  0.1094625E-009  0.9118800E+02  0.7818608E-02  0.1130116E+00
         25   -1    0    0    0    0  0.00000000000E+00  0.00000000000E+00  0.99999998245E-14  0.12500000000E+03  0.12500000000E+03 0.  0.
        -11    1    3    3    0    0 -0.18077994790E+02 -0.65264857072E+01 -0.33302203528E+02  0.38450561393E+02  0.51100000000E-03 0. -1.
         23    2    1    0    0    0 -0.18262492266E+02  0.73392138768E+01  0.22009322366E+02  0.95473859800E+02  0.90793529230E+02 0.  0.
         11    1    3    3    0    0 -0.18449747564E+00  0.13865699584E+02  0.55311525894E+02  0.57023298407E+02  0.51100000000E-03 0.  1.
         22    1    1    0    0    0  0.18262492266E+02 -0.73392138768E+01 -0.22009322366E+02  0.29526140200E+02  0.00000000000E+00 0.  1.
</event>
<event>
 5    1  0.1094625E-009  0.9118800E+02  0.7818608E-02  0.1130116E+00
         25   -1    0    0    0    0  0.00000000000E+00  0.00000000000E+00  0.99999998245E-14  0.12500000000E+03  0.12500000000E+03 0.  0.
        -11    1    3    3    0    0  0.18164481786E+02  0.28875959952E+02 -0.51096845135E+02  0.61438237643E+02  0.51100000000E-03 0.  1.
         23    2    1    0    0    0  0.50938893867E+01  0.20083387598E+02 -0.20494682313E+02  0.95856867540E+02  0.91319312771E+02 0.  0.
         11    1    3    3    0    0 -0.13070592399E+02 -0.87925723543E+01  0.30602162822E+02  0.34418629896E+02  0.51100000000E-03 0. -1.
         22    1    1    0    0    0 -0.50938893867E+01 -0.20083387598E+02  0.20494682313E+02  0.29143132460E+02  0.00000000000E+00 0.  1.
</event>
<event>
 5    1  0.1094625E-009  0.9118800E+02  0.7818608E-02  0.1130116E+00
         25   -1    0    0    0    0  0.00000000000E+00  0.00000000000E+00  0.99999998245E-14  0.12500000000E+03  0.12500000000E+03 0.  0.
        -11    1    3    3    0    0 -0.18803307697E+02  0.33752386879E+02 -0.28703437292E+02  0.48131853413E+02  0.51100000000E-03 0. -1.
         23    2    1    0    0    0 -0.18244484936E+02 -0.13086920291E+02 -0.18101240300E+02  0.96159340963E+02  0.91732411070E+02 0.  0.
         11    1    3    3    0    0  0.55882276120E+00 -0.46839307170E+02  0.10602196992E+02  0.48027487550E+02  0.51100000000E-03 0.  1.
         22    1    1    0    0    0  0.18244484936E+02  0.13086920291E+02  0.18101240300E+02  0.28840659037E+02  0.00000000000E+00 0.  1.
</event>
<event>
 5    1  0.1094625E-009  0.9118800E+02  0.7818608E-02  0.1130116E+00
         25   -1    0    0    0    0  0.00000000000E+00  0.00000000000E+00  0.99999998245E-14  0.12500000000E+03  0.12500000000E+03 0.  0.
        -11    1    3    3    0    0 -0.44937021446E+02 -0.31878562629E+01 -0.11046932223E+02  0.46384620681E+02  0.51100000000E-03 0. -1.
         23    2    1    0    0    0 -0.11572622309E+02 -0.11631942948E+02  0.24274078556E+02  0.95700536291E+02  0.91105071608E+02 0.  0.
         11    1    3    3    0    0  0.33364399136E+02 -0.84440866853E+01  0.35321010780E+02  0.49315915610E+02  0.51100000000E-03 0.  1.
         22    1    1    0    0    0  0.11572622309E+02  0.11631942948E+02 -0.24274078556E+02  0.29299463709E+02  0.00000000000E+00 0.  1.
</event>
<event>
 5    1  0.1094625E-009  0.9118800E+02  0.7818608E-02  0.1130116E+00
         25   -1    0    0    0    0  0.00000000000E+00  0.00000000000E+00  0.99999998245E-14  0.12500000000E+03  0.12500000000E+03 0.  0.
        -11    1    3    3    0    0 -0.44336506319E+02  0.33759859024E+02  0.22609028042E+02  0.60138357337E+02  0.51100000000E-03 0.  1.
         23    2    1    0    0    0 -0.11287485099E+02  0.23659262140E+02  0.10611074354E+02  0.96719920371E+02  0.92493135382E+02 0.  0.
         11    1    3    3    0    0  0.33049021220E+02 -0.10100596884E+02 -0.11997953689E+02  0.36581563034E+02  0.51100000000E-03 0. -1.
         22    1    1    0    0    0  0.11287485099E+02 -0.23659262140E+02 -0.10611074354E+02  0.28280079629E+02  0.00000000000E+00 0.  1.
</event>
<event>
 5    1  0.1094625E-009  0.9118800E+02  0.7818608E-02  0.1130116E+00
         25   -1    0    0    0    0  0.00000000000E+00  0.00000000000E+00  0.99999998245E-14  0.12500000000E+03  0.12500000000E+03 0.  0.
        -11    1    3    3    0    0 -0.33211223544E+02 -0.38801098369E+02  0.48820127297E+01  0.51306380232E+02  0.51100000000E-03 0. -1.
         23    2    1    0    0    0 -0.13166765978E+02 -0.21701742974E+01  0.24238326751E+02  0.97331066762E+02  0.93315415075E+02 0.  0.
         11    1    3    3    0    0  0.20044457566E+02  0.36630924072E+02  0.19356314021E+02  0.46024686530E+02  0.51100000000E-03 0.  1.
         22    1    1    0    0    0  0.13166765978E+02  0.21701742974E+01 -0.24238326751E+02  0.27668933238E+02  0.00000000000E+00 0. -1.
</event>
<event>
 5    1  0.1094625E-009  0.9118800E+02  0.7818608E-02  0.1130116E+00
         25   -1    0    0    0    0  0.00000000000E+00  0.00000000000E+00  0.99999998245E-14  0.12500000000E+03  0.12500000000E+03 0.  0.
        -11    1    3    3    0    0 -0.83119344623E+01 -0.30275322464E+02 -0.20591254101E+02  0.37545747436E+02  0.51100000000E-03 0.  1.
         23    2    1    0    0    0 -0.98057700162E+01  0.26326444919E+02 -0.10196636954E+02  0.95113443945E+02  0.90295963289E+02 0.  0.
         11    1    3    3    0    0 -0.14938355539E+01  0.56601767382E+02  0.10394617147E+02  0.57567696509E+02  0.51100000000E-03 0. -1.
         22    1    1    0    0    0  0.98057700162E+01 -0.26326444919E+02  0.10196636954E+02  0.29886556055E+02  0.00000000000E+00 0. -1.
</event>
<event>
 5    1  0.1094625E-009  0.9118800E+02  0.7818608E-02  0.1130116E+00
         25   -1    0    0    0    0  0.00000000000E+00  0.00000000000E+00  0.99999998245E-14  0.12500000000E+03  0.12500000000E+03 0.  0.
        -11    1    3    3    0    0 -0.42079330141E+02  0.55513427480E+01 -0.72649042027E+01  0.43061192097E+02  0.51100000000E-03 0.  1.
         23    2    1    0    0    0 -0.36517131626E+01 -0.21952742265E+02  0.17753647151E+02  0.96531598409E+02  0.92238276232E+02 0.  0.
         11    1    3    3    0    0  0.38427616979E+02 -0.27504085013E+02  0.25018551354E+02  0.53470406312E+02  0.51100000000E-03 0. -1.
         22    1    1    0    0    0  0.36517131626E+01  0.21952742265E+02 -0.17753647151E+02  0.28468401591E+02  0.00000000000E+00 0. -1.
</event>
<event>
 5    1  0.1094625E-009  0.9118800E+02  0.7818608E-02  0.1130116E+00
         25   -1    0    0    0    0  0.00000000000E+00  0.00000000000E+00  0.99999998245E-14  0.12500000000E+03  0.12500000000E+03 0.  0.
        -11    1    3    3    0    0 -0.10295353845E+02  0.38844942535E+02 -0.33386155699E+01  0.40324561070E+02  0.51100000000E-03 0. -1.
         23    2    1    0    0    0 -0.52743510741E+01  0.58800532781E+00  0.31949488971E+02  0.92612743632E+02  0.86765119190E+02 0.  0.
         11    1    3    3    0    0  0.50210027712E+01 -0.38256937207E+02  0.35288104541E+02  0.52288182562E+02  0.51100000000E-03 0.  1.
         22    1    1    0    0    0  0.52743510741E+01 -0.58800532781E+00 -0.31949488971E+02  0.32387256368E+02  0.00000000000E+00 0.  1.
</event>
<event>
 5    1  0.1094625E-009  0.9118800E+02  0.7818608E-02  0.1130116E+00
         25   -1    0    0    0    0  0.00000000000E+00  0.00000000000E+00  0.99999998245E-14  0.12500000000E+03  0.12500000000E+03 0.  0.
        -11    1    3    3    0    0 -0.14805186381E+02 -0.58654090346E+02  0.13398529766E+02  0.61959797113E+02  0.51100000000E-03 0. -1.
         23    2    1    0    0    0 -0.44411905167E+01 -0.31400491887E+02  0.21425198916E+01  0.93214697493E+02  0.87628045586E+02 0.  0.
         11    1    3    3    0    0  0.10363995864E+02  0.27253598459E+02 -0.11256009874E+02  0.31254900380E+02  0.51100000000E-03 0.  1.
         22    1    1    0    0    0  0.44411905167E+01  0.31400491887E+02 -0.21425198916E+01  0.31785302507E+02  0.00000000000E+00 0. -1.
</event>
<event>
 5    1  0.1094625E-009  0.9118800E+02  0.7818608E-02  0.1130116E+00
         25   -1    0    0    0    0  0.00000000000E+00  0.00000000000E+00  0.99999998245E-14  0.12500000000E+03  0.12500000000E+03 0.  0.
        -11    1    3    3    0    0  0.57220843230E+02  0.17124764849E+02 -0.47540462205E+01  0.59917304903E+02  0.51100000000E-03 0.  1.
         23    2    1    0    0    0  0.21429193908E+02  0.17191145411E+02  0.51384323532E+01  0.97050951373E+02  0.92939431047E+02 0.  0.
         11    1    3    3    0    0 -0.35791649322E+02  0.66380562299E-01  0.98924785737E+01  0.37133646470E+02  0.51100000000E-03 0. -1.
         22    1    1    0    0    0 -0.21429193908E+02 -0.17191145411E+02 -0.51384323532E+01  0.27949048627E+02  0.00000000000E+00 0.  1.
</event>
<event>
 5    1  0.1094625E-009  0.9118800E+02  0.7818608E-02  0.1130116E+00
         25   -1    0    0    0    0  0.00000000000E+00  0.00000000000E+00  0.99999998245E-14  0.12500000000E+03  0.12500000000E+03 0.  0.
        -11    1    3    3    0    0  0.23348969992E+01  0.60429347166E+01 -0.37279474089E+02  0.37838181677E+02  0.51100000000E-03 0.  1.
         23    2    1    0    0    0  0.97718739516E+01  0.19080558839E+02  0.19165421880E+02  0.96244641509E+02  0.91848573082E+02 0.  0.
         11    1    3    3    0    0  0.74369769524E+01  0.13037624122E+02  0.56444895969E+02  0.58406459832E+02  0.51100000000E-03 0. -1.
         22    1    1    0    0    0 -0.97718739516E+01 -0.19080558839E+02 -0.19165421880E+02  0.28755358491E+02  0.00000000000E+00 0. -1.
</event>
<event>
 5    1  0.1094625E-009  0.9118800E+02  0.7818608E-02  0.1130116E+00
         25   -1    0    0    0    0  0.00000000000E+00  0.00000000000E+00  0.99999998245E-14  0.12500000000E+03  0.12500000000E+03 0.  0.
        -11    1    3    3    0    0 -0.20835448833E+02 -0.24900451793E+02 -0.95531363585E+01  0.33843918835E+02  0.51100000000E-03 0. -1.
         23    2    1    0    0    0  0.26509135210E+02  0.13292056847E+02 -0.57579203735E+01  0.94791281527E+02  0.89848875239E+02 0.  0.
         11    1    3    3    0    0  0.47344584043E+02  0.38192508640E+02  0.37952159851E+01  0.60947362691E+02  0.51100000000E-03 0.  1.
         22    1    1    0    0    0 -0.26509135210E+02 -0.13292056847E+02  0.57579203735E+01  0.30208718473E+02  0.00000000000E+00 0.  1.
</event>
<event>
 5    1  0.1094625E-009  0.9118800E+02  0.7818608E-02  0.1130116E+00
         25   -1    0    0    0    0  0.00000000000E+00  0.00000000000E+00  0.99999998245E-14  0.12500000000E+03  0.12500000000E+03 0.  0.
        -11    1    3    3    0    0  0.72465176363E+00 -0.42695658054E+02  0.35532447335E+02  0.55551770005E+02  0.51100000000E-03 0. -1.
         23    2    1    0    0    0 -0.13692896957E+02 -0.81785903096E+01  0.26558630611E+02  0.94020238438E+02  0.88769699839E+02 0.  0.
         11    1    3    3    0    0 -0.14417548721E+02  0.34517067744E+02 -0.89738167238E+01  0.38468468433E+02  0.51100000000E-03 0.  1.
         22    1    1    0    0    0  0.13692896957E+02  0.81785903096E+01 -0.26558630611E+02  0.30979761562E+02  0.00000000000E+00 0. -1.
</event>
<event>
 5    1  0.1094625E-009  0.9118800E+02  0.7818608E-02  0.1130116E+00
         25   -1    0    0    0    0  0.00000000000E+00  0.00000000000E+00  0.99999998245E-14  0.12500000000E+03  0.12500000000E+03 0.  0.
        -11    1    3    3    0    0 -0.94371432952E+01 -0.41425546714E+02 -0.42263958516E+02  0.59928105125E+02  0.51100000000E-03 0.  1.
         23    2    1    0    0    0  0.83072888178E+01 -0.18802605174E+02 -0.20306213299E+02  0.96105514239E+02  0.91659034251E+02 0.  0.
         11    1    3    3    0    0  0.17744432113E+02  0.22622941540E+02  0.21957745218E+02  0.36177409114E+02  0.51100000000E-03 0. -1.
         22    1    1    0    0    0 -0.83072888178E+01  0.18802605174E+02  0.20306213299E+02  0.28894485761E+02  0.00000000000E+00 0.  1.
</event>
<event>
 5    1  0.1094625E-009  0.9118800E+02  0.7818608E-02  0.1130116E+00
         25   -1    0    0    0    0  0.00000000000E+00  0.00000000000E+00  0.99999998245E-14  0.12500000000E+03  0.12500000000E+03 0.  0.
        -11    1    3    3    0    0 -0.54336537405E+02  0.24790785819E+02 -0.11150826139E+02  0.60756755036E+02  0.51100000000E-03 0.  1.
         23    2    1    0    0    0 -0.23647546669E+02  0.62866203838E+01 -0.14177799464E+02  0.96720359675E+02  0.92493729077E+02 0.  0.
         11    1    3    3    0    0  0.30688990736E+02 -0.18504165435E+02 -0.30269733253E+01  0.35963604639E+02  0.51100000000E-03 0. -1.
         22    1    1    0    0    0  0.23647546669E+02 -0.62866203838E+01  0.14177799464E+02  0.28279640325E+02  0.00000000000E+00 0.  1.
</event>
<event>
 5    1  0.1094625E-009  0.9118800E+02  0.7818608E-02  0.1130116E+00
         25   -1    0    0    0    0  0.00000000000E+00  0.00000000000E+00  0.99999998245E-14  0.12500000000E+03  0.12500000000E+03 0.  0.
        -11    1    3    3    0    0  0.24623418979E+02 -0.47780371258E+02 -0.29410252762E+02  0.61271850042E+02  0.51100000000E-03 0.  1.
         23    2    1    0    0    0  0.13604616245E+02 -0.16230082383E+02 -0.19707609914E+02  0.96070930781E+02  0.91611858923E+02 0.  0.
         11    1    3    3    0    0 -0.11018802734E+02  0.31550288875E+02  0.97026428472E+01  0.34799080739E+02  0.51100000000E-03 0. -1.
         22    1    1    0    0    0 -0.13604616245E+02  0.16230082383E+02  0.19707609914E+02  0.28929069219E+02  0.00000000000E+00 0.  1.
</event>
<event>
 5    1  0.1094625E-009  0.9118800E+02  0.7818608E-02  0.1130116E+00
         25   -1    0    0    0    0  0.00000000000E+00  0.00000000000E+00  0.99999998245E-14  0.12500000000E+03  0.12500000000E+03 0.  0.
        -11    1    3    3    0    0  0.49662423207E+02  0.16440445098E+02 -0.92071695164E+01  0.53117007489E+02  0.51100000000E-03 0.  1.
         23    2    1    0    0    0  0.74988251285E+01  0.26216063062E+02 -0.86181842575E+01  0.96403016931E+02  0.92063859536E+02 0.  0.
         11    1    3    3    0    0 -0.42163598078E+02  0.97756179644E+01  0.58898525887E+00  0.43286009442E+02  0.51100000000E-03 0. -1.
         22    1    1    0    0    0 -0.74988251285E+01 -0.26216063062E+02  0.86181842575E+01  0.28596983069E+02  0.00000000000E+00 0.  1.
</event>
<event>
 5    1  0.1094625E-009  0.9118800E+02  0.7818608E-02  0.1130116E+00
         25   -1    0    0    0    0  0.00000000000E+00  0.00000000000E+00  0.99999998245E-14  0.12500000000E+03  0.12500000000E+03 0.  0.
        -11    1    3    3    0    0 -0.52679848285E+02  0.88548773333E+01 -0.96031522394E+01  0.54275185869E+02  0.51100000000E-03 0.  1.
         23    2    1    0    0    0 -0.17911279702E+02 -0.12500131810E+02  0.11611199556E+02  0.10026364637E+03  0.97164353505E+02 0.  0.
         11    1    3    3    0    0  0.34768568582E+02 -0.21355009144E+02  0.21214351795E+02  0.45988460500E+02  0.51100000000E-03 0. -1.
         22    1    1    0    0    0  0.17911279702E+02  0.12500131810E+02 -0.11611199556E+02  0.24736353632E+02  0.00000000000E+00 0.  1.
</event>
<event>
 5    1  0.1094625E-009  0.9118800E+02  0.7818608E-02  0.1130116E+00
         25   -1    0    0    0    0  0.00000000000E+00  0.00000000000E+00  0.99999998245E-14  0.12500000000E+03  0.12500000000E+03 0.  0.
        -11    1    3    3    0    0 -0.64727506551E+01  0.49514167741E+02  0.34181228498E+01  0.50052301367E+02  0.51100000000E-03 0. -1.
         23    2    1    0    0    0  0.10226209357E+02  0.13788251713E+02 -0.22093795213E+02  0.97020953733E+02  0.92899076600E+02 0.  0.
         11    1    3    3    0    0  0.16698960012E+02 -0.35725916028E+02 -0.25511918063E+02  0.46968652365E+02  0.51100000000E-03 0.  1.
         22    1    1    0    0    0 -0.10226209357E+02 -0.13788251713E+02  0.22093795213E+02  0.27979046267E+02  0.00000000000E+00 0.  1.
</event>
<event>
 5    1  0.1094625E-009  0.9118800E+02  0.7818608E-02  0.1130116E+00
         25   -1    0    0    0    0  0.00000000000E+00  0.00000000000E+00  0.99999998245E-14  0.12500000000E+03  0.12500000000E+03 0.  0.
        -11    1    3    3    0    0  0.42345328667E+02 -0.79923482313E+01  0.15448664142E+02  0.45778441588E+02  0.51100000000E-03 0. -1.
         23    2    1    0    0    0  0.15853373516E+02  0.13696135984E+02 -0.20686622828E+02  0.95557684249E+02  0.90908861297E+02 0.  0.
         11    1    3    3    0    0 -0.26491955151E+02  0.21688484215E+02 -0.36135286970E+02  0.49779242661E+02  0.51100000000E-03 0.  1.
         22    1    1    0    0    0 -0.15853373516E+02 -0.13696135984E+02  0.20686622828E+02  0.29442315751E+02  0.00000000000E+00 0. -1.
</event>
<event>
 5    1  0.1094625E-009  0.9118800E+02  0.7818608E-02  0.1130116E+00
         25   -1    0    0    0    0  0.00000000000E+00  0.00000000000E+00  0.99999998245E-14  0.12500000000E+03  0.12500000000E+03 0.  0.
        -11    1    3    3    0    0  0.10994612770E+02  0.18672433435E+02  0.30772352311E+02  0.37636138848E+02  0.51100000000E-03 0. -1.
         23    2    1    0    0    0  0.18591696726E+02 -0.16713759969E+02 -0.14889488794E+02  0.95901927280E+02  0.91380970776E+02 0.  0.
         11    1    3    3    0    0  0.75970839559E+01 -0.35386193405E+02 -0.45661841105E+02  0.58265788432E+02  0.51100000000E-03 0.  1.
         22    1    1    0    0    0 -0.18591696726E+02  0.16713759969E+02  0.14889488794E+02  0.29098072720E+02  0.00000000000E+00 0.  1.
</event>
<event>
 5    1  0.1094625E-009  0.9118800E+02  0.7818608E-02  0.1130116E+00
         25   -1    0    0    0    0  0.00000000000E+00  0.00000000000E+00  0.99999998245E-14  0.12500000000E+03  0.12500000000E+03 0.  0.
        -11    1    3    3    0    0 -0.20124198445E+02  0.56731573508E+02 -0.10608991493E+02  0.61122872123E+02  0.51100000000E-03 0. -1.
         23    2    1    0    0    0 -0.13853198019E+02  0.22763008033E+02 -0.12180180388E+02  0.95701153191E+02  0.91105918016E+02 0.  0.
         11    1    3    3    0    0  0.62710004261E+01 -0.33968565475E+02 -0.15711888954E+01  0.34578281068E+02  0.51100000000E-03 0.  1.
         22    1    1    0    0    0  0.13853198019E+02 -0.22763008033E+02  0.12180180388E+02  0.29298846809E+02  0.00000000000E+00 0. -1.
</event>
<event>
 5    1  0.1094625E-009  0.9118800E+02  0.7818608E-02  0.1130116E+00
         25   -1    0    0    0    0  0.00000000000E+00  0.00000000000E+00  0.99999998245E-14  0.12500000000E+03  0.12500000000E+03 0.  0.
        -11    1    3    3    0    0 -0.12568566779E+02  0.13082440087E+02 -0.28411628513E+02  0.33709638748E+02  0.51100000000E-03 0. -1.
         23    2    1    0    0    0 -0.11509460162E+01 -0.64886033419E+01  0.28910789739E+02  0.95347674402E+02  0.90619636947E+02 0.  0.
         11    1    3    3    0    0  0.11417620763E+02 -0.19571043429E+02  0.57322418251E+02  0.61638035654E+02  0.51100000000E-03 0.  1.
         22    1    1    0    0    0  0.11509460162E+01  0.64886033419E+01 -0.28910789739E+02  0.29652325598E+02  0.00000000000E+00 0.  1.
</event>
<event>
 5    1  0.1094625E-009  0.9118800E+02  0.7818608E-02  0.1130116E+00
         25   -1    0    0    0    0  0.00000000000E+00  0.00000000000E+00  0.99999998245E-14  0.12500000000E+03  0.12500000000E+03 0.  0.
        -11    1    3    3    0    0 -0.11239380764E+02 -0.37425858987E+02 -0.30881668670E+02  0.49806586522E+02  0.51100000000E-03 0. -1.
         23    2    1    0    0    0  0.12353570075E+02 -0.25501643465E+02  0.68219123267E+01  0.95854108337E+02  0.91315535832E+02 0.  0.
         11    1    3    3    0    0  0.23592950839E+02  0.11924215522E+02  0.37703580997E+02  0.46047521815E+02  0.51100000000E-03 0.  1.
         22    1    1    0    0    0 -0.12353570075E+02  0.25501643465E+02 -0.68219123267E+01  0.29145891663E+02  0.00000000000E+00 0. -1.
</event>
<event>
 5    1  0.1094625E-009  0.9118800E+02  0.7818608E-02  0.1130116E+00
         25   -1    0    0    0    0  0.00000000000E+00  0.00000000000E+00  0.99999998245E-14  0.12500000000E+03  0.12500000000E+03 0.  0.
        -11    1    3    3    0    0 -0.12560867973E+02  0.75410997232E+01  0.31255417474E+02  0.34518758828E+02  0.51100000000E-03 0.  1.
         23    2    1    0    0    0 -0.50302157655E+01  0.29371700093E+01 -0.29001810545E+02  0.95419008583E+02  0.90717981381E+02 0.  0.
         11    1    3    3    0    0  0.75306522077E+01 -0.46039297140E+01 -0.60257228019E+02  0.60900249755E+02  0.51100000000E-03 0. -1.
         22    1    1    0    0    0  0.50302157655E+01 -0.29371700093E+01  0.29001810545E+02  0.29580991417E+02  0.00000000000E+00 0. -1.
</event>
<event>
 5    1  0.1094625E-009  0.9118800E+02  0.7818608E-02  0.1130116E+00
         25   -1    0    0    0    0  0.00000000000E+00  0.00000000000E+00  0.99999998245E-14  0.12500000000E+03  0.12500000000E+03 0.  0.
        -11    1    3    3    0    0  0.54232916484E+02 -0.13070811908E+02  0.26017368610E+02  0.61554519119E+02  0.51100000000E-03 0.  1.
         23    2    1    0    0    0  0.16181017205E+02 -0.64510139760E+01  0.15741637421E+02  0.10152149818E+03  0.98769299605E+02 0.  0.
         11    1    3    3    0    0 -0.38051899279E+02  0.66197979317E+01 -0.10275731189E+02  0.39966979059E+02  0.51100000000E-03 0. -1.
         22    1    1    0    0    0 -0.16181017205E+02  0.64510139760E+01 -0.15741637421E+02  0.23478501822E+02  0.00000000000E+00 0.  1.
</event>
<event>
 5    1  0.1094625E-009  0.9118800E+02  0.7818608E-02  0.1130116E+00
         25   -1    0    0    0    0  0.00000000000E+00  0.00000000000E+00  0.99999998245E-14  0.12500000000E+03  0.12500000000E+03 0.  0.
        -11    1    3    3    0    0 -0.35876683707E+02  0.11956795158E+01 -0.14572477316E+02  0.38741749814E+02  0.51100000000E-03 0.  1.
         23    2    1    0    0    0 -0.66425038602E+00 -0.37002755899E+01  0.29441099802E+02  0.95319844583E+02  0.90581240584E+02 0.  0.
         11    1    3    3    0    0  0.35212433320E+02 -0.48959551057E+01  0.44013577118E+02  0.56578094769E+02  0.51100000000E-03 0. -1.
         22    1    1    0    0    0  0.66425038602E+00  0.37002755899E+01 -0.29441099802E+02  0.29680155417E+02  0.00000000000E+00 0. -1.
</event>
<event>
 5    1  0.1094625E-009  0.9118800E+02  0.7818608E-02  0.1130116E+00
         25   -1    0    0    0    0  0.00000000000E+00  0.00000000000E+00  0.99999998245E-14  0.12500000000E+03  0.12500000000E+03 0.  0.
        -11    1    3    3    0    0 -0.55841925093E+02 -0.13118422045E+02 -0.21392518835E+02  0.61221348053E+02  0.51100000000E-03 0. -1.
         23    2    1    0    0    0 -0.28735527579E+02  0.19952210572E+01 -0.74313360875E+01  0.95252122624E+02  0.90487737600E+02 0.  0.
         11    1    3    3    0    0  0.27106397514E+02  0.15113643102E+02  0.13961182747E+02  0.34030774572E+02  0.51100000000E-03 0.  1.
         22    1    1    0    0    0  0.28735527579E+02 -0.19952210572E+01  0.74313360875E+01  0.29747877376E+02  0.00000000000E+00 0. -1.
</event>
<event>
 5    1  0.1094625E-009  0.9118800E+02  0.7818608E-02  0.1130116E+00
         25   -1    0    0    0    0  0.00000000000E+00  0.00000000000E+00  0.99999998245E-14  0.12500000000E+03  0.12500000000E+03 0.  0.
        -11    1    3    3    0    0 -0.63862336163E+01 -0.74559235863E+01  0.39246795475E+02  0.40455972756E+02  0.51100000000E-03 0. -1.
         23    2    1    0    0    0  0.29080270561E+02 -0.16860874473E+00 -0.26126967655E+01  0.95802110535E+02  0.91244329324E+02 0.  0.
         11    1    3    3    0    0  0.35466504177E+02  0.72873148416E+01 -0.41859492240E+02  0.55346137779E+02  0.51100000000E-03 0.  1.
         22    1    1    0    0    0 -0.29080270561E+02  0.16860874473E+00  0.26126967655E+01  0.29197889465E+02  0.00000000000E+00 0.  1.
</event>
<event>
 5    1  0.1094625E-009  0.9118800E+02  0.7818608E-02  0.1130116E+00
         25   -1    0    0    0    0  0.00000000000E+00  0.00000000000E+00  0.99999998245E-14  0.12500000000E+03  0.12500000000E+03 0.  0.
        -11    1    3    3    0    0  0.19530631019E+02 -0.39465052556E+02 -0.78345031737E+01  0.44724885259E+02  0.51100000000E-03 0. -1.
         23    2    1    0    0    0 -0.19830955766E+02 -0.47463551124E+01  0.12579894416E+02  0.10104069206E+03  0.98158917144E+02 0.  0.
         11    1    3    3    0    0 -0.39361586785E+02  0.34718697443E+02  0.20414397590E+02  0.56315806801E+02  0.51100000000E-03 0.  1.
         22    1    1    0    0    0  0.19830955766E+02  0.47463551124E+01 -0.12579894416E+02  0.23959307940E+02  0.00000000000E+00 0.  1.
</event>
<event>
 5    1  0.1094625E-009  0.9118800E+02  0.7818608E-02  0.1130116E+00
         25   -1    0    0    0    0  0.00000000000E+00  0.00000000000E+00  0.99999998245E-14  0.12500000000E+03  0.12500000000E+03 0.  0.
        -11    1    3    3    0    0  0.71474493546E+01  0.53123438847E+02 -0.17281766552E+02  0.56319137446E+02  0.51100000000E-03 0.  1.
         23    2    1    0    0    0  0.21977605077E+02  0.18897849640E+02 -0.50203248108E+01  0.95583210455E+02  0.90943953145E+02 0.  0.
         11    1    3    3    0    0  0.14830155723E+02 -0.34225589208E+02  0.12261441742E+02  0.39264073009E+02  0.51100000000E-03 0. -1.
         22    1    1    0    0    0 -0.21977605077E+02 -0.18897849640E+02  0.50203248108E+01  0.29416789545E+02  0.00000000000E+00 0.  1.
</event>
<event>
 5    1  0.1094625E-009  0.9118800E+02  0.7818608E-02  0.1130116E+00
         25   -1    0    0    0    0  0.00000000000E+00  0.00000000000E+00  0.99999998245E-14  0.12500000000E+03  0.12500000000E+03 0.  0.
        -11    1    3    3    0    0 -0.25793389402E+01  0.34074260056E+02 -0.32860118085E+01  0.34329376074E+02  0.51100000000E-03 0.  1.
         23    2    1    0    0    0  0.40356185905E+01 -0.21570534290E+02  0.20279726910E+02  0.95119546682E+02  0.90304411135E+02 0.  0.
         11    1    3    3    0    0  0.66149575308E+01 -0.55644794346E+02  0.23565738718E+02  0.60790170608E+02  0.51100000000E-03 0. -1.
         22    1    1    0    0    0 -0.40356185905E+01  0.21570534290E+02 -0.20279726910E+02  0.29880453318E+02  0.00000000000E+00 0. -1.
</event>
<event>
 5    1  0.1094625E-009  0.9118800E+02  0.7818608E-02  0.1130116E+00
         25   -1    0    0    0    0  0.00000000000E+00  0.00000000000E+00  0.99999998245E-14  0.12500000000E+03  0.12500000000E+03 0.  0.
        -11    1    3    3    0    0  0.33067144638E+02 -0.66478069137E+01  0.25675545480E+02  0.42389421171E+02  0.51100000000E-03 0.  1.
         23    2    1    0    0    0  0.15264853352E+02 -0.17552511204E+02 -0.21088643587E+02  0.93601954110E+02  0.88178730584E+02 0.  0.
         11    1    3    3    0    0 -0.17802291287E+02 -0.10904704290E+02 -0.46764189066E+02  0.51212532939E+02  0.51100000000E-03 0. -1.
         22    1    1    0    0    0 -0.15264853352E+02  0.17552511204E+02  0.21088643587E+02  0.31398045890E+02  0.00000000000E+00 0. -1.
</event>
<event>
 5    1  0.1094625E-009  0.9118800E+02  0.7818608E-02  0.1130116E+00
         25   -1    0    0    0    0  0.00000000000E+00  0.00000000000E+00  0.99999998245E-14  0.12500000000E+03  0.12500000000E+03 0.  0.
        -11    1    3    3    0    0  0.10663908306E+02  0.36195468935E+02  0.17648818937E+02  0.41657072892E+02  0.51100000000E-03 0.  1.
         23    2    1    0    0    0 -0.14693487478E+02 -0.11569014710E+02  0.22254604386E+02  0.95930977106E+02  0.91420699388E+02 0.  0.
         11    1    3    3    0    0 -0.25357395784E+02 -0.47764483645E+02  0.46057854489E+01  0.54273904214E+02  0.51100000000E-03 0. -1.
         22    1    1    0    0    0  0.14693487478E+02  0.11569014710E+02 -0.22254604386E+02  0.29069022894E+02  0.00000000000E+00 0. -1.
</event>
<event>
 5    1  0.1094625E-009  0.9118800E+02  0.7818608E-02  0.1130116E+00
         25   -1    0    0    0    0  0.00000000000E+00  0.00000000000E+00  0.99999998245E-14  0.12500000000E+03  0.12500000000E+03 0.  0.
        -11    1    3    3    0    0 -0.54581315790E+02  0.17543530327E+02 -0.16646840819E+02  0.59699353424E+02  0.51100000000E-03 0.  1.
         23    2    1    0    0    0 -0.27904793443E+02  0.37143789724E+01  0.45666768937E+01  0.96481082663E+02  0.92169792588E+02 0.  0.
         11    1    3    3    0    0  0.26676522348E+02 -0.13829151355E+02  0.21213517713E+02  0.36781729239E+02  0.51100000000E-03 0. -1.
         22    1    1    0    0    0  0.27904793443E+02 -0.37143789724E+01 -0.45666768937E+01  0.28518917337E+02  0.00000000000E+00 0.  1.
</event>
<event>
 5    1  0.1094625E-009  0.9118800E+02  0.7818608E-02  0.1130116E+00
         25   -1    0    0    0    0  0.00000000000E+00  0.00000000000E+00  0.99999998245E-14  0.12500000000E+03  0.12500000000E+03 0.  0.
        -11    1    3    3    0    0  0.12636064829E+02  0.29580559516E+02 -0.20118254478E+02  0.37939739049E+02  0.51100000000E-03 0.  1.
         23    2    1    0    0    0  0.19574426535E+02 -0.21499454616E+02  0.53489380782E+01  0.95436578995E+02  0.90742188362E+02 0.  0.
         11    1    3    3    0    0  0.69383617058E+01 -0.51080014132E+02  0.25467192556E+02  0.57496839946E+02  0.51100000000E-03 0. -1.
         22    1    1    0    0    0 -0.19574426535E+02  0.21499454616E+02 -0.53489380782E+01  0.29563421005E+02  0.00000000000E+00 0. -1.
</event>
<event>
 5    1  0.1094625E-009  0.9118800E+02  0.7818608E-02  0.1130116E+00
         25   -1    0    0    0    0  0.00000000000E+00  0.00000000000E+00  0.99999998245E-14  0.12500000000E+03  0.12500000000E+03 0.  0.
        -11    1    3    3    0    0  0.18830829598E+02 -0.27711340013E+02 -0.26678382608E+02  0.42828198742E+02  0.51100000000E-03 0. -1.
         23    2    1    0    0    0  0.36710365187E+01 -0.17353770420E+02  0.23094687561E+02  0.95879655729E+02  0.91350500448E+02 0.  0.
         11    1    3    3    0    0 -0.15159793079E+02  0.10357569593E+02  0.49773070169E+02  0.53051456987E+02  0.51100000000E-03 0.  1.
         22    1    1    0    0    0 -0.36710365187E+01  0.17353770420E+02 -0.23094687561E+02  0.29120344271E+02  0.00000000000E+00 0.  1.
</event>
<event>
 5    1  0.1094625E-009  0.9118800E+02  0.7818608E-02  0.1130116E+00
         25   -1    0    0    0    0  0.00000000000E+00  0.00000000000E+00  0.99999998245E-14  0.12500000000E+03  0.12500000000E+03 0.  0.
        -11    1    3    3    0    0  0.37785787165E+02  0.40872266922E+01  0.49108593532E+02  0.62097706018E+02  0.51100000000E-03 0. -1.
         23    2    1    0    0    0  0.17214159028E+02 -0.31085410673E+01  0.22881999064E+02  0.96197635865E+02  0.91784579131E+02 0.  0.
         11    1    3    3    0    0 -0.20571628138E+02 -0.71957677594E+01 -0.26226594468E+02  0.34099929847E+02  0.51100000000E-03 0.  1.
         22    1    1    0    0    0 -0.17214159028E+02  0.31085410673E+01 -0.22881999064E+02  0.28802364135E+02  0.00000000000E+00 0. -1.
</event>
<event>
 5    1  0.1094625E-009  0.9118800E+02  0.7818608E-02  0.1130116E+00
         25   -1    0    0    0    0  0.00000000000E+00  0.00000000000E+00  0.99999998245E-14  0.12500000000E+03  0.12500000000E+03 0.  0.
        -11    1    3    3    0    0  0.29113626000E+02 -0.27411403593E+02  0.17232181302E+02  0.43542351090E+02  0.51100000000E-03 0.  1.
         23    2    1    0    0    0 -0.64104749075E+01  0.68554158621E+01  0.29198707916E+02  0.94329893070E+02  0.89204670659E+02 0.  0.
         11    1    3    3    0    0 -0.35524100907E+02  0.34266819455E+02  0.11966526614E+02  0.50787541979E+02  0.51100000000E-03 0. -1.
         22    1    1    0    0    0  0.64104749075E+01 -0.68554158621E+01 -0.29198707916E+02  0.30670106930E+02  0.00000000000E+00 0. -1.
</event>
<event>
 5    1  0.1094625E-009  0.9118800E+02  0.7818608E-02  0.1130116E+00
         25   -1    0    0    0    0  0.00000000000E+00  0.00000000000E+00  0.99999998245E-14  0.12500000000E+03  0.12500000000E+03 0.  0.
        -11    1    3    3    0    0  0.45594204695E+01  0.19444111398E+02 -0.53115019832E+02  0.56745635207E+02  0.51100000000E-03 0. -1.
         23    2    1    0    0    0  0.32863844683E+01 -0.96599717678E+01 -0.27964048114E+02  0.95232511622E+02  0.90460642853E+02 0.  0.
         11    1    3    3    0    0 -0.12730360013E+01 -0.29104083165E+02  0.25150971718E+02  0.38486876415E+02  0.51100000000E-03 0.  1.
         22    1    1    0    0    0 -0.32863844683E+01  0.96599717678E+01  0.27964048114E+02  0.29767488378E+02  0.00000000000E+00 0. -1.
</event>
<event>
 5    1  0.1094625E-009  0.9118800E+02  0.7818608E-02  0.1130116E+00
         25   -1    0    0    0    0  0.00000000000E+00  0.00000000000E+00  0.99999998245E-14  0.12500000000E+03  0.12500000000E+03 0.  0.
        -11    1    3    3    0    0 -0.25965675648E+02 -0.21648398536E+02  0.51585753786E+02  0.61676247169E+02  0.51100000000E-03 0.  1.
         23    2    1    0    0    0 -0.15495515095E+02 -0.13022027491E+02  0.17942913524E+02  0.97951297004E+02  0.94142574061E+02 0.  0.
         11    1    3    3    0    0  0.10470160552E+02  0.86263710443E+01 -0.33642840261E+02  0.36275049834E+02  0.51100000000E-03 0. -1.
         22    1    1    0    0    0  0.15495515095E+02  0.13022027491E+02 -0.17942913524E+02  0.27048702996E+02  0.00000000000E+00 0.  1.
</event>
<event>
 5    1  0.1094625E-009  0.9118800E+02  0.7818608E-02  0.1130116E+00
         25   -1    0    0    0    0  0.00000000000E+00  0.00000000000E+00  0.99999998245E-14  0.12500000000E+03  0.12500000000E+03 0.  0.
        -11    1    3    3    0    0  0.10483937547E+02 -0.35798559718E+02  0.62522619553E+01  0.37822488075E+02  0.51100000000E-03 0. -1.
         23    2    1    0    0    0 -0.22432403341E+02  0.93275011415E+01  0.17829410349E+02  0.94865254762E+02  0.89951729781E+02 0.  0.
         11    1    3    3    0    0 -0.32916340887E+02  0.45126060860E+02  0.11577148393E+02  0.57042766687E+02  0.51100000000E-03 0.  1.
         22    1    1    0    0    0  0.22432403341E+02 -0.93275011415E+01 -0.17829410349E+02  0.30134745238E+02  0.00000000000E+00 0. -1.
</event>
<event>
 5    1  0.1094625E-009  0.9118800E+02  0.7818608E-02  0.1130116E+00
         25   -1    0    0    0    0  0.00000000000E+00  0.00000000000E+00  0.99999998245E-14  0.12500000000E+03  0.12500000000E+03 0.  0.
        -11    1    3    3    0    0  0.28568104428E+02  0.14726222745E+02 -0.15699214333E+02  0.35769589848E+02  0.51100000000E-03 0.  1.
         23    2    1    0    0    0 -0.22262130715E+02  0.17760861996E+02  0.12411160611E+02  0.93934141079E+02  0.88648379961E+02 0.  0.
         11    1    3    3    0    0 -0.50830235143E+02  0.30346392508E+01  0.28110374944E+02  0.58164551230E+02  0.51100000000E-03 0. -1.
         22    1    1    0    0    0  0.22262130715E+02 -0.17760861996E+02 -0.12411160611E+02  0.31065858921E+02  0.00000000000E+00 0. -1.
</event>
<event>
 5    1  0.1094625E-009  0.9118800E+02  0.7818608E-02  0.1130116E+00
         25   -1    0    0    0    0  0.00000000000E+00  0.00000000000E+00  0.99999998245E-14  0.12500000000E+03  0.12500000000E+03 0.  0.
        -11    1    3    3    0    0 -0.27491852935E+02  0.20334537965E+02 -0.48329976807E+02  0.59203733586E+02  0.51100000000E-03 0.  1.
         23    2    1    0    0    0 -0.15165823610E+02  0.21591799306E+02 -0.15258335764E+02  0.94520091645E+02  0.89470793621E+02 0.  0.
         11    1    3    3    0    0  0.12326029325E+02  0.12572613415E+01  0.33071641043E+02  0.35316358059E+02  0.51100000000E-03 0. -1.
         22    1    1    0    0    0  0.15165823610E+02 -0.21591799306E+02  0.15258335764E+02  0.30479908355E+02  0.00000000000E+00 0.  1.
</event>
<event>
 5    1  0.1094625E-009  0.9118800E+02  0.7818608E-02  0.1130116E+00
         25   -1    0    0    0    0  0.00000000000E+00  0.00000000000E+00  0.99999998245E-14  0.12500000000E+03  0.12500000000E+03 0.  0.
        -11    1    3    3    0    0 -0.48427271000E+02  0.16724827462E+02  0.23799213610E+02  0.56491795854E+02  0.51100000000E-03 0.  1.
         23    2    1    0    0    0 -0.10909474426E+02  0.47973882156E+00  0.25342667057E+02  0.97404754846E+02  0.93414071271E+02 0.  0.
         11    1    3    3    0    0  0.37517796573E+02 -0.16245088640E+02  0.15434534469E+01  0.40912958992E+02  0.51100000000E-03 0. -1.
         22    1    1    0    0    0  0.10909474426E+02 -0.47973882156E+00 -0.25342667057E+02  0.27595245154E+02  0.00000000000E+00 0.  1.
</event>
<event>
 5    1  0.1094625E-009  0.9118800E+02  0.7818608E-02  0.1130116E+00
         25   -1    0    0    0    0  0.00000000000E+00  0.00000000000E+00  0.99999998245E-14  0.12500000000E+03  0.12500000000E+03 0.  0.
        -11    1    3    3    0    0  0.14545948063E+02  0.90814265387E+01  0.60096516590E+02  0.62495185571E+02  0.51100000000E-03 0. -1.
         23    2    1    0    0    0  0.71250873673E+01  0.41427132506E+01  0.27118100005E+02  0.96657094522E+02  0.92408190278E+02 0.  0.
         11    1    3    3    0    0 -0.74208606952E+01 -0.49387132881E+01 -0.32978416585E+02  0.34161908950E+02  0.51100000000E-03 0.  1.
         22    1    1    0    0    0 -0.71250873673E+01 -0.41427132506E+01 -0.27118100005E+02  0.28342905478E+02  0.00000000000E+00 0. -1.
</event>
<event>
 5    1  0.1094625E-009  0.9118800E+02  0.7818608E-02  0.1130116E+00
         25   -1    0    0    0    0  0.00000000000E+00  0.00000000000E+00  0.99999998245E-14  0.12500000000E+03  0.12500000000E+03 0.  0.
        -11    1    3    3    0    0  0.14933109476E+02 -0.19727184062E+02 -0.13308972471E+02  0.28094275184E+02  0.51100000000E-03 0. -1.
         23    2    1    0    0    0  0.47758952491E+01  0.30322616440E+02 -0.30252305067E+02  0.81901598579E+02  0.69644810609E+02 0.  0.
         11    1    3    3    0    0 -0.10157214227E+02  0.50049800502E+02 -0.16943332596E+02  0.53807323394E+02  0.51100000000E-03 0.  1.
         22    1    1    0    0    0 -0.47758952491E+01 -0.30322616440E+02  0.30252305067E+02  0.43098401421E+02  0.00000000000E+00 0.  1.
</event>
<event>
 5    1  0.1094625E-009  0.9118800E+02  0.7818608E-02  0.1130116E+00
         25   -1    0    0    0    0  0.00000000000E+00  0.00000000000E+00  0.99999998245E-14  0.12500000000E+03  0.12500000000E+03 0.  0.
        -11    1    3    3    0    0  0.14088407467E+02  0.23673660240E+00 -0.35744973863E+02  0.38421900342E+02  0.51100000000E-03 0.  1.
         23    2    1    0    0    0  0.36990242395E+01  0.22834688681E+02  0.16702481269E+02  0.96467936142E+02  0.92151961647E+02 0.  0.
         11    1    3    3    0    0 -0.10389383228E+02  0.22597952079E+02  0.52447455132E+02  0.58046035800E+02  0.51100000000E-03 0. -1.
         22    1    1    0    0    0 -0.36990242395E+01 -0.22834688681E+02 -0.16702481269E+02  0.28532063858E+02  0.00000000000E+00 0. -1.
</event>
<event>
 5    1  0.1094625E-009  0.9118800E+02  0.7818608E-02  0.1130116E+00
         25   -1    0    0    0    0  0.00000000000E+00  0.00000000000E+00  0.99999998245E-14  0.12500000000E+03  0.12500000000E+03 0.  0.
        -11    1    3    3    0    0 -0.17002287963E+02  0.67575595710E+01  0.31763859976E+02  0.36656311983E+02  0.51100000000E-03 0.  1.
         23    2    1    0    0    0  0.19317168222E+02  0.18129432649E+02 -0.13064999598E+02  0.95461490715E+02  0.90776498494E+02 0.  0.
         11    1    3    3    0    0  0.36319456185E+02  0.11371873078E+02 -0.44828859574E+02  0.58805178733E+02  0.51100000000E-03 0. -1.
         22    1    1    0    0    0 -0.19317168222E+02 -0.18129432649E+02  0.13064999598E+02  0.29538509285E+02  0.00000000000E+00 0. -1.
</event>
<event>
 5    1  0.1094625E-009  0.9118800E+02  0.7818608E-02  0.1130116E+00
         25   -1    0    0    0    0  0.00000000000E+00  0.00000000000E+00  0.99999998245E-14  0.12500000000E+03  0.12500000000E+03 0.  0.
        -11    1    3    3    0    0  0.23348105873E+02  0.14943504998E+02  0.19651526512E+02  0.33979771688E+02  0.51100000000E-03 0. -1.
         23    2    1    0    0    0 -0.21535906324E+02 -0.70481489780E+01 -0.17592863289E+02  0.96312363222E+02  0.91940691783E+02 0.  0.
         11    1    3    3    0    0 -0.44884012197E+02 -0.21991653976E+02 -0.37244389800E+02  0.62332591534E+02  0.51100000000E-03 0.  1.
         22    1    1    0    0    0  0.21535906324E+02  0.70481489780E+01  0.17592863289E+02  0.28687636778E+02  0.00000000000E+00 0.  1.
</event>
<event>
 5    1  0.1094625E-009  0.9118800E+02  0.7818608E-02  0.1130116E+00
         25   -1    0    0    0    0  0.00000000000E+00  0.00000000000E+00  0.99999998245E-14  0.12500000000E+03  0.12500000000E+03 0.  0.
        -11    1    3    3    0    0 -0.41095475180E+01  0.14757018424E+01  0.40702870084E+02  0.40936410566E+02  0.51100000000E-03 0.  1.
         23    2    1    0    0    0 -0.18046479918E+02  0.92492999998E+01 -0.15573251211E+02  0.99431442333E+02  0.96087775409E+02 0.  0.
         11    1    3    3    0    0 -0.13936932400E+02  0.77735981574E+01 -0.56276121295E+02  0.58495031766E+02  0.51100000000E-03 0. -1.
         22    1    1    0    0    0  0.18046479918E+02 -0.92492999998E+01  0.15573251211E+02  0.25568557667E+02  0.00000000000E+00 0. -1.
</event>
<event>
 5    1  0.1094625E-009  0.9118800E+02  0.7818608E-02  0.1130116E+00
         25   -1    0    0    0    0  0.00000000000E+00  0.00000000000E+00  0.99999998245E-14  0.12500000000E+03  0.12500000000E+03 0.  0.
        -11    1    3    3    0    0 -0.45321888167E+01  0.42281661523E+02 -0.36866921468E+00  0.42525469473E+02  0.51100000000E-03 0.  1.
         23    2    1    0    0    0 -0.24680376608E+02  0.35817445627E+01 -0.22467158357E+02  0.91433303882E+02  0.85048962196E+02 0.  0.
         11    1    3    3    0    0 -0.20148187791E+02 -0.38699916960E+02 -0.22098489143E+02  0.48907834410E+02  0.51100000000E-03 0. -1.
         22    1    1    0    0    0  0.24680376608E+02 -0.35817445627E+01  0.22467158357E+02  0.33566696118E+02  0.00000000000E+00 0. -1.
</event>
<event>
 5    1  0.1094625E-009  0.9118800E+02  0.7818608E-02  0.1130116E+00
         25   -1    0    0    0    0  0.00000000000E+00  0.00000000000E+00  0.99999998245E-14  0.12500000000E+03  0.12500000000E+03 0.  0.
        -11    1    3    3    0    0  0.40628840429E+02  0.23435931312E+01  0.12474699347E+02  0.42565399416E+02  0.51100000000E-03 0. -1.
         23    2    1    0    0    0 -0.10543804232E+02 -0.88078919195E+01  0.25052057168E+02  0.96428049838E+02  0.92097841774E+02 0.  0.
         11    1    3    3    0    0 -0.51172644661E+02 -0.11151485051E+02  0.12577357821E+02  0.53862650422E+02  0.51100000000E-03 0.  1.
         22    1    1    0    0    0  0.10543804232E+02  0.88078919195E+01 -0.25052057168E+02  0.28571950162E+02  0.00000000000E+00 0.  1.
</event>
<event>
 5    1  0.1094625E-009  0.9118800E+02  0.7818608E-02  0.1130116E+00
         25   -1    0    0    0    0  0.00000000000E+00  0.00000000000E+00  0.99999998245E-14  0.12500000000E+03  0.12500000000E+03 0.  0.
        -11    1    3    3    0    0 -0.24095424888E+02  0.26681709043E+02 -0.24559157901E+02  0.43539124188E+02  0.51100000000E-03 0. -1.
         23    2    1    0    0    0 -0.16308799063E+02  0.24479078892E+01  0.22536889428E+02  0.97073658223E+02  0.92969965881E+02 0.  0.
         11    1    3    3    0    0  0.77866258253E+01 -0.24233801154E+02  0.47096047329E+02  0.53534534035E+02  0.51100000000E-03 0.  1.
         22    1    1    0    0    0  0.16308799063E+02 -0.24479078892E+01 -0.22536889428E+02  0.27926341777E+02  0.00000000000E+00 0.  1.
</event>
<event>
 5    1  0.1094625E-009  0.9118800E+02  0.7818608E-02  0.1130116E+00
         25   -1    0    0    0    0  0.00000000000E+00  0.00000000000E+00  0.99999998245E-14  0.12500000000E+03  0.12500000000E+03 0.  0.
        -11    1    3    3    0    0  0.14364343839E+02 -0.32111879462E+02  0.42483229121E+00  0.35180785370E+02  0.51100000000E-03 0.  1.
         23    2    1    0    0    0 -0.16711133545E+02  0.17120048887E+02  0.16926780984E+02  0.95693448297E+02  0.91095346062E+02 0.  0.
         11    1    3    3    0    0 -0.31075477384E+02  0.49231928349E+02  0.16501948693E+02  0.60512662927E+02  0.51100000000E-03 0. -1.
         22    1    1    0    0    0  0.16711133545E+02 -0.17120048887E+02 -0.16926780984E+02  0.29306551703E+02  0.00000000000E+00 0. -1.
</event>
<event>
 5    1  0.1094625E-009  0.9118800E+02  0.7818608E-02  0.1130116E+00
         25   -1    0    0    0    0  0.00000000000E+00  0.00000000000E+00  0.99999998245E-14  0.12500000000E+03  0.12500000000E+03 0.  0.
        -11    1    3    3    0    0 -0.13982502348E+00 -0.34286716524E+02  0.89596212999E+01  0.35438302656E+02  0.51100000000E-03 0. -1.
         23    2    1    0    0    0  0.60123766401E+01  0.25862111964E+02 -0.61178397484E+01  0.97752514404E+02  0.93878264795E+02 0.  0.
         11    1    3    3    0    0  0.61522016636E+01  0.60148828488E+02 -0.15077461048E+02  0.62314211748E+02  0.51100000000E-03 0.  1.
         22    1    1    0    0    0 -0.60123766401E+01 -0.25862111964E+02  0.61178397484E+01  0.27247485596E+02  0.00000000000E+00 0.  1.
</event>
<event>
 5    1  0.1094625E-009  0.9118800E+02  0.7818608E-02  0.1130116E+00
         25   -1    0    0    0    0  0.00000000000E+00  0.00000000000E+00  0.99999998245E-14  0.12500000000E+03  0.12500000000E+03 0.  0.
        -11    1    3    3    0    0  0.31163179788E+02 -0.22191691465E+02 -0.36452197092E+02  0.52842952393E+02  0.51100000000E-03 0. -1.
         23    2    1    0    0    0 -0.66400534432E+01 -0.29536173241E+01 -0.27972227363E+02  0.96099140693E+02  0.91650341916E+02 0.  0.
         11    1    3    3    0    0 -0.37803233231E+02  0.19238074141E+02  0.84799697290E+01  0.43256188300E+02  0.51100000000E-03 0.  1.
         22    1    1    0    0    0  0.66400534432E+01  0.29536173241E+01  0.27972227363E+02  0.28900859307E+02  0.00000000000E+00 0. -1.
</event>
<event>
 5    1  0.1094625E-009  0.9118800E+02  0.7818608E-02  0.1130116E+00
         25   -1    0    0    0    0  0.00000000000E+00  0.00000000000E+00  0.99999998245E-14  0.12500000000E+03  0.12500000000E+03 0.  0.
        -11    1    3    3    0    0  0.66177535182E+01  0.39872872527E+02  0.31948359103E+02  0.51520270524E+02  0.51100000000E-03 0. -1.
         23    2    1    0    0    0  0.15285795670E+02  0.21775051870E+02 -0.88298267994E+01  0.96968334432E+02  0.92828247899E+02 0.  0.
         11    1    3    3    0    0  0.86680421519E+01 -0.18097820657E+02 -0.40778185902E+02  0.45448063908E+02  0.51100000000E-03 0.  1.
         22    1    1    0    0    0 -0.15285795670E+02 -0.21775051870E+02  0.88298267994E+01  0.28031665568E+02  0.00000000000E+00 0. -1.
</event>
<event>
 5    1  0.1094625E-009  0.9118800E+02  0.7818608E-02  0.1130116E+00
         25   -1    0    0    0    0  0.00000000000E+00  0.00000000000E+00  0.99999998245E-14  0.12500000000E+03  0.12500000000E+03 0.  0.
        -11    1    3    3    0    0  0.16159212518E+02  0.61428719298E+01 -0.40269666564E+02  0.43823521882E+02  0.51100000000E-03 0. -1.
         23    2    1    0    0    0 -0.14783080943E+02 -0.16264935737E+02  0.43818103125E+01  0.10258822010E+03  0.10011021439E+03 0.  0.
         11    1    3    3    0    0 -0.30942293462E+02 -0.22407807667E+02  0.44651476876E+02  0.58764698217E+02  0.51100000000E-03 0.  1.
         22    1    1    0    0    0  0.14783080943E+02  0.16264935737E+02 -0.43818103125E+01  0.22411779901E+02  0.00000000000E+00 0.  1.
</event>
<event>
 5    1  0.1094625E-009  0.9118800E+02  0.7818608E-02  0.1130116E+00
         25   -1    0    0    0    0  0.00000000000E+00  0.00000000000E+00  0.99999998245E-14  0.12500000000E+03  0.12500000000E+03 0.  0.
        -11    1    3    3    0    0  0.24492474128E+02 -0.22861537926E+02  0.71635122565E+01  0.34261452295E+02  0.51100000000E-03 0.  1.
         23    2    1    0    0    0 -0.26598970552E+02  0.11366925205E+02  0.34184916549E+01  0.95872722265E+02  0.91341012510E+02 0.  0.
         11    1    3    3    0    0 -0.51091444680E+02  0.34228463131E+02 -0.37450206016E+01  0.61611269970E+02  0.51100000000E-03 0. -1.
         22    1    1    0    0    0  0.26598970552E+02 -0.11366925205E+02 -0.34184916549E+01  0.29127277735E+02  0.00000000000E+00 0. -1.
</event>
<event>
 5    1  0.1094625E-009  0.9118800E+02  0.7818608E-02  0.1130116E+00
         25   -1    0    0    0    0  0.00000000000E+00  0.00000000000E+00  0.99999998245E-14  0.12500000000E+03  0.12500000000E+03 0.  0.
        -11    1    3    3    0    0  0.20447946490E+02 -0.31918026486E+02  0.46103873042E+02  0.59686229904E+02  0.51100000000E-03 0.  1.
         23    2    1    0    0    0  0.18352595916E+02 -0.18627380194E+02  0.12235091965E+02  0.96129694405E+02  0.91692004020E+02 0.  0.
         11    1    3    3    0    0 -0.20953505738E+01  0.13290646292E+02 -0.33868781077E+02  0.36443464500E+02  0.51100000000E-03 0. -1.
         22    1    1    0    0    0 -0.18352595916E+02  0.18627380194E+02 -0.12235091965E+02  0.28870305595E+02  0.00000000000E+00 0.  1.
</event>
<event>
 5    1  0.1094625E-009  0.9118800E+02  0.7818608E-02  0.1130116E+00
         25   -1    0    0    0    0  0.00000000000E+00  0.00000000000E+00  0.99999998245E-14  0.12500000000E+03  0.12500000000E+03 0.  0.
        -11    1    3    3    0    0 -0.37708994245E+02  0.13473794112E+02 -0.76164072174E+01  0.40761759455E+02  0.51100000000E-03 0.  1.
         23    2    1    0    0    0 -0.12210747190E+01 -0.28013472204E+02  0.21870533665E+01  0.96874764876E+02  0.92702164047E+02 0.  0.
         11    1    3    3    0    0  0.36487919526E+02 -0.41487266316E+02  0.98034605839E+01  0.56113005421E+02  0.51100000000E-03 0. -1.
         22    1    1    0    0    0  0.12210747190E+01  0.28013472204E+02 -0.21870533665E+01  0.28125235124E+02  0.00000000000E+00 0. -1.
</event>
<event>
 5    1  0.1094625E-009  0.9118800E+02  0.7818608E-02  0.1130116E+00
         25   -1    0    0    0    0  0.00000000000E+00  0.00000000000E+00  0.99999998245E-14  0.12500000000E+03  0.12500000000E+03 0.  0.
        -11    1    3    3    0    0 -0.27495688790E+01 -0.15305558753E+02  0.34136594743E+02  0.37511696292E+02  0.51100000000E-03 0. -1.
         23    2    1    0    0    0 -0.25199208229E+02  0.58223227380E+01 -0.14690089145E+02  0.95256122369E+02  0.90493262690E+02 0.  0.
         11    1    3    3    0    0 -0.22449639350E+02  0.21127881491E+02 -0.48826683888E+02  0.57744426077E+02  0.51100000000E-03 0.  1.
         22    1    1    0    0    0  0.25199208229E+02 -0.58223227380E+01  0.14690089145E+02  0.29743877631E+02  0.00000000000E+00 0.  1.
</event>
<event>
 5    1  0.1094625E-009  0.9118800E+02  0.7818608E-02  0.1130116E+00
         25   -1    0    0    0    0  0.00000000000E+00  0.00000000000E+00  0.99999998245E-14  0.12500000000E+03  0.12500000000E+03 0.  0.
        -11    1    3    3    0    0  0.21118644257E+02 -0.16567545033E+02 -0.26376194044E+02  0.37632224173E+02  0.51100000000E-03 0. -1.
         23    2    1    0    0    0  0.84177199169E+01  0.31729708687E+01  0.27321102566E+02  0.96235987795E+02  0.91836795179E+02 0.  0.
         11    1    3    3    0    0 -0.12700924340E+02  0.19740515902E+02  0.53697296610E+02  0.58603763622E+02  0.51100000000E-03 0.  1.
         22    1    1    0    0    0 -0.84177199169E+01 -0.31729708687E+01 -0.27321102566E+02  0.28764012205E+02  0.00000000000E+00 0.  1.
</event>
<event>
 5    1  0.1094625E-009  0.9118800E+02  0.7818608E-02  0.1130116E+00
         25   -1    0    0    0    0  0.00000000000E+00  0.00000000000E+00  0.99999998245E-14  0.12500000000E+03  0.12500000000E+03 0.  0.
        -11    1    3    3    0    0  0.25676589363E+02  0.41582562231E+02 -0.32948315698E+02  0.58940548272E+02  0.51100000000E-03 0.  1.
         23    2    1    0    0    0  0.21239392285E+02  0.23316959882E+02 -0.43528793581E+01  0.93160716693E+02  0.87551008980E+02 0.  0.
         11    1    3    3    0    0 -0.44371970782E+01 -0.18265602349E+02  0.28595436339E+02  0.34220168421E+02  0.51100000000E-03 0. -1.
         22    1    1    0    0    0 -0.21239392285E+02 -0.23316959882E+02  0.43528793581E+01  0.31839283307E+02  0.00000000000E+00 0.  1.
</event>
<event>
 5    1  0.1094625E-009  0.9118800E+02  0.7818608E-02  0.1130116E+00
         25   -1    0    0    0    0  0.00000000000E+00  0.00000000000E+00  0.99999998245E-14  0.12500000000E+03  0.12500000000E+03 0.  0.
        -11    1    3    3    0    0  0.16917339238E+02 -0.46833033116E+01  0.31018427396E+02  0.35640882918E+02  0.51100000000E-03 0. -1.
         23    2    1    0    0    0  0.13288937317E+02 -0.18244395370E+02 -0.23782849630E+02  0.92211621663E+02  0.86185296982E+02 0.  0.
         11    1    3    3    0    0 -0.36284019211E+01 -0.13561092058E+02 -0.54801277026E+02  0.56570738745E+02  0.51100000000E-03 0.  1.
         22    1    1    0    0    0 -0.13288937317E+02  0.18244395370E+02  0.23782849630E+02  0.32788378337E+02  0.00000000000E+00 0.  1.
</event>
<event>
 5    1  0.1094625E-009  0.9118800E+02  0.7818608E-02  0.1130116E+00
         25   -1    0    0    0    0  0.00000000000E+00  0.00000000000E+00  0.99999998245E-14  0.12500000000E+03  0.12500000000E+03 0.  0.
        -11    1    3    3    0    0 -0.41530921610E+02 -0.10426006251E+02 -0.25467613811E+02  0.49820863196E+02  0.51100000000E-03 0. -1.
         23    2    1    0    0    0 -0.10303410765E+02  0.14444114475E+02  0.11193637587E+02  0.10402167216E+03  0.10188433658E+03 0.  0.
         11    1    3    3    0    0  0.31227510845E+02  0.24870120726E+02  0.36661251398E+02  0.54200808968E+02  0.51100000000E-03 0.  1.
         22    1    1    0    0    0  0.10303410765E+02 -0.14444114475E+02 -0.11193637587E+02  0.20978327836E+02  0.00000000000E+00 0.  1.
</event>
<event>
 5    1  0.1094625E-009  0.9118800E+02  0.7818608E-02  0.1130116E+00
         25   -1    0    0    0    0  0.00000000000E+00  0.00000000000E+00  0.99999998245E-14  0.12500000000E+03  0.12500000000E+03 0.  0.
        -11    1    3    3    0    0  0.16087656342E+02 -0.42223306525E+02 -0.10226232635E+02  0.46327056184E+02  0.51100000000E-03 0. -1.
         23    2    1    0    0    0 -0.29372651503E+00 -0.12623764116E+02  0.26124141087E+02  0.95984203557E+02  0.91493447247E+02 0.  0.
         11    1    3    3    0    0 -0.16381382857E+02  0.29599542410E+02  0.36350373722E+02  0.49657147373E+02  0.51100000000E-03 0.  1.
         22    1    1    0    0    0  0.29372651503E+00  0.12623764116E+02 -0.26124141087E+02  0.29015796443E+02  0.00000000000E+00 0. -1.
</event>
<event>
 5    1  0.1094625E-009  0.9118800E+02  0.7818608E-02  0.1130116E+00
         25   -1    0    0    0    0  0.00000000000E+00  0.00000000000E+00  0.99999998245E-14  0.12500000000E+03  0.12500000000E+03 0.  0.
        -11    1    3    3    0    0  0.26646750046E+02 -0.22797615953E+02  0.49907081029E+02  0.60995879519E+02  0.51100000000E-03 0. -1.
         23    2    1    0    0    0  0.18804155183E+02 -0.35814984935E+01  0.20964414898E+02  0.96611092384E+02  0.92345942499E+02 0.  0.
         11    1    3    3    0    0 -0.78425948632E+01  0.19216117460E+02 -0.28942666131E+02  0.35615212865E+02  0.51100000000E-03 0.  1.
         22    1    1    0    0    0 -0.18804155183E+02  0.35814984935E+01 -0.20964414898E+02  0.28388907616E+02  0.00000000000E+00 0. -1.
</event>
<event>
 5    1  0.1094625E-009  0.9118800E+02  0.7818608E-02  0.1130116E+00
         25   -1    0    0    0    0  0.00000000000E+00  0.00000000000E+00  0.99999998245E-14  0.12500000000E+03  0.12500000000E+03 0.  0.
        -11    1    3    3    0    0 -0.28842277742E+02 -0.24442901846E+02 -0.36813583789E+02  0.52769047629E+02  0.51100000000E-03 0. -1.
         23    2    1    0    0    0  0.91917348131E+01 -0.11143223796E+02 -0.27215275677E+02  0.94188790098E+02  0.89006727411E+02 0.  0.
         11    1    3    3    0    0  0.38034012556E+02  0.13299678050E+02  0.95983081112E+01  0.41419742469E+02  0.51100000000E-03 0.  1.
         22    1    1    0    0    0 -0.91917348131E+01  0.11143223796E+02  0.27215275677E+02  0.30811209902E+02  0.00000000000E+00 0. -1.
</event>
<event>
 5    1  0.1094625E-009  0.9118800E+02  0.7818608E-02  0.1130116E+00
         25   -1    0    0    0    0  0.00000000000E+00  0.00000000000E+00  0.99999998245E-14  0.12500000000E+03  0.12500000000E+03 0.  0.
        -11    1    3    3    0    0 -0.19999263343E+02 -0.19904126314E+02 -0.52869722355E+02  0.59927892677E+02  0.51100000000E-03 0.  1.
         23    2    1    0    0    0 -0.20173712514E+02 -0.61557071775E+01 -0.18505608157E+02  0.96940617599E+02  0.92790917658E+02 0.  0.
         11    1    3    3    0    0 -0.17444917057E+00  0.13748419137E+02  0.34364114198E+02  0.37012724922E+02  0.51100000000E-03 0. -1.
         22    1    1    0    0    0  0.20173712514E+02  0.61557071775E+01  0.18505608157E+02  0.28059382401E+02  0.00000000000E+00 0.  1.
</event>
<event>
 5    1  0.1094625E-009  0.9118800E+02  0.7818608E-02  0.1130116E+00
         25   -1    0    0    0    0  0.00000000000E+00  0.00000000000E+00  0.99999998245E-14  0.12500000000E+03  0.12500000000E+03 0.  0.
        -11    1    3    3    0    0 -0.12499486971E+02  0.33660364202E+02  0.39543138602E+02  0.53412705450E+02  0.51100000000E-03 0.  1.
         23    2    1    0    0    0 -0.28399786240E+02  0.12158676515E+02  0.11844335392E+02  0.91914209184E+02  0.85752855905E+02 0.  0.
         11    1    3    3    0    0 -0.15900299269E+02 -0.21501687687E+02 -0.27698803210E+02  0.38501503734E+02  0.51100000000E-03 0. -1.
         22    1    1    0    0    0  0.28399786240E+02 -0.12158676515E+02 -0.11844335392E+02  0.33085790816E+02  0.00000000000E+00 0.  1.
</event>
<event>
 5    1  0.1094625E-009  0.9118800E+02  0.7818608E-02  0.1130116E+00
         25   -1    0    0    0    0  0.00000000000E+00  0.00000000000E+00  0.99999998245E-14  0.12500000000E+03  0.12500000000E+03 0.  0.
        -11    1    3    3    0    0 -0.50233242569E+02 -0.30981935497E+01 -0.14581356766E+02  0.52398410545E+02  0.51100000000E-03 0.  1.
         23    2    1    0    0    0 -0.88974795971E+01 -0.13079142516E+02 -0.24287076148E+02  0.96015673546E+02  0.91536432018E+02 0.  0.
         11    1    3    3    0    0  0.41335762972E+02 -0.99809489663E+01 -0.97057193822E+01  0.43617263001E+02  0.51100000000E-03 0. -1.
         22    1    1    0    0    0  0.88974795971E+01  0.13079142516E+02  0.24287076148E+02  0.28984326454E+02  0.00000000000E+00 0.  1.
</event>
<event>
 5    1  0.1094625E-009  0.9118800E+02  0.7818608E-02  0.1130116E+00
         25   -1    0    0    0    0  0.00000000000E+00  0.00000000000E+00  0.99999998245E-14  0.12500000000E+03  0.12500000000E+03 0.  0.
        -11    1    3    3    0    0 -0.44061330094E+02 -0.11941199315E+02  0.32497513896E+02  0.56036429761E+02  0.51100000000E-03 0. -1.
         23    2    1    0    0    0 -0.68443855310E+01 -0.45724978729E+01  0.29813969632E+02  0.94070626659E+02  0.88840625080E+02 0.  0.
         11    1    3    3    0    0  0.37216944563E+02  0.73687014426E+01 -0.26835442646E+01  0.38034196897E+02  0.51100000000E-03 0.  1.
         22    1    1    0    0    0  0.68443855310E+01  0.45724978729E+01 -0.29813969632E+02  0.30929373341E+02  0.00000000000E+00 0. -1.
</event>
<event>
 5    1  0.1094625E-009  0.9118800E+02  0.7818608E-02  0.1130116E+00
         25   -1    0    0    0    0  0.00000000000E+00  0.00000000000E+00  0.99999998245E-14  0.12500000000E+03  0.12500000000E+03 0.  0.
        -11    1    3    3    0    0  0.27790461892E+02 -0.47072932148E+02  0.22557663548E+02  0.59135597555E+02  0.51100000000E-03 0. -1.
         23    2    1    0    0    0  0.25035696471E+02 -0.15922251089E+02  0.52780679800E+01  0.94864270722E+02  0.89950362314E+02 0.  0.
         11    1    3    3    0    0 -0.27547654208E+01  0.31150681059E+02 -0.17279595568E+02  0.35728673166E+02  0.51100000000E-03 0.  1.
         22    1    1    0    0    0 -0.25035696471E+02  0.15922251089E+02 -0.52780679800E+01  0.30135729278E+02  0.00000000000E+00 0. -1.
</event>
<event>
 5    1  0.1094625E-009  0.9118800E+02  0.7818608E-02  0.1130116E+00
         25   -1    0    0    0    0  0.00000000000E+00  0.00000000000E+00  0.99999998245E-14  0.12500000000E+03  0.12500000000E+03 0.  0.
        -11    1    3    3    0    0  0.85006819044E+01  0.16937392685E+02 -0.29855812643E+02  0.35362500090E+02  0.51100000000E-03 0.  1.
         23    2    1    0    0    0  0.64373080493E+01 -0.23550839650E+02  0.15409928253E+02  0.96128788181E+02  0.91690768594E+02 0.  0.
         11    1    3    3    0    0 -0.20633738551E+01 -0.40488232335E+02  0.45265740895E+02  0.60766288091E+02  0.51100000000E-03 0. -1.
         22    1    1    0    0    0 -0.64373080493E+01  0.23550839650E+02 -0.15409928253E+02  0.28871211819E+02  0.00000000000E+00 0. -1.
</event>
<event>
 5    1  0.1094625E-009  0.9118800E+02  0.7818608E-02  0.1130116E+00
         25   -1    0    0    0    0  0.00000000000E+00  0.00000000000E+00  0.99999998245E-14  0.12500000000E+03  0.12500000000E+03 0.  0.
        -11    1    3    3    0    0 -0.12274561813E+02  0.35336222791E+02 -0.48968717409E+02  0.61621820760E+02  0.51100000000E-03 0.  1.
         23    2    1    0    0    0 -0.45822051460E+01  0.97582047668E+01 -0.26016169094E+02  0.96838675127E+02  0.92653487693E+02 0.  0.
         11    1    3    3    0    0  0.76923566675E+01 -0.25578018024E+02  0.22952548315E+02  0.35216854367E+02  0.51100000000E-03 0. -1.
         22    1    1    0    0    0  0.45822051460E+01 -0.97582047668E+01  0.26016169094E+02  0.28161324873E+02  0.00000000000E+00 0.  1.
</event>
<event>
 5    1  0.1094625E-009  0.9118800E+02  0.7818608E-02  0.1130116E+00
         25   -1    0    0    0    0  0.00000000000E+00  0.00000000000E+00  0.99999998245E-14  0.12500000000E+03  0.12500000000E+03 0.  0.
        -11    1    3    3    0    0 -0.52809794744E+02 -0.95744997385E+01 -0.21578858154E+02  0.57846284113E+02  0.51100000000E-03 0. -1.
         23    2    1    0    0    0 -0.18953452188E+02 -0.18777910524E+02 -0.14841256738E+01  0.98278362653E+02  0.94575846087E+02 0.  0.
         11    1    3    3    0    0  0.33856342556E+02 -0.92034107860E+01  0.20094732481E+02  0.40432078540E+02  0.51100000000E-03 0.  1.
         22    1    1    0    0    0  0.18953452188E+02  0.18777910524E+02  0.14841256738E+01  0.26721637347E+02  0.00000000000E+00 0. -1.
</event>
<event>
 5    1  0.1094625E-009  0.9118800E+02  0.7818608E-02  0.1130116E+00
         25   -1    0    0    0    0  0.00000000000E+00  0.00000000000E+00  0.99999998245E-14  0.12500000000E+03  0.12500000000E+03 0.  0.
        -11    1    3    3    0    0  0.55430323603E+01  0.13509805269E+02  0.52415280034E+02  0.54411410820E+02  0.51100000000E-03 0. -1.
         23    2    1    0    0    0  0.31765676595E+01  0.26770174690E+02  0.15060934628E+02  0.94120158891E+02  0.88910290308E+02 0.  0.
         11    1    3    3    0    0 -0.23664647007E+01  0.13260369422E+02 -0.37354345406E+02  0.39708748071E+02  0.51100000000E-03 0.  1.
         22    1    1    0    0    0 -0.31765676595E+01 -0.26770174690E+02 -0.15060934628E+02  0.30879841109E+02  0.00000000000E+00 0.  1.
</event>
<event>
 5    1  0.1094625E-009  0.9118800E+02  0.7818608E-02  0.1130116E+00
         25   -1    0    0    0    0  0.00000000000E+00  0.00000000000E+00  0.99999998245E-14  0.12500000000E+03  0.12500000000E+03 0.  0.
        -11    1    3    3    0    0  0.21759098414E+02 -0.30186649106E+02 -0.49558724086E+01  0.37540016244E+02  0.51100000000E-03 0.  1.
         23    2    1    0    0    0 -0.21209004481E+02  0.26666358310E+01 -0.22073312796E+02  0.94272748976E+02  0.89124560273E+02 0.  0.
         11    1    3    3    0    0 -0.42968102895E+02  0.32853284937E+02 -0.17117440388E+02  0.56732732731E+02  0.51100000000E-03 0. -1.
         22    1    1    0    0    0  0.21209004481E+02 -0.26666358310E+01  0.22073312796E+02  0.30727251024E+02  0.00000000000E+00 0. -1.
</event>
<event>
 5    1  0.1094625E-009  0.9118800E+02  0.7818608E-02  0.1130116E+00
         25   -1    0    0    0    0  0.00000000000E+00  0.00000000000E+00  0.99999998245E-14  0.12500000000E+03  0.12500000000E+03 0.  0.
        -11    1    3    3    0    0 -0.39544713716E+02 -0.53262921121E+01 -0.30285552268E+02  0.50093596866E+02  0.51100000000E-03 0.  1.
         23    2    1    0    0    0 -0.22283896971E+02 -0.20017811867E+02  0.74675491637E+01  0.94128505921E+02  0.88922024720E+02 0.  0.
         11    1    3    3    0    0  0.17260816746E+02 -0.14691519755E+02  0.37753101432E+02  0.44034909055E+02  0.51100000000E-03 0. -1.
         22    1    1    0    0    0  0.22283896971E+02  0.20017811867E+02 -0.74675491637E+01  0.30871494079E+02  0.00000000000E+00 0. -1.
</event>
<event>
 5    1  0.1094625E-009  0.9118800E+02  0.7818608E-02  0.1130116E+00
         25   -1    0    0    0    0  0.00000000000E+00  0.00000000000E+00  0.99999998245E-14  0.12500000000E+03  0.12500000000E+03 0.  0.
        -11    1    3    3    0    0  0.42700292889E+02 -0.19462047741E+01  0.20938462919E+02  0.47597499467E+02  0.51100000000E-03 0. -1.
         23    2    1    0    0    0  0.89763118912E+01 -0.26085487840E+02 -0.56215767085E+01  0.96846332819E+02  0.92663818208E+02 0.  0.
         11    1    3    3    0    0 -0.33723980998E+02 -0.24139283066E+02 -0.26560039627E+02  0.49248833352E+02  0.51100000000E-03 0.  1.
         22    1    1    0    0    0 -0.89763118912E+01  0.26085487840E+02  0.56215767085E+01  0.28153667181E+02  0.00000000000E+00 0.  1.
</event>
<event>
 5    1  0.1094625E-009  0.9118800E+02  0.7818608E-02  0.1130116E+00
         25   -1    0    0    0    0  0.00000000000E+00  0.00000000000E+00  0.99999998245E-14  0.12500000000E+03  0.12500000000E+03 0.  0.
        -11    1    3    3    0    0 -0.86001183392E+01  0.11555999336E+02 -0.57625155100E+02  0.59398330419E+02  0.51100000000E-03 0.  1.
         23    2    1    0    0    0 -0.76605072482E+01  0.18517785744E+02 -0.24075585680E+02  0.93675479477E+02  0.88282896810E+02 0.  0.
         11    1    3    3    0    0  0.93961109100E+00  0.69617864088E+01  0.33549569419E+02  0.34277149057E+02  0.51100000000E-03 0. -1.
         22    1    1    0    0    0  0.76605072482E+01 -0.18517785744E+02  0.24075585680E+02  0.31324520523E+02  0.00000000000E+00 0.  1.
</event>
<event>
 5    1  0.1094625E-009  0.9118800E+02  0.7818608E-02  0.1130116E+00
         25   -1    0    0    0    0  0.00000000000E+00  0.00000000000E+00  0.99999998245E-14  0.12500000000E+03  0.12500000000E+03 0.  0.
        -11    1    3    3    0    0  0.27015511492E+01  0.52086714129E+02  0.97717252242E+01  0.53064213755E+02  0.51100000000E-03 0. -1.
         23    2    1    0    0    0 -0.22075868260E+02  0.15155607336E+02  0.28750144647E+01  0.98068566668E+02  0.94298153041E+02 0.  0.
         11    1    3    3    0    0 -0.24777419409E+02 -0.36931106793E+02 -0.68967107594E+01  0.45004352913E+02  0.51100000000E-03 0.  1.
         22    1    1    0    0    0  0.22075868260E+02 -0.15155607336E+02 -0.28750144647E+01  0.26931433332E+02  0.00000000000E+00 0. -1.
</event>
<event>
 5    1  0.1094625E-009  0.9118800E+02  0.7818608E-02  0.1130116E+00
         25   -1    0    0    0    0  0.00000000000E+00  0.00000000000E+00  0.99999998245E-14  0.12500000000E+03  0.12500000000E+03 0.  0.
        -11    1    3    3    0    0 -0.40056543649E+02 -0.13955909973E+02 -0.45289357729E+02  0.62051752885E+02  0.51100000000E-03 0.  1.
         23    2    1    0    0    0 -0.19263255188E+02 -0.76428561285E+01 -0.14625470144E+02  0.99634854087E+02  0.96352029152E+02 0.  0.
         11    1    3    3    0    0  0.20793288460E+02  0.63130538449E+01  0.30663887586E+02  0.37583101202E+02  0.51100000000E-03 0. -1.
         22    1    1    0    0    0  0.19263255188E+02  0.76428561285E+01  0.14625470144E+02  0.25365145913E+02  0.00000000000E+00 0.  1.
</event>
<event>
 5    1  0.1094625E-009  0.9118800E+02  0.7818608E-02  0.1130116E+00
         25   -1    0    0    0    0  0.00000000000E+00  0.00000000000E+00  0.99999998245E-14  0.12500000000E+03  0.12500000000E+03 0.  0.
        -11    1    3    3    0    0  0.15000843706E+02  0.46369219132E+02 -0.54152857165E+01  0.49035243595E+02  0.51100000000E-03 0.  1.
         23    2    1    0    0    0 -0.58781100925E+01 -0.28594484785E+01 -0.19584061722E+02  0.10435383577E+03  0.10229105016E+03 0.  0.
         11    1    3    3    0    0 -0.20878953799E+02 -0.49228667611E+02 -0.14168776006E+02  0.55318592175E+02  0.51100000000E-03 0. -1.
         22    1    1    0    0    0  0.58781100925E+01  0.28594484785E+01  0.19584061722E+02  0.20646164230E+02  0.00000000000E+00 0. -1.
</event>
<event>
 5    1  0.1094625E-009  0.9118800E+02  0.7818608E-02  0.1130116E+00
         25   -1    0    0    0    0  0.00000000000E+00  0.00000000000E+00  0.99999998245E-14  0.12500000000E+03  0.12500000000E+03 0.  0.
        -11    1    3    3    0    0 -0.16294873053E+02 -0.55408834827E+02 -0.10609008644E+02  0.58721486097E+02  0.51100000000E-03 0.  1.
         23    2    1    0    0    0  0.72663241866E+01 -0.27745168903E+02 -0.10284809966E+01  0.96300668339E+02  0.91924790371E+02 0.  0.
         11    1    3    3    0    0  0.23561197240E+02  0.27663665924E+02  0.95805276474E+01  0.37579182242E+02  0.51100000000E-03 0. -1.
         22    1    1    0    0    0 -0.72663241866E+01  0.27745168903E+02  0.10284809966E+01  0.28699331661E+02  0.00000000000E+00 0.  1.
</event>
<event>
 5    1  0.1094625E-009  0.9118800E+02  0.7818608E-02  0.1130116E+00
         25   -1    0    0    0    0  0.00000000000E+00  0.00000000000E+00  0.99999998245E-14  0.12500000000E+03  0.12500000000E+03 0.  0.
        -11    1    3    3    0    0 -0.18893595196E+02  0.26124191577E+02  0.18325205642E+02  0.37084423779E+02  0.51100000000E-03 0.  1.
         23    2    1    0    0    0 -0.75030849049E+01 -0.24175348983E+02 -0.12079159961E+02  0.96952720508E+02  0.92807220231E+02 0.  0.
         11    1    3    3    0    0  0.11390510291E+02 -0.50299540560E+02 -0.30404365603E+02  0.59868296729E+02  0.51100000000E-03 0. -1.
         22    1    1    0    0    0  0.75030849049E+01  0.24175348983E+02  0.12079159961E+02  0.28047279492E+02  0.00000000000E+00 0. -1.
</event>
<event>
 5    1  0.1094625E-009  0.9118800E+02  0.7818608E-02  0.1130116E+00
         25   -1    0    0    0    0  0.00000000000E+00  0.00000000000E+00  0.99999998245E-14  0.12500000000E+03  0.12500000000E+03 0.  0.
        -11    1    3    3    0    0 -0.30104049360E+02 -0.15850623293E+02  0.14464104715E+02  0.36968992035E+02  0.51100000000E-03 0. -1.
         23    2    1    0    0    0 -0.64806315034E+00  0.41826582487E+00 -0.31254347133E+02  0.93736136726E+02  0.88368739843E+02 0.  0.
         11    1    3    3    0    0  0.29455986210E+02  0.16268889118E+02 -0.45718451847E+02  0.56767144690E+02  0.51100000000E-03 0.  1.
         22    1    1    0    0    0  0.64806315034E+00 -0.41826582487E+00  0.31254347133E+02  0.31263863274E+02  0.00000000000E+00 0.  1.
</event>
<event>
 5    1  0.1094625E-009  0.9118800E+02  0.7818608E-02  0.1130116E+00
         25   -1    0    0    0    0  0.00000000000E+00  0.00000000000E+00  0.99999998245E-14  0.12500000000E+03  0.12500000000E+03 0.  0.
        -11    1    3    3    0    0 -0.33868209365E+02 -0.21211564493E+02 -0.39547939289E+01  0.40157520704E+02  0.51100000000E-03 0. -1.
         23    2    1    0    0    0  0.93335338100E+01 -0.60296936813E+01  0.27250569508E+02  0.95571007530E+02  0.90927179009E+02 0.  0.
         11    1    3    3    0    0  0.43201743175E+02  0.15181870812E+02  0.31205363437E+02  0.55413486826E+02  0.51100000000E-03 0.  1.
         22    1    1    0    0    0 -0.93335338100E+01  0.60296936813E+01 -0.27250569508E+02  0.29428992470E+02  0.00000000000E+00 0.  1.
</event>
<event>
 5    1  0.1094625E-009  0.9118800E+02  0.7818608E-02  0.1130116E+00
         25   -1    0    0    0    0  0.00000000000E+00  0.00000000000E+00  0.99999998245E-14  0.12500000000E+03  0.12500000000E+03 0.  0.
        -11    1    3    3    0    0 -0.18410006507E+01  0.28917411803E+02  0.19057689763E+02  0.34681429154E+02  0.51100000000E-03 0.  1.
         23    2    1    0    0    0  0.31279832435E+02  0.24265701369E+02 -0.15232750291E+02  0.82581974804E+02  0.70855442282E+02 0.  0.
         11    1    3    3    0    0  0.33120833086E+02 -0.46517104334E+01 -0.34290440054E+02  0.47900545650E+02  0.51100000000E-03 0. -1.
         22    1    1    0    0    0 -0.31279832435E+02 -0.24265701369E+02  0.15232750291E+02  0.42418025196E+02  0.00000000000E+00 0. -1.
</event>
<event>
 5    1  0.1094625E-009  0.9118800E+02  0.7818608E-02  0.1130116E+00
         25   -1    0    0    0    0  0.00000000000E+00  0.00000000000E+00  0.99999998245E-14  0.12500000000E+03  0.12500000000E+03 0.  0.
        -11    1    3    3    0    0  0.22012514708E+01  0.43780562565E+02 -0.34318743008E+02  0.55671889571E+02  0.51100000000E-03 0.  1.
         23    2    1    0    0    0  0.74526918029E+01  0.48459063781E+01 -0.28199117991E+02  0.95432861498E+02  0.90737067258E+02 0.  0.
         11    1    3    3    0    0  0.52514403321E+01 -0.38934656187E+02  0.61196250175E+01  0.39760971927E+02  0.51100000000E-03 0. -1.
         22    1    1    0    0    0 -0.74526918029E+01 -0.48459063781E+01  0.28199117991E+02  0.29567138502E+02  0.00000000000E+00 0.  1.
</event>
<event>
 5    1  0.1094625E-009  0.9118800E+02  0.7818608E-02  0.1130116E+00
         25   -1    0    0    0    0  0.00000000000E+00  0.00000000000E+00  0.99999998245E-14  0.12500000000E+03  0.12500000000E+03 0.  0.
        -11    1    3    3    0    0 -0.33771072619E+02 -0.23983454299E+02  0.80351461581E+01  0.42193068151E+02  0.51100000000E-03 0.  1.
         23    2    1    0    0    0 -0.13171150104E+02  0.25094605725E+02  0.84679298319E+01  0.95420881231E+02  0.90720561659E+02 0.  0.
         11    1    3    3    0    0  0.20599922515E+02  0.49078060023E+02  0.43278367381E+00  0.53227813080E+02  0.51100000000E-03 0. -1.
         22    1    1    0    0    0  0.13171150104E+02 -0.25094605725E+02 -0.84679298319E+01  0.29579118769E+02  0.00000000000E+00 0. -1.
</event>
<event>
 5    1  0.1094625E-009  0.9118800E+02  0.7818608E-02  0.1130116E+00
         25   -1    0    0    0    0  0.00000000000E+00  0.00000000000E+00  0.99999998245E-14  0.12500000000E+03  0.12500000000E+03 0.  0.
        -11    1    3    3    0    0  0.47094792031E+02 -0.26705956249E+02 -0.10394761430E+02  0.55128745688E+02  0.51100000000E-03 0.  1.
         23    2    1    0    0    0  0.15426563620E+02 -0.25196216589E+02 -0.21214720300E+02  0.88628410085E+02  0.80821423653E+02 0.  0.
         11    1    3    3    0    0 -0.31668228411E+02  0.15097396601E+01 -0.10819958870E+02  0.33499664398E+02  0.51100000000E-03 0. -1.
         22    1    1    0    0    0 -0.15426563620E+02  0.25196216589E+02  0.21214720300E+02  0.36371589915E+02  0.00000000000E+00 0.  1.
</event>
<event>
 5    1  0.1094625E-009  0.9118800E+02  0.7818608E-02  0.1130116E+00
         25   -1    0    0    0    0  0.00000000000E+00  0.00000000000E+00  0.99999998245E-14  0.12500000000E+03  0.12500000000E+03 0.  0.
        -11    1    3    3    0    0  0.87431775714E+01  0.33267985011E+02 -0.87176298433E+01  0.35485194815E+02  0.51100000000E-03 0.  1.
         23    2    1    0    0    0 -0.74853852033E+01 -0.23429311014E+02  0.11526329965E+02  0.97837159782E+02  0.93990903525E+02 0.  0.
         11    1    3    3    0    0 -0.16228562775E+02 -0.56697296025E+02  0.20243959809E+02  0.62351964967E+02  0.51100000000E-03 0. -1.
         22    1    1    0    0    0  0.74853852033E+01  0.23429311014E+02 -0.11526329965E+02  0.27162840218E+02  0.00000000000E+00 0. -1.
</event>
<event>
 5    1  0.1094625E-009  0.9118800E+02  0.7818608E-02  0.1130116E+00
         25   -1    0    0    0    0  0.00000000000E+00  0.00000000000E+00  0.99999998245E-14  0.12500000000E+03  0.12500000000E+03 0.  0.
        -11    1    3    3    0    0 -0.12374180001E+02 -0.35379018686E+02  0.63197496226E+01  0.38009663632E+02  0.51100000000E-03 0.  1.
         23    2    1    0    0    0  0.25491194595E+02  0.95427106396E+01  0.74778652025E+01  0.96772658712E+02  0.92564381259E+02 0.  0.
         11    1    3    3    0    0  0.37865374595E+02  0.44921729325E+02  0.11581155799E+01  0.58762995080E+02  0.51100000000E-03 0. -1.
         22    1    1    0    0    0 -0.25491194595E+02 -0.95427106396E+01 -0.74778652025E+01  0.28227341288E+02  0.00000000000E+00 0. -1.
</event>
<event>
 5    1  0.1094625E-009  0.9118800E+02  0.7818608E-02  0.1130116E+00
         25   -1    0    0    0    0  0.00000000000E+00  0.00000000000E+00  0.99999998245E-14  0.12500000000E+03  0.12500000000E+03 0.  0.
        -11    1    3    3    0    0 -0.25093155196E+02 -0.19987984360E+02 -0.15158556371E+02  0.35481936080E+02  0.51100000000E-03 0. -1.
         23    2    1    0    0    0  0.22265822393E+02  0.17089620343E+02 -0.41818362287E+01  0.96622020429E+02  0.92360733578E+02 0.  0.
         11    1    3    3    0    0  0.47358977589E+02  0.37077604703E+02  0.10976720142E+02  0.61140084349E+02  0.51100000000E-03 0.  1.
         22    1    1    0    0    0 -0.22265822393E+02 -0.17089620343E+02  0.41818362287E+01  0.28377979571E+02  0.00000000000E+00 0.  1.
</event>
<event>
 5    1  0.1094625E-009  0.9118800E+02  0.7818608E-02  0.1130116E+00
         25   -1    0    0    0    0  0.00000000000E+00  0.00000000000E+00  0.99999998245E-14  0.12500000000E+03  0.12500000000E+03 0.  0.
        -11    1    3    3    0    0  0.23392601438E+02  0.55270587023E+02  0.15502928470E+02  0.61987033993E+02  0.51100000000E-03 0. -1.
         23    2    1    0    0    0  0.12201513288E+02  0.19754575567E+02  0.10347678668E+02  0.99579641306E+02  0.96280373527E+02 0.  0.
         11    1    3    3    0    0 -0.11191088151E+02 -0.35516011456E+02 -0.51552498020E+01  0.37592607312E+02  0.51100000000E-03 0.  1.
         22    1    1    0    0    0 -0.12201513288E+02 -0.19754575567E+02 -0.10347678668E+02  0.25420358694E+02  0.00000000000E+00 0. -1.
</event>
<event>
 5    1  0.1094625E-009  0.9118800E+02  0.7818608E-02  0.1130116E+00
         25   -1    0    0    0    0  0.00000000000E+00  0.00000000000E+00  0.99999998245E-14  0.12500000000E+03  0.12500000000E+03 0.  0.
        -11    1    3    3    0    0  0.36985636885E+02 -0.24271378955E+02  0.36740289656E+02  0.57505530660E+02  0.51100000000E-03 0.  1.
         23    2    1    0    0    0  0.19340868797E+02  0.58623158421E+01  0.21147873256E+02  0.95748188157E+02  0.91170428535E+02 0.  0.
         11    1    3    3    0    0 -0.17644768089E+02  0.30133694797E+02 -0.15592416400E+02  0.38242657498E+02  0.51100000000E-03 0. -1.
         22    1    1    0    0    0 -0.19340868797E+02 -0.58623158421E+01 -0.21147873256E+02  0.29251811843E+02  0.00000000000E+00 0.  1.
</event>
<event>
 5    1  0.1094625E-009  0.9118800E+02  0.7818608E-02  0.1130116E+00
         25   -1    0    0    0    0  0.00000000000E+00  0.00000000000E+00  0.99999998245E-14  0.12500000000E+03  0.12500000000E+03 0.  0.
        -11    1    3    3    0    0 -0.37253540383E+02  0.72092117353E+00 -0.43826218533E+02  0.57524633241E+02  0.51100000000E-03 0.  1.
         23    2    1    0    0    0 -0.23654557947E+02  0.13854930742E+02 -0.10887189927E+02  0.95503760883E+02  0.90834686220E+02 0.  0.
         11    1    3    3    0    0  0.13598982435E+02  0.13134009568E+02  0.32939028607E+02  0.37979127642E+02  0.51100000000E-03 0. -1.
         22    1    1    0    0    0  0.23654557947E+02 -0.13854930742E+02  0.10887189927E+02  0.29496239117E+02  0.00000000000E+00 0.  1.
</event>
<event>
 5    1  0.1094625E-009  0.9118800E+02  0.7818608E-02  0.1130116E+00
         25   -1    0    0    0    0  0.00000000000E+00  0.00000000000E+00  0.99999998245E-14  0.12500000000E+03  0.12500000000E+03 0.  0.
        -11    1    3    3    0    0 -0.31926879948E+02 -0.13643971676E+02  0.41987805667E+02  0.54483570472E+02  0.51100000000E-03 0. -1.
         23    2    1    0    0    0  0.32298679454E+01 -0.19762136852E+02  0.21446328881E+02  0.95658576682E+02  0.91047483054E+02 0.  0.
         11    1    3    3    0    0  0.35156747893E+02 -0.61181651756E+01 -0.20541476787E+02  0.41175006210E+02  0.51100000000E-03 0.  1.
         22    1    1    0    0    0 -0.32298679454E+01  0.19762136852E+02 -0.21446328881E+02  0.29341423318E+02  0.00000000000E+00 0. -1.
</event>
<event>
 5    1  0.1094625E-009  0.9118800E+02  0.7818608E-02  0.1130116E+00
         25   -1    0    0    0    0  0.00000000000E+00  0.00000000000E+00  0.99999998245E-14  0.12500000000E+03  0.12500000000E+03 0.  0.
        -11    1    3    3    0    0 -0.33363869075E+02 -0.49511785659E+01 -0.18922230269E+02  0.38674445406E+02  0.51100000000E-03 0. -1.
         23    2    1    0    0    0 -0.65519108508E-01  0.33021200428E+02 -0.12948368600E+02  0.89530798996E+02  0.82205229450E+02 0.  0.
         11    1    3    3    0    0  0.33298349966E+02  0.37972378994E+02  0.59738616698E+01  0.50856353590E+02  0.51100000000E-03 0.  1.
         22    1    1    0    0    0  0.65519108508E-01 -0.33021200428E+02  0.12948368600E+02  0.35469201004E+02  0.00000000000E+00 0.  1.
</event>
<event>
 5    1  0.1094625E-009  0.9118800E+02  0.7818608E-02  0.1130116E+00
         25   -1    0    0    0    0  0.00000000000E+00  0.00000000000E+00  0.99999998245E-14  0.12500000000E+03  0.12500000000E+03 0.  0.
        -11    1    3    3    0    0  0.47114946222E+02 -0.32056453406E+02  0.13433483710E+02  0.58548209599E+02  0.51100000000E-03 0.  1.
         23    2    1    0    0    0  0.21245967298E+02 -0.12902154049E+02  0.21944224171E+02  0.91842713018E+02  0.85648574154E+02 0.  0.
         11    1    3    3    0    0 -0.25868978924E+02  0.19154299357E+02  0.85107404614E+01  0.33294503419E+02  0.51100000000E-03 0. -1.
         22    1    1    0    0    0 -0.21245967298E+02  0.12902154049E+02 -0.21944224171E+02  0.33157286982E+02  0.00000000000E+00 0.  1.
</event>
<event>
 5    1  0.1094625E-009  0.9118800E+02  0.7818608E-02  0.1130116E+00
         25   -1    0    0    0    0  0.00000000000E+00  0.00000000000E+00  0.99999998245E-14  0.12500000000E+03  0.12500000000E+03 0.  0.
        -11    1    3    3    0    0 -0.17586829127E+02 -0.54235436835E+02 -0.18829788323E+02  0.60044484310E+02  0.51100000000E-03 0. -1.
         23    2    1    0    0    0 -0.79198666913E+01 -0.28370774725E+02  0.32045478517E+01  0.95370719317E+02  0.90651419344E+02 0.  0.
         11    1    3    3    0    0  0.96669624360E+01  0.25864662111E+02  0.22034336175E+02  0.35326235007E+02  0.51100000000E-03 0.  1.
         22    1    1    0    0    0  0.79198666913E+01  0.28370774725E+02 -0.32045478517E+01  0.29629280683E+02  0.00000000000E+00 0. -1.
</event>
<event>
 5    1  0.1094625E-009  0.9118800E+02  0.7818608E-02  0.1130116E+00
         25   -1    0    0    0    0  0.00000000000E+00  0.00000000000E+00  0.99999998245E-14  0.12500000000E+03  0.12500000000E+03 0.  0.
        -11    1    3    3    0    0  0.67311137087E+01  0.52753445439E+02  0.10261391978E+02  0.54162072182E+02  0.51100000000E-03 0.  1.
         23    2    1    0    0    0 -0.86994662569E+01  0.16424144483E+02  0.22807589040E+02  0.95578590228E+02  0.90937602548E+02 0.  0.
         11    1    3    3    0    0 -0.15430579966E+02 -0.36329300957E+02  0.12546197062E+02  0.41416518046E+02  0.51100000000E-03 0. -1.
         22    1    1    0    0    0  0.86994662569E+01 -0.16424144483E+02 -0.22807589040E+02  0.29421409772E+02  0.00000000000E+00 0.  1.
</event>
<event>
 5    1  0.1094625E-009  0.9118800E+02  0.7818608E-02  0.1130116E+00
         25   -1    0    0    0    0  0.00000000000E+00  0.00000000000E+00  0.99999998245E-14  0.12500000000E+03  0.12500000000E+03 0.  0.
        -11    1    3    3    0    0 -0.35089627125E+02  0.14523601850E+02  0.18327839063E+02  0.42167838781E+02  0.51100000000E-03 0.  1.
         23    2    1    0    0    0  0.16461969339E+02  0.23254944451E+02  0.62342447820E+01  0.95834014950E+02  0.91288026255E+02 0.  0.
         11    1    3    3    0    0  0.51551596465E+02  0.87313426007E+01 -0.12093594281E+02  0.53666176169E+02  0.51100000000E-03 0. -1.
         22    1    1    0    0    0 -0.16461969339E+02 -0.23254944451E+02 -0.62342447820E+01  0.29165985050E+02  0.00000000000E+00 0. -1.
</event>
<event>
 5    1  0.1094625E-009  0.9118800E+02  0.7818608E-02  0.1130116E+00
         25   -1    0    0    0    0  0.00000000000E+00  0.00000000000E+00  0.99999998245E-14  0.12500000000E+03  0.12500000000E+03 0.  0.
        -11    1    3    3    0    0  0.31214997847E+02  0.59845976718E+01  0.14122923296E+01  0.31814871833E+02  0.51100000000E-03 0. -1.
         23    2    1    0    0    0 -0.28344519805E+02 -0.12248636598E+02 -0.12961786402E+00  0.94121889594E+02  0.88912723490E+02 0.  0.
         11    1    3    3    0    0 -0.59559517652E+02 -0.18233234270E+02 -0.15419101936E+01  0.62307017760E+02  0.51100000000E-03 0.  1.
         22    1    1    0    0    0  0.28344519805E+02  0.12248636598E+02  0.12961786402E+00  0.30878110406E+02  0.00000000000E+00 0.  1.
</event>
<event>
 5    1  0.1094625E-009  0.9118800E+02  0.7818608E-02  0.1130116E+00
         25   -1    0    0    0    0  0.00000000000E+00  0.00000000000E+00  0.99999998245E-14  0.12500000000E+03  0.12500000000E+03 0.  0.
        -11    1    3    3    0    0  0.15369023847E+02  0.14083403592E+02  0.42032849388E+02  0.46918115677E+02  0.51100000000E-03 0.  1.
         23    2    1    0    0    0  0.31609457437E+02  0.79713745881E+01 -0.96998338975E-02  0.92400909424E+02  0.86459397153E+02 0.  0.
         11    1    3    3    0    0  0.16240433590E+02 -0.61120290040E+01 -0.42042549222E+02  0.45482793747E+02  0.51100000000E-03 0. -1.
         22    1    1    0    0    0 -0.31609457437E+02 -0.79713745881E+01  0.96998338975E-02  0.32599090576E+02  0.00000000000E+00 0.  1.
</event>
<event>
 5    1  0.1094625E-009  0.9118800E+02  0.7818608E-02  0.1130116E+00
         25   -1    0    0    0    0  0.00000000000E+00  0.00000000000E+00  0.99999998245E-14  0.12500000000E+03  0.12500000000E+03 0.  0.
        -11    1    3    3    0    0  0.19575511383E+02 -0.38751674225E+02 -0.20040871998E+02  0.47817668825E+02  0.51100000000E-03 0. -1.
         23    2    1    0    0    0 -0.33069049290E+01 -0.23649685340E+02  0.18273273117E+02  0.94930817316E+02  0.90042791655E+02 0.  0.
         11    1    3    3    0    0 -0.22882416312E+02  0.15101988885E+02  0.38314145116E+02  0.47113148491E+02  0.51100000000E-03 0.  1.
         22    1    1    0    0    0  0.33069049290E+01  0.23649685340E+02 -0.18273273117E+02  0.30069182684E+02  0.00000000000E+00 0.  1.
</event>
<event>
 5    1  0.1094625E-009  0.9118800E+02  0.7818608E-02  0.1130116E+00
         25   -1    0    0    0    0  0.00000000000E+00  0.00000000000E+00  0.99999998245E-14  0.12500000000E+03  0.12500000000E+03 0.  0.
        -11    1    3    3    0    0  0.30381845053E+02  0.11288705855E+02  0.44163835092E+02  0.54780796992E+02  0.51100000000E-03 0. -1.
         23    2    1    0    0    0 -0.15512620967E+01 -0.27641155090E+01  0.33624534265E+02  0.91226400056E+02  0.84744321426E+02 0.  0.
         11    1    3    3    0    0 -0.31933107150E+02 -0.14052821364E+02 -0.10539300827E+02  0.36445603064E+02  0.51100000000E-03 0.  1.
         22    1    1    0    0    0  0.15512620967E+01  0.27641155090E+01 -0.33624534265E+02  0.33773599944E+02  0.00000000000E+00 0. -1.
</event>
<event>
 5    1  0.1094625E-009  0.9118800E+02  0.7818608E-02  0.1130116E+00
         25   -1    0    0    0    0  0.00000000000E+00  0.00000000000E+00  0.99999998245E-14  0.12500000000E+03  0.12500000000E+03 0.  0.
        -11    1    3    3    0    0 -0.31505197455E+02  0.36084701853E+02  0.25995704575E+02  0.54501925022E+02  0.51100000000E-03 0.  1.
         23    2    1    0    0    0 -0.15156112791E+02 -0.34803748845E+01  0.22761195792E+02  0.97433846875E+02  0.93452992026E+02 0.  0.
         11    1    3    3    0    0  0.16349084664E+02 -0.39565076738E+02 -0.32345087832E+01  0.42931921853E+02  0.51100000000E-03 0. -1.
         22    1    1    0    0    0  0.15156112791E+02  0.34803748845E+01 -0.22761195792E+02  0.27566153125E+02  0.00000000000E+00 0.  1.
</event>
<event>
 5    1  0.1094625E-009  0.9118800E+02  0.7818608E-02  0.1130116E+00
         25   -1    0    0    0    0  0.00000000000E+00  0.00000000000E+00  0.99999998245E-14  0.12500000000E+03  0.12500000000E+03 0.  0.
        -11    1    3    3    0    0  0.25952365672E+02 -0.41512011597E+02 -0.12693083697E+02  0.50575555013E+02  0.51100000000E-03 0. -1.
         23    2    1    0    0    0 -0.14295439973E+02 -0.26130663219E+02 -0.11020634060E+01  0.95194200093E+02  0.90407687855E+02 0.  0.
         11    1    3    3    0    0 -0.40247805645E+02  0.15381348378E+02  0.11591020291E+02  0.44618645081E+02  0.51100000000E-03 0.  1.
         22    1    1    0    0    0  0.14295439973E+02  0.26130663219E+02  0.11020634060E+01  0.29805799907E+02  0.00000000000E+00 0. -1.
</event>
<event>
 5    1  0.1094625E-009  0.9118800E+02  0.7818608E-02  0.1130116E+00
         25   -1    0    0    0    0  0.00000000000E+00  0.00000000000E+00  0.99999998245E-14  0.12500000000E+03  0.12500000000E+03 0.  0.
        -11    1    3    3    0    0  0.38681890896E+02  0.15426070629E+02  0.49743015420E+01  0.41940386437E+02  0.51100000000E-03 0.  1.
         23    2    1    0    0    0  0.44714281226E+01 -0.27032980692E+02  0.77108792193E+01  0.96535401410E+02  0.92243429861E+02 0.  0.
         11    1    3    3    0    0 -0.34210462773E+02 -0.42459051321E+02  0.27365776773E+01  0.54595014973E+02  0.51100000000E-03 0. -1.
         22    1    1    0    0    0 -0.44714281226E+01  0.27032980692E+02 -0.77108792193E+01  0.28464598590E+02  0.00000000000E+00 0. -1.
</event>
<event>
 5    1  0.1094625E-009  0.9118800E+02  0.7818608E-02  0.1130116E+00
         25   -1    0    0    0    0  0.00000000000E+00  0.00000000000E+00  0.99999998245E-14  0.12500000000E+03  0.12500000000E+03 0.  0.
        -11    1    3    3    0    0 -0.36220020333E+02  0.39088295177E+02 -0.26770642784E+02  0.59635995910E+02  0.51100000000E-03 0.  1.
         23    2    1    0    0    0 -0.27090426817E+02  0.10615751974E+02 -0.84546050677E+01  0.94700399970E+02  0.89722349459E+02 0.  0.
         11    1    3    3    0    0  0.91295935155E+01 -0.28472543204E+02  0.18316037716E+02  0.35064404061E+02  0.51100000000E-03 0. -1.
         22    1    1    0    0    0  0.27090426817E+02 -0.10615751974E+02  0.84546050677E+01  0.30299600030E+02  0.00000000000E+00 0.  1.
</event>
<event>
 5    1  0.1094625E-009  0.9118800E+02  0.7818608E-02  0.1130116E+00
         25   -1    0    0    0    0  0.00000000000E+00  0.00000000000E+00  0.99999998245E-14  0.12500000000E+03  0.12500000000E+03 0.  0.
        -11    1    3    3    0    0  0.18752938570E+02 -0.35979294962E+02  0.17219724625E+02  0.44076085209E+02  0.51100000000E-03 0.  1.
         23    2    1    0    0    0 -0.18106527389E+02 -0.11760372151E+01  0.23666398616E+02  0.95178400092E+02  0.90385839726E+02 0.  0.
         11    1    3    3    0    0 -0.36859465959E+02  0.34803257747E+02  0.64466739908E+01  0.51102314883E+02  0.51100000000E-03 0. -1.
         22    1    1    0    0    0  0.18106527389E+02  0.11760372151E+01 -0.23666398616E+02  0.29821599908E+02  0.00000000000E+00 0.  1.
</event>
<event>
 5    1  0.1094625E-009  0.9118800E+02  0.7818608E-02  0.1130116E+00
         25   -1    0    0    0    0  0.00000000000E+00  0.00000000000E+00  0.99999998245E-14  0.12500000000E+03  0.12500000000E+03 0.  0.
        -11    1    3    3    0    0 -0.21999443116E+02  0.20933336333E+02  0.18186149465E+02  0.35396554918E+02  0.51100000000E-03 0. -1.
         23    2    1    0    0    0  0.13279030117E+02 -0.25508914994E+02  0.89482351353E+00  0.96227824307E+02  0.91825683099E+02 0.  0.
         11    1    3    3    0    0  0.35278473233E+02 -0.46442251327E+02 -0.17291325952E+02  0.60831269388E+02  0.51100000000E-03 0.  1.
         22    1    1    0    0    0 -0.13279030117E+02  0.25508914994E+02 -0.89482351353E+00  0.28772175693E+02  0.00000000000E+00 0.  1.
</event>
<event>
 5    1  0.1094625E-009  0.9118800E+02  0.7818608E-02  0.1130116E+00
         25   -1    0    0    0    0  0.00000000000E+00  0.00000000000E+00  0.99999998245E-14  0.12500000000E+03  0.12500000000E+03 0.  0.
        -11    1    3    3    0    0 -0.19070956061E+02  0.18936315394E+02  0.36608692725E+02  0.45414554816E+02  0.51100000000E-03 0.  1.
         23    2    1    0    0    0  0.13215464005E+02 -0.13829512821E+02  0.26170237126E+02  0.92584182489E+02  0.86723962214E+02 0.  0.
         11    1    3    3    0    0  0.32286420066E+02 -0.32765828214E+02 -0.10438455599E+02  0.47169627673E+02  0.51100000000E-03 0. -1.
         22    1    1    0    0    0 -0.13215464005E+02  0.13829512821E+02 -0.26170237126E+02  0.32415817511E+02  0.00000000000E+00 0. -1.
</event>
<event>
 5    1  0.1094625E-009  0.9118800E+02  0.7818608E-02  0.1130116E+00
         25   -1    0    0    0    0  0.00000000000E+00  0.00000000000E+00  0.99999998245E-14  0.12500000000E+03  0.12500000000E+03 0.  0.
        -11    1    3    3    0    0 -0.21323282632E+02 -0.17130718567E+02 -0.46308124358E+02  0.53782769384E+02  0.51100000000E-03 0.  1.
         23    2    1    0    0    0 -0.21377085931E+01  0.14365451593E+02 -0.24185812198E+02  0.96788486231E+02  0.92585752455E+02 0.  0.
         11    1    3    3    0    0  0.19185574039E+02  0.31496170160E+02  0.22122312160E+02  0.43005716847E+02  0.51100000000E-03 0. -1.
         22    1    1    0    0    0  0.21377085931E+01 -0.14365451593E+02  0.24185812198E+02  0.28211513769E+02  0.00000000000E+00 0.  1.
</event>
<event>
 5    1  0.1094625E-009  0.9118800E+02  0.7818608E-02  0.1130116E+00
         25   -1    0    0    0    0  0.00000000000E+00  0.00000000000E+00  0.99999998245E-14  0.12500000000E+03  0.12500000000E+03 0.  0.
        -11    1    3    3    0    0  0.34209280090E+02 -0.24805035858E+01 -0.44836044668E+02  0.56450851580E+02  0.51100000000E-03 0.  1.
         23    2    1    0    0    0  0.37623976241E+02 -0.89952112073E+01 -0.21879651934E+02  0.80556816253E+02  0.67187826748E+02 0.  0.
         11    1    3    3    0    0  0.34146961510E+01 -0.65147076215E+01  0.22956392734E+02  0.24105964673E+02  0.51100000000E-03 0. -1.
         22    1    1    0    0    0 -0.37623976241E+02  0.89952112073E+01  0.21879651934E+02  0.44443183747E+02  0.00000000000E+00 0.  1.
</event>
<event>
 5    1  0.1094625E-009  0.9118800E+02  0.7818608E-02  0.1130116E+00
         25   -1    0    0    0    0  0.00000000000E+00  0.00000000000E+00  0.99999998245E-14  0.12500000000E+03  0.12500000000E+03 0.  0.
        -11    1    3    3    0    0 -0.43412685660E+02 -0.13087604119E+02 -0.56332557479E+01  0.45691139495E+02  0.51100000000E-03 0.  1.
         23    2    1    0    0    0  0.34617813931E+01 -0.28689333910E+02  0.33671880404E+01  0.95907049550E+02  0.91387977258E+02 0.  0.
         11    1    3    3    0    0  0.46874467053E+02 -0.15601729791E+02  0.90004437883E+01  0.50215910055E+02  0.51100000000E-03 0. -1.
         22    1    1    0    0    0 -0.34617813931E+01  0.28689333910E+02 -0.33671880404E+01  0.29092950450E+02  0.00000000000E+00 0.  1.
</event>
<event>
 5    1  0.1094625E-009  0.9118800E+02  0.7818608E-02  0.1130116E+00
         25   -1    0    0    0    0  0.00000000000E+00  0.00000000000E+00  0.99999998245E-14  0.12500000000E+03  0.12500000000E+03 0.  0.
        -11    1    3    3    0    0  0.35884191761E+02 -0.36099212908E+02 -0.53919672321E+01  0.51184975353E+02  0.51100000000E-03 0.  1.
         23    2    1    0    0    0  0.27061543245E+02  0.58535927865E+01  0.81407315854E+01  0.96140630948E+02  0.91706912156E+02 0.  0.
         11    1    3    3    0    0 -0.88226485163E+01  0.41952805695E+02  0.13532698818E+02  0.44955655596E+02  0.51100000000E-03 0. -1.
         22    1    1    0    0    0 -0.27061543245E+02 -0.58535927865E+01 -0.81407315854E+01  0.28859369052E+02  0.00000000000E+00 0.  1.
</event>
<event>
 5    1  0.1094625E-009  0.9118800E+02  0.7818608E-02  0.1130116E+00
         25   -1    0    0    0    0  0.00000000000E+00  0.00000000000E+00  0.99999998245E-14  0.12500000000E+03  0.12500000000E+03 0.  0.
        -11    1    3    3    0    0  0.16623692557E+02 -0.25069136388E+02 -0.27790344705E+02  0.40952558071E+02  0.51100000000E-03 0.  1.
         23    2    1    0    0    0 -0.38971866892E+01  0.24132924765E+02 -0.16674418810E+02  0.95409083075E+02  0.90704304026E+02 0.  0.
         11    1    3    3    0    0 -0.20520879247E+02  0.49202061153E+02  0.11115925895E+02  0.54456525004E+02  0.51100000000E-03 0. -1.
         22    1    1    0    0    0  0.38971866892E+01 -0.24132924765E+02  0.16674418810E+02  0.29590916925E+02  0.00000000000E+00 0. -1.
</event>
<event>
 5    1  0.1094625E-009  0.9118800E+02  0.7818608E-02  0.1130116E+00
         25   -1    0    0    0    0  0.00000000000E+00  0.00000000000E+00  0.99999998245E-14  0.12500000000E+03  0.12500000000E+03 0.  0.
        -11    1    3    3    0    0  0.26425394524E+02 -0.20467424355E+02 -0.28519503985E+01  0.33546245048E+02  0.51100000000E-03 0.  1.
         23    2    1    0    0    0 -0.65528174190E+01  0.30158924132E+02  0.13107180404E+01  0.94109579111E+02  0.88895414830E+02 0.  0.
         11    1    3    3    0    0 -0.32978211943E+02  0.50626348487E+02  0.41626684389E+01  0.60563334063E+02  0.51100000000E-03 0. -1.
         22    1    1    0    0    0  0.65528174190E+01 -0.30158924132E+02 -0.13107180404E+01  0.30890420889E+02  0.00000000000E+00 0. -1.
</event>
<event>
 5    1  0.1094625E-009  0.9118800E+02  0.7818608E-02  0.1130116E+00
         25   -1    0    0    0    0  0.00000000000E+00  0.00000000000E+00  0.99999998245E-14  0.12500000000E+03  0.12500000000E+03 0.  0.
        -11    1    3    3    0    0  0.26331040193E+02 -0.33601556486E+02  0.44697116065E+02  0.61807932021E+02  0.51100000000E-03 0.  1.
         23    2    1    0    0    0  0.60324325243E+01 -0.15175431385E+02  0.23114515328E+02  0.96698678852E+02  0.92464424040E+02 0.  0.
         11    1    3    3    0    0 -0.20298607669E+02  0.18426125102E+02 -0.21582600737E+02  0.34890746831E+02  0.51100000000E-03 0. -1.
         22    1    1    0    0    0 -0.60324325243E+01  0.15175431385E+02 -0.23114515328E+02  0.28301321148E+02  0.00000000000E+00 0.  1.
</event>
<event>
 5    1  0.1094625E-009  0.9118800E+02  0.7818608E-02  0.1130116E+00
         25   -1    0    0    0    0  0.00000000000E+00  0.00000000000E+00  0.99999998245E-14  0.12500000000E+03  0.12500000000E+03 0.  0.
        -11    1    3    3    0    0  0.10415881202E+02 -0.46264670458E+02  0.55893231139E+01  0.47750925090E+02  0.51100000000E-03 0. -1.
         23    2    1    0    0    0 -0.24609069184E+02 -0.13471708455E+02  0.81056980323E+01  0.95797336501E+02  0.91237788911E+02 0.  0.
         11    1    3    3    0    0 -0.35024950387E+02  0.32792962003E+02  0.25163749184E+01  0.48046411411E+02  0.51100000000E-03 0.  1.
         22    1    1    0    0    0  0.24609069184E+02  0.13471708455E+02 -0.81056980323E+01  0.29202663499E+02  0.00000000000E+00 0. -1.
</event>
<event>
 5    1  0.1094625E-009  0.9118800E+02  0.7818608E-02  0.1130116E+00
         25   -1    0    0    0    0  0.00000000000E+00  0.00000000000E+00  0.99999998245E-14  0.12500000000E+03  0.12500000000E+03 0.  0.
        -11    1    3    3    0    0  0.19828603636E+02  0.51463288783E+02 -0.19394261044E+02  0.58461790737E+02  0.51100000000E-03 0. -1.
         23    2    1    0    0    0 -0.56324494756E+01  0.22967282160E+02 -0.15161540702E+02  0.96909203405E+02  0.92748589483E+02 0.  0.
         11    1    3    3    0    0 -0.25461053112E+02 -0.28496006624E+02  0.42327203415E+01  0.38447412667E+02  0.51100000000E-03 0.  1.
         22    1    1    0    0    0  0.56324494756E+01 -0.22967282160E+02  0.15161540702E+02  0.28090796595E+02  0.00000000000E+00 0. -1.
</event>
<event>
 5    1  0.1094625E-009  0.9118800E+02  0.7818608E-02  0.1130116E+00
         25   -1    0    0    0    0  0.00000000000E+00  0.00000000000E+00  0.99999998245E-14  0.12500000000E+03  0.12500000000E+03 0.  0.
        -11    1    3    3    0    0  0.32470455890E+02 -0.21286350543E+02  0.27389778792E+02  0.47514620988E+02  0.51100000000E-03 0.  1.
         23    2    1    0    0    0 -0.14786941764E+02 -0.10482380235E+02  0.22307579029E+02  0.96256965640E+02  0.91865343900E+02 0.  0.
         11    1    3    3    0    0 -0.47257397654E+02  0.10803970307E+02 -0.50821997630E+01  0.48742344651E+02  0.51100000000E-03 0. -1.
         22    1    1    0    0    0  0.14786941764E+02  0.10482380235E+02 -0.22307579029E+02  0.28743034360E+02  0.00000000000E+00 0. -1.
</event>
<event>
 5    1  0.1094625E-009  0.9118800E+02  0.7818608E-02  0.1130116E+00
         25   -1    0    0    0    0  0.00000000000E+00  0.00000000000E+00  0.99999998245E-14  0.12500000000E+03  0.12500000000E+03 0.  0.
        -11    1    3    3    0    0  0.24905456215E+01 -0.12531444519E+02  0.48848137075E+02  0.50491389515E+02  0.51100000000E-03 0. -1.
         23    2    1    0    0    0 -0.15917486098E+02  0.15810899059E+02  0.20700672869E+02  0.94473474650E+02  0.89405641111E+02 0.  0.
         11    1    3    3    0    0 -0.18408031719E+02  0.28342343578E+02 -0.28147464206E+02  0.43982085135E+02  0.51100000000E-03 0.  1.
         22    1    1    0    0    0  0.15917486098E+02 -0.15810899059E+02 -0.20700672869E+02  0.30526525350E+02  0.00000000000E+00 0. -1.
</event>
<event>
 5    1  0.1094625E-009  0.9118800E+02  0.7818608E-02  0.1130116E+00
         25   -1    0    0    0    0  0.00000000000E+00  0.00000000000E+00  0.99999998245E-14  0.12500000000E+03  0.12500000000E+03 0.  0.
        -11    1    3    3    0    0 -0.46844764536E+02 -0.78169512120E+00  0.25879628940E+02  0.53523809712E+02  0.51100000000E-03 0.  1.
         23    2    1    0    0    0 -0.17529073710E+02 -0.23294609955E+02  0.70490105010E+01  0.95006736971E+02  0.90148123900E+02 0.  0.
         11    1    3    3    0    0  0.29315690826E+02 -0.22512914834E+02 -0.18830618439E+02  0.41482927259E+02  0.51100000000E-03 0. -1.
         22    1    1    0    0    0  0.17529073710E+02  0.23294609955E+02 -0.70490105010E+01  0.29993263029E+02  0.00000000000E+00 0.  1.
</event>
<event>
 5    1  0.1094625E-009  0.9118800E+02  0.7818608E-02  0.1130116E+00
         25   -1    0    0    0    0  0.00000000000E+00  0.00000000000E+00  0.99999998245E-14  0.12500000000E+03  0.12500000000E+03 0.  0.
        -11    1    3    3    0    0 -0.37985303872E+02 -0.34900400145E+02 -0.19663527700E+02  0.55204850895E+02  0.51100000000E-03 0.  1.
         23    2    1    0    0    0 -0.29430919143E+02 -0.33023166591E+01  0.33138669343E+01  0.95199563577E+02  0.90415103242E+02 0.  0.
         11    1    3    3    0    0  0.85543847285E+01  0.31598083486E+02  0.22977394634E+02  0.39994712682E+02  0.51100000000E-03 0. -1.
         22    1    1    0    0    0  0.29430919143E+02  0.33023166591E+01 -0.33138669343E+01  0.29800436423E+02  0.00000000000E+00 0.  1.
</event>
<event>
 5    1  0.1094625E-009  0.9118800E+02  0.7818608E-02  0.1130116E+00
         25   -1    0    0    0    0  0.00000000000E+00  0.00000000000E+00  0.99999998245E-14  0.12500000000E+03  0.12500000000E+03 0.  0.
        -11    1    3    3    0    0 -0.17639135464E+02  0.28918764121E+02 -0.52364012229E+01  0.34276142085E+02  0.51100000000E-03 0. -1.
         23    2    1    0    0    0  0.22777756653E+02 -0.15196191449E+02  0.97147107170E+01  0.95946152802E+02  0.91441446842E+02 0.  0.
         11    1    3    3    0    0  0.40416892117E+02 -0.44114955570E+02  0.14951111940E+02  0.61670010717E+02  0.51100000000E-03 0.  1.
         22    1    1    0    0    0 -0.22777756653E+02  0.15196191449E+02 -0.97147107170E+01  0.29053847198E+02  0.00000000000E+00 0.  1.
</event>
<event>
 5    1  0.1094625E-009  0.9118800E+02  0.7818608E-02  0.1130116E+00
         25   -1    0    0    0    0  0.00000000000E+00  0.00000000000E+00  0.99999998245E-14  0.12500000000E+03  0.12500000000E+03 0.  0.
        -11    1    3    3    0    0  0.46108843804E+02  0.44477720340E+01  0.33108895560E+01  0.46441039426E+02  0.51100000000E-03 0. -1.
         23    2    1    0    0    0  0.45251191061E+01  0.12171594019E+02  0.27087282941E+02  0.94960937081E+02  0.90084595078E+02 0.  0.
         11    1    3    3    0    0 -0.41583724698E+02  0.77238219849E+01  0.23776393385E+02  0.48519897656E+02  0.51100000000E-03 0.  1.
         22    1    1    0    0    0 -0.45251191061E+01 -0.12171594019E+02 -0.27087282941E+02  0.30039062919E+02  0.00000000000E+00 0.  1.
</event>
<event>
 5    1  0.1094625E-009  0.9118800E+02  0.7818608E-02  0.1130116E+00
         25   -1    0    0    0    0  0.00000000000E+00  0.00000000000E+00  0.99999998245E-14  0.12500000000E+03  0.12500000000E+03 0.  0.
        -11    1    3    3    0    0  0.44606045779E+02 -0.17450573100E+02  0.88040222782E+01  0.48700437679E+02  0.51100000000E-03 0.  1.
         23    2    1    0    0    0 -0.18986516330E+01  0.15136043852E+02  0.12022927674E+02  0.10557693404E+03  0.10377491753E+03 0.  0.
         11    1    3    3    0    0 -0.46504697412E+02  0.32586616952E+02  0.32189053962E+01  0.56876496359E+02  0.51100000000E-03 0. -1.
         22    1    1    0    0    0  0.18986516330E+01 -0.15136043852E+02 -0.12022927674E+02  0.19423065962E+02  0.00000000000E+00 0. -1.
</event>
<event>
 5    1  0.1094625E-009  0.9118800E+02  0.7818608E-02  0.1130116E+00
         25   -1    0    0    0    0  0.00000000000E+00  0.00000000000E+00  0.99999998245E-14  0.12500000000E+03  0.12500000000E+03 0.  0.
        -11    1    3    3    0    0 -0.30170240265E+02 -0.88149155795E+01  0.11979344267E+02  0.33637045407E+02  0.51100000000E-03 0. -1.
         23    2    1    0    0    0  0.27931690026E+02 -0.14249549996E+02 -0.17809239477E+01  0.93592983699E+02  0.88166013433E+02 0.  0.
         11    1    3    3    0    0  0.58101930292E+02 -0.54346344168E+01 -0.13760268215E+02  0.59955938292E+02  0.51100000000E-03 0.  1.
         22    1    1    0    0    0 -0.27931690026E+02  0.14249549996E+02  0.17809239477E+01  0.31407016301E+02  0.00000000000E+00 0.  1.
</event>
<event>
 5    1  0.1094625E-009  0.9118800E+02  0.7818608E-02  0.1130116E+00
         25   -1    0    0    0    0  0.00000000000E+00  0.00000000000E+00  0.99999998245E-14  0.12500000000E+03  0.12500000000E+03 0.  0.
        -11    1    3    3    0    0 -0.21748913092E+02  0.17639006639E+02 -0.37875833374E+02  0.47103381301E+02  0.51100000000E-03 0.  1.
         23    2    1    0    0    0 -0.30869116726E+02  0.16809280049E+02  0.36823302343E+01  0.89658610396E+02  0.82399348292E+02 0.  0.
         11    1    3    3    0    0 -0.91202036334E+01 -0.82972659020E+00  0.41558163609E+02  0.42555229095E+02  0.51100000000E-03 0. -1.
         22    1    1    0    0    0  0.30869116726E+02 -0.16809280049E+02 -0.36823302343E+01  0.35341389604E+02  0.00000000000E+00 0.  1.
</event>
<event>
 5    1  0.1094625E-009  0.9118800E+02  0.7818608E-02  0.1130116E+00
         25   -1    0    0    0    0  0.00000000000E+00  0.00000000000E+00  0.99999998245E-14  0.12500000000E+03  0.12500000000E+03 0.  0.
        -11    1    3    3    0    0  0.26507534980E+02  0.31459342420E+02  0.18365372989E+02  0.45051376910E+02  0.51100000000E-03 0. -1.
         23    2    1    0    0    0 -0.47850334235E+01 -0.63293024634E+01  0.28727427061E+02  0.95196951832E+02  0.90411492400E+02 0.  0.
         11    1    3    3    0    0 -0.31292568404E+02 -0.37788644883E+02  0.10362054072E+02  0.50145574922E+02  0.51100000000E-03 0.  1.
         22    1    1    0    0    0  0.47850334235E+01  0.63293024634E+01 -0.28727427061E+02  0.29803048168E+02  0.00000000000E+00 0.  1.
</event>
<event>
 5    1  0.1094625E-009  0.9118800E+02  0.7818608E-02  0.1130116E+00
         25   -1    0    0    0    0  0.00000000000E+00  0.00000000000E+00  0.99999998245E-14  0.12500000000E+03  0.12500000000E+03 0.  0.
        -11    1    3    3    0    0 -0.34998373461E+02 -0.16372303231E+02 -0.11601639044E+02  0.40342737720E+02  0.51100000000E-03 0.  1.
         23    2    1    0    0    0  0.21007938631E+02 -0.25253655833E+01 -0.16392347062E+02  0.98233976779E+02  0.94517163493E+02 0.  0.
         11    1    3    3    0    0  0.56006312091E+02  0.13846937648E+02 -0.47907080187E+01  0.57891239060E+02  0.51100000000E-03 0. -1.
         22    1    1    0    0    0 -0.21007938631E+02  0.25253655833E+01  0.16392347062E+02  0.26766023221E+02  0.00000000000E+00 0. -1.
</event>
<event>
 5    1  0.1094625E-009  0.9118800E+02  0.7818608E-02  0.1130116E+00
         25   -1    0    0    0    0  0.00000000000E+00  0.00000000000E+00  0.99999998245E-14  0.12500000000E+03  0.12500000000E+03 0.  0.
        -11    1    3    3    0    0 -0.34806073498E+02 -0.62322771929E+01  0.26349348927E+02  0.44097530775E+02  0.51100000000E-03 0.  1.
         23    2    1    0    0    0 -0.13137757579E+02 -0.15952276811E+02 -0.20040492336E+02  0.96212899717E+02  0.91805364382E+02 0.  0.
         11    1    3    3    0    0  0.21668315918E+02 -0.97199996178E+01 -0.46389841263E+02  0.52115368942E+02  0.51100000000E-03 0. -1.
         22    1    1    0    0    0  0.13137757579E+02  0.15952276811E+02  0.20040492336E+02  0.28787100283E+02  0.00000000000E+00 0.  1.
</event>
<event>
 5    1  0.1094625E-009  0.9118800E+02  0.7818608E-02  0.1130116E+00
         25   -1    0    0    0    0  0.00000000000E+00  0.00000000000E+00  0.99999998245E-14  0.12500000000E+03  0.12500000000E+03 0.  0.
        -11    1    3    3    0    0  0.44908627085E+02 -0.19888045882E+02 -0.32227463144E+02  0.58744604320E+02  0.51100000000E-03 0.  1.
         23    2    1    0    0    0  0.90117455158E+01 -0.97469329560E+01 -0.24933634462E+02  0.96752869406E+02  0.92537653696E+02 0.  0.
         11    1    3    3    0    0 -0.35896881569E+02  0.10141112926E+02  0.72938286820E+01  0.38008265087E+02  0.51100000000E-03 0. -1.
         22    1    1    0    0    0 -0.90117455158E+01  0.97469329560E+01  0.24933634462E+02  0.28247130594E+02  0.00000000000E+00 0.  1.
</event>
<event>
 5    1  0.1094625E-009  0.9118800E+02  0.7818608E-02  0.1130116E+00
         25   -1    0    0    0    0  0.00000000000E+00  0.00000000000E+00  0.99999998245E-14  0.12500000000E+03  0.12500000000E+03 0.  0.
        -11    1    3    3    0    0  0.29919298247E+02 -0.14367662388E+02 -0.14171269710E+02  0.36089042874E+02  0.51100000000E-03 0.  1.
         23    2    1    0    0    0 -0.10083580801E+02  0.27549839262E+02 -0.33298196617E+00  0.95660894320E+02  0.91050664907E+02 0.  0.
         11    1    3    3    0    0 -0.40002879048E+02  0.41917501650E+02  0.13838287744E+02  0.59571851446E+02  0.51100000000E-03 0. -1.
         22    1    1    0    0    0  0.10083580801E+02 -0.27549839262E+02  0.33298196617E+00  0.29339105680E+02  0.00000000000E+00 0. -1.
</event>
<event>
 5    1  0.1094625E-009  0.9118800E+02  0.7818608E-02  0.1130116E+00
         25   -1    0    0    0    0  0.00000000000E+00  0.00000000000E+00  0.99999998245E-14  0.12500000000E+03  0.12500000000E+03 0.  0.
        -11    1    3    3    0    0 -0.41845957757E+01 -0.12587173511E+02 -0.36116550660E+02  0.38475355887E+02  0.51100000000E-03 0.  1.
         23    2    1    0    0    0  0.14560153286E+02 -0.19107126921E+02  0.17258491163E+02  0.95420684928E+02  0.90720291182E+02 0.  0.
         11    1    3    3    0    0  0.18744749062E+02 -0.65199534100E+01  0.53375041822E+02  0.56945329042E+02  0.51100000000E-03 0. -1.
         22    1    1    0    0    0 -0.14560153286E+02  0.19107126921E+02 -0.17258491163E+02  0.29579315072E+02  0.00000000000E+00 0. -1.
</event>
<event>
 5    1  0.1094625E-009  0.9118800E+02  0.7818608E-02  0.1130116E+00
         25   -1    0    0    0    0  0.00000000000E+00  0.00000000000E+00  0.99999998245E-14  0.12500000000E+03  0.12500000000E+03 0.  0.
        -11    1    3    3    0    0  0.20427061382E+02 -0.29972518843E+02 -0.16377701692E-02  0.36271431257E+02  0.51100000000E-03 0.  1.
         23    2    1    0    0    0  0.53205357812E+01  0.28069030239E+02  0.26738199277E+01  0.96306309534E+02  0.91932460989E+02 0.  0.
         11    1    3    3    0    0 -0.15106525601E+02  0.58041549082E+02  0.26754576978E+01  0.60034878277E+02  0.51100000000E-03 0. -1.
         22    1    1    0    0    0 -0.53205357812E+01 -0.28069030239E+02 -0.26738199277E+01  0.28693690466E+02  0.00000000000E+00 0. -1.
</event>
<event>
 5    1  0.1094625E-009  0.9118800E+02  0.7818608E-02  0.1130116E+00
         25   -1    0    0    0    0  0.00000000000E+00  0.00000000000E+00  0.99999998245E-14  0.12500000000E+03  0.12500000000E+03 0.  0.
        -11    1    3    3    0    0 -0.29982726761E+02  0.42515645593E+02  0.25877382559E+00  0.52025099600E+02  0.51100000000E-03 0. -1.
         23    2    1    0    0    0  0.30235616392E+00  0.19944638547E+02  0.21755019063E+02  0.95484565386E+02  0.90808266950E+02 0.  0.
         11    1    3    3    0    0  0.30285082925E+02 -0.22571007046E+02  0.21496245238E+02  0.43459465786E+02  0.51100000000E-03 0.  1.
         22    1    1    0    0    0 -0.30235616392E+00 -0.19944638547E+02 -0.21755019063E+02  0.29515434614E+02  0.00000000000E+00 0. -1.
</event>
<event>
 5    1  0.1094625E-009  0.9118800E+02  0.7818608E-02  0.1130116E+00
         25   -1    0    0    0    0  0.00000000000E+00  0.00000000000E+00  0.99999998245E-14  0.12500000000E+03  0.12500000000E+03 0.  0.
        -11    1    3    3    0    0  0.12418572726E+02 -0.27978720030E+02 -0.20946405625E+01  0.30682523404E+02  0.51100000000E-03 0.  1.
         23    2    1    0    0    0 -0.51257288192E+01  0.31610291529E+02 -0.32584093958E+01  0.92811479403E+02  0.87050961228E+02 0.  0.
         11    1    3    3    0    0 -0.17544301546E+02  0.59589011559E+02 -0.11637688333E+01  0.62128955999E+02  0.51100000000E-03 0. -1.
         22    1    1    0    0    0  0.51257288192E+01 -0.31610291529E+02  0.32584093958E+01  0.32188520597E+02  0.00000000000E+00 0. -1.
</event>
<event>
 5    1  0.1094625E-009  0.9118800E+02  0.7818608E-02  0.1130116E+00
         25   -1    0    0    0    0  0.00000000000E+00  0.00000000000E+00  0.99999998245E-14  0.12500000000E+03  0.12500000000E+03 0.  0.
        -11    1    3    3    0    0 -0.96341760993E+01  0.10606821871E+01  0.37722298386E+02  0.38947582615E+02  0.51100000000E-03 0.  1.
         23    2    1    0    0    0  0.20173002965E+02  0.20881005194E+02 -0.58961418933E+01  0.95373476144E+02  0.90655220677E+02 0.  0.
         11    1    3    3    0    0  0.29807179064E+02  0.19820323007E+02 -0.43618440279E+02  0.56425893529E+02  0.51100000000E-03 0. -1.
         22    1    1    0    0    0 -0.20173002965E+02 -0.20881005194E+02  0.58961418933E+01  0.29626523856E+02  0.00000000000E+00 0.  1.
</event>
<event>
 5    1  0.1094625E-009  0.9118800E+02  0.7818608E-02  0.1130116E+00
         25   -1    0    0    0    0  0.00000000000E+00  0.00000000000E+00  0.99999998245E-14  0.12500000000E+03  0.12500000000E+03 0.  0.
        -11    1    3    3    0    0  0.25282453439E+02 -0.48308710860E+01 -0.31130402184E+02  0.40393584983E+02  0.51100000000E-03 0.  1.
         23    2    1    0    0    0 -0.12988617355E+02  0.24168881286E+02 -0.10534551769E+00  0.97561885978E+02  0.93624096762E+02 0.  0.
         11    1    3    3    0    0 -0.38271070793E+02  0.28999752372E+02  0.31025056667E+02  0.57168300996E+02  0.51100000000E-03 0. -1.
         22    1    1    0    0    0  0.12988617355E+02 -0.24168881286E+02  0.10534551769E+00  0.27438114022E+02  0.00000000000E+00 0. -1.
</event>
<event>
 5    1  0.1094625E-009  0.9118800E+02  0.7818608E-02  0.1130116E+00
         25   -1    0    0    0    0  0.00000000000E+00  0.00000000000E+00  0.99999998245E-14  0.12500000000E+03  0.12500000000E+03 0.  0.
        -11    1    3    3    0    0  0.21359454748E+02 -0.23858758819E+02  0.99017075035E+01  0.33518808023E+02  0.51100000000E-03 0.  1.
         23    2    1    0    0    0 -0.88189362822E+01  0.27332624792E+02 -0.72685501717E+01  0.95374371960E+02  0.90656455865E+02 0.  0.
         11    1    3    3    0    0 -0.30178391030E+02  0.51191383611E+02 -0.17170257675E+02  0.61855563938E+02  0.51100000000E-03 0. -1.
         22    1    1    0    0    0  0.88189362822E+01 -0.27332624792E+02  0.72685501717E+01  0.29625628040E+02  0.00000000000E+00 0. -1.
</event>
<event>
 5    1  0.1094625E-009  0.9118800E+02  0.7818608E-02  0.1130116E+00
         25   -1    0    0    0    0  0.00000000000E+00  0.00000000000E+00  0.99999998245E-14  0.12500000000E+03  0.12500000000E+03 0.  0.
        -11    1    3    3    0    0 -0.20056507386E+02 -0.27729656394E+02 -0.15440699350E+02  0.37544806950E+02  0.51100000000E-03 0. -1.
         23    2    1    0    0    0  0.37499715044E+01  0.25459713687E+02 -0.13703007929E+02  0.95844696304E+02  0.91302650980E+02 0.  0.
         11    1    3    3    0    0  0.23806478891E+02  0.53189370082E+02  0.17376914211E+01  0.58299889353E+02  0.51100000000E-03 0.  1.
         22    1    1    0    0    0 -0.37499715044E+01 -0.25459713687E+02  0.13703007929E+02  0.29155303696E+02  0.00000000000E+00 0.  1.
</event>
<event>
 5    1  0.1094625E-009  0.9118800E+02  0.7818608E-02  0.1130116E+00
         25   -1    0    0    0    0  0.00000000000E+00  0.00000000000E+00  0.99999998245E-14  0.12500000000E+03  0.12500000000E+03 0.  0.
        -11    1    3    3    0    0  0.60924033241E+01 -0.26418980242E+02 -0.20278664030E+02  0.33857113143E+02  0.51100000000E-03 0.  1.
         23    2    1    0    0    0 -0.22287210871E+02  0.17015656414E+02  0.11492483610E+02  0.94696047929E+02  0.89716286048E+02 0.  0.
         11    1    3    3    0    0 -0.28379614195E+02  0.43434636656E+02  0.31771147639E+02  0.60838934786E+02  0.51100000000E-03 0. -1.
         22    1    1    0    0    0  0.22287210871E+02 -0.17015656414E+02 -0.11492483610E+02  0.30303952071E+02  0.00000000000E+00 0. -1.
</event>
<event>
 5    1  0.1094625E-009  0.9118800E+02  0.7818608E-02  0.1130116E+00
         25   -1    0    0    0    0  0.00000000000E+00  0.00000000000E+00  0.99999998245E-14  0.12500000000E+03  0.12500000000E+03 0.  0.
        -11    1    3    3    0    0  0.38286795003E+02 -0.27953521239E+01  0.39397147974E+02  0.55007526156E+02  0.51100000000E-03 0.  1.
         23    2    1    0    0    0  0.34403829483E+01 -0.16494111901E+02  0.24413628455E+02  0.95336601399E+02  0.90604361649E+02 0.  0.
         11    1    3    3    0    0 -0.34846412055E+02 -0.13698759777E+02 -0.14983519519E+02  0.40329075243E+02  0.51100000000E-03 0. -1.
         22    1    1    0    0    0 -0.34403829483E+01  0.16494111901E+02 -0.24413628455E+02  0.29663398601E+02  0.00000000000E+00 0. -1.
</event>
<event>
 5    1  0.1094625E-009  0.9118800E+02  0.7818608E-02  0.1130116E+00
         25   -1    0    0    0    0  0.00000000000E+00  0.00000000000E+00  0.99999998245E-14  0.12500000000E+03  0.12500000000E+03 0.  0.
        -11    1    3    3    0    0 -0.51509536336E+02 -0.11274228191E+02  0.24036448915E+02  0.57949041680E+02  0.51100000000E-03 0.  1.
         23    2    1    0    0    0 -0.23564623617E+02  0.11679950499E+02  0.12264671887E+02  0.95980439246E+02  0.91488304233E+02 0.  0.
         11    1    3    3    0    0  0.27944912719E+02  0.22954178690E+02 -0.11771777028E+02  0.38031397566E+02  0.51100000000E-03 0. -1.
         22    1    1    0    0    0  0.23564623617E+02 -0.11679950499E+02 -0.12264671887E+02  0.29019560754E+02  0.00000000000E+00 0.  1.
</event>
<event>
 5    1  0.1094625E-009  0.9118800E+02  0.7818608E-02  0.1130116E+00
         25   -1    0    0    0    0  0.00000000000E+00  0.00000000000E+00  0.99999998245E-14  0.12500000000E+03  0.12500000000E+03 0.  0.
        -11    1    3    3    0    0 -0.88292250297E+01 -0.40263655412E+02  0.80400015541E+00  0.41228189121E+02  0.51100000000E-03 0.  1.
         23    2    1    0    0    0 -0.24567427969E+02  0.96771643091E+01  0.13839397692E+02  0.95188341969E+02  0.90399587899E+02 0.  0.
         11    1    3    3    0    0 -0.15738202939E+02  0.49940819721E+02  0.13035397537E+02  0.53960152848E+02  0.51100000000E-03 0. -1.
         22    1    1    0    0    0  0.24567427969E+02 -0.96771643091E+01 -0.13839397692E+02  0.29811658031E+02  0.00000000000E+00 0. -1.
</event>
<event>
 5    1  0.1094625E-009  0.9118800E+02  0.7818608E-02  0.1130116E+00
         25   -1    0    0    0    0  0.00000000000E+00  0.00000000000E+00  0.99999998245E-14  0.12500000000E+03  0.12500000000E+03 0.  0.
        -11    1    3    3    0    0  0.38225787046E+02 -0.14844879757E+02  0.21622602324E+01  0.41064055083E+02  0.51100000000E-03 0.  1.
         23    2    1    0    0    0 -0.29330340054E+01  0.19104928837E+02  0.19869920928E+02  0.97279705052E+02  0.93246588479E+02 0.  0.
         11    1    3    3    0    0 -0.41158821051E+02  0.33949808594E+02  0.17707660696E+02  0.56215649969E+02  0.51100000000E-03 0. -1.
         22    1    1    0    0    0  0.29330340054E+01 -0.19104928837E+02 -0.19869920928E+02  0.27720294948E+02  0.00000000000E+00 0. -1.
</event>
<event>
 5    1  0.1094625E-009  0.9118800E+02  0.7818608E-02  0.1130116E+00
         25   -1    0    0    0    0  0.00000000000E+00  0.00000000000E+00  0.99999998245E-14  0.12500000000E+03  0.12500000000E+03 0.  0.
        -11    1    3    3    0    0  0.38104240097E+02  0.23210693274E+02  0.43098218870E+02  0.62033264187E+02  0.51100000000E-03 0.  1.
         23    2    1    0    0    0  0.16150112305E+02  0.15699273651E+02  0.18452264616E+02  0.95883348577E+02  0.91355553439E+02 0.  0.
         11    1    3    3    0    0 -0.21954127792E+02 -0.75114196226E+01 -0.24645954254E+02  0.33850084390E+02  0.51100000000E-03 0. -1.
         22    1    1    0    0    0 -0.16150112305E+02 -0.15699273651E+02 -0.18452264616E+02  0.29116651423E+02  0.00000000000E+00 0.  1.
</event>
<event>
 5    1  0.1094625E-009  0.9118800E+02  0.7818608E-02  0.1130116E+00
         25   -1    0    0    0    0  0.00000000000E+00  0.00000000000E+00  0.99999998245E-14  0.12500000000E+03  0.12500000000E+03 0.  0.
        -11    1    3    3    0    0 -0.81920116285E+01  0.54130494553E+02  0.28155507831E+02  0.61562586987E+02  0.51100000000E-03 0.  1.
         23    2    1    0    0    0  0.29458534160E+01  0.22631160012E+02  0.69146943377E+01  0.10115339744E+03  0.98302336493E+02 0.  0.
         11    1    3    3    0    0  0.11137865045E+02 -0.31499334540E+02 -0.21240813493E+02  0.39590810453E+02  0.51100000000E-03 0. -1.
         22    1    1    0    0    0 -0.29458534160E+01 -0.22631160012E+02 -0.69146943377E+01  0.23846602560E+02  0.00000000000E+00 0.  1.
</event>
<event>
 5    1  0.1094625E-009  0.9118800E+02  0.7818608E-02  0.1130116E+00
         25   -1    0    0    0    0  0.00000000000E+00  0.00000000000E+00  0.99999998245E-14  0.12500000000E+03  0.12500000000E+03 0.  0.
        -11    1    3    3    0    0  0.27555124501E+02 -0.17968725117E+02  0.32097925515E+02  0.45961253151E+02  0.51100000000E-03 0.  1.
         23    2    1    0    0    0  0.20934510227E+02  0.22055855760E+02  0.65824313811E+01  0.93886612293E+02  0.88581335919E+02 0.  0.
         11    1    3    3    0    0 -0.66206142741E+01  0.40024580877E+02 -0.25515494134E+02  0.47925359142E+02  0.51100000000E-03 0. -1.
         22    1    1    0    0    0 -0.20934510227E+02 -0.22055855760E+02 -0.65824313811E+01  0.31113387707E+02  0.00000000000E+00 0.  1.
</event>
<event>
 5    1  0.1094625E-009  0.9118800E+02  0.7818608E-02  0.1130116E+00
         25   -1    0    0    0    0  0.00000000000E+00  0.00000000000E+00  0.99999998245E-14  0.12500000000E+03  0.12500000000E+03 0.  0.
        -11    1    3    3    0    0 -0.70027767055E+01 -0.27543109884E+02 -0.26439642304E+02  0.38816445859E+02  0.51100000000E-03 0.  1.
         23    2    1    0    0    0 -0.14664631803E+02  0.24151861155E+02 -0.15456164895E+01  0.96702424954E+02  0.92469488149E+02 0.  0.
         11    1    3    3    0    0 -0.76618550971E+01  0.51694971040E+02  0.24894025814E+02  0.57885979095E+02  0.51100000000E-03 0. -1.
         22    1    1    0    0    0  0.14664631803E+02 -0.24151861155E+02  0.15456164895E+01  0.28297575046E+02  0.00000000000E+00 0. -1.
</event>
<event>
 5    1  0.1094625E-009  0.9118800E+02  0.7818608E-02  0.1130116E+00
         25   -1    0    0    0    0  0.00000000000E+00  0.00000000000E+00  0.99999998245E-14  0.12500000000E+03  0.12500000000E+03 0.  0.
        -11    1    3    3    0    0 -0.32648284771E+02  0.16307826534E+02 -0.26843762976E+02  0.45303899564E+02  0.51100000000E-03 0.  1.
         23    2    1    0    0    0  0.14376397735E+02  0.21110830993E+02 -0.42421556936E+00  0.99455373248E+02  0.96118901949E+02 0.  0.
         11    1    3    3    0    0  0.47024682506E+02  0.48030044598E+01  0.26419547406E+02  0.54151473683E+02  0.51100000000E-03 0. -1.
         22    1    1    0    0    0 -0.14376397735E+02 -0.21110830993E+02  0.42421556936E+00  0.25544626752E+02  0.00000000000E+00 0. -1.
</event>
<event>
 5    1  0.1094625E-009  0.9118800E+02  0.7818608E-02  0.1130116E+00
         25   -1    0    0    0    0  0.00000000000E+00  0.00000000000E+00  0.99999998245E-14  0.12500000000E+03  0.12500000000E+03 0.  0.
        -11    1    3    3    0    0  0.32216180053E+02 -0.10596796165E+02 -0.13531302824E+02  0.36513976811E+02  0.51100000000E-03 0.  1.
         23    2    1    0    0    0 -0.49180107105E+01  0.86962635849E+01  0.27878016054E+02  0.95385888350E+02  0.90672333639E+02 0.  0.
         11    1    3    3    0    0 -0.37134190763E+02  0.19293059750E+02  0.41409318878E+02  0.58871911540E+02  0.51100000000E-03 0. -1.
         22    1    1    0    0    0  0.49180107105E+01 -0.86962635849E+01 -0.27878016054E+02  0.29614111650E+02  0.00000000000E+00 0. -1.
</event>
<event>
 5    1  0.1094625E-009  0.9118800E+02  0.7818608E-02  0.1130116E+00
         25   -1    0    0    0    0  0.00000000000E+00  0.00000000000E+00  0.99999998245E-14  0.12500000000E+03  0.12500000000E+03 0.  0.
        -11    1    3    3    0    0 -0.74722380046E+01 -0.60391761222E+02  0.83897570482E+01  0.61427902356E+02  0.51100000000E-03 0. -1.
         23    2    1    0    0    0 -0.11328695637E+02 -0.25634106041E+02  0.45143782632E+01  0.96612919339E+02  0.92348415443E+02 0.  0.
         11    1    3    3    0    0 -0.38564576321E+01  0.34757655181E+02 -0.38753787850E+01  0.35185016983E+02  0.51100000000E-03 0.  1.
         22    1    1    0    0    0  0.11328695637E+02  0.25634106041E+02 -0.45143782632E+01  0.28387080661E+02  0.00000000000E+00 0. -1.
</event>
<event>
 5    1  0.1094625E-009  0.9118800E+02  0.7818608E-02  0.1130116E+00
         25   -1    0    0    0    0  0.00000000000E+00  0.00000000000E+00  0.99999998245E-14  0.12500000000E+03  0.12500000000E+03 0.  0.
        -11    1    3    3    0    0  0.11934471101E+02 -0.41675550567E+02  0.81191367549E+01  0.44104461197E+02  0.51100000000E-03 0.  1.
         23    2    1    0    0    0 -0.10655694738E+02 -0.42963921681E+02 -0.16699386680E+02  0.77689198780E+02  0.61622233772E+02 0.  0.
         11    1    3    3    0    0 -0.22590165839E+02 -0.12883711138E+01 -0.24818523435E+02  0.33584737583E+02  0.51100000000E-03 0. -1.
         22    1    1    0    0    0  0.10655694738E+02  0.42963921681E+02  0.16699386680E+02  0.47310801220E+02  0.00000000000E+00 0.  1.
</event>
<event>
 5    1  0.1094625E-009  0.9118800E+02  0.7818608E-02  0.1130116E+00
         25   -1    0    0    0    0  0.00000000000E+00  0.00000000000E+00  0.99999998245E-14  0.12500000000E+03  0.12500000000E+03 0.  0.
        -11    1    3    3    0    0  0.12367817168E+02 -0.58623929077E+02 -0.17774938386E+02  0.62495411006E+02  0.51100000000E-03 0.  1.
         23    2    1    0    0    0  0.55328452834E+01 -0.26867376032E+02 -0.86774292255E+01  0.96229076314E+02  0.91827387410E+02 0.  0.
         11    1    3    3    0    0 -0.68349718850E+01  0.31756553045E+02  0.90975091604E+01  0.33733665308E+02  0.51100000000E-03 0. -1.
         22    1    1    0    0    0 -0.55328452834E+01  0.26867376032E+02  0.86774292255E+01  0.28770923686E+02  0.00000000000E+00 0.  1.
</event>
<event>
 5    1  0.1094625E-009  0.9118800E+02  0.7818608E-02  0.1130116E+00
         25   -1    0    0    0    0  0.00000000000E+00  0.00000000000E+00  0.99999998245E-14  0.12500000000E+03  0.12500000000E+03 0.  0.
        -11    1    3    3    0    0 -0.24336089980E+02 -0.79118129252E+01 -0.43622704360E+02  0.50574523184E+02  0.51100000000E-03 0.  1.
         23    2    1    0    0    0 -0.10371413956E+02  0.23478031167E+02 -0.15149611239E+02  0.95195723535E+02  0.90409794180E+02 0.  0.
         11    1    3    3    0    0  0.13964676024E+02  0.31389844092E+02  0.28473093121E+02  0.44621200351E+02  0.51100000000E-03 0. -1.
         22    1    1    0    0    0  0.10371413956E+02 -0.23478031167E+02  0.15149611239E+02  0.29804276465E+02  0.00000000000E+00 0. -1.
</event>
<event>
 5    1  0.1094625E-009  0.9118800E+02  0.7818608E-02  0.1130116E+00
         25   -1    0    0    0    0  0.00000000000E+00  0.00000000000E+00  0.99999998245E-14  0.12500000000E+03  0.12500000000E+03 0.  0.
        -11    1    3    3    0    0 -0.25362777356E+02  0.45568091073E+02  0.31771550650E+02  0.61066789912E+02  0.51100000000E-03 0.  1.
         23    2    1    0    0    0 -0.65126226621E+01  0.30673028253E+02  0.16095704255E+02  0.89753431208E+02  0.82543066347E+02 0.  0.
         11    1    3    3    0    0  0.18850154694E+02 -0.14895062820E+02 -0.15675846395E+02  0.28686641296E+02  0.51100000000E-03 0. -1.
         22    1    1    0    0    0  0.65126226621E+01 -0.30673028253E+02 -0.16095704255E+02  0.35246568792E+02  0.00000000000E+00 0.  1.
</event>
<event>
 5    1  0.1094625E-009  0.9118800E+02  0.7818608E-02  0.1130116E+00
         25   -1    0    0    0    0  0.00000000000E+00  0.00000000000E+00  0.99999998245E-14  0.12500000000E+03  0.12500000000E+03 0.  0.
        -11    1    3    3    0    0  0.29875465327E+02 -0.70632372869E+01  0.26525311734E+02  0.40571232571E+02  0.51100000000E-03 0.  1.
         23    2    1    0    0    0 -0.21612867944E+02 -0.12841105109E+02  0.20165859542E+02  0.92771566401E+02  0.86993629653E+02 0.  0.
         11    1    3    3    0    0 -0.51488333270E+02 -0.57778678221E+01 -0.63594521923E+01  0.52200333830E+02  0.51100000000E-03 0. -1.
         22    1    1    0    0    0  0.21612867944E+02  0.12841105109E+02 -0.20165859542E+02  0.32228433599E+02  0.00000000000E+00 0. -1.
</event>
<event>
 5    1  0.1094625E-009  0.9118800E+02  0.7818608E-02  0.1130116E+00
         25   -1    0    0    0    0  0.00000000000E+00  0.00000000000E+00  0.99999998245E-14  0.12500000000E+03  0.12500000000E+03 0.  0.
        -11    1    3    3    0    0  0.38375852835E+02  0.14072633173E+02 -0.23425512610E+02  0.47111566802E+02  0.51100000000E-03 0.  1.
         23    2    1    0    0    0 -0.91637273978E+01  0.22152670207E+02 -0.16662597623E+02  0.95804848747E+02  0.91248080456E+02 0.  0.
         11    1    3    3    0    0 -0.47539580233E+02  0.80800370341E+01  0.67629149867E+01  0.48693281945E+02  0.51100000000E-03 0. -1.
         22    1    1    0    0    0  0.91637273978E+01 -0.22152670207E+02  0.16662597623E+02  0.29195151253E+02  0.00000000000E+00 0.  1.
</event>
<event>
 5    1  0.1094625E-009  0.9118800E+02  0.7818608E-02  0.1130116E+00
         25   -1    0    0    0    0  0.00000000000E+00  0.00000000000E+00  0.99999998245E-14  0.12500000000E+03  0.12500000000E+03 0.  0.
        -11    1    3    3    0    0 -0.54198755970E+02 -0.29323317489E+02 -0.71300607574E+00  0.61626864882E+02  0.51100000000E-03 0. -1.
         23    2    1    0    0    0 -0.23229173957E+02 -0.12290026533E+02 -0.76145320460E+01  0.97639072143E+02  0.93727093392E+02 0.  0.
         11    1    3    3    0    0  0.30969582013E+02  0.17033290956E+02 -0.69015259703E+01  0.36012207261E+02  0.51100000000E-03 0.  1.
         22    1    1    0    0    0  0.23229173957E+02  0.12290026533E+02  0.76145320460E+01  0.27360927857E+02  0.00000000000E+00 0. -1.
</event>
<event>
 5    1  0.1094625E-009  0.9118800E+02  0.7818608E-02  0.1130116E+00
         25   -1    0    0    0    0  0.00000000000E+00  0.00000000000E+00  0.99999998245E-14  0.12500000000E+03  0.12500000000E+03 0.  0.
        -11    1    3    3    0    0 -0.30737733885E+02  0.10555439069E+02  0.14527143170E+02  0.35598644178E+02  0.51100000000E-03 0. -1.
         23    2    1    0    0    0  0.10278333819E+02 -0.17005375362E+02 -0.20716295626E+02  0.96294741914E+02  0.91916731222E+02 0.  0.
         11    1    3    3    0    0  0.41016067705E+02 -0.27560814431E+02 -0.35243438795E+02  0.60696097737E+02  0.51100000000E-03 0.  1.
         22    1    1    0    0    0 -0.10278333819E+02  0.17005375362E+02  0.20716295626E+02  0.28705258086E+02  0.00000000000E+00 0.  1.
</event>
<event>
 5    1  0.1094625E-009  0.9118800E+02  0.7818608E-02  0.1130116E+00
         25   -1    0    0    0    0  0.00000000000E+00  0.00000000000E+00  0.99999998245E-14  0.12500000000E+03  0.12500000000E+03 0.  0.
        -11    1    3    3    0    0  0.12873042677E+02 -0.31698853463E+02  0.30587629634E+02  0.45892653285E+02  0.51100000000E-03 0. -1.
         23    2    1    0    0    0  0.31496178840E+02 -0.40343876566E+01 -0.28512507360E+01  0.93118732835E+02  0.87491046449E+02 0.  0.
         11    1    3    3    0    0  0.18623136163E+02  0.27664465807E+02 -0.33438880370E+02  0.47226079550E+02  0.51100000000E-03 0.  1.
         22    1    1    0    0    0 -0.31496178840E+02  0.40343876566E+01  0.28512507360E+01  0.31881267165E+02  0.00000000000E+00 0.  1.
</event>
<event>
 5    1  0.1094625E-009  0.9118800E+02  0.7818608E-02  0.1130116E+00
         25   -1    0    0    0    0  0.00000000000E+00  0.00000000000E+00  0.99999998245E-14  0.12500000000E+03  0.12500000000E+03 0.  0.
        -11    1    3    3    0    0  0.24406143924E+02 -0.30009995086E+02 -0.91480826234E+01  0.39748548178E+02  0.51100000000E-03 0.  1.
         23    2    1    0    0    0  0.10147944708E+02  0.11579848690E+02  0.25150553161E+02  0.95510612048E+02  0.90844113799E+02 0.  0.
         11    1    3    3    0    0 -0.14258199216E+02  0.41589843776E+02  0.34298635784E+02  0.55762063870E+02  0.51100000000E-03 0. -1.
         22    1    1    0    0    0 -0.10147944708E+02 -0.11579848690E+02 -0.25150553161E+02  0.29489387952E+02  0.00000000000E+00 0.  1.
</event>
<event>
 5    1  0.1094625E-009  0.9118800E+02  0.7818608E-02  0.1130116E+00
         25   -1    0    0    0    0  0.00000000000E+00  0.00000000000E+00  0.99999998245E-14  0.12500000000E+03  0.12500000000E+03 0.  0.
        -11    1    3    3    0    0 -0.18157662463E+02  0.46603573201E+02 -0.36788701608E+01  0.50151050111E+02  0.51100000000E-03 0.  1.
         23    2    1    0    0    0 -0.27120868487E+02  0.26863565048E+00 -0.52645169840E+01  0.97371594116E+02  0.93369687421E+02 0.  0.
         11    1    3    3    0    0 -0.89632060237E+01 -0.46334937551E+02 -0.15856468232E+01  0.47220544006E+02  0.51100000000E-03 0. -1.
         22    1    1    0    0    0  0.27120868487E+02 -0.26863565048E+00  0.52645169840E+01  0.27628405884E+02  0.00000000000E+00 0.  1.
</event>
<event>
 5    1  0.1094625E-009  0.9118800E+02  0.7818608E-02  0.1130116E+00
         25   -1    0    0    0    0  0.00000000000E+00  0.00000000000E+00  0.99999998245E-14  0.12500000000E+03  0.12500000000E+03 0.  0.
        -11    1    3    3    0    0 -0.91169985147E+01 -0.51964446393E+02 -0.11767772130E+01  0.52771281543E+02  0.51100000000E-03 0.  1.
         23    2    1    0    0    0 -0.24530719723E+02 -0.12388415541E+02  0.83100676435E+01  0.96289613831E+02  0.91909757141E+02 0.  0.
         11    1    3    3    0    0 -0.15413721209E+02  0.39576030852E+02  0.94868448565E+01  0.43518332287E+02  0.51100000000E-03 0. -1.
         22    1    1    0    0    0  0.24530719723E+02  0.12388415541E+02 -0.83100676435E+01  0.28710386169E+02  0.00000000000E+00 0.  1.
</event>
<event>
 5    1  0.1094625E-009  0.9118800E+02  0.7818608E-02  0.1130116E+00
         25   -1    0    0    0    0  0.00000000000E+00  0.00000000000E+00  0.99999998245E-14  0.12500000000E+03  0.12500000000E+03 0.  0.
        -11    1    3    3    0    0  0.34682664233E+02 -0.84475278662E+01 -0.83888697457E+01  0.36669074998E+02  0.51100000000E-03 0.  1.
         23    2    1    0    0    0  0.10716690915E+02  0.22203129184E+02  0.26411608611E+02  0.88869687531E+02  0.81193730563E+02 0.  0.
         11    1    3    3    0    0 -0.23965973318E+02  0.30650657050E+02  0.34800478356E+02  0.52200612533E+02  0.51100000000E-03 0. -1.
         22    1    1    0    0    0 -0.10716690915E+02 -0.22203129184E+02 -0.26411608611E+02  0.36130312469E+02  0.00000000000E+00 0. -1.
</event>
<event>
 5    1  0.1094625E-009  0.9118800E+02  0.7818608E-02  0.1130116E+00
         25   -1    0    0    0    0  0.00000000000E+00  0.00000000000E+00  0.99999998245E-14  0.12500000000E+03  0.12500000000E+03 0.  0.
        -11    1    3    3    0    0 -0.55090743778E+01  0.27953517233E+02  0.20150248331E+02  0.34896726698E+02  0.51100000000E-03 0.  1.
         23    2    1    0    0    0 -0.11917288637E+02 -0.22923759528E+02 -0.13119785495E+02  0.96023297448E+02  0.91546842447E+02 0.  0.
         11    1    3    3    0    0 -0.64082142592E+01 -0.50877276761E+02 -0.33270033826E+02  0.61126570750E+02  0.51100000000E-03 0. -1.
         22    1    1    0    0    0  0.11917288637E+02  0.22923759528E+02  0.13119785495E+02  0.28976702552E+02  0.00000000000E+00 0. -1.
</event>
<event>
 5    1  0.1094625E-009  0.9118800E+02  0.7818608E-02  0.1130116E+00
         25   -1    0    0    0    0  0.00000000000E+00  0.00000000000E+00  0.99999998245E-14  0.12500000000E+03  0.12500000000E+03 0.  0.
        -11    1    3    3    0    0 -0.81616656072E+01 -0.58670980070E+02 -0.66564933579E+01  0.59608771100E+02  0.51100000000E-03 0.  1.
         23    2    1    0    0    0 -0.75721244017E+01 -0.26997238525E+02  0.97877463389E+01  0.95301718327E+02  0.90556223319E+02 0.  0.
         11    1    3    3    0    0  0.58954120558E+00  0.31673741545E+02  0.16444239697E+02  0.35692947227E+02  0.51100000000E-03 0. -1.
         22    1    1    0    0    0  0.75721244017E+01  0.26997238525E+02 -0.97877463389E+01  0.29698281673E+02  0.00000000000E+00 0.  1.
</event>
<event>
 5    1  0.1094625E-009  0.9118800E+02  0.7818608E-02  0.1130116E+00
         25   -1    0    0    0    0  0.00000000000E+00  0.00000000000E+00  0.99999998245E-14  0.12500000000E+03  0.12500000000E+03 0.  0.
        -11    1    3    3    0    0 -0.37938343174E+02 -0.35085161353E+02  0.17159102757E+02  0.54449253784E+02  0.51100000000E-03 0. -1.
         23    2    1    0    0    0  0.39502801151E+01 -0.14751974652E+02  0.18474437718E+02  0.10103063793E+03  0.98146112923E+02 0.  0.
         11    1    3    3    0    0  0.41888623289E+02  0.20333186701E+02  0.13153349613E+01  0.46581384144E+02  0.51100000000E-03 0.  1.
         22    1    1    0    0    0 -0.39502801151E+01  0.14751974652E+02 -0.18474437718E+02  0.23969362072E+02  0.00000000000E+00 0. -1.
</event>
<event>
 5    1  0.1094625E-009  0.9118800E+02  0.7818608E-02  0.1130116E+00
         25   -1    0    0    0    0  0.00000000000E+00  0.00000000000E+00  0.99999998245E-14  0.12500000000E+03  0.12500000000E+03 0.  0.
        -11    1    3    3    0    0 -0.56700952844E+01  0.14443411497E+02  0.16023058147E+02  0.22304719430E+02  0.51100000000E-03 0. -1.
         23    2    1    0    0    0  0.35477954380E+02  0.29981264516E+02 -0.15067644177E+02  0.76167681091E+02  0.58454429026E+02 0.  0.
         11    1    3    3    0    0  0.41148049664E+02  0.15537853020E+02 -0.31090702324E+02  0.53862961661E+02  0.51100000000E-03 0.  1.
         22    1    1    0    0    0 -0.35477954380E+02 -0.29981264516E+02  0.15067644177E+02  0.48832318909E+02  0.00000000000E+00 0.  1.
</event>
<event>
 5    1  0.1094625E-009  0.9118800E+02  0.7818608E-02  0.1130116E+00
         25   -1    0    0    0    0  0.00000000000E+00  0.00000000000E+00  0.99999998245E-14  0.12500000000E+03  0.12500000000E+03 0.  0.
        -11    1    3    3    0    0  0.21886961842E+02  0.18049589881E+02  0.15192846630E+02  0.32181506841E+02  0.51100000000E-03 0. -1.
         23    2    1    0    0    0  0.14832639973E+02 -0.34973865735E+02  0.43205583779E+01  0.86765908959E+02  0.77887593619E+02 0.  0.
         11    1    3    3    0    0 -0.70543218692E+01 -0.53023455617E+02 -0.10872288252E+02  0.54584402119E+02  0.51100000000E-03 0.  1.
         22    1    1    0    0    0 -0.14832639973E+02  0.34973865735E+02 -0.43205583779E+01  0.38234091041E+02  0.00000000000E+00 0.  1.
</event>
<event>
 5    1  0.1094625E-009  0.9118800E+02  0.7818608E-02  0.1130116E+00
         25   -1    0    0    0    0  0.00000000000E+00  0.00000000000E+00  0.99999998245E-14  0.12500000000E+03  0.12500000000E+03 0.  0.
        -11    1    3    3    0    0 -0.32640692556E+01 -0.35868208257E+02  0.16848182182E+02  0.39762340912E+02  0.51100000000E-03 0. -1.
         23    2    1    0    0    0 -0.14242610095E+02  0.19946915562E+00 -0.25085603706E+02  0.96152482888E+02  0.91723065376E+02 0.  0.
         11    1    3    3    0    0 -0.10978540839E+02  0.36067677413E+02 -0.41933785888E+02  0.56390141976E+02  0.51100000000E-03 0.  1.
         22    1    1    0    0    0  0.14242610095E+02 -0.19946915562E+00  0.25085603706E+02  0.28847517112E+02  0.00000000000E+00 0.  1.
</event>
<event>
 5    1  0.1094625E-009  0.9118800E+02  0.7818608E-02  0.1130116E+00
         25   -1    0    0    0    0  0.00000000000E+00  0.00000000000E+00  0.99999998245E-14  0.12500000000E+03  0.12500000000E+03 0.  0.
        -11    1    3    3    0    0  0.12016067909E+02  0.28336547333E+02 -0.38820005972E+02  0.49541282449E+02  0.51100000000E-03 0.  1.
         23    2    1    0    0    0 -0.22853138140E+02  0.84088985209E+01 -0.17514692409E+02  0.95004334524E+02  0.90144792589E+02 0.  0.
         11    1    3    3    0    0 -0.34869206049E+02 -0.19927648812E+02  0.21305313563E+02  0.45463052075E+02  0.51100000000E-03 0. -1.
         22    1    1    0    0    0  0.22853138140E+02 -0.84088985209E+01  0.17514692409E+02  0.29995665476E+02  0.00000000000E+00 0.  1.
</event>
<event>
 5    1  0.1094625E-009  0.9118800E+02  0.7818608E-02  0.1130116E+00
         25   -1    0    0    0    0  0.00000000000E+00  0.00000000000E+00  0.99999998245E-14  0.12500000000E+03  0.12500000000E+03 0.  0.
        -11    1    3    3    0    0  0.20711491791E+02  0.21493584514E+02 -0.21342379056E+02  0.36693830701E+02  0.51100000000E-03 0.  1.
         23    2    1    0    0    0 -0.85364306540E+01 -0.27397643175E+02 -0.80446308636E+01  0.95197020525E+02  0.90411587372E+02 0.  0.
         11    1    3    3    0    0 -0.29247922445E+02 -0.48891227689E+02  0.13297748193E+02  0.58503189824E+02  0.51100000000E-03 0. -1.
         22    1    1    0    0    0  0.85364306540E+01  0.27397643175E+02  0.80446308636E+01  0.29802979475E+02  0.00000000000E+00 0. -1.
</event>
<event>
 5    1  0.1094625E-009  0.9118800E+02  0.7818608E-02  0.1130116E+00
         25   -1    0    0    0    0  0.00000000000E+00  0.00000000000E+00  0.99999998245E-14  0.12500000000E+03  0.12500000000E+03 0.  0.
        -11    1    3    3    0    0 -0.19317421503E+02 -0.12551091729E+02 -0.40403173885E+02  0.46509237119E+02  0.51100000000E-03 0.  1.
         23    2    1    0    0    0 -0.45664378712E+01 -0.29129454700E+02  0.31070214517E+01  0.95351541891E+02  0.90624971574E+02 0.  0.
         11    1    3    3    0    0  0.14750983632E+02 -0.16578362970E+02  0.43510195337E+02  0.48842304772E+02  0.51100000000E-03 0. -1.
         22    1    1    0    0    0  0.45664378712E+01  0.29129454700E+02 -0.31070214517E+01  0.29648458109E+02  0.00000000000E+00 0. -1.
</event>
<event>
 5    1  0.1094625E-009  0.9118800E+02  0.7818608E-02  0.1130116E+00
         25   -1    0    0    0    0  0.00000000000E+00  0.00000000000E+00  0.99999998245E-14  0.12500000000E+03  0.12500000000E+03 0.  0.
        -11    1    3    3    0    0  0.49933631296E+02 -0.20212878809E+02 -0.85606665628E+01  0.54545513256E+02  0.51100000000E-03 0.  1.
         23    2    1    0    0    0  0.10084178462E+02 -0.27531891465E+02 -0.17756889685E+01  0.95625712363E+02  0.91002352117E+02 0.  0.
         11    1    3    3    0    0 -0.39849452834E+02 -0.73190126558E+01  0.67849775943E+01  0.41080199107E+02  0.51100000000E-03 0. -1.
         22    1    1    0    0    0 -0.10084178462E+02  0.27531891465E+02  0.17756889685E+01  0.29374287637E+02  0.00000000000E+00 0.  1.
</event>
<event>
 5    1  0.1094625E-009  0.9118800E+02  0.7818608E-02  0.1130116E+00
         25   -1    0    0    0    0  0.00000000000E+00  0.00000000000E+00  0.99999998245E-14  0.12500000000E+03  0.12500000000E+03 0.  0.
        -11    1    3    3    0    0  0.48162591598E+02 -0.20303661852E+01 -0.65315900982E+01  0.48645855792E+02  0.51100000000E-03 0.  1.
         23    2    1    0    0    0  0.12425823412E+02 -0.16522662568E+01  0.25466232286E+02  0.96615848470E+02  0.92352380140E+02 0.  0.
         11    1    3    3    0    0 -0.35736768186E+02  0.37809992841E+00  0.31997822384E+02  0.47969992678E+02  0.51100000000E-03 0. -1.
         22    1    1    0    0    0 -0.12425823412E+02  0.16522662568E+01 -0.25466232286E+02  0.28384151530E+02  0.00000000000E+00 0. -1.
</event>
<event>
 5    1  0.1094625E-009  0.9118800E+02  0.7818608E-02  0.1130116E+00
         25   -1    0    0    0    0  0.00000000000E+00  0.00000000000E+00  0.99999998245E-14  0.12500000000E+03  0.12500000000E+03 0.  0.
        -11    1    3    3    0    0  0.57634579391E+02  0.66986429881E+01  0.22433256699E+02  0.62208259627E+02  0.51100000000E-03 0.  1.
         23    2    1    0    0    0  0.28963647593E+02  0.70622034097E+01  0.91005610260E+01  0.93829696667E+02  0.88500983987E+02 0.  0.
         11    1    3    3    0    0 -0.28670931798E+02  0.36356042159E+00 -0.13332695673E+02  0.31621437040E+02  0.51100000000E-03 0. -1.
         22    1    1    0    0    0 -0.28963647593E+02 -0.70622034097E+01 -0.91005610260E+01  0.31170303333E+02  0.00000000000E+00 0.  1.
</event>
<event>
 5    1  0.1094625E-009  0.9118800E+02  0.7818608E-02  0.1130116E+00
         25   -1    0    0    0    0  0.00000000000E+00  0.00000000000E+00  0.99999998245E-14  0.12500000000E+03  0.12500000000E+03 0.  0.
        -11    1    3    3    0    0  0.22577261361E+02 -0.19065049859E+01  0.44035968967E+02  0.49523065888E+02  0.51100000000E-03 0. -1.
         23    2    1    0    0    0 -0.23305753936E+01 -0.26023447012E+02  0.23744677938E+02  0.89694743926E+02  0.82454144720E+02 0.  0.
         11    1    3    3    0    0 -0.24907836755E+02 -0.24116942026E+02 -0.20291291029E+02  0.40171678038E+02  0.51100000000E-03 0.  1.
         22    1    1    0    0    0  0.23305753936E+01  0.26023447012E+02 -0.23744677938E+02  0.35305256074E+02  0.00000000000E+00 0. -1.
</event>
<event>
 5    1  0.1094625E-009  0.9118800E+02  0.7818608E-02  0.1130116E+00
         25   -1    0    0    0    0  0.00000000000E+00  0.00000000000E+00  0.99999998245E-14  0.12500000000E+03  0.12500000000E+03 0.  0.
        -11    1    3    3    0    0  0.21582963913E+02 -0.33906082957E+02  0.10124238174E+02  0.41448124102E+02  0.51100000000E-03 0.  1.
         23    2    1    0    0    0 -0.23336953157E+02 -0.14172525880E+01  0.15193469038E+02  0.97116967723E+02  0.93028178154E+02 0.  0.
         11    1    3    3    0    0 -0.44919917070E+02  0.32488830369E+02  0.50692308643E+01  0.55668843621E+02  0.51100000000E-03 0. -1.
         22    1    1    0    0    0  0.23336953157E+02  0.14172525880E+01 -0.15193469038E+02  0.27883032277E+02  0.00000000000E+00 0. -1.
</event>
<event>
 5    1  0.1094625E-009  0.9118800E+02  0.7818608E-02  0.1130116E+00
         25   -1    0    0    0    0  0.00000000000E+00  0.00000000000E+00  0.99999998245E-14  0.12500000000E+03  0.12500000000E+03 0.  0.
        -11    1    3    3    0    0  0.19389961291E+02 -0.33595565574E+02  0.32198775974E+02  0.50412238589E+02  0.51100000000E-03 0. -1.
         23    2    1    0    0    0  0.20948003375E+02  0.93186686504E+01  0.18661775094E+02  0.95437891136E+02  0.90743995857E+02 0.  0.
         11    1    3    3    0    0  0.15580420838E+01  0.42914234224E+02 -0.13537000880E+02  0.45025652547E+02  0.51100000000E-03 0.  1.
         22    1    1    0    0    0 -0.20948003375E+02 -0.93186686504E+01 -0.18661775094E+02  0.29562108864E+02  0.00000000000E+00 0.  1.
</event>
<event>
 5    1  0.1094625E-009  0.9118800E+02  0.7818608E-02  0.1130116E+00
         25   -1    0    0    0    0  0.00000000000E+00  0.00000000000E+00  0.99999998245E-14  0.12500000000E+03  0.12500000000E+03 0.  0.
        -11    1    3    3    0    0  0.17873896175E+02 -0.32913340466E+02  0.35701475919E+02  0.51743207556E+02  0.51100000000E-03 0. -1.
         23    2    1    0    0    0 -0.17907849970E+02 -0.14129218283E+02  0.18355554028E+02  0.95721129402E+02  0.91133321845E+02 0.  0.
         11    1    3    3    0    0 -0.35781746145E+02  0.18784122184E+02 -0.17345921891E+02  0.43977921846E+02  0.51100000000E-03 0.  1.
         22    1    1    0    0    0  0.17907849970E+02  0.14129218283E+02 -0.18355554028E+02  0.29278870598E+02  0.00000000000E+00 0. -1.
</event>
<event>
 5    1  0.1094625E-009  0.9118800E+02  0.7818608E-02  0.1130116E+00
         25   -1    0    0    0    0  0.00000000000E+00  0.00000000000E+00  0.99999998245E-14  0.12500000000E+03  0.12500000000E+03 0.  0.
        -11    1    3    3    0    0 -0.13103918014E+02  0.48846318844E+02 -0.74644088357E+01  0.51121354945E+02  0.51100000000E-03 0.  1.
         23    2    1    0    0    0 -0.28487020011E+02  0.10472359426E+02 -0.11237113382E+02  0.92635616209E+02  0.86798064795E+02 0.  0.
         11    1    3    3    0    0 -0.15383101996E+02 -0.38373959418E+02 -0.37727045466E+01  0.41514261264E+02  0.51100000000E-03 0. -1.
         22    1    1    0    0    0  0.28487020011E+02 -0.10472359426E+02  0.11237113382E+02  0.32364383791E+02  0.00000000000E+00 0.  1.
</event>
<event>
 5    1  0.1094625E-009  0.9118800E+02  0.7818608E-02  0.1130116E+00
         25   -1    0    0    0    0  0.00000000000E+00  0.00000000000E+00  0.99999998245E-14  0.12500000000E+03  0.12500000000E+03 0.  0.
        -11    1    3    3    0    0  0.94269996805E+01 -0.51682782764E+02 -0.20491442442E+01  0.52575444359E+02  0.51100000000E-03 0. -1.
         23    2    1    0    0    0  0.18476057777E+02 -0.14347409768E+02  0.17600630598E+02  0.95725521772E+02  0.91139346295E+02 0.  0.
         11    1    3    3    0    0  0.90490580966E+01  0.37335372995E+02  0.19649774843E+02  0.43150077413E+02  0.51100000000E-03 0.  1.
         22    1    1    0    0    0 -0.18476057777E+02  0.14347409768E+02 -0.17600630598E+02  0.29274478228E+02  0.00000000000E+00 0.  1.
</event>
<event>
 5    1  0.1094625E-009  0.9118800E+02  0.7818608E-02  0.1130116E+00
         25   -1    0    0    0    0  0.00000000000E+00  0.00000000000E+00  0.99999998245E-14  0.12500000000E+03  0.12500000000E+03 0.  0.
        -11    1    3    3    0    0 -0.25319284990E+02  0.39180441935E+02 -0.65668624631E+01  0.47109414191E+02  0.51100000000E-03 0. -1.
         23    2    1    0    0    0 -0.10734750457E+02 -0.24953468395E+01 -0.27055798996E+02  0.95785656219E+02  0.91221784980E+02 0.  0.
         11    1    3    3    0    0  0.14584534532E+02 -0.41675788774E+02 -0.20488936533E+02  0.48676242028E+02  0.51100000000E-03 0.  1.
         22    1    1    0    0    0  0.10734750457E+02  0.24953468395E+01  0.27055798996E+02  0.29214343781E+02  0.00000000000E+00 0. -1.
</event>
<event>
 5    1  0.1094625E-009  0.9118800E+02  0.7818608E-02  0.1130116E+00
         25   -1    0    0    0    0  0.00000000000E+00  0.00000000000E+00  0.99999998245E-14  0.12500000000E+03  0.12500000000E+03 0.  0.
        -11    1    3    3    0    0  0.40595011264E+02 -0.24229780885E+02  0.86694663659E+00  0.47284128606E+02  0.51100000000E-03 0.  1.
         23    2    1    0    0    0 -0.51614776991E+01 -0.22454386584E+02 -0.16926577589E+02  0.96410677557E+02  0.92074260188E+02 0.  0.
         11    1    3    3    0    0 -0.45756488963E+02  0.17753943014E+01 -0.17793524226E+02  0.49126548951E+02  0.51100000000E-03 0. -1.
         22    1    1    0    0    0  0.51614776991E+01  0.22454386584E+02  0.16926577589E+02  0.28589322443E+02  0.00000000000E+00 0.  1.
</event>
<event>
 5    1  0.1094625E-009  0.9118800E+02  0.7818608E-02  0.1130116E+00
         25   -1    0    0    0    0  0.00000000000E+00  0.00000000000E+00  0.99999998245E-14  0.12500000000E+03  0.12500000000E+03 0.  0.
        -11    1    3    3    0    0 -0.29391453315E+02 -0.73320958986E+01  0.18766996161E+02  0.35634495975E+02  0.51100000000E-03 0.  1.
         23    2    1    0    0    0 -0.52048227557E+01  0.17240157583E+02 -0.26760365369E+02  0.92744297123E+02  0.86954437959E+02 0.  0.
         11    1    3    3    0    0  0.24186630559E+02  0.24572253482E+02 -0.45527361530E+02  0.57109801148E+02  0.51100000000E-03 0. -1.
         22    1    1    0    0    0  0.52048227557E+01 -0.17240157583E+02  0.26760365369E+02  0.32255702877E+02  0.00000000000E+00 0. -1.
</event>
<event>
 5    1  0.1094625E-009  0.9118800E+02  0.7818608E-02  0.1130116E+00
         25   -1    0    0    0    0  0.00000000000E+00  0.00000000000E+00  0.99999998245E-14  0.12500000000E+03  0.12500000000E+03 0.  0.
        -11    1    3    3    0    0 -0.24941376632E+02  0.23542458106E+02  0.14482393500E+01  0.34328078878E+02  0.51100000000E-03 0. -1.
         23    2    1    0    0    0  0.36467328328E+01 -0.27923328000E+02 -0.11455969659E+02  0.94598517342E+02  0.89580295465E+02 0.  0.
         11    1    3    3    0    0  0.28588109465E+02 -0.51465786106E+02 -0.12904209009E+02  0.60270438465E+02  0.51100000000E-03 0.  1.
         22    1    1    0    0    0 -0.36467328328E+01  0.27923328000E+02  0.11455969659E+02  0.30401482658E+02  0.00000000000E+00 0.  1.
</event>
<event>
 5    1  0.1094625E-009  0.9118800E+02  0.7818608E-02  0.1130116E+00
         25   -1    0    0    0    0  0.00000000000E+00  0.00000000000E+00  0.99999998245E-14  0.12500000000E+03  0.12500000000E+03 0.  0.
        -11    1    3    3    0    0  0.32260461882E+02  0.32826920439E+01  0.15422770965E+02  0.35907872846E+02  0.51100000000E-03 0. -1.
         23    2    1    0    0    0 -0.10718680094E+02 -0.29306284360E+02 -0.46322964605E+01  0.93453105122E+02  0.87967472855E+02 0.  0.
         11    1    3    3    0    0 -0.42979141975E+02 -0.32588976404E+02 -0.20055067425E+02  0.57545232276E+02  0.51100000000E-03 0.  1.
         22    1    1    0    0    0  0.10718680094E+02  0.29306284360E+02  0.46322964605E+01  0.31546894878E+02  0.00000000000E+00 0.  1.
</event>
<event>
 5    1  0.1094625E-009  0.9118800E+02  0.7818608E-02  0.1130116E+00
         25   -1    0    0    0    0  0.00000000000E+00  0.00000000000E+00  0.99999998245E-14  0.12500000000E+03  0.12500000000E+03 0.  0.
        -11    1    3    3    0    0 -0.33984042675E+02  0.21780505552E+02  0.42565241572E+01  0.40588466056E+02  0.51100000000E-03 0.  1.
         23    2    1    0    0    0 -0.92151927201E+01 -0.26667969027E+02  0.94396893671E+01  0.95247553306E+02  0.90481425313E+02 0.  0.
         11    1    3    3    0    0  0.24768849955E+02 -0.48448474579E+02  0.51831652099E+01  0.54659087250E+02  0.51100000000E-03 0. -1.
         22    1    1    0    0    0  0.92151927201E+01  0.26667969027E+02 -0.94396893671E+01  0.29752446694E+02  0.00000000000E+00 0. -1.
</event>
<event>
 5    1  0.1094625E-009  0.9118800E+02  0.7818608E-02  0.1130116E+00
         25   -1    0    0    0    0  0.00000000000E+00  0.00000000000E+00  0.99999998245E-14  0.12500000000E+03  0.12500000000E+03 0.  0.
        -11    1    3    3    0    0  0.53754354764E+01 -0.35597562506E+02 -0.19709272186E+02  0.41043113591E+02  0.51100000000E-03 0. -1.
         23    2    1    0    0    0  0.36212254265E+02 -0.15349109186E+02 -0.25124867629E+02  0.78329008098E+02  0.62906693002E+02 0.  0.
         11    1    3    3    0    0  0.30836818789E+02  0.20248453320E+02 -0.54155954429E+01  0.37285894506E+02  0.51100000000E-03 0.  1.
         22    1    1    0    0    0 -0.36212254265E+02  0.15349109186E+02  0.25124867629E+02  0.46670991902E+02  0.00000000000E+00 0. -1.
</event>
<event>
 5    1  0.1094625E-009  0.9118800E+02  0.7818608E-02  0.1130116E+00
         25   -1    0    0    0    0  0.00000000000E+00  0.00000000000E+00  0.99999998245E-14  0.12500000000E+03  0.12500000000E+03 0.  0.
        -11    1    3    3    0    0  0.20395011146E+02  0.28928271480E+01 -0.29628304489E+02  0.36085472918E+02  0.51100000000E-03 0.  1.
         23    2    1    0    0    0 -0.11030483572E+02 -0.21811590833E+02  0.15254551545E+02  0.96188224537E+02  0.91771761093E+02 0.  0.
         11    1    3    3    0    0 -0.31425494718E+02 -0.24704417981E+02  0.44882856035E+02  0.60102751619E+02  0.51100000000E-03 0. -1.
         22    1    1    0    0    0  0.11030483572E+02  0.21811590833E+02 -0.15254551545E+02  0.28811775463E+02  0.00000000000E+00 0. -1.
</event>
<event>
 5    1  0.1094625E-009  0.9118800E+02  0.7818608E-02  0.1130116E+00
         25   -1    0    0    0    0  0.00000000000E+00  0.00000000000E+00  0.99999998245E-14  0.12500000000E+03  0.12500000000E+03 0.  0.
        -11    1    3    3    0    0 -0.52578696885E+02 -0.38791643307E+01 -0.21396655373E+02  0.56898015286E+02  0.51100000000E-03 0.  1.
         23    2    1    0    0    0 -0.23150631883E+02 -0.96381944944E+01  0.77876457567E+01  0.98741782693E+02  0.95186373359E+02 0.  0.
         11    1    3    3    0    0  0.29428065001E+02 -0.57590301637E+01  0.29184301130E+02  0.41843767407E+02  0.51100000000E-03 0. -1.
         22    1    1    0    0    0  0.23150631883E+02  0.96381944944E+01 -0.77876457567E+01  0.26258217307E+02  0.00000000000E+00 0.  1.
</event>
<event>
 5    1  0.1094625E-009  0.9118800E+02  0.7818608E-02  0.1130116E+00
         25   -1    0    0    0    0  0.00000000000E+00  0.00000000000E+00  0.99999998245E-14  0.12500000000E+03  0.12500000000E+03 0.  0.
        -11    1    3    3    0    0 -0.42847150641E+02 -0.77653042969E+01 -0.43635898083E+02  0.61646328931E+02  0.51100000000E-03 0. -1.
         23    2    1    0    0    0 -0.19599537874E+02 -0.70448918924E+01 -0.11835338915E+02  0.10104488293E+03  0.98164253842E+02 0.  0.
         11    1    3    3    0    0  0.23247612767E+02  0.72041240455E+00  0.31800559169E+02  0.39398553998E+02  0.51100000000E-03 0.  1.
         22    1    1    0    0    0  0.19599537874E+02  0.70448918924E+01  0.11835338915E+02  0.23955117071E+02  0.00000000000E+00 0. -1.
</event>
<event>
 5    1  0.1094625E-009  0.9118800E+02  0.7818608E-02  0.1130116E+00
         25   -1    0    0    0    0  0.00000000000E+00  0.00000000000E+00  0.99999998245E-14  0.12500000000E+03  0.12500000000E+03 0.  0.
        -11    1    3    3    0    0  0.66843546601E+01  0.46431269738E+02  0.14856373669E+02  0.49206252098E+02  0.51100000000E-03 0.  1.
         23    2    1    0    0    0 -0.30291808977E+01  0.19366574922E+02 -0.21726644013E+02  0.95737614226E+02  0.91155929903E+02 0.  0.
         11    1    3    3    0    0 -0.97135355578E+01 -0.27064694816E+02 -0.36583017682E+02  0.46531362128E+02  0.51100000000E-03 0. -1.
         22    1    1    0    0    0  0.30291808977E+01 -0.19366574922E+02  0.21726644013E+02  0.29262385774E+02  0.00000000000E+00 0.  1.
</event>
<event>
 5    1  0.1094625E-009  0.9118800E+02  0.7818608E-02  0.1130116E+00
         25   -1    0    0    0    0  0.00000000000E+00  0.00000000000E+00  0.99999998245E-14  0.12500000000E+03  0.12500000000E+03 0.  0.
        -11    1    3    3    0    0 -0.68051500474E+01 -0.25332103073E+02 -0.33266561828E+02  0.42363777563E+02  0.51100000000E-03 0. -1.
         23    2    1    0    0    0 -0.16525704439E+02  0.21892098621E+02 -0.11863925427E+02  0.95114960000E+02  0.90298061995E+02 0.  0.
         11    1    3    3    0    0 -0.97205543920E+01  0.47224201694E+02  0.21402636401E+02  0.52751182437E+02  0.51100000000E-03 0.  1.
         22    1    1    0    0    0  0.16525704439E+02 -0.21892098621E+02  0.11863925427E+02  0.29885040000E+02  0.00000000000E+00 0. -1.
</event>
<event>
 5    1  0.1094625E-009  0.9118800E+02  0.7818608E-02  0.1130116E+00
         25   -1    0    0    0    0  0.00000000000E+00  0.00000000000E+00  0.99999998245E-14  0.12500000000E+03  0.12500000000E+03 0.  0.
        -11    1    3    3    0    0 -0.31710812805E+01 -0.13046418678E+02  0.36461247369E+02  0.38854695428E+02  0.51100000000E-03 0.  1.
         23    2    1    0    0    0  0.20091040366E+02  0.21065982211E+02 -0.27038079723E+01  0.95764130130E+02  0.91192283294E+02 0.  0.
         11    1    3    3    0    0  0.23262121647E+02  0.34112400889E+02 -0.39165055342E+02  0.56909434702E+02  0.51100000000E-03 0. -1.
         22    1    1    0    0    0 -0.20091040366E+02 -0.21065982211E+02  0.27038079723E+01  0.29235869870E+02  0.00000000000E+00 0. -1.
</event>
<event>
 5    1  0.1094625E-009  0.9118800E+02  0.7818608E-02  0.1130116E+00
         25   -1    0    0    0    0  0.00000000000E+00  0.00000000000E+00  0.99999998245E-14  0.12500000000E+03  0.12500000000E+03 0.  0.
        -11    1    3    3    0    0 -0.52974123736E+02 -0.10216074089E+02  0.89378094281E+01  0.54685559273E+02  0.51100000000E-03 0. -1.
         23    2    1    0    0    0 -0.21530946012E+02 -0.58765944711E+01  0.26010267932E+02  0.90726832119E+02  0.84004214357E+02 0.  0.
         11    1    3    3    0    0  0.31443177724E+02  0.43394796176E+01  0.17072458504E+02  0.36041272846E+02  0.51100000000E-03 0.  1.
         22    1    1    0    0    0  0.21530946012E+02  0.58765944711E+01 -0.26010267932E+02  0.34273167881E+02  0.00000000000E+00 0. -1.
</event>
<event>
 5    1  0.1094625E-009  0.9118800E+02  0.7818608E-02  0.1130116E+00
         25   -1    0    0    0    0  0.00000000000E+00  0.00000000000E+00  0.99999998245E-14  0.12500000000E+03  0.12500000000E+03 0.  0.
        -11    1    3    3    0    0  0.72290482065E+00 -0.38610173496E+02 -0.39261225463E+02  0.55070063682E+02  0.51100000000E-03 0.  1.
         23    2    1    0    0    0  0.32312228185E+01  0.36706716733E+00 -0.29489472499E+02  0.95331758941E+02  0.90597680629E+02 0.  0.
         11    1    3    3    0    0  0.25083179979E+01  0.38977240664E+02  0.97717529635E+01  0.40261695260E+02  0.51100000000E-03 0. -1.
         22    1    1    0    0    0 -0.32312228185E+01 -0.36706716733E+00  0.29489472499E+02  0.29668241059E+02  0.00000000000E+00 0.  1.
</event>
<event>
 5    1  0.1094625E-009  0.9118800E+02  0.7818608E-02  0.1130116E+00
         25   -1    0    0    0    0  0.00000000000E+00  0.00000000000E+00  0.99999998245E-14  0.12500000000E+03  0.12500000000E+03 0.  0.
        -11    1    3    3    0    0 -0.12133399974E+02  0.23402085114E+02  0.18022170368E+02  0.31932359882E+02  0.51100000000E-03 0.  1.
         23    2    1    0    0    0  0.14748114681E+02 -0.25025856417E+02 -0.10347832865E+02  0.94163689892E+02  0.88971469995E+02 0.  0.
         11    1    3    3    0    0  0.26881514655E+02 -0.48427941531E+02 -0.28370003233E+02  0.62231330010E+02  0.51100000000E-03 0. -1.
         22    1    1    0    0    0 -0.14748114681E+02  0.25025856417E+02  0.10347832865E+02  0.30836310108E+02  0.00000000000E+00 0. -1.
</event>
<event>
 5    1  0.1094625E-009  0.9118800E+02  0.7818608E-02  0.1130116E+00
         25   -1    0    0    0    0  0.00000000000E+00  0.00000000000E+00  0.99999998245E-14  0.12500000000E+03  0.12500000000E+03 0.  0.
        -11    1    3    3    0    0  0.24632655745E+02 -0.19560784964E+02  0.18032601840E+02  0.36256954738E+02  0.51100000000E-03 0.  1.
         23    2    1    0    0    0 -0.21478809851E+02  0.17473571501E+02  0.42101591427E+01  0.96993029196E+02  0.92861495244E+02 0.  0.
         11    1    3    3    0    0 -0.46111465596E+02  0.37034356465E+02 -0.13822442697E+02  0.60736074458E+02  0.51100000000E-03 0. -1.
         22    1    1    0    0    0  0.21478809851E+02 -0.17473571501E+02 -0.42101591427E+01  0.28006970804E+02  0.00000000000E+00 0. -1.
</event>
<event>
 5    1  0.1094625E-009  0.9118800E+02  0.7818608E-02  0.1130116E+00
         25   -1    0    0    0    0  0.00000000000E+00  0.00000000000E+00  0.99999998245E-14  0.12500000000E+03  0.12500000000E+03 0.  0.
        -11    1    3    3    0    0  0.11365280391E+02 -0.51550932943E+02  0.96361926139E+01  0.53661201012E+02  0.51100000000E-03 0. -1.
         23    2    1    0    0    0 -0.34564484964E+01 -0.15192504841E+02  0.24767415229E+02  0.95739376345E+02  0.91158346223E+02 0.  0.
         11    1    3    3    0    0 -0.14821728887E+02  0.36358428102E+02  0.15131222615E+02  0.42078175333E+02  0.51100000000E-03 0.  1.
         22    1    1    0    0    0  0.34564484964E+01  0.15192504841E+02 -0.24767415229E+02  0.29260623655E+02  0.00000000000E+00 0. -1.
</event>
<event>
 5    1  0.1094625E-009  0.9118800E+02  0.7818608E-02  0.1130116E+00
         25   -1    0    0    0    0  0.00000000000E+00  0.00000000000E+00  0.99999998245E-14  0.12500000000E+03  0.12500000000E+03 0.  0.
        -11    1    3    3    0    0 -0.97509106598E+01 -0.33621582958E+02 -0.14524020012E+02  0.37900372780E+02  0.51100000000E-03 0.  1.
         23    2    1    0    0    0  0.26269200642E+02  0.10981570149E+02 -0.30924969530E+01  0.96360354005E+02  0.92005915578E+02 0.  0.
         11    1    3    3    0    0  0.36020111302E+02  0.44603153106E+02  0.11431523059E+02  0.58459981226E+02  0.51100000000E-03 0. -1.
         22    1    1    0    0    0 -0.26269200642E+02 -0.10981570149E+02  0.30924969530E+01  0.28639645995E+02  0.00000000000E+00 0. -1.
</event>
<event>
 5    1  0.1094625E-009  0.9118800E+02  0.7818608E-02  0.1130116E+00
         25   -1    0    0    0    0  0.00000000000E+00  0.00000000000E+00  0.99999998245E-14  0.12500000000E+03  0.12500000000E+03 0.  0.
        -11    1    3    3    0    0 -0.59690312824E+01  0.46993321214E+02 -0.24722026244E+02  0.53433885831E+02  0.51100000000E-03 0. -1.
         23    2    1    0    0    0 -0.11454223646E+02  0.24247831847E+02  0.10899611900E+02  0.96052493576E+02  0.91586698783E+02 0.  0.
         11    1    3    3    0    0 -0.54851923631E+01 -0.22745489367E+02  0.35621638144E+02  0.42618607745E+02  0.51100000000E-03 0.  1.
         22    1    1    0    0    0  0.11454223646E+02 -0.24247831847E+02 -0.10899611900E+02  0.28947506424E+02  0.00000000000E+00 0. -1.
</event>
<event>
 5    1  0.1094625E-009  0.9118800E+02  0.7818608E-02  0.1130116E+00
         25   -1    0    0    0    0  0.00000000000E+00  0.00000000000E+00  0.99999998245E-14  0.12500000000E+03  0.12500000000E+03 0.  0.
        -11    1    3    3    0    0  0.17953097864E+02 -0.12613868540E+02  0.51858843107E+02  0.56309528599E+02  0.51100000000E-03 0. -1.
         23    2    1    0    0    0  0.22553139532E+02 -0.12961445901E+02  0.12142049954E+02  0.96293335971E+02  0.91914819223E+02 0.  0.
         11    1    3    3    0    0  0.46000416681E+01 -0.34757736143E+00 -0.39716793152E+02  0.39983807372E+02  0.51100000000E-03 0.  1.
         22    1    1    0    0    0 -0.22553139532E+02  0.12961445901E+02 -0.12142049954E+02  0.28706664029E+02  0.00000000000E+00 0. -1.
</event>
<event>
 5    1  0.1094625E-009  0.9118800E+02  0.7818608E-02  0.1130116E+00
         25   -1    0    0    0    0  0.00000000000E+00  0.00000000000E+00  0.99999998245E-14  0.12500000000E+03  0.12500000000E+03 0.  0.
        -11    1    3    3    0    0  0.32324931816E+02  0.16590993466E+02  0.45746938884E+02  0.58420413372E+02  0.51100000000E-03 0.  1.
         23    2    1    0    0    0  0.31584290069E+02  0.34170758949E+01  0.19699156673E+02  0.87619516316E+02  0.79245688078E+02 0.  0.
         11    1    3    3    0    0 -0.74064174742E+00 -0.13173917571E+02 -0.26047782210E+02  0.29199102944E+02  0.51100000000E-03 0. -1.
         22    1    1    0    0    0 -0.31584290069E+02 -0.34170758949E+01 -0.19699156673E+02  0.37380483684E+02  0.00000000000E+00 0.  1.
</event>
<event>
 5    1  0.1094625E-009  0.9118800E+02  0.7818608E-02  0.1130116E+00
         25   -1    0    0    0    0  0.00000000000E+00  0.00000000000E+00  0.99999998245E-14  0.12500000000E+03  0.12500000000E+03 0.  0.
        -11    1    3    3    0    0  0.14156843360E+02 -0.34732861181E+02 -0.16020365721E+01  0.37541368931E+02  0.51100000000E-03 0. -1.
         23    2    1    0    0    0 -0.29860908537E+02  0.12330426641E+01  0.47518845988E+01  0.94738231048E+02  0.89775039749E+02 0.  0.
         11    1    3    3    0    0 -0.44017751898E+02  0.35965903845E+02  0.63539211709E+01  0.57196862117E+02  0.51100000000E-03 0.  1.
         22    1    1    0    0    0  0.29860908537E+02 -0.12330426641E+01 -0.47518845988E+01  0.30261768952E+02  0.00000000000E+00 0.  1.
</event>
<event>
 5    1  0.1094625E-009  0.9118800E+02  0.7818608E-02  0.1130116E+00
         25   -1    0    0    0    0  0.00000000000E+00  0.00000000000E+00  0.99999998245E-14  0.12500000000E+03  0.12500000000E+03 0.  0.
        -11    1    3    3    0    0 -0.99666550002E+00 -0.17737886537E+02  0.52203181138E+02  0.55143431904E+02  0.51100000000E-03 0. -1.
         23    2    1    0    0    0  0.44675564351E+01 -0.26265042578E+02  0.13533322436E+02  0.95117524562E+02  0.90301612059E+02 0.  0.
         11    1    3    3    0    0  0.54642219351E+01 -0.85271560410E+01 -0.38669858702E+02  0.39974092658E+02  0.51100000000E-03 0.  1.
         22    1    1    0    0    0 -0.44675564351E+01  0.26265042578E+02 -0.13533322436E+02  0.29882475438E+02  0.00000000000E+00 0.  1.
</event>
<event>
 5    1  0.1094625E-009  0.9118800E+02  0.7818608E-02  0.1130116E+00
         25   -1    0    0    0    0  0.00000000000E+00  0.00000000000E+00  0.99999998245E-14  0.12500000000E+03  0.12500000000E+03 0.  0.
        -11    1    3    3    0    0 -0.21233591075E+02 -0.24403467824E+02  0.48283908500E+01  0.32706390664E+02  0.51100000000E-03 0. -1.
         23    2    1    0    0    0  0.24983679855E+02  0.14769158106E+02 -0.85366450875E+01  0.94747948836E+02  0.89788569479E+02 0.  0.
         11    1    3    3    0    0  0.46217270930E+02  0.39172625931E+02 -0.13365035938E+02  0.62041558172E+02  0.51100000000E-03 0.  1.
         22    1    1    0    0    0 -0.24983679855E+02 -0.14769158106E+02  0.85366450875E+01  0.30252051164E+02  0.00000000000E+00 0.  1.
</event>
<event>
 5    1  0.1094625E-009  0.9118800E+02  0.7818608E-02  0.1130116E+00
         25   -1    0    0    0    0  0.00000000000E+00  0.00000000000E+00  0.99999998245E-14  0.12500000000E+03  0.12500000000E+03 0.  0.
        -11    1    3    3    0    0 -0.61612198511E+01  0.29966193620E+02  0.53017517381E+02  0.61211032826E+02  0.51100000000E-03 0.  1.
         23    2    1    0    0    0 -0.99896228073E+01  0.93678432974E+01  0.27905402878E+02  0.93915268030E+02  0.88621763735E+02 0.  0.
         11    1    3    3    0    0 -0.38284029562E+01 -0.20598350323E+02 -0.25112114503E+02  0.32704235204E+02  0.51100000000E-03 0. -1.
         22    1    1    0    0    0  0.99896228073E+01 -0.93678432974E+01 -0.27905402878E+02  0.31084731970E+02  0.00000000000E+00 0.  1.
</event>
<event>
 5    1  0.1094625E-009  0.9118800E+02  0.7818608E-02  0.1130116E+00
         25   -1    0    0    0    0  0.00000000000E+00  0.00000000000E+00  0.99999998245E-14  0.12500000000E+03  0.12500000000E+03 0.  0.
        -11    1    3    3    0    0  0.22945942410E+02  0.51852705135E+02  0.13851136725E+02  0.58370140413E+02  0.51100000000E-03 0.  1.
         23    2    1    0    0    0  0.21964426846E+02  0.13600974431E+02  0.11542974188E+02  0.96704014326E+02  0.92471636633E+02 0.  0.
         11    1    3    3    0    0 -0.98151556435E+00 -0.38251730704E+02 -0.23081625377E+01  0.38333873913E+02  0.51100000000E-03 0. -1.
         22    1    1    0    0    0 -0.21964426846E+02 -0.13600974431E+02 -0.11542974188E+02  0.28295985674E+02  0.00000000000E+00 0.  1.
</event>
<event>
 5    1  0.1094625E-009  0.9118800E+02  0.7818608E-02  0.1130116E+00
         25   -1    0    0    0    0  0.00000000000E+00  0.00000000000E+00  0.99999998245E-14  0.12500000000E+03  0.12500000000E+03 0.  0.
        -11    1    3    3    0    0 -0.11195447317E+02  0.33013848203E+02  0.36943039003E+02  0.50794097539E+02  0.51100000000E-03 0. -1.
         23    2    1    0    0    0  0.16946749746E+01 -0.91681308825E+01  0.27583053239E+02  0.95883829697E+02  0.91356211744E+02 0.  0.
         11    1    3    3    0    0  0.12890122292E+02 -0.42181979086E+02 -0.93599857640E+01  0.45089732158E+02  0.51100000000E-03 0.  1.
         22    1    1    0    0    0 -0.16946749746E+01  0.91681308825E+01 -0.27583053239E+02  0.29116170303E+02  0.00000000000E+00 0.  1.
</event>
<event>
 5    1  0.1094625E-009  0.9118800E+02  0.7818608E-02  0.1130116E+00
         25   -1    0    0    0    0  0.00000000000E+00  0.00000000000E+00  0.99999998245E-14  0.12500000000E+03  0.12500000000E+03 0.  0.
        -11    1    3    3    0    0 -0.12864039788E+01  0.16324231953E+02  0.31424972493E+02  0.35435353540E+02  0.51100000000E-03 0. -1.
         23    2    1    0    0    0 -0.10810660793E+02  0.69143069711E+00 -0.26599690489E+02  0.96279066915E+02  0.91895411903E+02 0.  0.
         11    1    3    3    0    0 -0.95242568141E+01 -0.15632801256E+02 -0.58024662981E+02  0.60843713375E+02  0.51100000000E-03 0.  1.
         22    1    1    0    0    0  0.10810660793E+02 -0.69143069711E+00  0.26599690489E+02  0.28720933085E+02  0.00000000000E+00 0.  1.
</event>
<event>
 5    1  0.1094625E-009  0.9118800E+02  0.7818608E-02  0.1130116E+00
         25   -1    0    0    0    0  0.00000000000E+00  0.00000000000E+00  0.99999998245E-14  0.12500000000E+03  0.12500000000E+03 0.  0.
        -11    1    3    3    0    0  0.17214084473E+02 -0.44056022190E+02 -0.35823078826E+02  0.59334229348E+02  0.51100000000E-03 0. -1.
         23    2    1    0    0    0  0.11586711666E+02 -0.94792804352E+01 -0.24750811343E+02  0.96074037493E+02  0.91616097785E+02 0.  0.
         11    1    3    3    0    0 -0.56273728062E+01  0.34576741755E+02  0.11072267483E+02  0.36739808146E+02  0.51100000000E-03 0.  1.
         22    1    1    0    0    0 -0.11586711666E+02  0.94792804352E+01  0.24750811343E+02  0.28925962507E+02  0.00000000000E+00 0. -1.
</event>
<event>
 5    1  0.1094625E-009  0.9118800E+02  0.7818608E-02  0.1130116E+00
         25   -1    0    0    0    0  0.00000000000E+00  0.00000000000E+00  0.99999998245E-14  0.12500000000E+03  0.12500000000E+03 0.  0.
        -11    1    3    3    0    0 -0.39310750324E+02 -0.15215813919E+02  0.28494711799E+02  0.50880297612E+02  0.51100000000E-03 0. -1.
         23    2    1    0    0    0  0.35526952547E+01  0.13089600795E+01  0.27922136070E+02  0.96822336811E+02  0.92631442841E+02 0.  0.
         11    1    3    3    0    0  0.42863445579E+02  0.16524773999E+02 -0.57257572883E+00  0.45942039200E+02  0.51100000000E-03 0.  1.
         22    1    1    0    0    0 -0.35526952547E+01 -0.13089600795E+01 -0.27922136070E+02  0.28177663189E+02  0.00000000000E+00 0.  1.
</event>
<event>
 5    1  0.1094625E-009  0.9118800E+02  0.7818608E-02  0.1130116E+00
         25   -1    0    0    0    0  0.00000000000E+00  0.00000000000E+00  0.99999998245E-14  0.12500000000E+03  0.12500000000E+03 0.  0.
        -11    1    3    3    0    0  0.50503145261E+02 -0.82670412182E+01  0.19181411669E+02  0.54651973484E+02  0.51100000000E-03 0. -1.
         23    2    1    0    0    0  0.31376247630E+02  0.83322032408E+01 -0.77536186328E+01  0.91623164798E+02  0.85327552406E+02 0.  0.
         11    1    3    3    0    0 -0.19126897631E+02  0.16599244459E+02 -0.26935030302E+02  0.36971191315E+02  0.51100000000E-03 0.  1.
         22    1    1    0    0    0 -0.31376247630E+02 -0.83322032408E+01  0.77536186328E+01  0.33376835202E+02  0.00000000000E+00 0. -1.
</event>
<event>
 5    1  0.1094625E-009  0.9118800E+02  0.7818608E-02  0.1130116E+00
         25   -1    0    0    0    0  0.00000000000E+00  0.00000000000E+00  0.99999998245E-14  0.12500000000E+03  0.12500000000E+03 0.  0.
        -11    1    3    3    0    0  0.13980818482E+02  0.24855214559E+02 -0.26901338791E+02  0.39203660610E+02  0.51100000000E-03 0. -1.
         23    2    1    0    0    0  0.12174999147E+02 -0.26945479088E+02 -0.80768273511E+01  0.94348334669E+02  0.89230508612E+02 0.  0.
         11    1    3    3    0    0 -0.18058193353E+01 -0.51800693648E+02  0.18824511440E+02  0.55144674059E+02  0.51100000000E-03 0.  1.
         22    1    1    0    0    0 -0.12174999147E+02  0.26945479088E+02  0.80768273511E+01  0.30651665331E+02  0.00000000000E+00 0.  1.
</event>
<event>
 5    1  0.1094625E-009  0.9118800E+02  0.7818608E-02  0.1130116E+00
         25   -1    0    0    0    0  0.00000000000E+00  0.00000000000E+00  0.99999998245E-14  0.12500000000E+03  0.12500000000E+03 0.  0.
        -11    1    3    3    0    0 -0.24297129990E+02  0.24466613938E+02 -0.62544028102E+00  0.34487054080E+02  0.51100000000E-03 0.  1.
         23    2    1    0    0    0  0.22729316495E+02 -0.12252405111E+02  0.13589587987E+02  0.95820895130E+02  0.91270059617E+02 0.  0.
         11    1    3    3    0    0  0.47026446485E+02 -0.36719019049E+02  0.14215028268E+02  0.61333841050E+02  0.51100000000E-03 0. -1.
         22    1    1    0    0    0 -0.22729316495E+02  0.12252405111E+02 -0.13589587987E+02  0.29179104870E+02  0.00000000000E+00 0. -1.
</event>
<event>
 5    1  0.1094625E-009  0.9118800E+02  0.7818608E-02  0.1130116E+00
         25   -1    0    0    0    0  0.00000000000E+00  0.00000000000E+00  0.99999998245E-14  0.12500000000E+03  0.12500000000E+03 0.  0.
        -11    1    3    3    0    0 -0.60596399284E+02 -0.74544251888E+01 -0.15732342894E+01  0.61073456817E+02  0.51100000000E-03 0. -1.
         23    2    1    0    0    0 -0.29099419620E+02  0.31025497022E+01  0.59573298930E+01  0.95135442138E+02  0.90326411057E+02 0.  0.
         11    1    3    3    0    0  0.31496979665E+02  0.10556974891E+02  0.75305641824E+01  0.34061985321E+02  0.51100000000E-03 0.  1.
         22    1    1    0    0    0  0.29099419620E+02 -0.31025497022E+01 -0.59573298930E+01  0.29864557862E+02  0.00000000000E+00 0. -1.
</event>
<event>
 5    1  0.1094625E-009  0.9118800E+02  0.7818608E-02  0.1130116E+00
         25   -1    0    0    0    0  0.00000000000E+00  0.00000000000E+00  0.99999998245E-14  0.12500000000E+03  0.12500000000E+03 0.  0.
        -11    1    3    3    0    0 -0.84637729874E+01 -0.90685447930E+00 -0.32508455777E+02  0.33604427320E+02  0.51100000000E-03 0.  1.
         23    2    1    0    0    0 -0.12048853636E+02  0.30681660730E+01  0.28007545702E+02  0.94356711449E+02  0.89242242589E+02 0.  0.
         11    1    3    3    0    0 -0.35850806487E+01  0.39750205524E+01  0.60516001479E+02  0.60752284129E+02  0.51100000000E-03 0. -1.
         22    1    1    0    0    0  0.12048853636E+02 -0.30681660730E+01 -0.28007545702E+02  0.30643288551E+02  0.00000000000E+00 0. -1.
</event>
<event>
 5    1  0.1094625E-009  0.9118800E+02  0.7818608E-02  0.1130116E+00
         25   -1    0    0    0    0  0.00000000000E+00  0.00000000000E+00  0.99999998245E-14  0.12500000000E+03  0.12500000000E+03 0.  0.
        -11    1    3    3    0    0 -0.12289730375E+02 -0.49603450384E+02  0.34061723841E+02  0.61414499868E+02  0.51100000000E-03 0.  1.
         23    2    1    0    0    0 -0.10518737874E+01 -0.18767827836E+02  0.21206149369E+02  0.96662064803E+02  0.92414913303E+02 0.  0.
         11    1    3    3    0    0  0.11237856587E+02  0.30835622548E+02 -0.12855574472E+02  0.35247564935E+02  0.51100000000E-03 0. -1.
         22    1    1    0    0    0  0.10518737874E+01  0.18767827836E+02 -0.21206149369E+02  0.28337935197E+02  0.00000000000E+00 0.  1.
</event>
<event>
 5    1  0.1094625E-009  0.9118800E+02  0.7818608E-02  0.1130116E+00
         25   -1    0    0    0    0  0.00000000000E+00  0.00000000000E+00  0.99999998245E-14  0.12500000000E+03  0.12500000000E+03 0.  0.
        -11    1    3    3    0    0 -0.61128881277E+01 -0.32440950313E+02  0.13535164942E+02  0.35678892202E+02  0.51100000000E-03 0.  1.
         23    2    1    0    0    0  0.21829793807E+02  0.85248985020E+01 -0.18866163189E+02  0.94914357151E+02  0.90019938280E+02 0.  0.
         11    1    3    3    0    0  0.27942681935E+02  0.40965848815E+02 -0.32401328131E+02  0.59235464950E+02  0.51100000000E-03 0. -1.
         22    1    1    0    0    0 -0.21829793807E+02 -0.85248985020E+01  0.18866163189E+02  0.30085642849E+02  0.00000000000E+00 0. -1.
</event>
<event>
 5    1  0.1094625E-009  0.9118800E+02  0.7818608E-02  0.1130116E+00
         25   -1    0    0    0    0  0.00000000000E+00  0.00000000000E+00  0.99999998245E-14  0.12500000000E+03  0.12500000000E+03 0.  0.
        -11    1    3    3    0    0  0.35488507942E+02  0.36112832058E+01  0.23872845643E+01  0.35751569059E+02  0.51100000000E-03 0.  1.
         23    2    1    0    0    0 -0.21776461561E+02  0.52042953214E+01  0.19254012879E+02  0.95470083308E+02  0.90788329795E+02 0.  0.
         11    1    3    3    0    0 -0.57264969503E+02  0.15930121156E+01  0.16866728315E+02  0.59718514249E+02  0.51100000000E-03 0. -1.
         22    1    1    0    0    0  0.21776461561E+02 -0.52042953214E+01 -0.19254012879E+02  0.29529916692E+02  0.00000000000E+00 0. -1.
</event>
<event>
 5    1  0.1094625E-009  0.9118800E+02  0.7818608E-02  0.1130116E+00
         25   -1    0    0    0    0  0.00000000000E+00  0.00000000000E+00  0.99999998245E-14  0.12500000000E+03  0.12500000000E+03 0.  0.
        -11    1    3    3    0    0  0.25616616947E+02 -0.17834091253E+02 -0.16421633376E+02  0.35269475721E+02  0.51100000000E-03 0. -1.
         23    2    1    0    0    0 -0.20200041161E+02  0.20169959032E+02 -0.29487371997E+01  0.96302195880E+02  0.91926867508E+02 0.  0.
         11    1    3    3    0    0 -0.45816658109E+02  0.38004050285E+02  0.13472896176E+02  0.61032720158E+02  0.51100000000E-03 0.  1.
         22    1    1    0    0    0  0.20200041161E+02 -0.20169959032E+02  0.29487371997E+01  0.28697804120E+02  0.00000000000E+00 0.  1.
</event>
<event>
 5    1  0.1094625E-009  0.9118800E+02  0.7818608E-02  0.1130116E+00
         25   -1    0    0    0    0  0.00000000000E+00  0.00000000000E+00  0.99999998245E-14  0.12500000000E+03  0.12500000000E+03 0.  0.
        -11    1    3    3    0    0 -0.42829142812E+02  0.10634928583E+02  0.25697877901E+02  0.51066800456E+02  0.51100000000E-03 0. -1.
         23    2    1    0    0    0  0.12110313931E+01  0.22099260556E+02  0.16243733702E+02  0.97546351813E+02  0.93603354392E+02 0.  0.
         11    1    3    3    0    0  0.44040174205E+02  0.11464331973E+02 -0.94541441990E+01  0.46479551357E+02  0.51100000000E-03 0.  1.
         22    1    1    0    0    0 -0.12110313931E+01 -0.22099260556E+02 -0.16243733702E+02  0.27453648187E+02  0.00000000000E+00 0. -1.
</event>
<event>
 5    1  0.1094625E-009  0.9118800E+02  0.7818608E-02  0.1130116E+00
         25   -1    0    0    0    0  0.00000000000E+00  0.00000000000E+00  0.99999998245E-14  0.12500000000E+03  0.12500000000E+03 0.  0.
        -11    1    3    3    0    0  0.29391957986E+01 -0.22723486714E+02 -0.36084931023E+02  0.42744800475E+02  0.51100000000E-03 0.  1.
         23    2    1    0    0    0 -0.28222762140E+02 -0.82729491044E+01  0.37582411607E+01  0.95350541888E+02  0.90623592249E+02 0.  0.
         11    1    3    3    0    0 -0.31161957938E+02  0.14450537609E+02  0.39843172184E+02  0.52605741414E+02  0.51100000000E-03 0. -1.
         22    1    1    0    0    0  0.28222762140E+02  0.82729491044E+01 -0.37582411607E+01  0.29649458112E+02  0.00000000000E+00 0. -1.
</event>
<event>
 5    1  0.1094625E-009  0.9118800E+02  0.7818608E-02  0.1130116E+00
         25   -1    0    0    0    0  0.00000000000E+00  0.00000000000E+00  0.99999998245E-14  0.12500000000E+03  0.12500000000E+03 0.  0.
        -11    1    3    3    0    0  0.27394505509E+02  0.34131411936E+02  0.63581294667E+01  0.44224857528E+02  0.51100000000E-03 0. -1.
         23    2    1    0    0    0 -0.20297415360E+02  0.10366079719E+02  0.14293233830E+02  0.98097635562E+02  0.94336678394E+02 0.  0.
         11    1    3    3    0    0 -0.47691920869E+02 -0.23765332217E+02  0.79351043633E+01  0.53872778034E+02  0.51100000000E-03 0.  1.
         22    1    1    0    0    0  0.20297415360E+02 -0.10366079719E+02 -0.14293233830E+02  0.26902364438E+02  0.00000000000E+00 0.  1.
</event>
<event>
 5    1  0.1094625E-009  0.9118800E+02  0.7818608E-02  0.1130116E+00
         25   -1    0    0    0    0  0.00000000000E+00  0.00000000000E+00  0.99999998245E-14  0.12500000000E+03  0.12500000000E+03 0.  0.
        -11    1    3    3    0    0  0.36982778221E+02 -0.21985038048E+02 -0.21587957914E+02  0.48136345001E+02  0.51100000000E-03 0. -1.
         23    2    1    0    0    0  0.20439532650E+02 -0.46922180710E+01  0.19937302380E+02  0.96064080599E+02  0.91602511701E+02 0.  0.
         11    1    3    3    0    0 -0.16543245571E+02  0.17292819977E+02  0.41525260294E+02  0.47927735598E+02  0.51100000000E-03 0.  1.
         22    1    1    0    0    0 -0.20439532650E+02  0.46922180710E+01 -0.19937302380E+02  0.28935919401E+02  0.00000000000E+00 0.  1.
</event>
<event>
 5    1  0.1094625E-009  0.9118800E+02  0.7818608E-02  0.1130116E+00
         25   -1    0    0    0    0  0.00000000000E+00  0.00000000000E+00  0.99999998245E-14  0.12500000000E+03  0.12500000000E+03 0.  0.
        -11    1    3    3    0    0  0.19139826042E+01 -0.12541677117E+02 -0.52096826152E+02  0.53619364876E+02  0.51100000000E-03 0. -1.
         23    2    1    0    0    0 -0.15695493220E+02  0.62211684110E+00 -0.98258266384E+00  0.10926148020E+03  0.10812201464E+03 0.  0.
         11    1    3    3    0    0 -0.17609475825E+02  0.13163793958E+02  0.51114243488E+02  0.55642115325E+02  0.51100000000E-03 0.  1.
         22    1    1    0    0    0  0.15695493220E+02 -0.62211684110E+00  0.98258266384E+00  0.15738519800E+02  0.00000000000E+00 0.  1.
</event>
<event>
 5    1  0.1094625E-009  0.9118800E+02  0.7818608E-02  0.1130116E+00
         25   -1    0    0    0    0  0.00000000000E+00  0.00000000000E+00  0.99999998245E-14  0.12500000000E+03  0.12500000000E+03 0.  0.
        -11    1    3    3    0    0  0.39751959377E+01 -0.48648215400E+02  0.14928466811E+02  0.51042239037E+02  0.51100000000E-03 0.  1.
         23    2    1    0    0    0  0.13232773297E+02 -0.49426886711E+01  0.24489035943E+02  0.96729001754E+02  0.92505407618E+02 0.  0.
         11    1    3    3    0    0  0.92575773589E+01  0.43705526729E+02  0.95605691321E+01  0.45686762717E+02  0.51100000000E-03 0. -1.
         22    1    1    0    0    0 -0.13232773297E+02  0.49426886711E+01 -0.24489035943E+02  0.28270998246E+02  0.00000000000E+00 0. -1.
</event>
<event>
 5    1  0.1094625E-009  0.9118800E+02  0.7818608E-02  0.1130116E+00
         25   -1    0    0    0    0  0.00000000000E+00  0.00000000000E+00  0.99999998245E-14  0.12500000000E+03  0.12500000000E+03 0.  0.
        -11    1    3    3    0    0 -0.11614958275E+02  0.18915468948E+02  0.40309855167E+02  0.46017242911E+02  0.51100000000E-03 0.  1.
         23    2    1    0    0    0 -0.27014473931E+02  0.14457189528E-01 -0.50534003348E+01  0.97516934929E+02  0.93564062183E+02 0.  0.
         11    1    3    3    0    0 -0.15399515656E+02 -0.18901011758E+02 -0.45363255502E+02  0.51499692018E+02  0.51100000000E-03 0. -1.
         22    1    1    0    0    0  0.27014473931E+02 -0.14457189528E-01  0.50534003348E+01  0.27483065071E+02  0.00000000000E+00 0.  1.
</event>
<event>
 5    1  0.1094625E-009  0.9118800E+02  0.7818608E-02  0.1130116E+00
         25   -1    0    0    0    0  0.00000000000E+00  0.00000000000E+00  0.99999998245E-14  0.12500000000E+03  0.12500000000E+03 0.  0.
        -11    1    3    3    0    0  0.22634283634E+02  0.42670324163E+00  0.49213200912E+02  0.54170397963E+02  0.51100000000E-03 0.  1.
         23    2    1    0    0    0  0.89107762284E+01  0.22521992252E+02  0.17869317412E+02  0.94900920732E+02  0.90001278786E+02 0.  0.
         11    1    3    3    0    0 -0.13723507405E+02  0.22095289010E+02 -0.31343883499E+02  0.40730522769E+02  0.51100000000E-03 0. -1.
         22    1    1    0    0    0 -0.89107762284E+01 -0.22521992252E+02 -0.17869317412E+02  0.30099079268E+02  0.00000000000E+00 0. -1.
</event>
<event>
 5    1  0.1094625E-009  0.9118800E+02  0.7818608E-02  0.1130116E+00
         25   -1    0    0    0    0  0.00000000000E+00  0.00000000000E+00  0.99999998245E-14  0.12500000000E+03  0.12500000000E+03 0.  0.
        -11    1    3    3    0    0 -0.45502568812E+02  0.50607856551E+01  0.87492362869E+01  0.46611634340E+02  0.51100000000E-03 0.  1.
         23    2    1    0    0    0 -0.75444128823E+01  0.21402502946E+02 -0.18167099288E+02  0.95930621014E+02  0.91420212500E+02 0.  0.
         11    1    3    3    0    0  0.37958155930E+02  0.16341717291E+02 -0.26916335575E+02  0.49318986675E+02  0.51100000000E-03 0. -1.
         22    1    1    0    0    0  0.75444128823E+01 -0.21402502946E+02  0.18167099288E+02  0.29069378986E+02  0.00000000000E+00 0.  1.
</event>
<event>
 5    1  0.1094625E-009  0.9118800E+02  0.7818608E-02  0.1130116E+00
         25   -1    0    0    0    0  0.00000000000E+00  0.00000000000E+00  0.99999998245E-14  0.12500000000E+03  0.12500000000E+03 0.  0.
        -11    1    3    3    0    0 -0.24938568449E+02  0.40140459818E+01 -0.38485906259E+02  0.46034875283E+02  0.51100000000E-03 0. -1.
         23    2    1    0    0    0  0.40496937257E+01 -0.26416323445E+02 -0.12061876881E+02  0.95679170586E+02  0.91075752242E+02 0.  0.
         11    1    3    3    0    0  0.28988262175E+02 -0.30430369427E+02  0.26424029378E+02  0.49644295303E+02  0.51100000000E-03 0.  1.
         22    1    1    0    0    0 -0.40496937257E+01  0.26416323445E+02  0.12061876881E+02  0.29320829414E+02  0.00000000000E+00 0.  1.
</event>
<event>
 5    1  0.1094625E-009  0.9118800E+02  0.7818608E-02  0.1130116E+00
         25   -1    0    0    0    0  0.00000000000E+00  0.00000000000E+00  0.99999998245E-14  0.12500000000E+03  0.12500000000E+03 0.  0.
        -11    1    3    3    0    0 -0.27179772488E+02 -0.19479534847E+02 -0.24932743522E+01  0.33532204336E+02  0.51100000000E-03 0.  1.
         23    2    1    0    0    0  0.18563396091E+02  0.22616783788E+02 -0.13933451397E+01  0.95707338906E+02  0.91114404604E+02 0.  0.
         11    1    3    3    0    0  0.45743168579E+02  0.42096318635E+02  0.10999292125E+01  0.62175134570E+02  0.51100000000E-03 0. -1.
         22    1    1    0    0    0 -0.18563396091E+02 -0.22616783788E+02  0.13933451397E+01  0.29292661094E+02  0.00000000000E+00 0. -1.
</event>
<event>
 5    1  0.1094625E-009  0.9118800E+02  0.7818608E-02  0.1130116E+00
         25   -1    0    0    0    0  0.00000000000E+00  0.00000000000E+00  0.99999998245E-14  0.12500000000E+03  0.12500000000E+03 0.  0.
        -11    1    3    3    0    0 -0.27490199589E+02  0.61428901817E+01 -0.30892505620E+02  0.41806615230E+02  0.51100000000E-03 0. -1.
         23    2    1    0    0    0  0.94742876197E+01 -0.26326461113E+02 -0.95568216797E+01  0.95433506782E+02  0.90737956200E+02 0.  0.
         11    1    3    3    0    0  0.36964487208E+02 -0.32469351294E+02  0.21335683941E+02  0.53626891552E+02  0.51100000000E-03 0.  1.
         22    1    1    0    0    0 -0.94742876197E+01  0.26326461113E+02  0.95568216797E+01  0.29566493218E+02  0.00000000000E+00 0.  1.
</event>
<event>
 5    1  0.1094625E-009  0.9118800E+02  0.7818608E-02  0.1130116E+00
         25   -1    0    0    0    0  0.00000000000E+00  0.00000000000E+00  0.99999998245E-14  0.12500000000E+03  0.12500000000E+03 0.  0.
        -11    1    3    3    0    0 -0.99282380303E+01  0.25796620141E+02  0.35004247612E+01  0.27861954254E+02  0.51100000000E-03 0.  1.
         23    2    1    0    0    0  0.16131705190E+02 -0.26486054816E+02 -0.16829430799E+02  0.89715828576E+02  0.82486102732E+02 0.  0.
         11    1    3    3    0    0  0.26059943220E+02 -0.52282674957E+02 -0.20329855560E+02  0.61853874322E+02  0.51100000000E-03 0. -1.
         22    1    1    0    0    0 -0.16131705190E+02  0.26486054816E+02  0.16829430799E+02  0.35284171424E+02  0.00000000000E+00 0. -1.
</event>
<event>
 5    1  0.1094625E-009  0.9118800E+02  0.7818608E-02  0.1130116E+00
         25   -1    0    0    0    0  0.00000000000E+00  0.00000000000E+00  0.99999998245E-14  0.12500000000E+03  0.12500000000E+03 0.  0.
        -11    1    3    3    0    0 -0.58427725608E+01 -0.23031443514E+02  0.49497847028E+02  0.54905575693E+02  0.51100000000E-03 0. -1.
         23    2    1    0    0    0 -0.23239727456E+02 -0.46515175438E+01  0.18428121710E+02  0.94978054403E+02  0.90108343680E+02 0.  0.
         11    1    3    3    0    0 -0.17396954895E+02  0.18379925970E+02 -0.31069725318E+02  0.40072478709E+02  0.51100000000E-03 0.  1.
         22    1    1    0    0    0  0.23239727456E+02  0.46515175438E+01 -0.18428121710E+02  0.30021945597E+02  0.00000000000E+00 0. -1.
</event>
<event>
 5    1  0.1094625E-009  0.9118800E+02  0.7818608E-02  0.1130116E+00
         25   -1    0    0    0    0  0.00000000000E+00  0.00000000000E+00  0.99999998245E-14  0.12500000000E+03  0.12500000000E+03 0.  0.
        -11    1    3    3    0    0  0.39551398350E+01  0.11572695420E+02 -0.24153243826E+02  0.27073041905E+02  0.51100000000E-03 0.  1.
         23    2    1    0    0    0 -0.32056334853E+02 -0.78958033469E+01  0.19288268350E+02  0.86764027269E+02  0.77884573680E+02 0.  0.
         11    1    3    3    0    0 -0.36011474688E+02 -0.19468498767E+02  0.43441512176E+02  0.59690985365E+02  0.51100000000E-03 0. -1.
         22    1    1    0    0    0  0.32056334853E+02  0.78958033469E+01 -0.19288268350E+02  0.38235972731E+02  0.00000000000E+00 0. -1.
</event>
<event>
 5    1  0.1094625E-009  0.9118800E+02  0.7818608E-02  0.1130116E+00
         25   -1    0    0    0    0  0.00000000000E+00  0.00000000000E+00  0.99999998245E-14  0.12500000000E+03  0.12500000000E+03 0.  0.
        -11    1    3    3    0    0  0.22211922063E+02  0.43312075848E+02 -0.33824589042E+02  0.59274009651E+02  0.51100000000E-03 0.  1.
         23    2    1    0    0    0  0.70923713831E+01  0.68648460711E+01 -0.22662498339E+02  0.10028124853E+03  0.97186995693E+02 0.  0.
         11    1    3    3    0    0 -0.15119550680E+02 -0.36447229777E+02  0.11162090703E+02  0.41007238877E+02  0.51100000000E-03 0. -1.
         22    1    1    0    0    0 -0.70923713831E+01 -0.68648460711E+01  0.22662498339E+02  0.24718751473E+02  0.00000000000E+00 0.  1.
</event>
<event>
 5    1  0.1094625E-009  0.9118800E+02  0.7818608E-02  0.1130116E+00
         25   -1    0    0    0    0  0.00000000000E+00  0.00000000000E+00  0.99999998245E-14  0.12500000000E+03  0.12500000000E+03 0.  0.
        -11    1    3    3    0    0  0.31505782982E+02  0.45692900429E+01 -0.17704263202E+02  0.36427101293E+02  0.51100000000E-03 0.  1.
         23    2    1    0    0    0 -0.26753833284E+02  0.41075699343E+01 -0.13263845859E+02  0.94857516142E+02  0.89940975286E+02 0.  0.
         11    1    3    3    0    0 -0.58259616266E+02 -0.46172010856E+00  0.44404173431E+01  0.58430414849E+02  0.51100000000E-03 0. -1.
         22    1    1    0    0    0  0.26753833284E+02 -0.41075699343E+01  0.13263845859E+02  0.30142483858E+02  0.00000000000E+00 0. -1.
</event>
<event>
 5    1  0.1094625E-009  0.9118800E+02  0.7818608E-02  0.1130116E+00
         25   -1    0    0    0    0  0.00000000000E+00  0.00000000000E+00  0.99999998245E-14  0.12500000000E+03  0.12500000000E+03 0.  0.
        -11    1    3    3    0    0  0.46330221511E+02  0.13433091355E+02  0.21565745185E+02  0.52839556530E+02  0.51100000000E-03 0. -1.
         23    2    1    0    0    0  0.25084153880E+02  0.55603200742E+01 -0.14549133050E+02  0.95473584578E+02  0.90793150317E+02 0.  0.
         11    1    3    3    0    0 -0.21246067631E+02 -0.78727712808E+01 -0.36114878235E+02  0.42634028048E+02  0.51100000000E-03 0.  1.
         22    1    1    0    0    0 -0.25084153880E+02 -0.55603200742E+01  0.14549133050E+02  0.29526415422E+02  0.00000000000E+00 0. -1.
</event>
<event>
 5    1  0.1094625E-009  0.9118800E+02  0.7818608E-02  0.1130116E+00
         25   -1    0    0    0    0  0.00000000000E+00  0.00000000000E+00  0.99999998245E-14  0.12500000000E+03  0.12500000000E+03 0.  0.
        -11    1    3    3    0    0 -0.18217530868E+02  0.98142733477E+01  0.70200679179E+00  0.20704859480E+02  0.51100000000E-03 0.  1.
         23    2    1    0    0    0  0.27151272472E+02 -0.18801671773E+02  0.28730859394E+02  0.81226072374E+02  0.68421620073E+02 0.  0.
         11    1    3    3    0    0  0.45368803340E+02 -0.28615945121E+02  0.28028852603E+02  0.60521212894E+02  0.51100000000E-03 0. -1.
         22    1    1    0    0    0 -0.27151272472E+02  0.18801671773E+02 -0.28730859394E+02  0.43773927626E+02  0.00000000000E+00 0. -1.
</event>
<event>
 5    1  0.1094625E-009  0.9118800E+02  0.7818608E-02  0.1130116E+00
         25   -1    0    0    0    0  0.00000000000E+00  0.00000000000E+00  0.99999998245E-14  0.12500000000E+03  0.12500000000E+03 0.  0.
        -11    1    3    3    0    0  0.62482893958E+01 -0.37556845985E+02  0.14927455888E+02  0.40894825348E+02  0.51100000000E-03 0.  1.
         23    2    1    0    0    0 -0.85825884839E+01 -0.59858698072E+01 -0.27357321663E+02  0.95709822277E+02  0.91117811482E+02 0.  0.
         11    1    3    3    0    0 -0.14830877880E+02  0.31570976178E+02 -0.42284777551E+02  0.54814996929E+02  0.51100000000E-03 0. -1.
         22    1    1    0    0    0  0.85825884839E+01  0.59858698072E+01  0.27357321663E+02  0.29290177723E+02  0.00000000000E+00 0. -1.
</event>
<event>
 5    1  0.1094625E-009  0.9118800E+02  0.7818608E-02  0.1130116E+00
         25   -1    0    0    0    0  0.00000000000E+00  0.00000000000E+00  0.99999998245E-14  0.12500000000E+03  0.12500000000E+03 0.  0.
        -11    1    3    3    0    0  0.51579352535E+01  0.50871293427E+02 -0.12810647009E+02  0.52712479244E+02  0.51100000000E-03 0.  1.
         23    2    1    0    0    0 -0.48820717535E+01  0.20571930908E+02  0.18116096647E+02  0.97157013027E+02  0.93081970631E+02 0.  0.
         11    1    3    3    0    0 -0.10040007007E+02 -0.30299362519E+02  0.30926743656E+02  0.44444533783E+02  0.51100000000E-03 0. -1.
         22    1    1    0    0    0  0.48820717535E+01 -0.20571930908E+02 -0.18116096647E+02  0.27842986973E+02  0.00000000000E+00 0.  1.
</event>
<event>
 5    1  0.1094625E-009  0.9118800E+02  0.7818608E-02  0.1130116E+00
         25   -1    0    0    0    0  0.00000000000E+00  0.00000000000E+00  0.99999998245E-14  0.12500000000E+03  0.12500000000E+03 0.  0.
        -11    1    3    3    0    0 -0.24165406056E+02 -0.36061235473E+02 -0.39860588458E+02  0.58934252062E+02  0.51100000000E-03 0.  1.
         23    2    1    0    0    0 -0.12277572830E+02 -0.27301795578E+02 -0.80560641910E+01  0.93999564412E+02  0.88740583179E+02 0.  0.
         11    1    3    3    0    0  0.11887833225E+02  0.87594398942E+01  0.31804524267E+02  0.35065312350E+02  0.51100000000E-03 0. -1.
         22    1    1    0    0    0  0.12277572830E+02  0.27301795578E+02  0.80560641910E+01  0.31000435588E+02  0.00000000000E+00 0.  1.
</event>
<event>
 5    1  0.1094625E-009  0.9118800E+02  0.7818608E-02  0.1130116E+00
         25   -1    0    0    0    0  0.00000000000E+00  0.00000000000E+00  0.99999998245E-14  0.12500000000E+03  0.12500000000E+03 0.  0.
        -11    1    3    3    0    0  0.50470406517E+02 -0.13326072702E+02  0.17699856726E+02  0.55119244154E+02  0.51100000000E-03 0. -1.
         23    2    1    0    0    0  0.12839975599E+02 -0.24856838818E+02  0.43060604480E+01  0.96693294682E+02  0.92457145048E+02 0.  0.
         11    1    3    3    0    0 -0.37630430918E+02 -0.11530766116E+02 -0.13393796278E+02  0.41574050528E+02  0.51100000000E-03 0.  1.
         22    1    1    0    0    0 -0.12839975599E+02  0.24856838818E+02 -0.43060604480E+01  0.28306705318E+02  0.00000000000E+00 0. -1.
</event>
<event>
 5    1  0.1094625E-009  0.9118800E+02  0.7818608E-02  0.1130116E+00
         25   -1    0    0    0    0  0.00000000000E+00  0.00000000000E+00  0.99999998245E-14  0.12500000000E+03  0.12500000000E+03 0.  0.
        -11    1    3    3    0    0 -0.46526101082E+02 -0.20216983091E+02 -0.33014265113E+02  0.60525582925E+02  0.51100000000E-03 0.  1.
         23    2    1    0    0    0 -0.29452684245E+02 -0.98992659331E+00 -0.14906572839E+02  0.91975062791E+02  0.85841515001E+02 0.  0.
         11    1    3    3    0    0  0.17073416837E+02  0.19227056498E+02  0.18107692274E+02  0.31449479866E+02  0.51100000000E-03 0. -1.
         22    1    1    0    0    0  0.29452684245E+02  0.98992659331E+00  0.14906572839E+02  0.33024937209E+02  0.00000000000E+00 0.  1.
</event>
<event>
 5    1  0.1094625E-009  0.9118800E+02  0.7818608E-02  0.1130116E+00
         25   -1    0    0    0    0  0.00000000000E+00  0.00000000000E+00  0.99999998245E-14  0.12500000000E+03  0.12500000000E+03 0.  0.
        -11    1    3    3    0    0 -0.43606459108E+02  0.34957616616E+02 -0.18487430201E+02  0.58867166665E+02  0.51100000000E-03 0. -1.
         23    2    1    0    0    0 -0.27004958236E+02  0.32914976200E+01 -0.12263207929E+02  0.95158954533E+02  0.90358943294E+02 0.  0.
         11    1    3    3    0    0  0.16601500873E+02 -0.31666118996E+02  0.62242222726E+01  0.36291787868E+02  0.51100000000E-03 0.  1.
         22    1    1    0    0    0  0.27004958236E+02 -0.32914976200E+01  0.12263207929E+02  0.29841045467E+02  0.00000000000E+00 0. -1.
</event>
<event>
 5    1  0.1094625E-009  0.9118800E+02  0.7818608E-02  0.1130116E+00
         25   -1    0    0    0    0  0.00000000000E+00  0.00000000000E+00  0.99999998245E-14  0.12500000000E+03  0.12500000000E+03 0.  0.
        -11    1    3    3    0    0 -0.40610856290E+02  0.15215878635E+01  0.27136797607E+02  0.48866784864E+02  0.51100000000E-03 0.  1.
         23    2    1    0    0    0 -0.37994940573E+01  0.25926358922E+02  0.15559181971E+02  0.94525414102E+02  0.89478229338E+02 0.  0.
         11    1    3    3    0    0  0.36811362233E+02  0.24404771058E+02 -0.11577615636E+02  0.45658629239E+02  0.51100000000E-03 0. -1.
         22    1    1    0    0    0  0.37994940573E+01 -0.25926358922E+02 -0.15559181971E+02  0.30474585898E+02  0.00000000000E+00 0. -1.
</event>
<event>
 5    1  0.1094625E-009  0.9118800E+02  0.7818608E-02  0.1130116E+00
         25   -1    0    0    0    0  0.00000000000E+00  0.00000000000E+00  0.99999998245E-14  0.12500000000E+03  0.12500000000E+03 0.  0.
        -11    1    3    3    0    0  0.16549359234E+02  0.43897311977E+02 -0.52779743579E+01  0.47209239598E+02  0.51100000000E-03 0.  1.
         23    2    1    0    0    0  0.74145054012E+01  0.68517180781E+01  0.26358530899E+02  0.96774247891E+02  0.92566527280E+02 0.  0.
         11    1    3    3    0    0 -0.91348538326E+01 -0.37045593899E+02  0.31636505257E+02  0.49565008292E+02  0.51100000000E-03 0. -1.
         22    1    1    0    0    0 -0.74145054012E+01 -0.68517180781E+01 -0.26358530899E+02  0.28225752109E+02  0.00000000000E+00 0.  1.
</event>
<event>
 5    1  0.1094625E-009  0.9118800E+02  0.7818608E-02  0.1130116E+00
         25   -1    0    0    0    0  0.00000000000E+00  0.00000000000E+00  0.99999998245E-14  0.12500000000E+03  0.12500000000E+03 0.  0.
        -11    1    3    3    0    0 -0.42079699530E+02  0.26531131946E+02  0.19557043617E+02  0.53451660687E+02  0.51100000000E-03 0.  1.
         23    2    1    0    0    0 -0.97710768033E+00  0.27657128747E+02  0.68130358577E+01  0.96499316367E+02  0.92194517688E+02 0.  0.
         11    1    3    3    0    0  0.41102591849E+02  0.11259968007E+01 -0.12744007760E+02  0.43047655680E+02  0.51100000000E-03 0. -1.
         22    1    1    0    0    0  0.97710768033E+00 -0.27657128747E+02 -0.68130358577E+01  0.28500683633E+02  0.00000000000E+00 0.  1.
</event>
<event>
 5    1  0.1094625E-009  0.9118800E+02  0.7818608E-02  0.1130116E+00
         25   -1    0    0    0    0  0.00000000000E+00  0.00000000000E+00  0.99999998245E-14  0.12500000000E+03  0.12500000000E+03 0.  0.
        -11    1    3    3    0    0 -0.74485415105E+01  0.18562895162E+02 -0.50903124415E+02  0.54691771985E+02  0.51100000000E-03 0. -1.
         23    2    1    0    0    0 -0.23546050297E+02  0.12054014855E+02 -0.14956715003E+02  0.94612188588E+02  0.89599370238E+02 0.  0.
         11    1    3    3    0    0 -0.16097508786E+02 -0.65088803069E+01  0.35946409411E+02  0.39920416604E+02  0.51100000000E-03 0.  1.
         22    1    1    0    0    0  0.23546050297E+02 -0.12054014855E+02  0.14956715003E+02  0.30387811412E+02  0.00000000000E+00 0. -1.
</event>
<event>
 5    1  0.1094625E-009  0.9118800E+02  0.7818608E-02  0.1130116E+00
         25   -1    0    0    0    0  0.00000000000E+00  0.00000000000E+00  0.99999998245E-14  0.12500000000E+03  0.12500000000E+03 0.  0.
        -11    1    3    3    0    0  0.48583482712E+02  0.31933917685E+02  0.25497188536E+01  0.58194767442E+02  0.51100000000E-03 0.  1.
         23    2    1    0    0    0  0.11906549461E+02  0.27275065280E+02  0.24155951285E+00  0.95238389542E+02  0.90468764695E+02 0.  0.
         11    1    3    3    0    0 -0.36676933251E+02 -0.46588524057E+01 -0.23081593407E+01  0.37043622099E+02  0.51100000000E-03 0. -1.
         22    1    1    0    0    0 -0.11906549461E+02 -0.27275065280E+02 -0.24155951285E+00  0.29761610458E+02  0.00000000000E+00 0.  1.
</event>
<event>
 5    1  0.1094625E-009  0.9118800E+02  0.7818608E-02  0.1130116E+00
         25   -1    0    0    0    0  0.00000000000E+00  0.00000000000E+00  0.99999998245E-14  0.12500000000E+03  0.12500000000E+03 0.  0.
        -11    1    3    3    0    0 -0.24965792592E+02 -0.24343493094E+02 -0.92008570376E+01  0.36063169942E+02  0.51100000000E-03 0.  1.
         23    2    1    0    0    0  0.24153504146E+02 -0.20653067088E+01  0.16365589504E+02  0.95751243203E+02  0.91174617086E+02 0.  0.
         11    1    3    3    0    0  0.49119296738E+02  0.22278186385E+02  0.25566446541E+02  0.59688073262E+02  0.51100000000E-03 0. -1.
         22    1    1    0    0    0 -0.24153504146E+02  0.20653067088E+01 -0.16365589504E+02  0.29248756797E+02  0.00000000000E+00 0. -1.
</event>
<event>
 5    1  0.1094625E-009  0.9118800E+02  0.7818608E-02  0.1130116E+00
         25   -1    0    0    0    0  0.00000000000E+00  0.00000000000E+00  0.99999998245E-14  0.12500000000E+03  0.12500000000E+03 0.  0.
        -11    1    3    3    0    0  0.28668420335E+02 -0.70002481684E+00  0.55020334018E+02  0.62045189298E+02  0.51100000000E-03 0.  1.
         23    2    1    0    0    0  0.10627427299E+02  0.40492618106E+01  0.26941063910E+02  0.95756887020E+02  0.91182354405E+02 0.  0.
         11    1    3    3    0    0 -0.18040993036E+02  0.47492866274E+01 -0.28079270109E+02  0.33711697722E+02  0.51100000000E-03 0. -1.
         22    1    1    0    0    0 -0.10627427299E+02 -0.40492618106E+01 -0.26941063910E+02  0.29243112980E+02  0.00000000000E+00 0.  1.
</event>
<event>
 5    1  0.1094625E-009  0.9118800E+02  0.7818608E-02  0.1130116E+00
         25   -1    0    0    0    0  0.00000000000E+00  0.00000000000E+00  0.99999998245E-14  0.12500000000E+03  0.12500000000E+03 0.  0.
        -11    1    3    3    0    0  0.45985968698E+01  0.26030334344E+02  0.28193580477E+02  0.38647165221E+02  0.51100000000E-03 0. -1.
         23    2    1    0    0    0  0.97172235566E+01 -0.25423520473E+02 -0.49077347881E+00  0.97778304875E+02  0.93912598828E+02 0.  0.
         11    1    3    3    0    0  0.51186266868E+01 -0.51453854817E+02 -0.28684353955E+02  0.59131139654E+02  0.51100000000E-03 0.  1.
         22    1    1    0    0    0 -0.97172235566E+01  0.25423520473E+02  0.49077347881E+00  0.27221695125E+02  0.00000000000E+00 0.  1.
</event>
<event>
 5    1  0.1094625E-009  0.9118800E+02  0.7818608E-02  0.1130116E+00
         25   -1    0    0    0    0  0.00000000000E+00  0.00000000000E+00  0.99999998245E-14  0.12500000000E+03  0.12500000000E+03 0.  0.
        -11    1    3    3    0    0 -0.13372437537E+02  0.20610255201E+02 -0.22054884569E+02  0.33015490890E+02  0.51100000000E-03 0.  1.
         23    2    1    0    0    0 -0.79571508886E+01 -0.20281679664E+02  0.22463833294E+02  0.93706444968E+02  0.88326730054E+02 0.  0.
         11    1    3    3    0    0  0.54152866488E+01 -0.40891934865E+02  0.44518717863E+02  0.60690954078E+02  0.51100000000E-03 0. -1.
         22    1    1    0    0    0  0.79571508886E+01  0.20281679664E+02 -0.22463833294E+02  0.31293555032E+02  0.00000000000E+00 0. -1.
</event>
<event>
 5    1  0.1094625E-009  0.9118800E+02  0.7818608E-02  0.1130116E+00
         25   -1    0    0    0    0  0.00000000000E+00  0.00000000000E+00  0.99999998245E-14  0.12500000000E+03  0.12500000000E+03 0.  0.
        -11    1    3    3    0    0 -0.32723493849E+02  0.37592306120E+00  0.14266982822E+02  0.35700352477E+02  0.51100000000E-03 0.  1.
         23    2    1    0    0    0  0.15206292085E+02 -0.98066485233E+01 -0.21892773717E+02  0.96597619550E+02  0.92327703792E+02 0.  0.
         11    1    3    3    0    0  0.47929785934E+02 -0.10182571584E+02 -0.36159756539E+02  0.60897267073E+02  0.51100000000E-03 0. -1.
         22    1    1    0    0    0 -0.15206292085E+02  0.98066485233E+01  0.21892773717E+02  0.28402380450E+02  0.00000000000E+00 0. -1.
</event>
<event>
 5    1  0.1094625E-009  0.9118800E+02  0.7818608E-02  0.1130116E+00
         25   -1    0    0    0    0  0.00000000000E+00  0.00000000000E+00  0.99999998245E-14  0.12500000000E+03  0.12500000000E+03 0.  0.
        -11    1    3    3    0    0 -0.27295602699E+02 -0.12196938648E+02  0.19572903059E+02  0.35733930284E+02  0.51100000000E-03 0. -1.
         23    2    1    0    0    0 -0.54138474449E+01  0.18274029599E+02 -0.24724782571E+02  0.93781979962E+02  0.88433562579E+02 0.  0.
         11    1    3    3    0    0  0.21881755254E+02  0.30470968248E+02 -0.44297685630E+02  0.58048049678E+02  0.51100000000E-03 0.  1.
         22    1    1    0    0    0  0.54138474449E+01 -0.18274029599E+02  0.24724782571E+02  0.31218020038E+02  0.00000000000E+00 0.  1.
</event>
<event>
 5    1  0.1094625E-009  0.9118800E+02  0.7818608E-02  0.1130116E+00
         25   -1    0    0    0    0  0.00000000000E+00  0.00000000000E+00  0.99999998245E-14  0.12500000000E+03  0.12500000000E+03 0.  0.
        -11    1    3    3    0    0 -0.33406361407E+02 -0.27762855658E+02  0.12851475346E+01  0.43455871193E+02  0.51100000000E-03 0. -1.
         23    2    1    0    0    0  0.15530346804E+02 -0.17679787405E+02 -0.16243406615E+02  0.96406035374E+02  0.92067957747E+02 0.  0.
         11    1    3    3    0    0  0.48936708212E+02  0.10083068253E+02 -0.17528554150E+02  0.52950164181E+02  0.51100000000E-03 0.  1.
         22    1    1    0    0    0 -0.15530346804E+02  0.17679787405E+02  0.16243406615E+02  0.28593964626E+02  0.00000000000E+00 0.  1.
</event>
<event>
 5    1  0.1094625E-009  0.9118800E+02  0.7818608E-02  0.1130116E+00
         25   -1    0    0    0    0  0.00000000000E+00  0.00000000000E+00  0.99999998245E-14  0.12500000000E+03  0.12500000000E+03 0.  0.
        -11    1    3    3    0    0 -0.32629864601E+02  0.24173964541E+02  0.43314405879E+01  0.40839319330E+02  0.51100000000E-03 0.  1.
         23    2    1    0    0    0  0.21155421679E+02  0.19135784057E+02 -0.60272382360E+01  0.95844251019E+02  0.91302041350E+02 0.  0.
         11    1    3    3    0    0  0.53785286280E+02 -0.50381804835E+01 -0.10358678824E+02  0.55004931689E+02  0.51100000000E-03 0. -1.
         22    1    1    0    0    0 -0.21155421679E+02 -0.19135784057E+02  0.60272382360E+01  0.29155748981E+02  0.00000000000E+00 0. -1.
</event>
<event>
 5    1  0.1094625E-009  0.9118800E+02  0.7818608E-02  0.1130116E+00
         25   -1    0    0    0    0  0.00000000000E+00  0.00000000000E+00  0.99999998245E-14  0.12500000000E+03  0.12500000000E+03 0.  0.
        -11    1    3    3    0    0 -0.33275082625E+02  0.62434582066E+01 -0.51640419620E+01  0.34247324330E+02  0.51100000000E-03 0.  1.
         23    2    1    0    0    0  0.27579113586E+02 -0.29707490874E+01 -0.87902144702E+01  0.95901877607E+02  0.91380902829E+02 0.  0.
         11    1    3    3    0    0  0.60854196211E+02 -0.92142072940E+01 -0.36261725083E+01  0.61654553278E+02  0.51100000000E-03 0. -1.
         22    1    1    0    0    0 -0.27579113586E+02  0.29707490874E+01  0.87902144702E+01  0.29098122393E+02  0.00000000000E+00 0. -1.
</event>
<event>
 5    1  0.1094625E-009  0.9118800E+02  0.7818608E-02  0.1130116E+00
         25   -1    0    0    0    0  0.00000000000E+00  0.00000000000E+00  0.99999998245E-14  0.12500000000E+03  0.12500000000E+03 0.  0.
        -11    1    3    3    0    0  0.46451849520E+02 -0.14985065848E+02 -0.15008505478E+02  0.51064486282E+02  0.51100000000E-03 0. -1.
         23    2    1    0    0    0  0.33318591049E+01 -0.27313500886E+02 -0.67824116397E+01  0.96660456543E+02  0.92412737951E+02 0.  0.
         11    1    3    3    0    0 -0.43119990415E+02 -0.12328435038E+02  0.82260938381E+01  0.45595970260E+02  0.51100000000E-03 0.  1.
         22    1    1    0    0    0 -0.33318591049E+01  0.27313500886E+02  0.67824116397E+01  0.28339543457E+02  0.00000000000E+00 0. -1.
</event>
<event>
 5    1  0.1094625E-009  0.9118800E+02  0.7818608E-02  0.1130116E+00
         25   -1    0    0    0    0  0.00000000000E+00  0.00000000000E+00  0.99999998245E-14  0.12500000000E+03  0.12500000000E+03 0.  0.
        -11    1    3    3    0    0 -0.27825121034E+02  0.20453521578E+02  0.14891309575E+02  0.37607645587E+02  0.51100000000E-03 0.  1.
         23    2    1    0    0    0 -0.30849284855E+02 -0.58133637020E+01 -0.24589128645E+02  0.85123956802E+02  0.75206310909E+02 0.  0.
         11    1    3    3    0    0 -0.30241638214E+01 -0.26266885280E+02 -0.39480438220E+02  0.47516311215E+02  0.51100000000E-03 0. -1.
         22    1    1    0    0    0  0.30849284855E+02  0.58133637020E+01  0.24589128645E+02  0.39876043198E+02  0.00000000000E+00 0. -1.
</event>
<event>
 5    1  0.1094625E-009  0.9118800E+02  0.7818608E-02  0.1130116E+00
         25   -1    0    0    0    0  0.00000000000E+00  0.00000000000E+00  0.99999998245E-14  0.12500000000E+03  0.12500000000E+03 0.  0.
        -11    1    3    3    0    0  0.18542719211E+02  0.22054772402E+02  0.45097045988E+02  0.53516249668E+02  0.51100000000E-03 0.  1.
         23    2    1    0    0    0 -0.70552868537E+01 -0.65919112186E+01  0.27655373457E+02  0.95707508690E+02  0.91114637532E+02 0.  0.
         11    1    3    3    0    0 -0.25598006065E+02 -0.28646683620E+02 -0.17441672531E+02  0.42191259022E+02  0.51100000000E-03 0. -1.
         22    1    1    0    0    0  0.70552868537E+01  0.65919112186E+01 -0.27655373457E+02  0.29292491310E+02  0.00000000000E+00 0.  1.
</event>
<event>
 5    1  0.1094625E-009  0.9118800E+02  0.7818608E-02  0.1130116E+00
         25   -1    0    0    0    0  0.00000000000E+00  0.00000000000E+00  0.99999998245E-14  0.12500000000E+03  0.12500000000E+03 0.  0.
        -11    1    3    3    0    0 -0.23848070992E+02 -0.12293800725E+02  0.14399746320E+02  0.30450299188E+02  0.51100000000E-03 0. -1.
         23    2    1    0    0    0  0.32880579199E+02  0.68277279186E+01  0.52495063395E+01  0.91010182792E+02  0.84424793148E+02 0.  0.
         11    1    3    3    0    0  0.56728650191E+02  0.19121528643E+02 -0.91502399806E+01  0.60559883604E+02  0.51100000000E-03 0.  1.
         22    1    1    0    0    0 -0.32880579199E+02 -0.68277279186E+01 -0.52495063395E+01  0.33989817208E+02  0.00000000000E+00 0.  1.
</event>
<event>
 5    1  0.1094625E-009  0.9118800E+02  0.7818608E-02  0.1130116E+00
         25   -1    0    0    0    0  0.00000000000E+00  0.00000000000E+00  0.99999998245E-14  0.12500000000E+03  0.12500000000E+03 0.  0.
        -11    1    3    3    0    0 -0.87934670032E+01  0.40066496261E+02 -0.13181055840E+02  0.43085837788E+02  0.51100000000E-03 0. -1.
         23    2    1    0    0    0  0.26585406426E+02 -0.10419947279E+01 -0.39268142830E+01  0.98105958685E+02  0.94347706232E+02 0.  0.
         11    1    3    3    0    0  0.35378873429E+02 -0.41108490988E+02  0.92542415574E+01  0.55020120897E+02  0.51100000000E-03 0.  1.
         22    1    1    0    0    0 -0.26585406426E+02  0.10419947279E+01  0.39268142830E+01  0.26894041315E+02  0.00000000000E+00 0.  1.
</event>
<event>
 5    1  0.1094625E-009  0.9118800E+02  0.7818608E-02  0.1130116E+00
         25   -1    0    0    0    0  0.00000000000E+00  0.00000000000E+00  0.99999998245E-14  0.12500000000E+03  0.12500000000E+03 0.  0.
        -11    1    3    3    0    0  0.26032515899E+02  0.95794131293E+01  0.14430981475E+02  0.31268358872E+02  0.51100000000E-03 0. -1.
         23    2    1    0    0    0 -0.11353686828E+02 -0.18343534993E+02 -0.24727503859E+02  0.92184745502E+02  0.86146307963E+02 0.  0.
         11    1    3    3    0    0 -0.37386202727E+02 -0.27922948122E+02 -0.39158485335E+02  0.60916386631E+02  0.51100000000E-03 0.  1.
         22    1    1    0    0    0  0.11353686828E+02  0.18343534993E+02  0.24727503859E+02  0.32815254498E+02  0.00000000000E+00 0.  1.
</event>
<event>
 5    1  0.1094625E-009  0.9118800E+02  0.7818608E-02  0.1130116E+00
         25   -1    0    0    0    0  0.00000000000E+00  0.00000000000E+00  0.99999998245E-14  0.12500000000E+03  0.12500000000E+03 0.  0.
        -11    1    3    3    0    0  0.48361619004E+02 -0.27490944671E+02 -0.12029787799E+02  0.56914971899E+02  0.51100000000E-03 0.  1.
         23    2    1    0    0    0  0.19940572615E+02 -0.84345823055E+00 -0.20070051727E+02  0.96695497985E+02  0.92460123817E+02 0.  0.
         11    1    3    3    0    0 -0.28421046389E+02  0.26647486440E+02 -0.80402639274E+01  0.39780526086E+02  0.51100000000E-03 0. -1.
         22    1    1    0    0    0 -0.19940572615E+02  0.84345823055E+00  0.20070051727E+02  0.28304502015E+02  0.00000000000E+00 0.  1.
</event>
<event>
 5    1  0.1094625E-009  0.9118800E+02  0.7818608E-02  0.1130116E+00
         25   -1    0    0    0    0  0.00000000000E+00  0.00000000000E+00  0.99999998245E-14  0.12500000000E+03  0.12500000000E+03 0.  0.
        -11    1    3    3    0    0 -0.47359837311E+02 -0.49427801904E+01  0.34729399153E+02  0.58936545809E+02  0.51100000000E-03 0.  1.
         23    2    1    0    0    0 -0.15913226393E+02  0.98188905546E+01  0.22452110091E+02  0.95781193839E+02  0.91215670033E+02 0.  0.
         11    1    3    3    0    0  0.31446610919E+02  0.14761670745E+02 -0.12277289061E+02  0.36844648029E+02  0.51100000000E-03 0. -1.
         22    1    1    0    0    0  0.15913226393E+02 -0.98188905546E+01 -0.22452110091E+02  0.29218806161E+02  0.00000000000E+00 0.  1.
</event>
<event>
 5    1  0.1094625E-009  0.9118800E+02  0.7818608E-02  0.1130116E+00
         25   -1    0    0    0    0  0.00000000000E+00  0.00000000000E+00  0.99999998245E-14  0.12500000000E+03  0.12500000000E+03 0.  0.
        -11    1    3    3    0    0 -0.32822239352E+02  0.17250836836E+02  0.36598735691E+02  0.52099503089E+02  0.51100000000E-03 0.  1.
         23    2    1    0    0    0 -0.56375220550E+01 -0.16669185242E+02  0.19294458742E+02  0.98886411015E+02  0.95376112071E+02 0.  0.
         11    1    3    3    0    0  0.27184717297E+02 -0.33920022078E+02 -0.17304276949E+02  0.46786907926E+02  0.51100000000E-03 0. -1.
         22    1    1    0    0    0  0.56375220550E+01  0.16669185242E+02 -0.19294458742E+02  0.26113588985E+02  0.00000000000E+00 0.  1.
</event>
<event>
 5    1  0.1094625E-009  0.9118800E+02  0.7818608E-02  0.1130116E+00
         25   -1    0    0    0    0  0.00000000000E+00  0.00000000000E+00  0.99999998245E-14  0.12500000000E+03  0.12500000000E+03 0.  0.
        -11    1    3    3    0    0  0.53103679215E+01 -0.32794253499E+02  0.10397262349E+02  0.34810431405E+02  0.51100000000E-03 0. -1.
         23    2    1    0    0    0 -0.22028766742E+01  0.27716270848E+02  0.89093197976E+01  0.95803761978E+02  0.91246591687E+02 0.  0.
         11    1    3    3    0    0 -0.75132445957E+01  0.60510524347E+02 -0.14879425515E+01  0.60993330573E+02  0.51100000000E-03 0.  1.
         22    1    1    0    0    0  0.22028766742E+01 -0.27716270848E+02 -0.89093197976E+01  0.29196238022E+02  0.00000000000E+00 0.  1.
</event>
<event>
 5    1  0.1094625E-009  0.9118800E+02  0.7818608E-02  0.1130116E+00
         25   -1    0    0    0    0  0.00000000000E+00  0.00000000000E+00  0.99999998245E-14  0.12500000000E+03  0.12500000000E+03 0.  0.
        -11    1    3    3    0    0 -0.25416718045E+02  0.12112309258E+02  0.25034994586E+02  0.37675835040E+02  0.51100000000E-03 0. -1.
         23    2    1    0    0    0 -0.54965523975E+01 -0.67068306947E+01 -0.27084844956E+02  0.96560898529E+02  0.92277974794E+02 0.  0.
         11    1    3    3    0    0  0.19920165647E+02 -0.18819139953E+02 -0.52119839542E+02  0.58885063489E+02  0.51100000000E-03 0.  1.
         22    1    1    0    0    0  0.54965523975E+01  0.67068306947E+01  0.27084844956E+02  0.28439101471E+02  0.00000000000E+00 0.  1.
</event>
<event>
 5    1  0.1094625E-009  0.9118800E+02  0.7818608E-02  0.1130116E+00
         25   -1    0    0    0    0  0.00000000000E+00  0.00000000000E+00  0.99999998245E-14  0.12500000000E+03  0.12500000000E+03 0.  0.
        -11    1    3    3    0    0 -0.26439041066E+02  0.25999225303E+02  0.95809160443E+01  0.38298519049E+02  0.51100000000E-03 0. -1.
         23    2    1    0    0    0 -0.44187205738E+00 -0.55308903182E+01 -0.29583243599E+02  0.94900925255E+02  0.90001285068E+02 0.  0.
         11    1    3    3    0    0  0.25997169008E+02 -0.31530115621E+02 -0.39164159644E+02  0.56602406207E+02  0.51100000000E-03 0.  1.
         22    1    1    0    0    0  0.44187205738E+00  0.55308903182E+01  0.29583243599E+02  0.30099074745E+02  0.00000000000E+00 0.  1.
</event>
<event>
 5    1  0.1094625E-009  0.9118800E+02  0.7818608E-02  0.1130116E+00
         25   -1    0    0    0    0  0.00000000000E+00  0.00000000000E+00  0.99999998245E-14  0.12500000000E+03  0.12500000000E+03 0.  0.
        -11    1    3    3    0    0  0.37099644565E+01  0.35789943524E+02 -0.38830754924E+02  0.52938751609E+02  0.51100000000E-03 0. -1.
         23    2    1    0    0    0  0.71282233017E+01 -0.68514345028E+01 -0.25349030207E+02  0.97791048263E+02  0.93929559063E+02 0.  0.
         11    1    3    3    0    0  0.34182588452E+01 -0.42641378027E+02  0.13481724717E+02  0.44852296654E+02  0.51100000000E-03 0.  1.
         22    1    1    0    0    0 -0.71282233017E+01  0.68514345028E+01  0.25349030207E+02  0.27208951737E+02  0.00000000000E+00 0.  1.
</event>
<event>
 5    1  0.1094625E-009  0.9118800E+02  0.7818608E-02  0.1130116E+00
         25   -1    0    0    0    0  0.00000000000E+00  0.00000000000E+00  0.99999998245E-14  0.12500000000E+03  0.12500000000E+03 0.  0.
        -11    1    3    3    0    0 -0.29177976116E+02  0.50811607320E+02 -0.20470121493E+02  0.62066090604E+02  0.51100000000E-03 0.  1.
         23    2    1    0    0    0 -0.99235379098E+01  0.24805169681E+02 -0.54834758863E+01  0.97726541192E+02  0.93843674789E+02 0.  0.
         11    1    3    3    0    0  0.19254438206E+02 -0.26006437639E+02  0.14986645607E+02  0.35660450587E+02  0.51100000000E-03 0. -1.
         22    1    1    0    0    0  0.99235379098E+01 -0.24805169681E+02  0.54834758863E+01  0.27273458808E+02  0.00000000000E+00 0.  1.
</event>
<event>
 5    1  0.1094625E-009  0.9118800E+02  0.7818608E-02  0.1130116E+00
         25   -1    0    0    0    0  0.00000000000E+00  0.00000000000E+00  0.99999998245E-14  0.12500000000E+03  0.12500000000E+03 0.  0.
        -11    1    3    3    0    0  0.39912592449E+02  0.65635367665E+00  0.38974919891E+02  0.55789696333E+02  0.51100000000E-03 0.  1.
         23    2    1    0    0    0  0.28952175404E+02 -0.25049260608E+01  0.48372284961E+00  0.95935638610E+02  0.91427072864E+02 0.  0.
         11    1    3    3    0    0 -0.10960417045E+02 -0.31612797374E+01 -0.38491197041E+02  0.40145942277E+02  0.51100000000E-03 0. -1.
         22    1    1    0    0    0 -0.28952175404E+02  0.25049260608E+01 -0.48372284961E+00  0.29064361390E+02  0.00000000000E+00 0.  1.
</event>
<event>
 5    1  0.1094625E-009  0.9118800E+02  0.7818608E-02  0.1130116E+00
         25   -1    0    0    0    0  0.00000000000E+00  0.00000000000E+00  0.99999998245E-14  0.12500000000E+03  0.12500000000E+03 0.  0.
        -11    1    3    3    0    0  0.97267499929E+01 -0.47572001458E+02 -0.38575712654E+02  0.62014438602E+02  0.51100000000E-03 0. -1.
         23    2    1    0    0    0  0.38281055960E+00 -0.22309181177E+02 -0.22133085553E+02  0.93571993623E+02  0.88136249102E+02 0.  0.
         11    1    3    3    0    0 -0.93439394333E+01  0.25262820281E+02  0.16442627101E+02  0.31557555021E+02  0.51100000000E-03 0.  1.
         22    1    1    0    0    0 -0.38281055960E+00  0.22309181177E+02  0.22133085553E+02  0.31428006377E+02  0.00000000000E+00 0. -1.
</event>
<event>
 5    1  0.1094625E-009  0.9118800E+02  0.7818608E-02  0.1130116E+00
         25   -1    0    0    0    0  0.00000000000E+00  0.00000000000E+00  0.99999998245E-14  0.12500000000E+03  0.12500000000E+03 0.  0.
        -11    1    3    3    0    0  0.23237076664E+02  0.22615038539E+02 -0.49138638514E+02  0.58872807775E+02  0.51100000000E-03 0. -1.
         23    2    1    0    0    0  0.22114852017E+02  0.12516571943E+02 -0.12913759421E+02  0.96495676901E+02  0.92189583063E+02 0.  0.
         11    1    3    3    0    0 -0.11222246476E+01 -0.10098466597E+02  0.36224879093E+02  0.37622869127E+02  0.51100000000E-03 0.  1.
         22    1    1    0    0    0 -0.22114852017E+02 -0.12516571943E+02  0.12913759421E+02  0.28504323099E+02  0.00000000000E+00 0. -1.
</event>
<event>
 5    1  0.1094625E-009  0.9118800E+02  0.7818608E-02  0.1130116E+00
         25   -1    0    0    0    0  0.00000000000E+00  0.00000000000E+00  0.99999998245E-14  0.12500000000E+03  0.12500000000E+03 0.  0.
        -11    1    3    3    0    0 -0.34200208124E+02  0.13132185444E+02 -0.25436789889E+01  0.36723001420E+02  0.51100000000E-03 0.  1.
         23    2    1    0    0    0  0.73501907146E+01 -0.13026383892E+01  0.31678354099E+02  0.92454028072E+02  0.86536160176E+02 0.  0.
         11    1    3    3    0    0  0.41550398839E+02 -0.14434823833E+02  0.34222033088E+02  0.55731026652E+02  0.51100000000E-03 0. -1.
         22    1    1    0    0    0 -0.73501907146E+01  0.13026383892E+01 -0.31678354099E+02  0.32545971928E+02  0.00000000000E+00 0. -1.
</event>
<event>
 5    1  0.1094625E-009  0.9118800E+02  0.7818608E-02  0.1130116E+00
         25   -1    0    0    0    0  0.00000000000E+00  0.00000000000E+00  0.99999998245E-14  0.12500000000E+03  0.12500000000E+03 0.  0.
        -11    1    3    3    0    0  0.36980262350E+02  0.32042810915E+02 -0.22977258862E+02  0.54057709533E+02  0.51100000000E-03 0.  1.
         23    2    1    0    0    0  0.42417107236E+01  0.62965073969E+01 -0.27981538114E+02  0.96006818206E+02  0.91524338575E+02 0.  0.
         11    1    3    3    0    0 -0.32738551626E+02 -0.25746303518E+02 -0.50042792521E+01  0.41949108674E+02  0.51100000000E-03 0. -1.
         22    1    1    0    0    0 -0.42417107236E+01 -0.62965073969E+01  0.27981538114E+02  0.28993181794E+02  0.00000000000E+00 0. -1.
</event>
<event>
 5    1  0.1094625E-009  0.9118800E+02  0.7818608E-02  0.1130116E+00
         25   -1    0    0    0    0  0.00000000000E+00  0.00000000000E+00  0.99999998245E-14  0.12500000000E+03  0.12500000000E+03 0.  0.
        -11    1    3    3    0    0  0.22011874948E+01  0.37498710441E+02  0.38360438750E+02  0.53689121546E+02  0.51100000000E-03 0.  1.
         23    2    1    0    0    0 -0.14086441533E+02  0.25115900185E+02  0.11178420896E+01  0.96181848635E+02  0.91763076228E+02 0.  0.
         11    1    3    3    0    0 -0.16287629028E+02 -0.12382810256E+02 -0.37242596660E+02  0.42492727089E+02  0.51100000000E-03 0. -1.
         22    1    1    0    0    0  0.14086441533E+02 -0.25115900185E+02 -0.11178420896E+01  0.28818151365E+02  0.00000000000E+00 0.  1.
</event>
<event>
 5    1  0.1094625E-009  0.9118800E+02  0.7818608E-02  0.1130116E+00
         25   -1    0    0    0    0  0.00000000000E+00  0.00000000000E+00  0.99999998245E-14  0.12500000000E+03  0.12500000000E+03 0.  0.
        -11    1    3    3    0    0 -0.20991377141E+02 -0.15500530895E+02  0.22012208585E+02  0.34138566159E+02  0.51100000000E-03 0.  1.
         23    2    1    0    0    0  0.25121438184E+02  0.49895719477E+00 -0.15305087807E+02  0.95579236457E+02  0.90938490829E+02 0.  0.
         11    1    3    3    0    0  0.46112815325E+02  0.15999488090E+02 -0.37317296392E+02  0.61440670298E+02  0.51100000000E-03 0. -1.
         22    1    1    0    0    0 -0.25121438184E+02 -0.49895719477E+00  0.15305087807E+02  0.29420763543E+02  0.00000000000E+00 0. -1.
</event>
<event>
 5    1  0.1094625E-009  0.9118800E+02  0.7818608E-02  0.1130116E+00
         25   -1    0    0    0    0  0.00000000000E+00  0.00000000000E+00  0.99999998245E-14  0.12500000000E+03  0.12500000000E+03 0.  0.
        -11    1    3    3    0    0 -0.20603963091E+01  0.29436402474E+02  0.48882457167E+02  0.57098525747E+02  0.51100000000E-03 0. -1.
         23    2    1    0    0    0 -0.20818826548E+01 -0.50921300559E+01  0.25771855675E+02  0.98647532016E+02  0.95062521553E+02 0.  0.
         11    1    3    3    0    0 -0.21486345745E-01 -0.34528532530E+02 -0.23110601491E+02  0.41549006269E+02  0.51100000000E-03 0.  1.
         22    1    1    0    0    0  0.20818826548E+01  0.50921300559E+01 -0.25771855675E+02  0.26352467984E+02  0.00000000000E+00 0. -1.
</event>
<event>
 5    1  0.1094625E-009  0.9118800E+02  0.7818608E-02  0.1130116E+00
         25   -1    0    0    0    0  0.00000000000E+00  0.00000000000E+00  0.99999998245E-14  0.12500000000E+03  0.12500000000E+03 0.  0.
        -11    1    3    3    0    0  0.19733481660E+02  0.17222980089E+01 -0.32697592047E+02  0.38229689180E+02  0.51100000000E-03 0.  1.
         23    2    1    0    0    0 -0.15410855884E+02  0.23007022106E+02  0.81170288482E+01  0.96143394125E+02  0.91710678393E+02 0.  0.
         11    1    3    3    0    0 -0.35144337545E+02  0.21284724097E+02  0.40814620895E+02  0.57913704945E+02  0.51100000000E-03 0. -1.
         22    1    1    0    0    0  0.15410855884E+02 -0.23007022106E+02 -0.81170288482E+01  0.28856605875E+02  0.00000000000E+00 0. -1.
</event>
<event>
 5    1  0.1094625E-009  0.9118800E+02  0.7818608E-02  0.1130116E+00
         25   -1    0    0    0    0  0.00000000000E+00  0.00000000000E+00  0.99999998245E-14  0.12500000000E+03  0.12500000000E+03 0.  0.
        -11    1    3    3    0    0 -0.12316982568E+02 -0.14306942778E+02  0.35967467659E+02  0.40620873960E+02  0.51100000000E-03 0.  1.
         23    2    1    0    0    0  0.24427300973E+02 -0.94630768818E+01 -0.75072370044E+01  0.97749285067E+02  0.93873964798E+02 0.  0.
         11    1    3    3    0    0  0.36744283541E+02  0.48438658965E+01 -0.43474704664E+02  0.57128411107E+02  0.51100000000E-03 0. -1.
         22    1    1    0    0    0 -0.24427300973E+02  0.94630768818E+01  0.75072370044E+01  0.27250714933E+02  0.00000000000E+00 0. -1.
</event>
<event>
 5    1  0.1094625E-009  0.9118800E+02  0.7818608E-02  0.1130116E+00
         25   -1    0    0    0    0  0.00000000000E+00  0.00000000000E+00  0.99999998245E-14  0.12500000000E+03  0.12500000000E+03 0.  0.
        -11    1    3    3    0    0  0.49708343969E+02 -0.17603569865E+02  0.18737186091E+02  0.55963267194E+02  0.51100000000E-03 0.  1.
         23    2    1    0    0    0  0.19654928422E+02  0.71812497546E+01  0.21476574243E+02  0.95014506832E+02  0.90158896999E+02 0.  0.
         11    1    3    3    0    0 -0.30053415547E+02  0.24784819620E+02  0.27393881521E+01  0.39051239639E+02  0.51100000000E-03 0. -1.
         22    1    1    0    0    0 -0.19654928422E+02 -0.71812497546E+01 -0.21476574243E+02  0.29985493168E+02  0.00000000000E+00 0.  1.
</event>
<event>
 5    1  0.1094625E-009  0.9118800E+02  0.7818608E-02  0.1130116E+00
         25   -1    0    0    0    0  0.00000000000E+00  0.00000000000E+00  0.99999998245E-14  0.12500000000E+03  0.12500000000E+03 0.  0.
        -11    1    3    3    0    0  0.40552401848E+01 -0.16337728257E+02  0.59135533127E+02  0.61484775482E+02  0.51100000000E-03 0.  1.
         23    2    1    0    0    0  0.63565061793E+01 -0.13364836632E+02  0.24119547865E+02  0.96702003282E+02  0.92468918132E+02 0.  0.
         11    1    3    3    0    0  0.23012659945E+01  0.29728916246E+01 -0.35015985262E+02  0.35217227800E+02  0.51100000000E-03 0. -1.
         22    1    1    0    0    0 -0.63565061793E+01  0.13364836632E+02 -0.24119547865E+02  0.28297996718E+02  0.00000000000E+00 0.  1.
</event>
<event>
 5    1  0.1094625E-009  0.9118800E+02  0.7818608E-02  0.1130116E+00
         25   -1    0    0    0    0  0.00000000000E+00  0.00000000000E+00  0.99999998245E-14  0.12500000000E+03  0.12500000000E+03 0.  0.
        -11    1    3    3    0    0 -0.33679019394E+02  0.97921544035E+01 -0.11258876883E-01  0.35073676201E+02  0.51100000000E-03 0. -1.
         23    2    1    0    0    0  0.23884728879E+02 -0.41418869236E+00 -0.16679313322E+02  0.95864946906E+02  0.91330371326E+02 0.  0.
         11    1    3    3    0    0  0.57563748274E+02 -0.10206343096E+02 -0.16668054445E+02  0.60791270705E+02  0.51100000000E-03 0.  1.
         22    1    1    0    0    0 -0.23884728879E+02  0.41418869236E+00  0.16679313322E+02  0.29135053094E+02  0.00000000000E+00 0.  1.
</event>
<event>
 5    1  0.1094625E-009  0.9118800E+02  0.7818608E-02  0.1130116E+00
         25   -1    0    0    0    0  0.00000000000E+00  0.00000000000E+00  0.99999998245E-14  0.12500000000E+03  0.12500000000E+03 0.  0.
        -11    1    3    3    0    0  0.42282223332E+02  0.17819605085E+02  0.50807902251E+01  0.46164262854E+02  0.51100000000E-03 0.  1.
         23    2    1    0    0    0  0.18730947016E+02 -0.23763561508E+02 -0.28527807298E+01  0.94607672192E+02  0.89593069197E+02 0.  0.
         11    1    3    3    0    0 -0.23551276316E+02 -0.41583166593E+02 -0.79335709549E+01  0.48443409339E+02  0.51100000000E-03 0. -1.
         22    1    1    0    0    0 -0.18730947016E+02  0.23763561508E+02  0.28527807298E+01  0.30392327808E+02  0.00000000000E+00 0. -1.
</event>
<event>
 5    1  0.1094625E-009  0.9118800E+02  0.7818608E-02  0.1130116E+00
         25   -1    0    0    0    0  0.00000000000E+00  0.00000000000E+00  0.99999998245E-14  0.12500000000E+03  0.12500000000E+03 0.  0.
        -11    1    3    3    0    0  0.21826480908E+02 -0.52361995780E+02  0.23300692854E+02  0.61327776404E+02  0.51100000000E-03 0. -1.
         23    2    1    0    0    0  0.17150913468E+02 -0.24613173850E+02  0.58616659695E+01  0.94433330445E+02  0.89349496983E+02 0.  0.
         11    1    3    3    0    0 -0.46755674399E+01  0.27748821930E+02 -0.17439026885E+02  0.33105554041E+02  0.51100000000E-03 0.  1.
         22    1    1    0    0    0 -0.17150913468E+02  0.24613173850E+02 -0.58616659695E+01  0.30566669555E+02  0.00000000000E+00 0. -1.
</event>
<event>
 5    1  0.1094625E-009  0.9118800E+02  0.7818608E-02  0.1130116E+00
         25   -1    0    0    0    0  0.00000000000E+00  0.00000000000E+00  0.99999998245E-14  0.12500000000E+03  0.12500000000E+03 0.  0.
        -11    1    3    3    0    0 -0.25558021194E+02 -0.10896939610E+02  0.20208050872E+02  0.34355800973E+02  0.51100000000E-03 0. -1.
         23    2    1    0    0    0  0.26012551610E+02  0.12678492851E+02 -0.35689006874E+01  0.95842941261E+02  0.91300248166E+02 0.  0.
         11    1    3    3    0    0  0.51570572804E+02  0.23575432460E+02 -0.23776951559E+02  0.61487140287E+02  0.51100000000E-03 0.  1.
         22    1    1    0    0    0 -0.26012551610E+02 -0.12678492851E+02  0.35689006874E+01  0.29157058739E+02  0.00000000000E+00 0.  1.
</event>
<event>
 5    1  0.1094625E-009  0.9118800E+02  0.7818608E-02  0.1130116E+00
         25   -1    0    0    0    0  0.00000000000E+00  0.00000000000E+00  0.99999998245E-14  0.12500000000E+03  0.12500000000E+03 0.  0.
        -11    1    3    3    0    0  0.35058537633E+02  0.12955126573E+02 -0.25452399472E+02  0.45219033654E+02  0.51100000000E-03 0.  1.
         23    2    1    0    0    0 -0.82972881823E+00  0.31372492951E+02  0.12451977890E+01  0.93591843712E+02  0.88164397168E+02 0.  0.
         11    1    3    3    0    0 -0.35888266451E+02  0.18417366378E+02  0.26697597261E+02  0.48372810058E+02  0.51100000000E-03 0. -1.
         22    1    1    0    0    0  0.82972881823E+00 -0.31372492951E+02 -0.12451977890E+01  0.31408156288E+02  0.00000000000E+00 0. -1.
</event>
<event>
 5    1  0.1094625E-009  0.9118800E+02  0.7818608E-02  0.1130116E+00
         25   -1    0    0    0    0  0.00000000000E+00  0.00000000000E+00  0.99999998245E-14  0.12500000000E+03  0.12500000000E+03 0.  0.
        -11    1    3    3    0    0 -0.41054842378E+02 -0.18307375202E+02  0.95747229751E+01  0.45960150019E+02  0.51100000000E-03 0.  1.
         23    2    1    0    0    0 -0.17050361492E+02  0.20377141899E+02 -0.11401928166E+02  0.96087257050E+02  0.91634132628E+02 0.  0.
         11    1    3    3    0    0  0.24004480886E+02  0.38684517101E+02 -0.20976651142E+02  0.50127107031E+02  0.51100000000E-03 0. -1.
         22    1    1    0    0    0  0.17050361492E+02 -0.20377141899E+02  0.11401928166E+02  0.28912742950E+02  0.00000000000E+00 0. -1.
</event>
<event>
 5    1  0.1094625E-009  0.9118800E+02  0.7818608E-02  0.1130116E+00
         25   -1    0    0    0    0  0.00000000000E+00  0.00000000000E+00  0.99999998245E-14  0.12500000000E+03  0.12500000000E+03 0.  0.
        -11    1    3    3    0    0 -0.22559644021E+02  0.74370028205E+01  0.27599231351E+02  0.36413790255E+02  0.51100000000E-03 0. -1.
         23    2    1    0    0    0  0.62008658519E+01  0.13549072167E+02 -0.24550586232E+02  0.96281375760E+02  0.91898552436E+02 0.  0.
         11    1    3    3    0    0  0.28760509873E+02  0.61120693467E+01 -0.52149817584E+02  0.59867585504E+02  0.51100000000E-03 0.  1.
         22    1    1    0    0    0 -0.62008658519E+01 -0.13549072167E+02  0.24550586232E+02  0.28718624240E+02  0.00000000000E+00 0.  1.
</event>
<event>
 5    1  0.1094625E-009  0.9118800E+02  0.7818608E-02  0.1130116E+00
         25   -1    0    0    0    0  0.00000000000E+00  0.00000000000E+00  0.99999998245E-14  0.12500000000E+03  0.12500000000E+03 0.  0.
        -11    1    3    3    0    0  0.23638397867E+02 -0.26455568963E+01  0.12466220222E+02  0.26854784897E+02  0.51100000000E-03 0. -1.
         23    2    1    0    0    0 -0.36486910515E+02 -0.35859161566E+01 -0.33887034680E+00  0.88335735836E+02  0.80367493173E+02 0.  0.
         11    1    3    3    0    0 -0.60125308382E+02 -0.94035926031E+00 -0.12805090569E+02  0.61480950938E+02  0.51100000000E-03 0.  1.
         22    1    1    0    0    0  0.36486910515E+02  0.35859161566E+01  0.33887034680E+00  0.36664264164E+02  0.00000000000E+00 0.  1.
</event>
<event>
 5    1  0.1094625E-009  0.9118800E+02  0.7818608E-02  0.1130116E+00
         25   -1    0    0    0    0  0.00000000000E+00  0.00000000000E+00  0.99999998245E-14  0.12500000000E+03  0.12500000000E+03 0.  0.
        -11    1    3    3    0    0 -0.31622163840E+02  0.18253851186E+02  0.26428537244E+02  0.45073627657E+02  0.51100000000E-03 0. -1.
         23    2    1    0    0    0  0.73152092239E+01 -0.12950361077E+02  0.26084494817E+02  0.94972928750E+02  0.90101232996E+02 0.  0.
         11    1    3    3    0    0  0.38937373064E+02 -0.31204212263E+02 -0.34404242717E+00  0.49899301093E+02  0.51100000000E-03 0.  1.
         22    1    1    0    0    0 -0.73152092239E+01  0.12950361077E+02 -0.26084494817E+02  0.30027071250E+02  0.00000000000E+00 0.  1.
</event>
<event>
 5    1  0.1094625E-009  0.9118800E+02  0.7818608E-02  0.1130116E+00
         25   -1    0    0    0    0  0.00000000000E+00  0.00000000000E+00  0.99999998245E-14  0.12500000000E+03  0.12500000000E+03 0.  0.
        -11    1    3    3    0    0 -0.19562219354E+02 -0.54943212925E+01  0.47880873578E+02  0.52013902443E+02  0.51100000000E-03 0. -1.
         23    2    1    0    0    0 -0.83514340370E+01  0.22778047739E+02  0.16866727851E+02  0.95452201137E+02  0.90763705765E+02 0.  0.
         11    1    3    3    0    0  0.11210785317E+02  0.28272369031E+02 -0.31014145727E+02  0.43438298694E+02  0.51100000000E-03 0.  1.
         22    1    1    0    0    0  0.83514340370E+01 -0.22778047739E+02 -0.16866727851E+02  0.29547798863E+02  0.00000000000E+00 0.  1.
</event>
<event>
 5    1  0.1094625E-009  0.9118800E+02  0.7818608E-02  0.1130116E+00
         25   -1    0    0    0    0  0.00000000000E+00  0.00000000000E+00  0.99999998245E-14  0.12500000000E+03  0.12500000000E+03 0.  0.
        -11    1    3    3    0    0 -0.54566859460E+02 -0.15525534123E+02 -0.25706286928E+02  0.62284809938E+02  0.51100000000E-03 0. -1.
         23    2    1    0    0    0 -0.26482400477E+02 -0.44008141125E+01 -0.14377314557E+02  0.94546890574E+02  0.89508226680E+02 0.  0.
         11    1    3    3    0    0  0.28084458984E+02  0.11124720010E+02  0.11328972371E+02  0.32262080636E+02  0.51100000000E-03 0.  1.
         22    1    1    0    0    0  0.26482400477E+02  0.44008141125E+01  0.14377314557E+02  0.30453109426E+02  0.00000000000E+00 0. -1.
</event>
<event>
 5    1  0.1094625E-009  0.9118800E+02  0.7818608E-02  0.1130116E+00
         25   -1    0    0    0    0  0.00000000000E+00  0.00000000000E+00  0.99999998245E-14  0.12500000000E+03  0.12500000000E+03 0.  0.
        -11    1    3    3    0    0 -0.37424990281E+02 -0.44165194261E+02 -0.65383945274E+01  0.58257573627E+02  0.51100000000E-03 0. -1.
         23    2    1    0    0    0 -0.18486013605E+02 -0.20549751563E+02  0.13172344452E+02  0.94380796113E+02  0.89275971169E+02 0.  0.
         11    1    3    3    0    0  0.18938976676E+02  0.23615442698E+02  0.19710738980E+02  0.36123222486E+02  0.51100000000E-03 0.  1.
         22    1    1    0    0    0  0.18486013605E+02  0.20549751563E+02 -0.13172344452E+02  0.30619203887E+02  0.00000000000E+00 0. -1.
</event>
<event>
 5    1  0.1094625E-009  0.9118800E+02  0.7818608E-02  0.1130116E+00
         25   -1    0    0    0    0  0.00000000000E+00  0.00000000000E+00  0.99999998245E-14  0.12500000000E+03  0.12500000000E+03 0.  0.
        -11    1    3    3    0    0 -0.15862043635E-01 -0.35842773936E+02 -0.82444180693E+01  0.36778731960E+02  0.51100000000E-03 0.  1.
         23    2    1    0    0    0 -0.22623942940E+02  0.15458458767E+02  0.10147571505E+02  0.95780486845E+02  0.91214701179E+02 0.  0.
         11    1    3    3    0    0 -0.22608080896E+02  0.51301232703E+02  0.18391989575E+02  0.59001754884E+02  0.51100000000E-03 0. -1.
         22    1    1    0    0    0  0.22623942940E+02 -0.15458458767E+02 -0.10147571505E+02  0.29219513155E+02  0.00000000000E+00 0. -1.
</event>
<event>
 5    1  0.1094625E-009  0.9118800E+02  0.7818608E-02  0.1130116E+00
         25   -1    0    0    0    0  0.00000000000E+00  0.00000000000E+00  0.99999998245E-14  0.12500000000E+03  0.12500000000E+03 0.  0.
        -11    1    3    3    0    0 -0.19624645242E+02 -0.31717686680E+02  0.69983901900E+01  0.37948857884E+02  0.51100000000E-03 0. -1.
         23    2    1    0    0    0  0.72845156131E+01  0.18089961884E+02  0.21076949529E+02  0.96285044139E+02  0.91903542014E+02 0.  0.
         11    1    3    3    0    0  0.26909160855E+02  0.49807648564E+02  0.14078559339E+02  0.58336186254E+02  0.51100000000E-03 0.  1.
         22    1    1    0    0    0 -0.72845156131E+01 -0.18089961884E+02 -0.21076949529E+02  0.28714955861E+02  0.00000000000E+00 0.  1.
</event>
<event>
 5    1  0.1094625E-009  0.9118800E+02  0.7818608E-02  0.1130116E+00
         25   -1    0    0    0    0  0.00000000000E+00  0.00000000000E+00  0.99999998245E-14  0.12500000000E+03  0.12500000000E+03 0.  0.
        -11    1    3    3    0    0 -0.26665912763E+02 -0.83543412657E+00  0.21369141516E+02  0.34181999109E+02  0.51100000000E-03 0.  1.
         23    2    1    0    0    0  0.22503371622E+02  0.13490801847E+02 -0.12858968190E+02  0.95780887560E+02  0.91215250315E+02 0.  0.
         11    1    3    3    0    0  0.49169284385E+02  0.14326235973E+02 -0.34228109707E+02  0.61598888452E+02  0.51100000000E-03 0. -1.
         22    1    1    0    0    0 -0.22503371622E+02 -0.13490801847E+02  0.12858968190E+02  0.29219112440E+02  0.00000000000E+00 0. -1.
</event>
<event>
 5    1  0.1094625E-009  0.9118800E+02  0.7818608E-02  0.1130116E+00
         25   -1    0    0    0    0  0.00000000000E+00  0.00000000000E+00  0.99999998245E-14  0.12500000000E+03  0.12500000000E+03 0.  0.
        -11    1    3    3    0    0 -0.42353823173E+02 -0.25191114388E+02  0.26465315576E+02  0.55936137785E+02  0.51100000000E-03 0. -1.
         23    2    1    0    0    0 -0.12693050119E+02 -0.19539668491E+02  0.30735319725E+02  0.86430944467E+02  0.77348148761E+02 0.  0.
         11    1    3    3    0    0  0.29660773054E+02  0.56514458968E+01  0.42700041490E+01  0.30494806682E+02  0.51100000000E-03 0.  1.
         22    1    1    0    0    0  0.12693050119E+02  0.19539668491E+02 -0.30735319725E+02  0.38569055533E+02  0.00000000000E+00 0. -1.
</event>
<event>
 5    1  0.1094625E-009  0.9118800E+02  0.7818608E-02  0.1130116E+00
         25   -1    0    0    0    0  0.00000000000E+00  0.00000000000E+00  0.99999998245E-14  0.12500000000E+03  0.12500000000E+03 0.  0.
        -11    1    3    3    0    0  0.55619189611E+02 -0.11698764992E+02 -0.21979429040E+02  0.60938088717E+02  0.51100000000E-03 0. -1.
         23    2    1    0    0    0  0.26357177654E+02  0.39796783800E+01 -0.13080019110E+02  0.95307819989E+02  0.90564645404E+02 0.  0.
         11    1    3    3    0    0 -0.29262011957E+02  0.15678443372E+02  0.88994099299E+01  0.34369731272E+02  0.51100000000E-03 0.  1.
         22    1    1    0    0    0 -0.26357177654E+02 -0.39796783800E+01  0.13080019110E+02  0.29692180011E+02  0.00000000000E+00 0. -1.
</event>
<event>
 5    1  0.1094625E-009  0.9118800E+02  0.7818608E-02  0.1130116E+00
         25   -1    0    0    0    0  0.00000000000E+00  0.00000000000E+00  0.99999998245E-14  0.12500000000E+03  0.12500000000E+03 0.  0.
        -11    1    3    3    0    0 -0.24296523186E+02  0.65638916121E+01 -0.30323645166E+02  0.39407222287E+02  0.51100000000E-03 0.  1.
         23    2    1    0    0    0  0.27618340287E+02  0.26672265537E+01 -0.74573002298E+01  0.96268516495E+02  0.91881059657E+02 0.  0.
         11    1    3    3    0    0  0.51914863473E+02 -0.38966650584E+01  0.22866344936E+02  0.56861294207E+02  0.51100000000E-03 0. -1.
         22    1    1    0    0    0 -0.27618340287E+02 -0.26672265537E+01  0.74573002298E+01  0.28731483505E+02  0.00000000000E+00 0. -1.
</event>
<event>
 5    1  0.1094625E-009  0.9118800E+02  0.7818608E-02  0.1130116E+00
         25   -1    0    0    0    0  0.00000000000E+00  0.00000000000E+00  0.99999998245E-14  0.12500000000E+03  0.12500000000E+03 0.  0.
        -11    1    3    3    0    0  0.20245465435E+02  0.12384887837E+02 -0.27198186212E+02  0.36097169569E+02  0.51100000000E-03 0. -1.
         23    2    1    0    0    0 -0.23640659715E+02  0.14052890063E+02  0.12028316509E+02  0.94982589904E+02  0.90114635193E+02 0.  0.
         11    1    3    3    0    0 -0.43886125149E+02  0.16680022258E+01  0.39226502720E+02  0.58885420335E+02  0.51100000000E-03 0.  1.
         22    1    1    0    0    0  0.23640659715E+02 -0.14052890063E+02 -0.12028316509E+02  0.30017410096E+02  0.00000000000E+00 0.  1.
</event>
<event>
 5    1  0.1094625E-009  0.9118800E+02  0.7818608E-02  0.1130116E+00
         25   -1    0    0    0    0  0.00000000000E+00  0.00000000000E+00  0.99999998245E-14  0.12500000000E+03  0.12500000000E+03 0.  0.
        -11    1    3    3    0    0  0.28674231785E+02 -0.43401542479E+02 -0.29188562833E+02  0.59647947648E+02  0.51100000000E-03 0.  1.
         23    2    1    0    0    0  0.14838761977E+02 -0.11475650427E+02 -0.23542667260E+02  0.94897897225E+02  0.89997079432E+02 0.  0.
         11    1    3    3    0    0 -0.13835469808E+02  0.31925892052E+02  0.56458955732E+01  0.35249949578E+02  0.51100000000E-03 0. -1.
         22    1    1    0    0    0 -0.14838761977E+02  0.11475650427E+02  0.23542667260E+02  0.30102102775E+02  0.00000000000E+00 0.  1.
</event>
<event>
 5    1  0.1094625E-009  0.9118800E+02  0.7818608E-02  0.1130116E+00
         25   -1    0    0    0    0  0.00000000000E+00  0.00000000000E+00  0.99999998245E-14  0.12500000000E+03  0.12500000000E+03 0.  0.
        -11    1    3    3    0    0 -0.39448284519E+02 -0.45892195597E+02  0.13184051383E+02  0.61936095932E+02  0.51100000000E-03 0. -1.
         23    2    1    0    0    0 -0.22561031433E+02 -0.19121950863E+02  0.25955804691E+01  0.95311851151E+02  0.90570209162E+02 0.  0.
         11    1    3    3    0    0  0.16887253086E+02  0.26770244734E+02 -0.10588470913E+02  0.33375755219E+02  0.51100000000E-03 0.  1.
         22    1    1    0    0    0  0.22561031433E+02  0.19121950863E+02 -0.25955804691E+01  0.29688148849E+02  0.00000000000E+00 0. -1.
</event>
<event>
 5    1  0.1094625E-009  0.9118800E+02  0.7818608E-02  0.1130116E+00
         25   -1    0    0    0    0  0.00000000000E+00  0.00000000000E+00  0.99999998245E-14  0.12500000000E+03  0.12500000000E+03 0.  0.
        -11    1    3    3    0    0 -0.48118087980E+02  0.12980387095E+02  0.16430786178E+02  0.52476771763E+02  0.51100000000E-03 0. -1.
         23    2    1    0    0    0 -0.78793833546E+01  0.11248850083E+02  0.27513030837E+02  0.94249582505E+02  0.89092062645E+02 0.  0.
         11    1    3    3    0    0  0.40238704625E+02 -0.17315370126E+01  0.11082244660E+02  0.41772810742E+02  0.51100000000E-03 0.  1.
         22    1    1    0    0    0  0.78793833546E+01 -0.11248850083E+02 -0.27513030837E+02  0.30750417495E+02  0.00000000000E+00 0. -1.
</event>
<event>
 5    1  0.1094625E-009  0.9118800E+02  0.7818608E-02  0.1130116E+00
         25   -1    0    0    0    0  0.00000000000E+00  0.00000000000E+00  0.99999998245E-14  0.12500000000E+03  0.12500000000E+03 0.  0.
        -11    1    3    3    0    0 -0.34879482273E+02  0.10980201374E+01  0.22649477549E+02  0.41602677381E+02  0.51100000000E-03 0.  1.
         23    2    1    0    0    0 -0.34939420550E+01  0.25054483975E+02 -0.14522323111E+02  0.95830963902E+02  0.91283848382E+02 0.  0.
         11    1    3    3    0    0  0.31385540218E+02  0.23956463838E+02 -0.37171800660E+02  0.54228286520E+02  0.51100000000E-03 0. -1.
         22    1    1    0    0    0  0.34939420550E+01 -0.25054483975E+02  0.14522323111E+02  0.29169036098E+02  0.00000000000E+00 0. -1.
</event>
<event>
 5    1  0.1094625E-009  0.9118800E+02  0.7818608E-02  0.1130116E+00
         25   -1    0    0    0    0  0.00000000000E+00  0.00000000000E+00  0.99999998245E-14  0.12500000000E+03  0.12500000000E+03 0.  0.
        -11    1    3    3    0    0  0.15200888359E+02  0.91524131329E+01  0.30487211170E+02  0.35274689484E+02  0.51100000000E-03 0. -1.
         23    2    1    0    0    0 -0.23919836087E+02  0.43370300966E+01 -0.15751207735E+02  0.96033313383E+02  0.91560517395E+02 0.  0.
         11    1    3    3    0    0 -0.39120724446E+02 -0.48153830363E+01 -0.46238418905E+02  0.60758623898E+02  0.51100000000E-03 0.  1.
         22    1    1    0    0    0  0.23919836087E+02 -0.43370300966E+01  0.15751207735E+02  0.28966686617E+02  0.00000000000E+00 0.  1.
</event>
<event>
 5    1  0.1094625E-009  0.9118800E+02  0.7818608E-02  0.1130116E+00
         25   -1    0    0    0    0  0.00000000000E+00  0.00000000000E+00  0.99999998245E-14  0.12500000000E+03  0.12500000000E+03 0.  0.
        -11    1    3    3    0    0 -0.46278341493E+02 -0.12500453980E+02  0.30341161772E+02  0.56732110300E+02  0.51100000000E-03 0.  1.
         23    2    1    0    0    0 -0.42811093972E+02 -0.82362256078E+01  0.68361317862E+01  0.80871121959E+02  0.67770055997E+02 0.  0.
         11    1    3    3    0    0  0.34672475211E+01  0.42642283726E+01 -0.23505029986E+02  0.24139011660E+02  0.51100000000E-03 0. -1.
         22    1    1    0    0    0  0.42811093972E+02  0.82362256078E+01 -0.68361317862E+01  0.44128878041E+02  0.00000000000E+00 0.  1.
</event>
<event>
 5    1  0.1094625E-009  0.9118800E+02  0.7818608E-02  0.1130116E+00
         25   -1    0    0    0    0  0.00000000000E+00  0.00000000000E+00  0.99999998245E-14  0.12500000000E+03  0.12500000000E+03 0.  0.
        -11    1    3    3    0    0 -0.13183064152E+02 -0.87829399889E+01 -0.22551670771E+02  0.27559228402E+02  0.51100000000E-03 0. -1.
         23    2    1    0    0    0  0.31707662545E+02  0.64448902707E+01  0.16226556913E+02  0.88803126877E+02  0.81091193845E+02 0.  0.
         11    1    3    3    0    0  0.44890726697E+02  0.15227830260E+02  0.38778227684E+02  0.61243898475E+02  0.51100000000E-03 0.  1.
         22    1    1    0    0    0 -0.31707662545E+02 -0.64448902707E+01 -0.16226556913E+02  0.36196873123E+02  0.00000000000E+00 0.  1.
</event>
<event>
 5    1  0.1094625E-009  0.9118800E+02  0.7818608E-02  0.1130116E+00
         25   -1    0    0    0    0  0.00000000000E+00  0.00000000000E+00  0.99999998245E-14  0.12500000000E+03  0.12500000000E+03 0.  0.
        -11    1    3    3    0    0 -0.15413436727E+02  0.39281861373E+02 -0.15811796659E+02  0.45062751564E+02  0.51100000000E-03 0.  1.
         23    2    1    0    0    0 -0.13827333349E+02 -0.11990810721E+02 -0.21603580752E+02  0.96685880013E+02  0.92447120038E+02 0.  0.
         11    1    3    3    0    0  0.15861033783E+01 -0.51272672095E+02 -0.57917840929E+01  0.51623128449E+02  0.51100000000E-03 0. -1.
         22    1    1    0    0    0  0.13827333349E+02  0.11990810721E+02  0.21603580752E+02  0.28314119987E+02  0.00000000000E+00 0. -1.
</event>
<event>
 5    1  0.1094625E-009  0.9118800E+02  0.7818608E-02  0.1130116E+00
         25   -1    0    0    0    0  0.00000000000E+00  0.00000000000E+00  0.99999998245E-14  0.12500000000E+03  0.12500000000E+03 0.  0.
        -11    1    3    3    0    0 -0.21949704801E+02  0.14117401129E+02 -0.21957106464E+02  0.34105792470E+02  0.51100000000E-03 0.  1.
         23    2    1    0    0    0  0.97323762425E+01 -0.19211612577E+01  0.27941320872E+02  0.95349917033E+02  0.90622730362E+02 0.  0.
         11    1    3    3    0    0  0.31682081043E+02 -0.16038562387E+02  0.49898427335E+02  0.61244124563E+02  0.51100000000E-03 0. -1.
         22    1    1    0    0    0 -0.97323762425E+01  0.19211612577E+01 -0.27941320872E+02  0.29650082967E+02  0.00000000000E+00 0. -1.
</event>
<event>
 5    1  0.1094625E-009  0.9118800E+02  0.7818608E-02  0.1130116E+00
         25   -1    0    0    0    0  0.00000000000E+00  0.00000000000E+00  0.99999998245E-14  0.12500000000E+03  0.12500000000E+03 0.  0.
        -11    1    3    3    0    0 -0.54049218263E+01 -0.36618650274E+02  0.67076626346E+01  0.37618233160E+02  0.51100000000E-03 0. -1.
         23    2    1    0    0    0  0.32920992781E+01  0.20202482038E+02  0.19743707454E+02  0.96560728171E+02  0.92277744027E+02 0.  0.
         11    1    3    3    0    0  0.86970211044E+01  0.56821132312E+02  0.13036044819E+02  0.58942495010E+02  0.51100000000E-03 0.  1.
         22    1    1    0    0    0 -0.32920992781E+01 -0.20202482038E+02 -0.19743707454E+02  0.28439271829E+02  0.00000000000E+00 0.  1.
</event>
<event>
 5    1  0.1094625E-009  0.9118800E+02  0.7818608E-02  0.1130116E+00
         25   -1    0    0    0    0  0.00000000000E+00  0.00000000000E+00  0.99999998245E-14  0.12500000000E+03  0.12500000000E+03 0.  0.
        -11    1    3    3    0    0 -0.50384676908E+02  0.71607762562E+01 -0.21001844763E+02  0.55054244772E+02  0.51100000000E-03 0. -1.
         23    2    1    0    0    0 -0.96476808702E+01  0.19999174539E+01 -0.26727650803E+02  0.96514130986E+02  0.92214601591E+02 0.  0.
         11    1    3    3    0    0  0.40736996038E+02 -0.51608588023E+01 -0.57258060406E+01  0.41459886214E+02  0.51100000000E-03 0.  1.
         22    1    1    0    0    0  0.96476808702E+01 -0.19999174539E+01  0.26727650803E+02  0.28485869014E+02  0.00000000000E+00 0. -1.
</event>
<event>
 5    1  0.1094625E-009  0.9118800E+02  0.7818608E-02  0.1130116E+00
         25   -1    0    0    0    0  0.00000000000E+00  0.00000000000E+00  0.99999998245E-14  0.12500000000E+03  0.12500000000E+03 0.  0.
        -11    1    3    3    0    0 -0.15027774449E+02  0.67672714710E+01 -0.34890034543E+02  0.38586843338E+02  0.51100000000E-03 0.  1.
         23    2    1    0    0    0  0.26292722755E+02 -0.10834462550E+02  0.16906907120E+01  0.96512260818E+02  0.92212066480E+02 0.  0.
         11    1    3    3    0    0  0.41320497204E+02 -0.17601734021E+02  0.36580725255E+02  0.57925417480E+02  0.51100000000E-03 0. -1.
         22    1    1    0    0    0 -0.26292722755E+02  0.10834462550E+02 -0.16906907120E+01  0.28487739182E+02  0.00000000000E+00 0. -1.
</event>
<event>
 5    1  0.1094625E-009  0.9118800E+02  0.7818608E-02  0.1130116E+00
         25   -1    0    0    0    0  0.00000000000E+00  0.00000000000E+00  0.99999998245E-14  0.12500000000E+03  0.12500000000E+03 0.  0.
        -11    1    3    3    0    0  0.67375477768E+01  0.37027394031E+02 -0.21757684514E+01  0.37698228438E+02  0.51100000000E-03 0.  1.
         23    2    1    0    0    0  0.14745772562E+02 -0.20398563715E+02 -0.12983322796E+02  0.96678526152E+02  0.92437176169E+02 0.  0.
         11    1    3    3    0    0  0.80082247850E+01 -0.57425957746E+02 -0.10807554345E+02  0.58980297714E+02  0.51100000000E-03 0. -1.
         22    1    1    0    0    0 -0.14745772562E+02  0.20398563715E+02  0.12983322796E+02  0.28321473848E+02  0.00000000000E+00 0. -1.
</event>
<event>
 5    1  0.1094625E-009  0.9118800E+02  0.7818608E-02  0.1130116E+00
         25   -1    0    0    0    0  0.00000000000E+00  0.00000000000E+00  0.99999998245E-14  0.12500000000E+03  0.12500000000E+03 0.  0.
        -11    1    3    3    0    0  0.28443109055E+02 -0.21582654652E+02 -0.36294817718E+02  0.50913016293E+02  0.51100000000E-03 0. -1.
         23    2    1    0    0    0 -0.10716269909E+02 -0.25237731494E+01 -0.27547633778E+02  0.95333857709E+02  0.90600576308E+02 0.  0.
         11    1    3    3    0    0 -0.39159378964E+02  0.19058881503E+02  0.87471839408E+01  0.44420841416E+02  0.51100000000E-03 0.  1.
         22    1    1    0    0    0  0.10716269909E+02  0.25237731494E+01  0.27547633778E+02  0.29666142291E+02  0.00000000000E+00 0. -1.
</event>
<event>
 5    1  0.1094625E-009  0.9118800E+02  0.7818608E-02  0.1130116E+00
         25   -1    0    0    0    0  0.00000000000E+00  0.00000000000E+00  0.99999998245E-14  0.12500000000E+03  0.12500000000E+03 0.  0.
        -11    1    3    3    0    0 -0.27243240018E+02  0.30253976636E+02 -0.16574222827E+02  0.43956820762E+02  0.51100000000E-03 0. -1.
         23    2    1    0    0    0 -0.52606898691E+01  0.10772455693E+02  0.26397342322E+02  0.96007926235E+02  0.91525851860E+02 0.  0.
         11    1    3    3    0    0  0.21982550149E+02 -0.19481520943E+02  0.42971565149E+02  0.52051105472E+02  0.51100000000E-03 0.  1.
         22    1    1    0    0    0  0.52606898691E+01 -0.10772455693E+02 -0.26397342322E+02  0.28992073765E+02  0.00000000000E+00 0.  1.
</event>
<event>
 5    1  0.1094625E-009  0.9118800E+02  0.7818608E-02  0.1130116E+00
         25   -1    0    0    0    0  0.00000000000E+00  0.00000000000E+00  0.99999998245E-14  0.12500000000E+03  0.12500000000E+03 0.  0.
        -11    1    3    3    0    0  0.18461622223E+02  0.38298640485E+02 -0.36376273808E+02  0.55954004812E+02  0.51100000000E-03 0.  1.
         23    2    1    0    0    0 -0.64127314221E+01  0.27668537583E+02 -0.72846971470E+01  0.95678712361E+02  0.91075123334E+02 0.  0.
         11    1    3    3    0    0 -0.24874353645E+02 -0.10630102902E+02  0.29091576661E+02  0.39724707549E+02  0.51100000000E-03 0. -1.
         22    1    1    0    0    0  0.64127314221E+01 -0.27668537583E+02  0.72846971470E+01  0.29321287639E+02  0.00000000000E+00 0.  1.
</event>
<event>
 5    1  0.1094625E-009  0.9118800E+02  0.7818608E-02  0.1130116E+00
         25   -1    0    0    0    0  0.00000000000E+00  0.00000000000E+00  0.99999998245E-14  0.12500000000E+03  0.12500000000E+03 0.  0.
        -11    1    3    3    0    0  0.12732840324E+02 -0.16137722669E+02  0.26478803028E+02  0.33521311515E+02  0.51100000000E-03 0.  1.
         23    2    1    0    0    0 -0.23909704321E+02  0.17618950378E+02 -0.81577812333E+01  0.94199825199E+02  0.89022223628E+02 0.  0.
         11    1    3    3    0    0 -0.36642544645E+02  0.33756673047E+02 -0.34636584261E+02  0.60678513683E+02  0.51100000000E-03 0. -1.
         22    1    1    0    0    0  0.23909704321E+02 -0.17618950378E+02  0.81577812333E+01  0.30800174801E+02  0.00000000000E+00 0. -1.
</event>
<event>
 5    1  0.1094625E-009  0.9118800E+02  0.7818608E-02  0.1130116E+00
         25   -1    0    0    0    0  0.00000000000E+00  0.00000000000E+00  0.99999998245E-14  0.12500000000E+03  0.12500000000E+03 0.  0.
        -11    1    3    3    0    0 -0.39184383077E+02  0.18499446987E+02  0.40854068940E+02  0.59554180082E+02  0.51100000000E-03 0. -1.
         23    2    1    0    0    0 -0.24573636948E+02  0.87823666380E+01  0.65358518229E+01  0.98098123566E+02  0.94337325018E+02 0.  0.
         11    1    3    3    0    0  0.14610746130E+02 -0.97170803494E+01 -0.34318217117E+02  0.38543943485E+02  0.51100000000E-03 0.  1.
         22    1    1    0    0    0  0.24573636948E+02 -0.87823666380E+01 -0.65358518229E+01  0.26901876434E+02  0.00000000000E+00 0. -1.
</event>
<event>
 5    1  0.1094625E-009  0.9118800E+02  0.7818608E-02  0.1130116E+00
         25   -1    0    0    0    0  0.00000000000E+00  0.00000000000E+00  0.99999998245E-14  0.12500000000E+03  0.12500000000E+03 0.  0.
        -11    1    3    3    0    0 -0.17193099040E+02  0.38956163064E+02  0.57121314749E+01  0.42962934508E+02  0.51100000000E-03 0. -1.
         23    2    1    0    0    0 -0.16215156617E+02 -0.12126114666E+01 -0.26125098827E+02  0.94227893810E+02  0.89061627273E+02 0.  0.
         11    1    3    3    0    0  0.97794242320E+00 -0.40168774531E+02 -0.31837230302E+02  0.51264959302E+02  0.51100000000E-03 0.  1.
         22    1    1    0    0    0  0.16215156617E+02  0.12126114666E+01  0.26125098827E+02  0.30772106190E+02  0.00000000000E+00 0. -1.
</event>
<event>
 5    1  0.1094625E-009  0.9118800E+02  0.7818608E-02  0.1130116E+00
         25   -1    0    0    0    0  0.00000000000E+00  0.00000000000E+00  0.99999998245E-14  0.12500000000E+03  0.12500000000E+03 0.  0.
        -11    1    3    3    0    0 -0.98991225504E+01  0.70856624383E+01  0.36960283865E+02  0.38913517228E+02  0.51100000000E-03 0.  1.
         23    2    1    0    0    0  0.45790446443E+01 -0.28532456863E+02 -0.48318380894E+01  0.95701273000E+02  0.91106082399E+02 0.  0.
         11    1    3    3    0    0  0.14478167195E+02 -0.35618119301E+02 -0.41792121954E+02  0.56787755772E+02  0.51100000000E-03 0. -1.
         22    1    1    0    0    0 -0.45790446443E+01  0.28532456863E+02  0.48318380894E+01  0.29298727000E+02  0.00000000000E+00 0. -1.
</event>
<event>
 5    1  0.1094625E-009  0.9118800E+02  0.7818608E-02  0.1130116E+00
         25   -1    0    0    0    0  0.00000000000E+00  0.00000000000E+00  0.99999998245E-14  0.12500000000E+03  0.12500000000E+03 0.  0.
        -11    1    3    3    0    0  0.45109331930E+02 -0.10709825924E+02 -0.23947580355E+01  0.46425069357E+02  0.51100000000E-03 0.  1.
         23    2    1    0    0    0 -0.89672803610E+00 -0.29009958189E+02 -0.11858827851E+01  0.95951968857E+02  0.91449397014E+02 0.  0.
         11    1    3    3    0    0 -0.46006059966E+02 -0.18300132265E+02  0.12088752504E+01  0.49526899500E+02  0.51100000000E-03 0. -1.
         22    1    1    0    0    0  0.89672803610E+00  0.29009958189E+02  0.11858827851E+01  0.29048031143E+02  0.00000000000E+00 0.  1.
</event>
<event>
 5    1  0.1094625E-009  0.9118800E+02  0.7818608E-02  0.1130116E+00
         25   -1    0    0    0    0  0.00000000000E+00  0.00000000000E+00  0.99999998245E-14  0.12500000000E+03  0.12500000000E+03 0.  0.
        -11    1    3    3    0    0 -0.16972792638E+02 -0.29394932879E+02 -0.17867969744E+02  0.38358859627E+02  0.51100000000E-03 0.  1.
         23    2    1    0    0    0  0.57427245906E+01  0.22771666682E+02 -0.18250148172E+02  0.95257848136E+02  0.90495646492E+02 0.  0.
         11    1    3    3    0    0  0.22715517228E+02  0.52166599561E+02 -0.38217842784E+00  0.56898988509E+02  0.51100000000E-03 0. -1.
         22    1    1    0    0    0 -0.57427245906E+01 -0.22771666682E+02  0.18250148172E+02  0.29742151864E+02  0.00000000000E+00 0. -1.
</event>
<event>
 5    1  0.1094625E-009  0.9118800E+02  0.7818608E-02  0.1130116E+00
         25   -1    0    0    0    0  0.00000000000E+00  0.00000000000E+00  0.99999998245E-14  0.12500000000E+03  0.12500000000E+03 0.  0.
        -11    1    3    3    0    0 -0.73748283782E+01 -0.27374897282E+02  0.18330132028E+02  0.33760432984E+02  0.51100000000E-03 0.  1.
         23    2    1    0    0    0  0.81028289640E+01  0.29418592459E+02  0.64025900576E+01  0.93821440397E+02  0.88489321950E+02 0.  0.
         11    1    3    3    0    0  0.15477657342E+02  0.56793489741E+02 -0.11927541970E+02  0.60061007413E+02  0.51100000000E-03 0. -1.
         22    1    1    0    0    0 -0.81028289640E+01 -0.29418592459E+02 -0.64025900576E+01  0.31178559603E+02  0.00000000000E+00 0. -1.
</event>
<event>
 5    1  0.1094625E-009  0.9118800E+02  0.7818608E-02  0.1130116E+00
         25   -1    0    0    0    0  0.00000000000E+00  0.00000000000E+00  0.99999998245E-14  0.12500000000E+03  0.12500000000E+03 0.  0.
        -11    1    3    3    0    0  0.31327032441E+02  0.21348425352E+01 -0.38150335062E+02  0.49410409630E+02  0.51100000000E-03 0. -1.
         23    2    1    0    0    0 -0.48835561755E+01 -0.20583176584E+02 -0.20122777883E+02  0.95803382577E+02  0.91246071939E+02 0.  0.
         11    1    3    3    0    0 -0.36210588617E+02 -0.22718019120E+02  0.18027557179E+02  0.46392972946E+02  0.51100000000E-03 0.  1.
         22    1    1    0    0    0  0.48835561755E+01  0.20583176584E+02  0.20122777883E+02  0.29196617423E+02  0.00000000000E+00 0.  1.
</event>
<event>
 5    1  0.1094625E-009  0.9118800E+02  0.7818608E-02  0.1130116E+00
         25   -1    0    0    0    0  0.00000000000E+00  0.00000000000E+00  0.99999998245E-14  0.12500000000E+03  0.12500000000E+03 0.  0.
        -11    1    3    3    0    0 -0.12397877782E+02  0.72998972541E+01  0.33189548889E+02  0.36173775434E+02  0.51100000000E-03 0. -1.
         23    2    1    0    0    0  0.24623227943E+02 -0.20152580681E+02 -0.35783985175E+00  0.93179284864E+02  0.87577515471E+02 0.  0.
         11    1    3    3    0    0  0.37021105725E+02 -0.27452477935E+02 -0.33547388741E+02  0.57005509430E+02  0.51100000000E-03 0.  1.
         22    1    1    0    0    0 -0.24623227943E+02  0.20152580681E+02  0.35783985175E+00  0.31820715136E+02  0.00000000000E+00 0.  1.
</event>
<event>
 5    1  0.1094625E-009  0.9118800E+02  0.7818608E-02  0.1130116E+00
         25   -1    0    0    0    0  0.00000000000E+00  0.00000000000E+00  0.99999998245E-14  0.12500000000E+03  0.12500000000E+03 0.  0.
        -11    1    3    3    0    0 -0.37328651002E+02  0.11211397304E+01 -0.10430879979E+02  0.38774842325E+02  0.51100000000E-03 0. -1.
         23    2    1    0    0    0 -0.51395600975E+00 -0.25238582412E+02 -0.27961853838E+02  0.87328851053E+02  0.78785866519E+02 0.  0.
         11    1    3    3    0    0  0.36814694993E+02 -0.26359722142E+02 -0.17530973859E+02  0.48554008728E+02  0.51100000000E-03 0.  1.
         22    1    1    0    0    0  0.51395600975E+00  0.25238582412E+02  0.27961853838E+02  0.37671148947E+02  0.00000000000E+00 0.  1.
</event>
<event>
 5    1  0.1094625E-009  0.9118800E+02  0.7818608E-02  0.1130116E+00
         25   -1    0    0    0    0  0.00000000000E+00  0.00000000000E+00  0.99999998245E-14  0.12500000000E+03  0.12500000000E+03 0.  0.
        -11    1    3    3    0    0 -0.79205964488E+01 -0.59596156107E+02  0.13844588724E+02  0.61693681265E+02  0.51100000000E-03 0. -1.
         23    2    1    0    0    0 -0.10629508344E+02 -0.26746925785E+02  0.54455801689E+01  0.95707700159E+02  0.91114900208E+02 0.  0.
         11    1    3    3    0    0 -0.27089118950E+01  0.32849230322E+02 -0.83990085551E+01  0.34014018895E+02  0.51100000000E-03 0.  1.
         22    1    1    0    0    0  0.10629508344E+02  0.26746925785E+02 -0.54455801689E+01  0.29292299841E+02  0.00000000000E+00 0. -1.
</event>
<event>
 5    1  0.1094625E-009  0.9118800E+02  0.7818608E-02  0.1130116E+00
         25   -1    0    0    0    0  0.00000000000E+00  0.00000000000E+00  0.99999998245E-14  0.12500000000E+03  0.12500000000E+03 0.  0.
        -11    1    3    3    0    0  0.10980704631E+02  0.44545013170E+02  0.27016518056E+02  0.53242147971E+02  0.51100000000E-03 0. -1.
         23    2    1    0    0    0  0.28375879084E+02  0.18527815380E+02  0.69910098417E+01  0.90397331386E+02  0.83512471204E+02 0.  0.
         11    1    3    3    0    0  0.17395174454E+02 -0.26017197789E+02 -0.20025508215E+02  0.37155183415E+02  0.51100000000E-03 0.  1.
         22    1    1    0    0    0 -0.28375879084E+02 -0.18527815380E+02 -0.69910098417E+01  0.34602668614E+02  0.00000000000E+00 0.  1.
</event>
<event>
 5    1  0.1094625E-009  0.9118800E+02  0.7818608E-02  0.1130116E+00
         25   -1    0    0    0    0  0.00000000000E+00  0.00000000000E+00  0.99999998245E-14  0.12500000000E+03  0.12500000000E+03 0.  0.
        -11    1    3    3    0    0 -0.44008538569E+00  0.33540649049E+02  0.26715660570E+02  0.42882342914E+02  0.51100000000E-03 0.  1.
         23    2    1    0    0    0  0.28961108497E+02 -0.12789775448E+01 -0.58198195595E+00  0.96004822954E+02  0.91521613505E+02 0.  0.
         11    1    3    3    0    0  0.29401193883E+02 -0.34819626594E+02 -0.27297642526E+02  0.53122480040E+02  0.51100000000E-03 0. -1.
         22    1    1    0    0    0 -0.28961108497E+02  0.12789775448E+01  0.58198195595E+00  0.28995177046E+02  0.00000000000E+00 0. -1.
</event>
<event>
 5    1  0.1094625E-009  0.9118800E+02  0.7818608E-02  0.1130116E+00
         25   -1    0    0    0    0  0.00000000000E+00  0.00000000000E+00  0.99999998245E-14  0.12500000000E+03  0.12500000000E+03 0.  0.
        -11    1    3    3    0    0  0.22855369342E+02 -0.55016951676E+02 -0.65819049797E+01  0.59937920826E+02  0.51100000000E-03 0.  1.
         23    2    1    0    0    0  0.16279727682E+01 -0.26174117380E+02 -0.12004525213E+02  0.96158305501E+02  0.91731000078E+02 0.  0.
         11    1    3    3    0    0 -0.21227396574E+02  0.28842834296E+02 -0.54226202337E+01  0.36220384675E+02  0.51100000000E-03 0. -1.
         22    1    1    0    0    0 -0.16279727682E+01  0.26174117380E+02  0.12004525213E+02  0.28841694499E+02  0.00000000000E+00 0.  1.
</event>
<event>
 5    1  0.1094625E-009  0.9118800E+02  0.7818608E-02  0.1130116E+00
         25   -1    0    0    0    0  0.00000000000E+00  0.00000000000E+00  0.99999998245E-14  0.12500000000E+03  0.12500000000E+03 0.  0.
        -11    1    3    3    0    0 -0.29481849003E+02 -0.42594836394E+02  0.14769713727E+02  0.53866909619E+02  0.51100000000E-03 0.  1.
         23    2    1    0    0    0 -0.62773433350E+01 -0.17278771648E+02  0.28692288277E+02  0.90923492028E+02  0.84296340412E+02 0.  0.
         11    1    3    3    0    0  0.23204505668E+02  0.25316064745E+02  0.13922574550E+02  0.37056582409E+02  0.51100000000E-03 0. -1.
         22    1    1    0    0    0  0.62773433350E+01  0.17278771648E+02 -0.28692288277E+02  0.34076507972E+02  0.00000000000E+00 0.  1.
</event>
<event>
 5    1  0.1094625E-009  0.9118800E+02  0.7818608E-02  0.1130116E+00
         25   -1    0    0    0    0  0.00000000000E+00  0.00000000000E+00  0.99999998245E-14  0.12500000000E+03  0.12500000000E+03 0.  0.
        -11    1    3    3    0    0  0.12468548955E+02  0.10493640244E+02  0.55344215442E+02  0.57693703138E+02  0.51100000000E-03 0. -1.
         23    2    1    0    0    0  0.13155046290E+02  0.18611975909E+02  0.17884880377E+02  0.96028810238E+02  0.91554369417E+02 0.  0.
         11    1    3    3    0    0  0.68649733420E+00  0.81183356650E+01 -0.37459335065E+02  0.38335107099E+02  0.51100000000E-03 0.  1.
         22    1    1    0    0    0 -0.13155046290E+02 -0.18611975909E+02 -0.17884880377E+02  0.28971189762E+02  0.00000000000E+00 0. -1.
</event>
<event>
 5    1  0.1094625E-009  0.9118800E+02  0.7818608E-02  0.1130116E+00
         25   -1    0    0    0    0  0.00000000000E+00  0.00000000000E+00  0.99999998245E-14  0.12500000000E+03  0.12500000000E+03 0.  0.
        -11    1    3    3    0    0 -0.16372028824E+02 -0.82064578226E+01  0.35791455915E+02  0.40204696176E+02  0.51100000000E-03 0.  1.
         23    2    1    0    0    0 -0.73500499306E+01 -0.23075093043E+02 -0.16753025093E+02  0.95552640141E+02  0.90901925366E+02 0.  0.
         11    1    3    3    0    0  0.90219788930E+01 -0.14868635220E+02 -0.52544481008E+02  0.55347943965E+02  0.51100000000E-03 0. -1.
         22    1    1    0    0    0  0.73500499306E+01  0.23075093043E+02  0.16753025093E+02  0.29447359859E+02  0.00000000000E+00 0. -1.
</event>
<event>
 5    1  0.1094625E-009  0.9118800E+02  0.7818608E-02  0.1130116E+00
         25   -1    0    0    0    0  0.00000000000E+00  0.00000000000E+00  0.99999998245E-14  0.12500000000E+03  0.12500000000E+03 0.  0.
        -11    1    3    3    0    0 -0.18159069470E+02  0.44876903772E+02 -0.78158003099E+01  0.49038505594E+02  0.51100000000E-03 0.  1.
         23    2    1    0    0    0 -0.22655723862E+02  0.30070646382E+02 -0.30533142794E+02  0.76525280749E+02  0.59214189071E+02 0.  0.
         11    1    3    3    0    0 -0.44966543917E+01 -0.14806257390E+02 -0.22717342484E+02  0.27486775155E+02  0.51100000000E-03 0. -1.
         22    1    1    0    0    0  0.22655723862E+02 -0.30070646382E+02  0.30533142794E+02  0.48474719251E+02  0.00000000000E+00 0.  1.
</event>
<event>
 5    1  0.1094625E-009  0.9118800E+02  0.7818608E-02  0.1130116E+00
         25   -1    0    0    0    0  0.00000000000E+00  0.00000000000E+00  0.99999998245E-14  0.12500000000E+03  0.12500000000E+03 0.  0.
        -11    1    3    3    0    0  0.37729755738E+02  0.26903900109E+02 -0.12653035210E+02  0.48035961627E+02  0.51100000000E-03 0. -1.
         23    2    1    0    0    0  0.21138432956E+02 -0.16059554243E+02 -0.15639979148E+02  0.94188450573E+02  0.89006250586E+02 0.  0.
         11    1    3    3    0    0 -0.16591322782E+02 -0.42963454353E+02 -0.29869439380E+01  0.46152488946E+02  0.51100000000E-03 0.  1.
         22    1    1    0    0    0 -0.21138432956E+02  0.16059554243E+02  0.15639979148E+02  0.30811549427E+02  0.00000000000E+00 0.  1.
</event>
<event>
 5    1  0.1094625E-009  0.9118800E+02  0.7818608E-02  0.1130116E+00
         25   -1    0    0    0    0  0.00000000000E+00  0.00000000000E+00  0.99999998245E-14  0.12500000000E+03  0.12500000000E+03 0.  0.
        -11    1    3    3    0    0 -0.14852038053E+02  0.49199357128E+02 -0.11085035062E+02  0.52574117004E+02  0.51100000000E-03 0.  1.
         23    2    1    0    0    0  0.18056842806E+02  0.24235480072E+02 -0.34324035041E+01  0.94583072800E+02  0.89558741617E+02 0.  0.
         11    1    3    3    0    0  0.32908880860E+02 -0.24963877056E+02  0.76526315577E+01  0.42008955796E+02  0.51100000000E-03 0. -1.
         22    1    1    0    0    0 -0.18056842806E+02 -0.24235480072E+02  0.34324035041E+01  0.30416927200E+02  0.00000000000E+00 0. -1.
</event>
<event>
 5    1  0.1094625E-009  0.9118800E+02  0.7818608E-02  0.1130116E+00
         25   -1    0    0    0    0  0.00000000000E+00  0.00000000000E+00  0.99999998245E-14  0.12500000000E+03  0.12500000000E+03 0.  0.
        -11    1    3    3    0    0  0.23353419916E+02 -0.45220208446E+02  0.27522359204E+02  0.57859569045E+02  0.51100000000E-03 0.  1.
         23    2    1    0    0    0  0.14177859439E+02 -0.98681846012E+01  0.25188399041E+02  0.94457436063E+02  0.89383214396E+02 0.  0.
         11    1    3    3    0    0 -0.91755604772E+01  0.35352023844E+02 -0.23339601627E+01  0.36597867018E+02  0.51100000000E-03 0. -1.
         22    1    1    0    0    0 -0.14177859439E+02  0.98681846012E+01 -0.25188399041E+02  0.30542563937E+02  0.00000000000E+00 0.  1.
</event>
<event>
 5    1  0.1094625E-009  0.9118800E+02  0.7818608E-02  0.1130116E+00
         25   -1    0    0    0    0  0.00000000000E+00  0.00000000000E+00  0.99999998245E-14  0.12500000000E+03  0.12500000000E+03 0.  0.
        -11    1    3    3    0    0  0.33584771147E+02 -0.39485112504E+02  0.30939387160E+02  0.60367678774E+02  0.51100000000E-03 0.  1.
         23    2    1    0    0    0  0.11713996304E+02 -0.26157740735E+02  0.68413399286E+01  0.95533934063E+02  0.90876198841E+02 0.  0.
         11    1    3    3    0    0 -0.21870774843E+02  0.13327371769E+02 -0.24098047231E+02  0.35166255290E+02  0.51100000000E-03 0. -1.
         22    1    1    0    0    0 -0.11713996304E+02  0.26157740735E+02 -0.68413399286E+01  0.29466065937E+02  0.00000000000E+00 0.  1.
</event>
<event>
 5    1  0.1094625E-009  0.9118800E+02  0.7818608E-02  0.1130116E+00
         25   -1    0    0    0    0  0.00000000000E+00  0.00000000000E+00  0.99999998245E-14  0.12500000000E+03  0.12500000000E+03 0.  0.
        -11    1    3    3    0    0  0.29899838202E+02 -0.26395333898E+02  0.16504146867E+02  0.43163651840E+02  0.51100000000E-03 0.  1.
         23    2    1    0    0    0  0.24054658823E+02  0.13635529530E+02 -0.14167078314E+02  0.93931360111E+02  0.88644458528E+02 0.  0.
         11    1    3    3    0    0 -0.58451793788E+01  0.40030863428E+02 -0.30671225181E+02  0.50767708271E+02  0.51100000000E-03 0. -1.
         22    1    1    0    0    0 -0.24054658823E+02 -0.13635529530E+02  0.14167078314E+02  0.31068639889E+02  0.00000000000E+00 0. -1.
</event>
<event>
 5    1  0.1094625E-009  0.9118800E+02  0.7818608E-02  0.1130116E+00
         25   -1    0    0    0    0  0.00000000000E+00  0.00000000000E+00  0.99999998245E-14  0.12500000000E+03  0.12500000000E+03 0.  0.
        -11    1    3    3    0    0 -0.20761767394E+02  0.51137307520E+02  0.24993806619E+02  0.60586843252E+02  0.51100000000E-03 0.  1.
         23    2    1    0    0    0  0.69317361306E+00  0.27243725517E+02  0.11680955504E+02  0.95349607233E+02  0.90622303040E+02 0.  0.
         11    1    3    3    0    0  0.21454941007E+02 -0.23893582002E+02 -0.13312851115E+02  0.34762763981E+02  0.51100000000E-03 0. -1.
         22    1    1    0    0    0 -0.69317361306E+00 -0.27243725517E+02 -0.11680955504E+02  0.29650392767E+02  0.00000000000E+00 0.  1.
</event>
<event>
 5    1  0.1094625E-009  0.9118800E+02  0.7818608E-02  0.1130116E+00
         25   -1    0    0    0    0  0.00000000000E+00  0.00000000000E+00  0.99999998245E-14  0.12500000000E+03  0.12500000000E+03 0.  0.
        -11    1    3    3    0    0  0.36985801663E+02  0.21540182138E+02  0.67457001851E+01  0.43329360051E+02  0.51100000000E-03 0. -1.
         23    2    1    0    0    0  0.67462406495E+01  0.14176608175E+01 -0.29537002989E+02  0.94669222386E+02  0.89678902739E+02 0.  0.
         11    1    3    3    0    0 -0.30239561014E+02 -0.20122521320E+02 -0.36282703175E+02  0.51339862334E+02  0.51100000000E-03 0.  1.
         22    1    1    0    0    0 -0.67462406495E+01 -0.14176608175E+01  0.29537002989E+02  0.30330777614E+02  0.00000000000E+00 0.  1.
</event>
<event>
 5    1  0.1094625E-009  0.9118800E+02  0.7818608E-02  0.1130116E+00
         25   -1    0    0    0    0  0.00000000000E+00  0.00000000000E+00  0.99999998245E-14  0.12500000000E+03  0.12500000000E+03 0.  0.
        -11    1    3    3    0    0  0.16552794604E+02  0.26696673442E+01  0.38643773039E+02  0.42124379258E+02  0.51100000000E-03 0.  1.
         23    2    1    0    0    0 -0.20660722631E+02  0.20786867841E+02  0.54285531571E+01  0.95193481859E+02  0.90406694801E+02 0.  0.
         11    1    3    3    0    0 -0.37213517235E+02  0.18117200497E+02 -0.33215219881E+02  0.53069102601E+02  0.51100000000E-03 0. -1.
         22    1    1    0    0    0  0.20660722631E+02 -0.20786867841E+02 -0.54285531571E+01  0.29806518141E+02  0.00000000000E+00 0. -1.
</event>
<event>
 5    1  0.1094625E-009  0.9118800E+02  0.7818608E-02  0.1130116E+00
         25   -1    0    0    0    0  0.00000000000E+00  0.00000000000E+00  0.99999998245E-14  0.12500000000E+03  0.12500000000E+03 0.  0.
        -11    1    3    3    0    0 -0.25160047934E+02 -0.51622086456E+02 -0.80628253412E+01  0.57990317941E+02  0.51100000000E-03 0.  1.
         23    2    1    0    0    0 -0.20718362503E+01 -0.23186278175E+02 -0.17572601659E+02  0.95833369579E+02  0.91287142549E+02 0.  0.
         11    1    3    3    0    0  0.23088211684E+02  0.28435808281E+02 -0.95097763179E+01  0.37843051638E+02  0.51100000000E-03 0. -1.
         22    1    1    0    0    0  0.20718362503E+01  0.23186278175E+02  0.17572601659E+02  0.29166630421E+02  0.00000000000E+00 0.  1.
</event>
<event>
 5    1  0.1094625E-009  0.9118800E+02  0.7818608E-02  0.1130116E+00
         25   -1    0    0    0    0  0.00000000000E+00  0.00000000000E+00  0.99999998245E-14  0.12500000000E+03  0.12500000000E+03 0.  0.
        -11    1    3    3    0    0  0.41880023712E+01  0.38756852416E+02 -0.93635365409E+01  0.40091255778E+02  0.51100000000E-03 0. -1.
         23    2    1    0    0    0  0.10655158906E+02 -0.42710525250E+01  0.26269902336E+02  0.96331514346E+02  0.91966725430E+02 0.  0.
         11    1    3    3    0    0  0.64671565351E+01 -0.43027904941E+02  0.35633438877E+02  0.56240258567E+02  0.51100000000E-03 0.  1.
         22    1    1    0    0    0 -0.10655158906E+02  0.42710525250E+01 -0.26269902336E+02  0.28668485654E+02  0.00000000000E+00 0.  1.
</event>
<event>
 5    1  0.1094625E-009  0.9118800E+02  0.7818608E-02  0.1130116E+00
         25   -1    0    0    0    0  0.00000000000E+00  0.00000000000E+00  0.99999998245E-14  0.12500000000E+03  0.12500000000E+03 0.  0.
        -11    1    3    3    0    0  0.32042915145E+02 -0.19416085573E+02 -0.48802118519E+01  0.37782922835E+02  0.51100000000E-03 0.  1.
         23    2    1    0    0    0 -0.40275406638E+00  0.27922186098E+02  0.65893842161E+01  0.96308003352E+02  0.91934764034E+02 0.  0.
         11    1    3    3    0    0 -0.32445669212E+02  0.47338271670E+02  0.11469596068E+02  0.58525080517E+02  0.51100000000E-03 0. -1.
         22    1    1    0    0    0  0.40275406638E+00 -0.27922186098E+02 -0.65893842161E+01  0.28691996648E+02  0.00000000000E+00 0. -1.
</event>
<event>
 5    1  0.1094625E-009  0.9118800E+02  0.7818608E-02  0.1130116E+00
         25   -1    0    0    0    0  0.00000000000E+00  0.00000000000E+00  0.99999998245E-14  0.12500000000E+03  0.12500000000E+03 0.  0.
        -11    1    3    3    0    0 -0.24339398882E+01 -0.24174735272E+02  0.51671910370E+02  0.57099283800E+02  0.51100000000E-03 0. -1.
         23    2    1    0    0    0 -0.13208836349E+02 -0.21648424026E+02  0.14709815694E+02  0.95682662156E+02  0.91080544240E+02 0.  0.
         11    1    3    3    0    0 -0.10774896461E+02  0.25263112461E+01 -0.36962094677E+02  0.38583378356E+02  0.51100000000E-03 0.  1.
         22    1    1    0    0    0  0.13208836349E+02  0.21648424026E+02 -0.14709815694E+02  0.29317337844E+02  0.00000000000E+00 0. -1.
</event>
<event>
 5    1  0.1094625E-009  0.9118800E+02  0.7818608E-02  0.1130116E+00
         25   -1    0    0    0    0  0.00000000000E+00  0.00000000000E+00  0.99999998245E-14  0.12500000000E+03  0.12500000000E+03 0.  0.
        -11    1    3    3    0    0  0.29023608726E+02  0.64767380211E+01 -0.21295134581E+02  0.36575958715E+02  0.51100000000E-03 0.  1.
         23    2    1    0    0    0 -0.26873822679E+02 -0.59285426697E+01 -0.13452463895E+02  0.94368011027E+02  0.89258068301E+02 0.  0.
         11    1    3    3    0    0 -0.55897431405E+02 -0.12405280691E+02  0.78426706856E+01  0.57792052312E+02  0.51100000000E-03 0. -1.
         22    1    1    0    0    0  0.26873822679E+02  0.59285426697E+01  0.13452463895E+02  0.30631988973E+02  0.00000000000E+00 0. -1.
</event>
<event>
 5    1  0.1094625E-009  0.9118800E+02  0.7818608E-02  0.1130116E+00
         25   -1    0    0    0    0  0.00000000000E+00  0.00000000000E+00  0.99999998245E-14  0.12500000000E+03  0.12500000000E+03 0.  0.
        -11    1    3    3    0    0  0.31085991876E+02  0.14768430084E+02 -0.22803532562E+02  0.41284942965E+02  0.51100000000E-03 0. -1.
         23    2    1    0    0    0 -0.21342170173E+02  0.18143616689E+02 -0.77754355020E+01  0.95928769350E+02  0.91417680662E+02 0.  0.
         11    1    3    3    0    0 -0.52428162049E+02  0.33751866043E+01  0.15028097060E+02  0.54643826385E+02  0.51100000000E-03 0.  1.
         22    1    1    0    0    0  0.21342170173E+02 -0.18143616689E+02  0.77754355020E+01  0.29071230650E+02  0.00000000000E+00 0.  1.
</event>
<event>
 5    1  0.1094625E-009  0.9118800E+02  0.7818608E-02  0.1130116E+00
         25   -1    0    0    0    0  0.00000000000E+00  0.00000000000E+00  0.99999998245E-14  0.12500000000E+03  0.12500000000E+03 0.  0.
        -11    1    3    3    0    0  0.14947194779E+02  0.46144681506E+01 -0.31121466570E+02  0.34831847924E+02  0.51100000000E-03 0.  1.
         23    2    1    0    0    0 -0.13471942978E+02  0.21305944274E+02  0.18028038075E+02  0.94008926030E+02  0.88753768977E+02 0.  0.
         11    1    3    3    0    0 -0.28419137757E+02  0.16691476123E+02  0.49149504645E+02  0.59177078106E+02  0.51100000000E-03 0. -1.
         22    1    1    0    0    0  0.13471942978E+02 -0.21305944274E+02 -0.18028038075E+02  0.30991073970E+02  0.00000000000E+00 0. -1.
</event>
<event>
 5    1  0.1094625E-009  0.9118800E+02  0.7818608E-02  0.1130116E+00
         25   -1    0    0    0    0  0.00000000000E+00  0.00000000000E+00  0.99999998245E-14  0.12500000000E+03  0.12500000000E+03 0.  0.
        -11    1    3    3    0    0 -0.38507946423E+02  0.28051201068E+02 -0.51897617741E+01  0.47923537501E+02  0.51100000000E-03 0. -1.
         23    2    1    0    0    0 -0.60122090309E+01  0.12464507220E+02  0.25974216609E+02  0.95569224847E+02  0.90924728274E+02 0.  0.
         11    1    3    3    0    0  0.32495737392E+02 -0.15586693849E+02  0.31163978383E+02  0.47645687346E+02  0.51100000000E-03 0.  1.
         22    1    1    0    0    0  0.60122090309E+01 -0.12464507220E+02 -0.25974216609E+02  0.29430775153E+02  0.00000000000E+00 0. -1.
</event>
<event>
 5    1  0.1094625E-009  0.9118800E+02  0.7818608E-02  0.1130116E+00
         25   -1    0    0    0    0  0.00000000000E+00  0.00000000000E+00  0.99999998245E-14  0.12500000000E+03  0.12500000000E+03 0.  0.
        -11    1    3    3    0    0 -0.16128460970E+01  0.51461769294E+02 -0.15029833265E+02  0.53635910169E+02  0.51100000000E-03 0. -1.
         23    2    1    0    0    0 -0.85303466432E+01  0.11329301557E+02 -0.25621951729E+02  0.95715118269E+02  0.91125076500E+02 0.  0.
         11    1    3    3    0    0 -0.69175005462E+01 -0.40132467737E+02 -0.10592118464E+02  0.42079208099E+02  0.51100000000E-03 0.  1.
         22    1    1    0    0    0  0.85303466432E+01 -0.11329301557E+02  0.25621951729E+02  0.29284881731E+02  0.00000000000E+00 0. -1.
</event>
<event>
 5    1  0.1094625E-009  0.9118800E+02  0.7818608E-02  0.1130116E+00
         25   -1    0    0    0    0  0.00000000000E+00  0.00000000000E+00  0.99999998245E-14  0.12500000000E+03  0.12500000000E+03 0.  0.
        -11    1    3    3    0    0 -0.37512219356E+02 -0.33307419275E+02  0.16140882072E+02  0.52697996680E+02  0.51100000000E-03 0.  1.
         23    2    1    0    0    0 -0.47640521134E+01 -0.83420160227E+01  0.27874862391E+02  0.95516218404E+02  0.90851827725E+02 0.  0.
         11    1    3    3    0    0  0.32748167242E+02  0.24965403252E+02  0.11733980319E+02  0.42818221724E+02  0.51100000000E-03 0. -1.
         22    1    1    0    0    0  0.47640521134E+01  0.83420160227E+01 -0.27874862391E+02  0.29483781596E+02  0.00000000000E+00 0.  1.
</event>
<event>
 5    1  0.1094625E-009  0.9118800E+02  0.7818608E-02  0.1130116E+00
         25   -1    0    0    0    0  0.00000000000E+00  0.00000000000E+00  0.99999998245E-14  0.12500000000E+03  0.12500000000E+03 0.  0.
        -11    1    3    3    0    0 -0.23410426230E+02  0.25439779183E+02  0.15450762991E+01  0.34606613273E+02  0.51100000000E-03 0. -1.
         23    2    1    0    0    0 -0.16427670734E+02 -0.30156832366E+02  0.90096780418E-01  0.90658901859E+02  0.83903071844E+02 0.  0.
         11    1    3    3    0    0  0.69827554966E+01 -0.55596611549E+02 -0.14549795187E+01  0.56052288586E+02  0.51100000000E-03 0.  1.
         22    1    1    0    0    0  0.16427670734E+02  0.30156832366E+02 -0.90096780418E-01  0.34341098141E+02  0.00000000000E+00 0.  1.
</event>
<event>
 5    1  0.1094625E-009  0.9118800E+02  0.7818608E-02  0.1130116E+00
         25   -1    0    0    0    0  0.00000000000E+00  0.00000000000E+00  0.99999998245E-14  0.12500000000E+03  0.12500000000E+03 0.  0.
        -11    1    3    3    0    0 -0.11019396520E+02  0.24897279755E+02  0.35461903736E+02  0.44708480803E+02  0.51100000000E-03 0. -1.
         23    2    1    0    0    0  0.20279231057E+01 -0.21472093854E+02  0.20740699262E+02  0.95077769260E+02  0.90246564007E+02 0.  0.
         11    1    3    3    0    0  0.13047319625E+02 -0.46369373608E+02 -0.14721204474E+02  0.50369288457E+02  0.51100000000E-03 0.  1.
         22    1    1    0    0    0 -0.20279231057E+01  0.21472093854E+02 -0.20740699262E+02  0.29922230740E+02  0.00000000000E+00 0.  1.
</event>
<event>
 5    1  0.1094625E-009  0.9118800E+02  0.7818608E-02  0.1130116E+00
         25   -1    0    0    0    0  0.00000000000E+00  0.00000000000E+00  0.99999998245E-14  0.12500000000E+03  0.12500000000E+03 0.  0.
        -11    1    3    3    0    0 -0.17842145347E+02 -0.28125457967E+02  0.23089129623E+02  0.40527662695E+02  0.51100000000E-03 0. -1.
         23    2    1    0    0    0 -0.17989193370E+02  0.20234556990E+02 -0.64123639586E+01  0.97176147172E+02  0.93107662375E+02 0.  0.
         11    1    3    3    0    0 -0.14704802237E+00  0.48360014957E+02 -0.29501493582E+02  0.56648484477E+02  0.51100000000E-03 0.  1.
         22    1    1    0    0    0  0.17989193370E+02 -0.20234556990E+02  0.64123639586E+01  0.27823852828E+02  0.00000000000E+00 0.  1.
</event>
<event>
 5    1  0.1094625E-009  0.9118800E+02  0.7818608E-02  0.1130116E+00
         25   -1    0    0    0    0  0.00000000000E+00  0.00000000000E+00  0.99999998245E-14  0.12500000000E+03  0.12500000000E+03 0.  0.
        -11    1    3    3    0    0 -0.20553565966E+02 -0.29242753755E+02 -0.44476756052E+02  0.57059351120E+02  0.51100000000E-03 0.  1.
         23    2    1    0    0    0  0.86434469728E+01 -0.17522381346E+02 -0.21012631495E+02  0.96307253426E+02  0.91933744384E+02 0.  0.
         11    1    3    3    0    0  0.29197012939E+02  0.11720372408E+02  0.23464124557E+02  0.39247902306E+02  0.51100000000E-03 0. -1.
         22    1    1    0    0    0 -0.86434469728E+01  0.17522381346E+02  0.21012631495E+02  0.28692746574E+02  0.00000000000E+00 0.  1.
</event>
<event>
 5    1  0.1094625E-009  0.9118800E+02  0.7818608E-02  0.1130116E+00
         25   -1    0    0    0    0  0.00000000000E+00  0.00000000000E+00  0.99999998245E-14  0.12500000000E+03  0.12500000000E+03 0.  0.
        -11    1    3    3    0    0 -0.97612284394E+01  0.15674736037E+02 -0.34418460750E+02  0.39059049798E+02  0.51100000000E-03 0. -1.
         23    2    1    0    0    0 -0.11270893477E+02  0.17579781067E+02  0.21498544671E+02  0.95028861130E+02  0.90178796192E+02 0.  0.
         11    1    3    3    0    0 -0.15096650380E+01  0.19050450306E+01  0.55917005421E+02  0.55969811333E+02  0.51100000000E-03 0.  1.
         22    1    1    0    0    0  0.11270893477E+02 -0.17579781067E+02 -0.21498544671E+02  0.29971138870E+02  0.00000000000E+00 0.  1.
</event>
<event>
 5    1  0.1094625E-009  0.9118800E+02  0.7818608E-02  0.1130116E+00
         25   -1    0    0    0    0  0.00000000000E+00  0.00000000000E+00  0.99999998245E-14  0.12500000000E+03  0.12500000000E+03 0.  0.
        -11    1    3    3    0    0  0.31233081340E+02  0.20663024157E+02 -0.20387682119E+02  0.42639459656E+02  0.51100000000E-03 0.  1.
         23    2    1    0    0    0 -0.17600487716E+02  0.19500859999E+02  0.58499997996E+01  0.98087489783E+02  0.94323233859E+02 0.  0.
         11    1    3    3    0    0 -0.48833569056E+02 -0.11621641580E+01  0.26237681918E+02  0.55448030127E+02  0.51100000000E-03 0. -1.
         22    1    1    0    0    0  0.17600487716E+02 -0.19500859999E+02 -0.58499997996E+01  0.26912510217E+02  0.00000000000E+00 0. -1.
</event>
<event>
 5    1  0.1094625E-009  0.9118800E+02  0.7818608E-02  0.1130116E+00
         25   -1    0    0    0    0  0.00000000000E+00  0.00000000000E+00  0.99999998245E-14  0.12500000000E+03  0.12500000000E+03 0.  0.
        -11    1    3    3    0    0 -0.62359203431E+00 -0.34831033784E+02  0.84537005012E+01  0.35847661484E+02  0.51100000000E-03 0. -1.
         23    2    1    0    0    0 -0.15292254454E+02  0.23230832036E+02 -0.36636764409E+01  0.96947422072E+02  0.92800083609E+02 0.  0.
         11    1    3    3    0    0 -0.14668662420E+02  0.58061865819E+02 -0.12117376942E+02  0.61099760587E+02  0.51100000000E-03 0.  1.
         22    1    1    0    0    0  0.15292254454E+02 -0.23230832036E+02  0.36636764409E+01  0.28052577928E+02  0.00000000000E+00 0.  1.
</event>
<event>
 5    1  0.1094625E-009  0.9118800E+02  0.7818608E-02  0.1130116E+00
         25   -1    0    0    0    0  0.00000000000E+00  0.00000000000E+00  0.99999998245E-14  0.12500000000E+03  0.12500000000E+03 0.  0.
        -11    1    3    3    0    0  0.17089339371E+02  0.59436199615E+02 -0.73255831135E+01  0.62276572747E+02  0.51100000000E-03 0. -1.
         23    2    1    0    0    0  0.10413286460E+02  0.27157387379E+02 -0.65220727538E+00  0.95907293037E+02  0.91388310298E+02 0.  0.
         11    1    3    3    0    0 -0.66760529107E+01 -0.32278812237E+02  0.66733758381E+01  0.33630720290E+02  0.51100000000E-03 0.  1.
         22    1    1    0    0    0 -0.10413286460E+02 -0.27157387379E+02  0.65220727538E+00  0.29092706963E+02  0.00000000000E+00 0. -1.
</event>
<event>
 5    1  0.1094625E-009  0.9118800E+02  0.7818608E-02  0.1130116E+00
         25   -1    0    0    0    0  0.00000000000E+00  0.00000000000E+00  0.99999998245E-14  0.12500000000E+03  0.12500000000E+03 0.  0.
        -11    1    3    3    0    0 -0.41027594853E+02  0.44513533393E+02 -0.32002597455E+01  0.60621447173E+02  0.51100000000E-03 0. -1.
         23    2    1    0    0    0 -0.10787623606E+02  0.27361504462E+02  0.50830546362E+00  0.95584304803E+02  0.90945457285E+02 0.  0.
         11    1    3    3    0    0  0.30239971247E+02 -0.17152028931E+02  0.37085652091E+01  0.34962857630E+02  0.51100000000E-03 0.  1.
         22    1    1    0    0    0  0.10787623606E+02 -0.27361504462E+02 -0.50830546362E+00  0.29415695197E+02  0.00000000000E+00 0. -1.
</event>
<event>
 5    1  0.1094625E-009  0.9118800E+02  0.7818608E-02  0.1130116E+00
         25   -1    0    0    0    0  0.00000000000E+00  0.00000000000E+00  0.99999998245E-14  0.12500000000E+03  0.12500000000E+03 0.  0.
        -11    1    3    3    0    0  0.61286282521E+01 -0.34829814597E+02 -0.65984440227E+01  0.35975207198E+02  0.51100000000E-03 0.  1.
         23    2    1    0    0    0 -0.23982658685E+02  0.16511233118E+02  0.20500521844E+00  0.95882466385E+02  0.91354346346E+02 0.  0.
         11    1    3    3    0    0 -0.30111286937E+02  0.51341047715E+02  0.68034492412E+01  0.59907259187E+02  0.51100000000E-03 0. -1.
         22    1    1    0    0    0  0.23982658685E+02 -0.16511233118E+02 -0.20500521844E+00  0.29117533615E+02  0.00000000000E+00 0. -1.
</event>
<event>
 5    1  0.1094625E-009  0.9118800E+02  0.7818608E-02  0.1130116E+00
         25   -1    0    0    0    0  0.00000000000E+00  0.00000000000E+00  0.99999998245E-14  0.12500000000E+03  0.12500000000E+03 0.  0.
        -11    1    3    3    0    0 -0.50001639313E+00 -0.52014895537E+01  0.11717767265E+02  0.12830104439E+02  0.51100000000E-03 0.  1.
         23    2    1    0    0    0  0.96897599433E+01  0.29255343771E+02 -0.39191569052E+02  0.75142747050E+02  0.56219985436E+02 0.  0.
         11    1    3    3    0    0  0.10189776336E+02  0.34456833325E+02 -0.50909336318E+02  0.62312642611E+02  0.51100000000E-03 0. -1.
         22    1    1    0    0    0 -0.96897599433E+01 -0.29255343771E+02  0.39191569052E+02  0.49857252950E+02  0.00000000000E+00 0. -1.
</event>
<event>
 5    1  0.1094625E-009  0.9118800E+02  0.7818608E-02  0.1130116E+00
         25   -1    0    0    0    0  0.00000000000E+00  0.00000000000E+00  0.99999998245E-14  0.12500000000E+03  0.12500000000E+03 0.  0.
        -11    1    3    3    0    0  0.53749924404E+01  0.56446358835E+01  0.57660462284E+02  0.58184889525E+02  0.51100000000E-03 0.  1.
         23    2    1    0    0    0 -0.67720210449E+01  0.16081227274E+02  0.25654801038E+02  0.93973640949E+02  0.88704059870E+02 0.  0.
         11    1    3    3    0    0 -0.12147013485E+02  0.10436591390E+02 -0.32005661246E+02  0.35788751425E+02  0.51100000000E-03 0. -1.
         22    1    1    0    0    0  0.67720210449E+01 -0.16081227274E+02 -0.25654801038E+02  0.31026359051E+02  0.00000000000E+00 0.  1.
</event>
<event>
 5    1  0.1094625E-009  0.9118800E+02  0.7818608E-02  0.1130116E+00
         25   -1    0    0    0    0  0.00000000000E+00  0.00000000000E+00  0.99999998245E-14  0.12500000000E+03  0.12500000000E+03 0.  0.
        -11    1    3    3    0    0 -0.18503756924E+02  0.71866743430E+00  0.38503044793E+02  0.42724582641E+02  0.51100000000E-03 0. -1.
         23    2    1    0    0    0  0.59277287700E+01 -0.24350327220E+02 -0.58871552823E+01  0.99256359981E+02  0.95859741264E+02 0.  0.
         11    1    3    3    0    0  0.24431485694E+02 -0.25068994655E+02 -0.44390200076E+02  0.56531777340E+02  0.51100000000E-03 0.  1.
         22    1    1    0    0    0 -0.59277287700E+01  0.24350327220E+02  0.58871552823E+01  0.25743640019E+02  0.00000000000E+00 0. -1.
</event>
<event>
 5    1  0.1094625E-009  0.9118800E+02  0.7818608E-02  0.1130116E+00
         25   -1    0    0    0    0  0.00000000000E+00  0.00000000000E+00  0.99999998245E-14  0.12500000000E+03  0.12500000000E+03 0.  0.
        -11    1    3    3    0    0  0.97809212132E+01  0.18807215298E+02  0.28807444535E+02  0.35766557396E+02  0.51100000000E-03 0. -1.
         23    2    1    0    0    0 -0.12045351302E+02 -0.24696221359E+02 -0.75337173914E+01  0.96508760379E+02  0.92207321264E+02 0.  0.
         11    1    3    3    0    0 -0.21826272515E+02 -0.43503436658E+02 -0.36341161926E+02  0.60742202984E+02  0.51100000000E-03 0.  1.
         22    1    1    0    0    0  0.12045351302E+02  0.24696221359E+02  0.75337173914E+01  0.28491239621E+02  0.00000000000E+00 0.  1.
</event>
<event>
 5    1  0.1094625E-009  0.9118800E+02  0.7818608E-02  0.1130116E+00
         25   -1    0    0    0    0  0.00000000000E+00  0.00000000000E+00  0.99999998245E-14  0.12500000000E+03  0.12500000000E+03 0.  0.
        -11    1    3    3    0    0 -0.26082376657E+02 -0.35230905882E+02 -0.10740447164E+02  0.45131633107E+02  0.51100000000E-03 0. -1.
         23    2    1    0    0    0  0.63483987954E+00  0.57502163242E+01 -0.27541680604E+02  0.96857289044E+02  0.92678596564E+02 0.  0.
         11    1    3    3    0    0  0.26717216537E+02  0.40981122206E+02 -0.16801233440E+02  0.51725655937E+02  0.51100000000E-03 0.  1.
         22    1    1    0    0    0 -0.63483987954E+00 -0.57502163242E+01  0.27541680604E+02  0.28142710956E+02  0.00000000000E+00 0. -1.
</event>
<event>
 5    1  0.1094625E-009  0.9118800E+02  0.7818608E-02  0.1130116E+00
         25   -1    0    0    0    0  0.00000000000E+00  0.00000000000E+00  0.99999998245E-14  0.12500000000E+03  0.12500000000E+03 0.  0.
        -11    1    3    3    0    0  0.59048432170E+01  0.47518176424E+01 -0.40166170850E+02  0.40875031808E+02  0.51100000000E-03 0.  1.
         23    2    1    0    0    0 -0.26876154356E+02  0.17204586424E+02 -0.15295755807E+01  0.93052150801E+02  0.87395867753E+02 0.  0.
         11    1    3    3    0    0 -0.32780997573E+02  0.12452768782E+02  0.38636595269E+02  0.52177118993E+02  0.51100000000E-03 0. -1.
         22    1    1    0    0    0  0.26876154356E+02 -0.17204586424E+02  0.15295755807E+01  0.31947849199E+02  0.00000000000E+00 0. -1.
</event>
<event>
 5    1  0.1094625E-009  0.9118800E+02  0.7818608E-02  0.1130116E+00
         25   -1    0    0    0    0  0.00000000000E+00  0.00000000000E+00  0.99999998245E-14  0.12500000000E+03  0.12500000000E+03 0.  0.
        -11    1    3    3    0    0 -0.85472712455E+00 -0.59989397675E+02 -0.45859781525E+01  0.60170504300E+02  0.51100000000E-03 0. -1.
         23    2    1    0    0    0 -0.28162365828E+01 -0.26927018579E+02 -0.13887136645E+02  0.94572248156E+02  0.89543632041E+02 0.  0.
         11    1    3    3    0    0 -0.19615094583E+01  0.33062379095E+02 -0.93011584925E+01  0.34401743857E+02  0.51100000000E-03 0.  1.
         22    1    1    0    0    0  0.28162365828E+01  0.26927018579E+02  0.13887136645E+02  0.30427751844E+02  0.00000000000E+00 0. -1.
</event>
<event>
 5    1  0.1094625E-009  0.9118800E+02  0.7818608E-02  0.1130116E+00
         25   -1    0    0    0    0  0.00000000000E+00  0.00000000000E+00  0.99999998245E-14  0.12500000000E+03  0.12500000000E+03 0.  0.
        -11    1    3    3    0    0 -0.20055066999E+02 -0.39206679193E+01  0.47217636207E+02  0.51449805816E+02  0.51100000000E-03 0.  1.
         23    2    1    0    0    0 -0.27049817068E+02 -0.31558984023E+01  0.14789412968E+01  0.97726577672E+02  0.93843723380E+02 0.  0.
         11    1    3    3    0    0 -0.69947500694E+01  0.76476951699E+00 -0.45738694911E+02  0.46276771855E+02  0.51100000000E-03 0. -1.
         22    1    1    0    0    0  0.27049817068E+02  0.31558984023E+01 -0.14789412968E+01  0.27273422328E+02  0.00000000000E+00 0. -1.
</event>
<event>
 5    1  0.1094625E-009  0.9118800E+02  0.7818608E-02  0.1130116E+00
         25   -1    0    0    0    0  0.00000000000E+00  0.00000000000E+00  0.99999998245E-14  0.12500000000E+03  0.12500000000E+03 0.  0.
        -11    1    3    3    0    0 -0.37495244670E+02  0.29886947654E+02  0.36199792019E+02  0.60079513608E+02  0.51100000000E-03 0.  1.
         23    2    1    0    0    0 -0.13343328723E+02  0.67243149568E+01  0.25911351720E+02  0.95089149444E+02  0.90262325258E+02 0.  0.
         11    1    3    3    0    0  0.24151915946E+02 -0.23162632697E+02 -0.10288440299E+02  0.35009635836E+02  0.51100000000E-03 0. -1.
         22    1    1    0    0    0  0.13343328723E+02 -0.67243149568E+01 -0.25911351720E+02  0.29910850556E+02  0.00000000000E+00 0.  1.
</event>
<event>
 5    1  0.1094625E-009  0.9118800E+02  0.7818608E-02  0.1130116E+00
         25   -1    0    0    0    0  0.00000000000E+00  0.00000000000E+00  0.99999998245E-14  0.12500000000E+03  0.12500000000E+03 0.  0.
        -11    1    3    3    0    0 -0.43555021419E+02 -0.42541657828E+01 -0.24000004761E+02  0.49911301787E+02  0.51100000000E-03 0.  1.
         23    2    1    0    0    0  0.16410296056E+01 -0.71317770402E+01 -0.28643608566E+02  0.95436313938E+02  0.90741823237E+02 0.  0.
         11    1    3    3    0    0  0.45196051024E+02 -0.28776112573E+01 -0.46436038043E+01  0.45525012150E+02  0.51100000000E-03 0. -1.
         22    1    1    0    0    0 -0.16410296056E+01  0.71317770402E+01  0.28643608566E+02  0.29563686062E+02  0.00000000000E+00 0.  1.
</event>
<event>
 5    1  0.1094625E-009  0.9118800E+02  0.7818608E-02  0.1130116E+00
         25   -1    0    0    0    0  0.00000000000E+00  0.00000000000E+00  0.99999998245E-14  0.12500000000E+03  0.12500000000E+03 0.  0.
        -11    1    3    3    0    0 -0.12495446517E+02  0.39640370072E+02  0.11528449367E+02  0.43132357554E+02  0.51100000000E-03 0. -1.
         23    2    1    0    0    0 -0.22229888204E+02  0.24876069363E+01 -0.21638378807E+02  0.93878053479E+02  0.88569257476E+02 0.  0.
         11    1    3    3    0    0 -0.97344416869E+01 -0.37152763136E+02 -0.33166828174E+02  0.50745695925E+02  0.51100000000E-03 0.  1.
         22    1    1    0    0    0  0.22229888204E+02 -0.24876069363E+01  0.21638378807E+02  0.31121946521E+02  0.00000000000E+00 0. -1.
</event>
<event>
 5    1  0.1094625E-009  0.9118800E+02  0.7818608E-02  0.1130116E+00
         25   -1    0    0    0    0  0.00000000000E+00  0.00000000000E+00  0.99999998245E-14  0.12500000000E+03  0.12500000000E+03 0.  0.
        -11    1    3    3    0    0 -0.52846621630E+02 -0.21227056103E+02 -0.15115566185E+02  0.58922268030E+02  0.51100000000E-03 0.  1.
         23    2    1    0    0    0 -0.24002229336E+02 -0.13890997155E+02  0.74643875047E+01  0.96280948904E+02  0.91897971827E+02 0.  0.
         11    1    3    3    0    0  0.28844392294E+02  0.73360589482E+01  0.22579953690E+02  0.37358680873E+02  0.51100000000E-03 0. -1.
         22    1    1    0    0    0  0.24002229336E+02  0.13890997155E+02 -0.74643875047E+01  0.28719051096E+02  0.00000000000E+00 0.  1.
</event>
<event>
 5    1  0.1094625E-009  0.9118800E+02  0.7818608E-02  0.1130116E+00
         25   -1    0    0    0    0  0.00000000000E+00  0.00000000000E+00  0.99999998245E-14  0.12500000000E+03  0.12500000000E+03 0.  0.
        -11    1    3    3    0    0  0.43963939986E+01 -0.57997710887E+02  0.17105140584E+02  0.60627127451E+02  0.51100000000E-03 0. -1.
         23    2    1    0    0    0 -0.85165337564E+01 -0.30124977785E+02  0.97049059516E+01  0.92224539160E+02  0.86204030010E+02 0.  0.
         11    1    3    3    0    0 -0.12912927755E+02  0.27872733102E+02 -0.74002346329E+01  0.31597411708E+02  0.51100000000E-03 0.  1.
         22    1    1    0    0    0  0.85165337564E+01  0.30124977785E+02 -0.97049059516E+01  0.32775460840E+02  0.00000000000E+00 0. -1.
</event>
<event>
 5    1  0.1094625E-009  0.9118800E+02  0.7818608E-02  0.1130116E+00
         25   -1    0    0    0    0  0.00000000000E+00  0.00000000000E+00  0.99999998245E-14  0.12500000000E+03  0.12500000000E+03 0.  0.
        -11    1    3    3    0    0 -0.41814036177E+02 -0.40803493189E+02 -0.52850711946E+01  0.58662344444E+02  0.51100000000E-03 0.  1.
         23    2    1    0    0    0 -0.26738183778E+02 -0.10852304724E+02  0.85012005619E+01  0.94917224188E+02  0.90023919305E+02 0.  0.
         11    1    3    3    0    0  0.15075852399E+02  0.29951188466E+02  0.13786271756E+02  0.36254879744E+02  0.51100000000E-03 0. -1.
         22    1    1    0    0    0  0.26738183778E+02  0.10852304724E+02 -0.85012005619E+01  0.30082775812E+02  0.00000000000E+00 0.  1.
</event>
<event>
 5    1  0.1094625E-009  0.9118800E+02  0.7818608E-02  0.1130116E+00
         25   -1    0    0    0    0  0.00000000000E+00  0.00000000000E+00  0.99999998245E-14  0.12500000000E+03  0.12500000000E+03 0.  0.
        -11    1    3    3    0    0 -0.69524054580E+01 -0.32794691480E+02  0.24417379348E+02  0.41473318476E+02  0.51100000000E-03 0. -1.
         23    2    1    0    0    0  0.13206582253E+02 -0.12968896687E+02 -0.22262077955E+02  0.96048208847E+02  0.91580850683E+02 0.  0.
         11    1    3    3    0    0  0.20158987711E+02  0.19825794793E+02 -0.46679457303E+02  0.54574890371E+02  0.51100000000E-03 0.  1.
         22    1    1    0    0    0 -0.13206582253E+02  0.12968896687E+02  0.22262077955E+02  0.28951791153E+02  0.00000000000E+00 0.  1.
</event>
<event>
 5    1  0.1094625E-009  0.9118800E+02  0.7818608E-02  0.1130116E+00
         25   -1    0    0    0    0  0.00000000000E+00  0.00000000000E+00  0.99999998245E-14  0.12500000000E+03  0.12500000000E+03 0.  0.
        -11    1    3    3    0    0 -0.47224161218E+02  0.36672698862E+02 -0.15170729011E+01  0.59810615739E+02  0.51100000000E-03 0. -1.
         23    2    1    0    0    0 -0.23458415558E+02  0.29171549742E+02 -0.10200397660E+02  0.86201486018E+02  0.76976434734E+02 0.  0.
         11    1    3    3    0    0  0.23765745661E+02 -0.75011491203E+01 -0.86833247590E+01  0.26390870279E+02  0.51100000000E-03 0.  1.
         22    1    1    0    0    0  0.23458415558E+02 -0.29171549742E+02  0.10200397660E+02  0.38798513982E+02  0.00000000000E+00 0. -1.
</event>
<event>
 5    1  0.1094625E-009  0.9118800E+02  0.7818608E-02  0.1130116E+00
         25   -1    0    0    0    0  0.00000000000E+00  0.00000000000E+00  0.99999998245E-14  0.12500000000E+03  0.12500000000E+03 0.  0.
        -11    1    3    3    0    0 -0.38715741051E+02  0.65628397859E+01  0.35360707707E+02  0.52842777378E+02  0.51100000000E-03 0.  1.
         23    2    1    0    0    0 -0.17622667328E+02  0.24810657138E+02  0.48445661972E+01  0.94184469289E+02  0.89000659111E+02 0.  0.
         11    1    3    3    0    0  0.21093073723E+02  0.18247817352E+02 -0.30516141510E+02  0.41341691912E+02  0.51100000000E-03 0. -1.
         22    1    1    0    0    0  0.17622667328E+02 -0.24810657138E+02 -0.48445661972E+01  0.30815530711E+02  0.00000000000E+00 0. -1.
</event>
<event>
 5    1  0.1094625E-009  0.9118800E+02  0.7818608E-02  0.1130116E+00
         25   -1    0    0    0    0  0.00000000000E+00  0.00000000000E+00  0.99999998245E-14  0.12500000000E+03  0.12500000000E+03 0.  0.
        -11    1    3    3    0    0 -0.75912575461E+01  0.21694999344E+02  0.22421299119E+02  0.32109419835E+02  0.51100000000E-03 0.  1.
         23    2    1    0    0    0  0.11278654195E+02 -0.22413777227E+02 -0.17406024599E+02  0.94462234162E+02  0.89389924155E+02 0.  0.
         11    1    3    3    0    0  0.18869911741E+02 -0.44108776572E+02 -0.39827323718E+02  0.62352814327E+02  0.51100000000E-03 0. -1.
         22    1    1    0    0    0 -0.11278654195E+02  0.22413777227E+02  0.17406024599E+02  0.30537765838E+02  0.00000000000E+00 0. -1.
</event>
<event>
 5    1  0.1094625E-009  0.9118800E+02  0.7818608E-02  0.1130116E+00
         25   -1    0    0    0    0  0.00000000000E+00  0.00000000000E+00  0.99999998245E-14  0.12500000000E+03  0.12500000000E+03 0.  0.
        -11    1    3    3    0    0  0.13317423134E+02 -0.34457669502E+02  0.81026478501E+01  0.37819804982E+02  0.51100000000E-03 0. -1.
         23    2    1    0    0    0  0.18388511145E+02  0.15691216963E+02 -0.18262671755E+02  0.94703518165E+02  0.89726693583E+02 0.  0.
         11    1    3    3    0    0  0.50710880112E+01  0.50148886466E+02 -0.26365319605E+02  0.56883713183E+02  0.51100000000E-03 0.  1.
         22    1    1    0    0    0 -0.18388511145E+02 -0.15691216963E+02  0.18262671755E+02  0.30296481835E+02  0.00000000000E+00 0. -1.
</event>
<event>
 5    1  0.1094625E-009  0.9118800E+02  0.7818608E-02  0.1130116E+00
         25   -1    0    0    0    0  0.00000000000E+00  0.00000000000E+00  0.99999998245E-14  0.12500000000E+03  0.12500000000E+03 0.  0.
        -11    1    3    3    0    0 -0.40775249834E+02 -0.35412230208E+02 -0.20851239243E+02  0.57891460731E+02  0.51100000000E-03 0.  1.
         23    2    1    0    0    0 -0.13670694296E+02 -0.25709427322E+02  0.35968186456E+01  0.95660612819E+02  0.91050278444E+02 0.  0.
         11    1    3    3    0    0  0.27104555538E+02  0.97028028854E+01  0.24448057888E+02  0.37769152089E+02  0.51100000000E-03 0. -1.
         22    1    1    0    0    0  0.13670694296E+02  0.25709427322E+02 -0.35968186456E+01  0.29339387181E+02  0.00000000000E+00 0.  1.
</event>
<event>
 5    1  0.1094625E-009  0.9118800E+02  0.7818608E-02  0.1130116E+00
         25   -1    0    0    0    0  0.00000000000E+00  0.00000000000E+00  0.99999998245E-14  0.12500000000E+03  0.12500000000E+03 0.  0.
        -11    1    3    3    0    0  0.11032275078E+02  0.26793743561E+02  0.42381059259E+02  0.51339750404E+02  0.51100000000E-03 0. -1.
         23    2    1    0    0    0  0.41503833411E+01 -0.13515917609E+02  0.26024977297E+02  0.95382350633E+02  0.90667456446E+02 0.  0.
         11    1    3    3    0    0 -0.68818917366E+01 -0.40309661170E+02 -0.16356081962E+02  0.44042600229E+02  0.51100000000E-03 0.  1.
         22    1    1    0    0    0 -0.41503833411E+01  0.13515917609E+02 -0.26024977297E+02  0.29617649367E+02  0.00000000000E+00 0. -1.
</event>
<event>
 5    1  0.1094625E-009  0.9118800E+02  0.7818608E-02  0.1130116E+00
         25   -1    0    0    0    0  0.00000000000E+00  0.00000000000E+00  0.99999998245E-14  0.12500000000E+03  0.12500000000E+03 0.  0.
        -11    1    3    3    0    0 -0.25253097736E+02 -0.18115472848E+02 -0.27610938185E+02  0.41572264906E+02  0.51100000000E-03 0.  1.
         23    2    1    0    0    0  0.24106867129E+02  0.18838541352E+01 -0.15773817292E+02  0.96129543454E+02  0.91691798235E+02 0.  0.
         11    1    3    3    0    0  0.49359964865E+02  0.19999326983E+02  0.11837120892E+02  0.54557278548E+02  0.51100000000E-03 0. -1.
         22    1    1    0    0    0 -0.24106867129E+02 -0.18838541352E+01  0.15773817292E+02  0.28870456546E+02  0.00000000000E+00 0. -1.
</event>
<event>
 5    1  0.1094625E-009  0.9118800E+02  0.7818608E-02  0.1130116E+00
         25   -1    0    0    0    0  0.00000000000E+00  0.00000000000E+00  0.99999998245E-14  0.12500000000E+03  0.12500000000E+03 0.  0.
        -11    1    3    3    0    0  0.28488018690E+02  0.21158157295E+02 -0.75053414402E+01  0.36270717933E+02  0.51100000000E-03 0.  1.
         23    2    1    0    0    0 -0.88644455077E-01 -0.28824433893E+02  0.63385075000E+01  0.95486739854E+02  0.90811260114E+02 0.  0.
         11    1    3    3    0    0 -0.28576663145E+02 -0.49982591188E+02  0.13843848940E+02  0.59216021921E+02  0.51100000000E-03 0. -1.
         22    1    1    0    0    0  0.88644455077E-01  0.28824433893E+02 -0.63385075000E+01  0.29513260146E+02  0.00000000000E+00 0. -1.
</event>
<event>
 5    1  0.1094625E-009  0.9118800E+02  0.7818608E-02  0.1130116E+00
         25   -1    0    0    0    0  0.00000000000E+00  0.00000000000E+00  0.99999998245E-14  0.12500000000E+03  0.12500000000E+03 0.  0.
        -11    1    3    3    0    0 -0.44956072026E+02  0.48107859071E+01 -0.42783681257E+02  0.62246569827E+02  0.51100000000E-03 0. -1.
         23    2    1    0    0    0 -0.19079229509E+02  0.45773785690E+01 -0.22644765950E+02  0.95037443064E+02  0.90190691127E+02 0.  0.
         11    1    3    3    0    0  0.25876842517E+02 -0.23340733803E+00  0.20138915307E+02  0.32790873237E+02  0.51100000000E-03 0.  1.
         22    1    1    0    0    0  0.19079229509E+02 -0.45773785690E+01  0.22644765950E+02  0.29962556936E+02  0.00000000000E+00 0. -1.
</event>
<event>
 5    1  0.1094625E-009  0.9118800E+02  0.7818608E-02  0.1130116E+00
         25   -1    0    0    0    0  0.00000000000E+00  0.00000000000E+00  0.99999998245E-14  0.12500000000E+03  0.12500000000E+03 0.  0.
        -11    1    3    3    0    0  0.47700027109E+01  0.15268192093E+01  0.13891079204E+02  0.14766386981E+02  0.51100000000E-03 0. -1.
         23    2    1    0    0    0 -0.48150794187E+02 -0.62053391280E+01 -0.13157190905E+02  0.74699732733E+02  0.55226200153E+02 0.  0.
         11    1    3    3    0    0 -0.52920796898E+02 -0.77321583373E+01 -0.27048270109E+02  0.59933345752E+02  0.51100000000E-03 0.  1.
         22    1    1    0    0    0  0.48150794187E+02  0.62053391280E+01  0.13157190905E+02  0.50300267267E+02  0.00000000000E+00 0.  1.
</event>
<event>
 5    1  0.1094625E-009  0.9118800E+02  0.7818608E-02  0.1130116E+00
         25   -1    0    0    0    0  0.00000000000E+00  0.00000000000E+00  0.99999998245E-14  0.12500000000E+03  0.12500000000E+03 0.  0.
        -11    1    3    3    0    0  0.10602991251E+01  0.15608006350E+02 -0.82606718048E+01  0.17691037148E+02  0.51100000000E-03 0.  1.
         23    2    1    0    0    0 -0.47965433475E+01 -0.41553020331E+02 -0.23343926848E+02  0.77098024598E+02  0.60411142594E+02 0.  0.
         11    1    3    3    0    0 -0.58568424726E+01 -0.57161026680E+02 -0.15083255044E+02  0.59406987450E+02  0.51100000000E-03 0. -1.
         22    1    1    0    0    0  0.47965433475E+01  0.41553020331E+02  0.23343926848E+02  0.47901975402E+02  0.00000000000E+00 0. -1.
</event>
<event>
 5    1  0.1094625E-009  0.9118800E+02  0.7818608E-02  0.1130116E+00
         25   -1    0    0    0    0  0.00000000000E+00  0.00000000000E+00  0.99999998245E-14  0.12500000000E+03  0.12500000000E+03 0.  0.
        -11    1    3    3    0    0 -0.25144134171E+02 -0.18163958023E+02 -0.12163334656E+02  0.33318216706E+02  0.51100000000E-03 0. -1.
         23    2    1    0    0    0  0.23963612073E+02  0.10991145971E+02  0.12856002254E+02  0.95668501789E+02  0.91061108313E+02 0.  0.
         11    1    3    3    0    0  0.49107746244E+02  0.29155103994E+02  0.25019336911E+02  0.62350285082E+02  0.51100000000E-03 0.  1.
         22    1    1    0    0    0 -0.23963612073E+02 -0.10991145971E+02 -0.12856002254E+02  0.29331498211E+02  0.00000000000E+00 0.  1.
</event>
<event>
 5    1  0.1094625E-009  0.9118800E+02  0.7818608E-02  0.1130116E+00
         25   -1    0    0    0    0  0.00000000000E+00  0.00000000000E+00  0.99999998245E-14  0.12500000000E+03  0.12500000000E+03 0.  0.
        -11    1    3    3    0    0  0.12986943631E+02 -0.52802444296E+02  0.48528584836E+01  0.54592206992E+02  0.51100000000E-03 0.  1.
         23    2    1    0    0    0 -0.13999746355E+02 -0.22250522009E+02  0.12209443832E+02  0.96014673603E+02  0.91535066508E+02 0.  0.
         11    1    3    3    0    0 -0.26986689986E+02  0.30551922287E+02  0.73565853486E+01  0.41422466611E+02  0.51100000000E-03 0. -1.
         22    1    1    0    0    0  0.13999746355E+02  0.22250522009E+02 -0.12209443832E+02  0.28985326397E+02  0.00000000000E+00 0.  1.
</event>
<event>
 5    1  0.1094625E-009  0.9118800E+02  0.7818608E-02  0.1130116E+00
         25   -1    0    0    0    0  0.00000000000E+00  0.00000000000E+00  0.99999998245E-14  0.12500000000E+03  0.12500000000E+03 0.  0.
        -11    1    3    3    0    0 -0.17356894779E+02  0.99481751999E+01  0.25725758838E+02  0.32588995907E+02  0.51100000000E-03 0.  1.
         23    2    1    0    0    0  0.53525667882E+01 -0.89375399578E+01 -0.28675238923E+02  0.94491002654E+02  0.89430144043E+02 0.  0.
         11    1    3    3    0    0  0.22709461567E+02 -0.18885715158E+02 -0.54400997761E+02  0.61902006748E+02  0.51100000000E-03 0. -1.
         22    1    1    0    0    0 -0.53525667882E+01  0.89375399578E+01  0.28675238923E+02  0.30508997346E+02  0.00000000000E+00 0. -1.
</event>
<event>
 5    1  0.1094625E-009  0.9118800E+02  0.7818608E-02  0.1130116E+00
         25   -1    0    0    0    0  0.00000000000E+00  0.00000000000E+00  0.99999998245E-14  0.12500000000E+03  0.12500000000E+03 0.  0.
        -11    1    3    3    0    0  0.55486437090E+02  0.24887881401E+02  0.22456461652E+01  0.60853876365E+02  0.51100000000E-03 0. -1.
         23    2    1    0    0    0  0.21706252983E+02  0.11965509088E+01 -0.48677231020E+01  0.10272248037E+03  0.10027771484E+03 0.  0.
         11    1    3    3    0    0 -0.33780184108E+02 -0.23691330492E+02 -0.71133692672E+01  0.41868604006E+02  0.51100000000E-03 0.  1.
         22    1    1    0    0    0 -0.21706252983E+02 -0.11965509088E+01  0.48677231020E+01  0.22277519629E+02  0.00000000000E+00 0. -1.
</event>
<event>
 5    1  0.1094625E-009  0.9118800E+02  0.7818608E-02  0.1130116E+00
         25   -1    0    0    0    0  0.00000000000E+00  0.00000000000E+00  0.99999998245E-14  0.12500000000E+03  0.12500000000E+03 0.  0.
        -11    1    3    3    0    0  0.47379096142E+01 -0.32312624406E+02  0.17291519402E+02  0.36953350686E+02  0.51100000000E-03 0.  1.
         23    2    1    0    0    0 -0.21266723408E+02  0.19098004904E+02  0.80638389829E+01  0.95300962727E+02  0.90555180314E+02 0.  0.
         11    1    3    3    0    0 -0.26004633022E+02  0.51410629309E+02 -0.92276804186E+01  0.58347612040E+02  0.51100000000E-03 0. -1.
         22    1    1    0    0    0  0.21266723408E+02 -0.19098004904E+02 -0.80638389829E+01  0.29699037273E+02  0.00000000000E+00 0. -1.
</event>
<event>
 5    1  0.1094625E-009  0.9118800E+02  0.7818608E-02  0.1130116E+00
         25   -1    0    0    0    0  0.00000000000E+00  0.00000000000E+00  0.99999998245E-14  0.12500000000E+03  0.12500000000E+03 0.  0.
        -11    1    3    3    0    0 -0.16107341329E+02 -0.10173353952E+01  0.36830141624E+02  0.40211201776E+02  0.51100000000E-03 0. -1.
         23    2    1    0    0    0 -0.22382286932E+02 -0.68661609805E+01 -0.17849719980E+02  0.95559832910E+02  0.90911815664E+02 0.  0.
         11    1    3    3    0    0 -0.62749456037E+01 -0.58488255853E+01 -0.54679861604E+02  0.55348631134E+02  0.51100000000E-03 0.  1.
         22    1    1    0    0    0  0.22382286932E+02  0.68661609805E+01  0.17849719980E+02  0.29440167090E+02  0.00000000000E+00 0.  1.
</event>
<event>
 5    1  0.1094625E-009  0.9118800E+02  0.7818608E-02  0.1130116E+00
         25   -1    0    0    0    0  0.00000000000E+00  0.00000000000E+00  0.99999998245E-14  0.12500000000E+03  0.12500000000E+03 0.  0.
        -11    1    3    3    0    0 -0.35681244485E+02 -0.32104272453E+02 -0.93113637875E+01  0.48893118264E+02  0.51100000000E-03 0.  1.
         23    2    1    0    0    0 -0.23892595659E+02  0.13341522995E+02 -0.10046968126E+02  0.95848774783E+02  0.91308234545E+02 0.  0.
         11    1    3    3    0    0  0.11788648826E+02  0.45445795449E+02 -0.73560433872E+00  0.46955656519E+02  0.51100000000E-03 0. -1.
         22    1    1    0    0    0  0.23892595659E+02 -0.13341522995E+02  0.10046968126E+02  0.29151225217E+02  0.00000000000E+00 0.  1.
</event>
<event>
 5    1  0.1094625E-009  0.9118800E+02  0.7818608E-02  0.1130116E+00
         25   -1    0    0    0    0  0.00000000000E+00  0.00000000000E+00  0.99999998245E-14  0.12500000000E+03  0.12500000000E+03 0.  0.
        -11    1    3    3    0    0  0.27888402381E+02  0.30885374322E+02  0.39963776830E+02  0.57695517964E+02  0.51100000000E-03 0.  1.
         23    2    1    0    0    0  0.10858968459E+02  0.27071560707E+02  0.69849136846E+01  0.95007073929E+02  0.90148591128E+02 0.  0.
         11    1    3    3    0    0 -0.17029433922E+02 -0.38138136152E+01 -0.32978863145E+02  0.37311555966E+02  0.51100000000E-03 0. -1.
         22    1    1    0    0    0 -0.10858968459E+02 -0.27071560707E+02 -0.69849136846E+01  0.29992926071E+02  0.00000000000E+00 0.  1.
</event>
<event>
 5    1  0.1094625E-009  0.9118800E+02  0.7818608E-02  0.1130116E+00
         25   -1    0    0    0    0  0.00000000000E+00  0.00000000000E+00  0.99999998245E-14  0.12500000000E+03  0.12500000000E+03 0.  0.
        -11    1    3    3    0    0  0.19554053473E+02  0.37893216369E+02 -0.31100870408E+01  0.42754292132E+02  0.51100000000E-03 0.  1.
         23    2    1    0    0    0  0.11626519059E+02 -0.10189422878E+02 -0.24545183836E+02  0.95991960881E+02  0.91504044830E+02 0.  0.
         11    1    3    3    0    0 -0.79275344143E+01 -0.48082639248E+02 -0.21435096795E+02  0.53237668748E+02  0.51100000000E-03 0. -1.
         22    1    1    0    0    0 -0.11626519059E+02  0.10189422878E+02  0.24545183836E+02  0.29008039119E+02  0.00000000000E+00 0. -1.
</event>
<event>
 5    1  0.1094625E-009  0.9118800E+02  0.7818608E-02  0.1130116E+00
         25   -1    0    0    0    0  0.00000000000E+00  0.00000000000E+00  0.99999998245E-14  0.12500000000E+03  0.12500000000E+03 0.  0.
        -11    1    3    3    0    0 -0.22485722963E+02 -0.47505108577E+02 -0.69435631508E+01  0.53014678605E+02  0.51100000000E-03 0. -1.
         23    2    1    0    0    0  0.66790111316E+01 -0.24252351350E+02  0.14425561720E+02  0.96002024784E+02  0.91517791691E+02 0.  0.
         11    1    3    3    0    0  0.29164734095E+02  0.23252757228E+02  0.21369124871E+02  0.42987346179E+02  0.51100000000E-03 0.  1.
         22    1    1    0    0    0 -0.66790111316E+01  0.24252351350E+02 -0.14425561720E+02  0.28997975216E+02  0.00000000000E+00 0. -1.
</event>
<event>
 5    1  0.1094625E-009  0.9118800E+02  0.7818608E-02  0.1130116E+00
         25   -1    0    0    0    0  0.00000000000E+00  0.00000000000E+00  0.99999998245E-14  0.12500000000E+03  0.12500000000E+03 0.  0.
        -11    1    3    3    0    0 -0.27343072068E+02  0.43471810231E+02 -0.10667338230E+02  0.52452206627E+02  0.51100000000E-03 0. -1.
         23    2    1    0    0    0  0.22219253406E+01  0.16687930577E+02 -0.25015392650E+02  0.94847158532E+02  0.89926579124E+02 0.  0.
         11    1    3    3    0    0  0.29564997408E+02 -0.26783879654E+02 -0.14348054420E+02  0.42394951904E+02  0.51100000000E-03 0.  1.
         22    1    1    0    0    0 -0.22219253406E+01 -0.16687930577E+02  0.25015392650E+02  0.30152841468E+02  0.00000000000E+00 0. -1.
</event>
<event>
 5    1  0.1094625E-009  0.9118800E+02  0.7818608E-02  0.1130116E+00
         25   -1    0    0    0    0  0.00000000000E+00  0.00000000000E+00  0.99999998245E-14  0.12500000000E+03  0.12500000000E+03 0.  0.
        -11    1    3    3    0    0  0.40866555085E+02  0.40826213570E+02  0.14051186736E+02  0.59449902337E+02  0.51100000000E-03 0. -1.
         23    2    1    0    0    0  0.22981348355E+02  0.19149146358E+02 -0.66521345787E+01  0.94355537647E+02  0.89240598450E+02 0.  0.
         11    1    3    3    0    0 -0.17885206729E+02 -0.21677067212E+02 -0.20703321315E+02  0.34905635310E+02  0.51100000000E-03 0.  1.
         22    1    1    0    0    0 -0.22981348355E+02 -0.19149146358E+02  0.66521345787E+01  0.30644462353E+02  0.00000000000E+00 0. -1.
</event>
<event>
 5    1  0.1094625E-009  0.9118800E+02  0.7818608E-02  0.1130116E+00
         25   -1    0    0    0    0  0.00000000000E+00  0.00000000000E+00  0.99999998245E-14  0.12500000000E+03  0.12500000000E+03 0.  0.
        -11    1    3    3    0    0  0.30018535518E+02 -0.30643529983E+02  0.40449248341E+02  0.58959987247E+02  0.51100000000E-03 0. -1.
         23    2    1    0    0    0  0.29134350784E+02 -0.17318283685E+02  0.14516962356E+02  0.88128933546E+02  0.80045195900E+02 0.  0.
         11    1    3    3    0    0 -0.88418473450E+00  0.13325246298E+02 -0.25932285985E+02  0.29168946300E+02  0.51100000000E-03 0.  1.
         22    1    1    0    0    0 -0.29134350784E+02  0.17318283685E+02 -0.14516962356E+02  0.36871066454E+02  0.00000000000E+00 0. -1.
</event>
<event>
 5    1  0.1094625E-009  0.9118800E+02  0.7818608E-02  0.1130116E+00
         25   -1    0    0    0    0  0.00000000000E+00  0.00000000000E+00  0.99999998245E-14  0.12500000000E+03  0.12500000000E+03 0.  0.
        -11    1    3    3    0    0  0.38029864424E+02 -0.84218252200E+01  0.94721028543E+01  0.40086387476E+02  0.51100000000E-03 0. -1.
         23    2    1    0    0    0 -0.80940998815E-01  0.30092101576E+02  0.54515522070E+01  0.94417970143E+02  0.89328005327E+02 0.  0.
         11    1    3    3    0    0 -0.38110805423E+02  0.38513926796E+02 -0.40205506473E+01  0.54331582666E+02  0.51100000000E-03 0.  1.
         22    1    1    0    0    0  0.80940998815E-01 -0.30092101576E+02 -0.54515522070E+01  0.30582029857E+02  0.00000000000E+00 0.  1.
</event>
<event>
 5    1  0.1094625E-009  0.9118800E+02  0.7818608E-02  0.1130116E+00
         25   -1    0    0    0    0  0.00000000000E+00  0.00000000000E+00  0.99999998245E-14  0.12500000000E+03  0.12500000000E+03 0.  0.
        -11    1    3    3    0    0 -0.17217658265E+02  0.48921599698E+02 -0.22120548467E+02  0.56383413677E+02  0.51100000000E-03 0.  1.
         23    2    1    0    0    0 -0.24980840109E+02  0.17804409156E+02 -0.19677902450E+01  0.94260586271E+02  0.89107500065E+02 0.  0.
         11    1    3    3    0    0 -0.77631818436E+01 -0.31117190541E+02  0.20152758222E+02  0.37877172595E+02  0.51100000000E-03 0. -1.
         22    1    1    0    0    0  0.24980840109E+02 -0.17804409156E+02  0.19677902450E+01  0.30739413729E+02  0.00000000000E+00 0.  1.
</event>
<event>
 5    1  0.1094625E-009  0.9118800E+02  0.7818608E-02  0.1130116E+00
         25   -1    0    0    0    0  0.00000000000E+00  0.00000000000E+00  0.99999998245E-14  0.12500000000E+03  0.12500000000E+03 0.  0.
        -11    1    3    3    0    0 -0.38489708701E+02 -0.92660524275E+01  0.24963297043E+01  0.39667985400E+02  0.51100000000E-03 0.  1.
         23    2    1    0    0    0 -0.29352106255E+02  0.21708749156E+02  0.26484912125E+02  0.79897156389E+02  0.65949140232E+02 0.  0.
         11    1    3    3    0    0  0.91376024464E+01  0.30974801583E+02  0.23988582421E+02  0.40229170989E+02  0.51100000000E-03 0. -1.
         22    1    1    0    0    0  0.29352106255E+02 -0.21708749156E+02 -0.26484912125E+02  0.45102843611E+02  0.00000000000E+00 0. -1.
</event>
<event>
 5    1  0.1094625E-009  0.9118800E+02  0.7818608E-02  0.1130116E+00
         25   -1    0    0    0    0  0.00000000000E+00  0.00000000000E+00  0.99999998245E-14  0.12500000000E+03  0.12500000000E+03 0.  0.
        -11    1    3    3    0    0  0.31466378908E+02 -0.37170858630E+02 -0.29562908435E+01  0.48790833039E+02  0.51100000000E-03 0.  1.
         23    2    1    0    0    0 -0.94620200172E+01 -0.14982845997E+02 -0.19918032339E+02  0.98340226759E+02  0.94657575977E+02 0.  0.
         11    1    3    3    0    0 -0.40928398925E+02  0.22188012633E+02 -0.16961741496E+02  0.49549393720E+02  0.51100000000E-03 0. -1.
         22    1    1    0    0    0  0.94620200172E+01  0.14982845997E+02  0.19918032339E+02  0.26659773241E+02  0.00000000000E+00 0. -1.
</event>
<event>
 5    1  0.1094625E-009  0.9118800E+02  0.7818608E-02  0.1130116E+00
         25   -1    0    0    0    0  0.00000000000E+00  0.00000000000E+00  0.99999998245E-14  0.12500000000E+03  0.12500000000E+03 0.  0.
        -11    1    3    3    0    0 -0.32069044384E+02 -0.23982451028E+02 -0.99138154362E+01  0.41253670161E+02  0.51100000000E-03 0. -1.
         23    2    1    0    0    0 -0.57924557560E+01  0.23080608539E+02 -0.17189947961E+02  0.95644228078E+02  0.91027781581E+02 0.  0.
         11    1    3    3    0    0  0.26276588628E+02  0.47063059567E+02 -0.72761325248E+01  0.54390557917E+02  0.51100000000E-03 0.  1.
         22    1    1    0    0    0  0.57924557560E+01 -0.23080608539E+02  0.17189947961E+02  0.29355771922E+02  0.00000000000E+00 0.  1.
</event>
<event>
 5    1  0.1094625E-009  0.9118800E+02  0.7818608E-02  0.1130116E+00
         25   -1    0    0    0    0  0.00000000000E+00  0.00000000000E+00  0.99999998245E-14  0.12500000000E+03  0.12500000000E+03 0.  0.
        -11    1    3    3    0    0 -0.52483498171E+01  0.48447542585E+01 -0.48944025653E+02  0.49462455125E+02  0.51100000000E-03 0. -1.
         23    2    1    0    0    0 -0.22132258933E+02  0.17330106845E+02 -0.75252851559E+01  0.95900182038E+02  0.91378583430E+02 0.  0.
         11    1    3    3    0    0 -0.16883909116E+02  0.12485352586E+02  0.41418740497E+02  0.46437726913E+02  0.51100000000E-03 0.  1.
         22    1    1    0    0    0  0.22132258933E+02 -0.17330106845E+02  0.75252851559E+01  0.29099817962E+02  0.00000000000E+00 0. -1.
</event>
<event>
 5    1  0.1094625E-009  0.9118800E+02  0.7818608E-02  0.1130116E+00
         25   -1    0    0    0    0  0.00000000000E+00  0.00000000000E+00  0.99999998245E-14  0.12500000000E+03  0.12500000000E+03 0.  0.
        -11    1    3    3    0    0 -0.69018644863E+01  0.49339513561E+02 -0.10477026843E+02  0.50909639790E+02  0.51100000000E-03 0. -1.
         23    2    1    0    0    0 -0.16287969814E+02  0.75223656469E+01 -0.23252262803E+02  0.95630769996E+02  0.91009298970E+02 0.  0.
         11    1    3    3    0    0 -0.93861053276E+01 -0.41817147914E+02 -0.12775235960E+02  0.44721130206E+02  0.51100000000E-03 0.  1.
         22    1    1    0    0    0  0.16287969814E+02 -0.75223656469E+01  0.23252262803E+02  0.29369230004E+02  0.00000000000E+00 0. -1.
</event>
<event>
 5    1  0.1094625E-009  0.9118800E+02  0.7818608E-02  0.1130116E+00
         25   -1    0    0    0    0  0.00000000000E+00  0.00000000000E+00  0.99999998245E-14  0.12500000000E+03  0.12500000000E+03 0.  0.
        -11    1    3    3    0    0  0.17728311070E+02 -0.34122623777E+01 -0.40007169877E+02  0.43892028772E+02  0.51100000000E-03 0.  1.
         23    2    1    0    0    0 -0.10807996737E+01 -0.26320166625E+02  0.53929651432E+01  0.98111277975E+02  0.94354753424E+02 0.  0.
         11    1    3    3    0    0 -0.18809110744E+02 -0.22907904247E+02  0.45400135020E+02  0.54219249202E+02  0.51100000000E-03 0. -1.
         22    1    1    0    0    0  0.10807996737E+01  0.26320166625E+02 -0.53929651432E+01  0.26888722025E+02  0.00000000000E+00 0. -1.
</event>
<event>
 5    1  0.1094625E-009  0.9118800E+02  0.7818608E-02  0.1130116E+00
         25   -1    0    0    0    0  0.00000000000E+00  0.00000000000E+00  0.99999998245E-14  0.12500000000E+03  0.12500000000E+03 0.  0.
        -11    1    3    3    0    0  0.28964171218E+02  0.22024881298E+02 -0.18024188283E+02  0.40606526249E+02  0.51100000000E-03 0.  1.
         23    2    1    0    0    0  0.67699221189E+01  0.89713586512E+00  0.28155624676E+02  0.96028015271E+02  0.91553284035E+02 0.  0.
         11    1    3    3    0    0 -0.22194249099E+02 -0.21127745432E+02  0.46179812959E+02  0.55421489021E+02  0.51100000000E-03 0. -1.
         22    1    1    0    0    0 -0.67699221189E+01 -0.89713586512E+00 -0.28155624676E+02  0.28971984729E+02  0.00000000000E+00 0. -1.
</event>
<event>
 5    1  0.1094625E-009  0.9118800E+02  0.7818608E-02  0.1130116E+00
         25   -1    0    0    0    0  0.00000000000E+00  0.00000000000E+00  0.99999998245E-14  0.12500000000E+03  0.12500000000E+03 0.  0.
        -11    1    3    3    0    0 -0.34110891468E+01 -0.13917628211E+02  0.58871826785E+02  0.60590658466E+02  0.51100000000E-03 0. -1.
         23    2    1    0    0    0  0.25312928847E+01  0.37865465942E+01  0.27697035780E+02  0.96930957092E+02  0.92777902935E+02 0.  0.
         11    1    3    3    0    0  0.59423820315E+01  0.17704174805E+02 -0.31174791005E+02  0.36340298625E+02  0.51100000000E-03 0.  1.
         22    1    1    0    0    0 -0.25312928847E+01 -0.37865465942E+01 -0.27697035780E+02  0.28069042908E+02  0.00000000000E+00 0. -1.
</event>
<event>
 5    1  0.1094625E-009  0.9118800E+02  0.7818608E-02  0.1130116E+00
         25   -1    0    0    0    0  0.00000000000E+00  0.00000000000E+00  0.99999998245E-14  0.12500000000E+03  0.12500000000E+03 0.  0.
        -11    1    3    3    0    0 -0.24062722793E+02 -0.13902450369E+02 -0.35806049556E+02  0.45325113784E+02  0.51100000000E-03 0.  1.
         23    2    1    0    0    0 -0.45852282513E+01 -0.16655729794E+02  0.16440414932E+02  0.10115204629E+03  0.98300618372E+02 0.  0.
         11    1    3    3    0    0  0.19477494542E+02 -0.27532794245E+01  0.52246464488E+02  0.55826932505E+02  0.51100000000E-03 0. -1.
         22    1    1    0    0    0  0.45852282513E+01  0.16655729794E+02 -0.16440414932E+02  0.23847953711E+02  0.00000000000E+00 0. -1.
</event>
<event>
 5    1  0.1094625E-009  0.9118800E+02  0.7818608E-02  0.1130116E+00
         25   -1    0    0    0    0  0.00000000000E+00  0.00000000000E+00  0.99999998245E-14  0.12500000000E+03  0.12500000000E+03 0.  0.
        -11    1    3    3    0    0 -0.38193119817E+02  0.81504657827E+00  0.11874846966E+01  0.38220267168E+02  0.51100000000E-03 0.  1.
         23    2    1    0    0    0  0.13152784071E+02 -0.83581038547E+01 -0.24189766754E+02  0.96225037889E+02  0.91821889941E+02 0.  0.
         11    1    3    3    0    0  0.51345903888E+02 -0.91731504330E+01 -0.25377251451E+02  0.58004770721E+02  0.51100000000E-03 0. -1.
         22    1    1    0    0    0 -0.13152784071E+02  0.83581038547E+01  0.24189766754E+02  0.28774962111E+02  0.00000000000E+00 0. -1.
</event>
<event>
 5    1  0.1094625E-009  0.9118800E+02  0.7818608E-02  0.1130116E+00
         25   -1    0    0    0    0  0.00000000000E+00  0.00000000000E+00  0.99999998245E-14  0.12500000000E+03  0.12500000000E+03 0.  0.
        -11    1    3    3    0    0 -0.35910465604E+01 -0.34753739051E+02  0.13074867176E+01  0.34963230903E+02  0.51100000000E-03 0. -1.
         23    2    1    0    0    0  0.18971602472E+02  0.16230070791E+02  0.19185969617E+02  0.93512886312E+02  0.88052379741E+02 0.  0.
         11    1    3    3    0    0  0.22562649032E+02  0.50983809842E+02  0.17878482900E+02  0.58549655409E+02  0.51100000000E-03 0.  1.
         22    1    1    0    0    0 -0.18971602472E+02 -0.16230070791E+02 -0.19185969617E+02  0.31487113688E+02  0.00000000000E+00 0.  1.
</event>
<event>
 5    1  0.1094625E-009  0.9118800E+02  0.7818608E-02  0.1130116E+00
         25   -1    0    0    0    0  0.00000000000E+00  0.00000000000E+00  0.99999998245E-14  0.12500000000E+03  0.12500000000E+03 0.  0.
        -11    1    3    3    0    0  0.22930576742E+02  0.12808233873E+02 -0.38410040553E+02  0.46531638916E+02  0.51100000000E-03 0. -1.
         23    2    1    0    0    0 -0.15248886517E+02 -0.13181077664E+02 -0.21006336459E+02  0.95887536693E+02  0.91361283776E+02 0.  0.
         11    1    3    3    0    0 -0.38179463258E+02 -0.25989311538E+02  0.17403704095E+02  0.49355897777E+02  0.51100000000E-03 0.  1.
         22    1    1    0    0    0  0.15248886517E+02  0.13181077664E+02  0.21006336459E+02  0.29112463307E+02  0.00000000000E+00 0. -1.
</event>
<event>
 5    1  0.1094625E-009  0.9118800E+02  0.7818608E-02  0.1130116E+00
         25   -1    0    0    0    0  0.00000000000E+00  0.00000000000E+00  0.99999998245E-14  0.12500000000E+03  0.12500000000E+03 0.  0.
        -11    1    3    3    0    0 -0.15937134032E+02  0.49565808368E+02 -0.28630768814E+02  0.59417863673E+02  0.51100000000E-03 0.  1.
         23    2    1    0    0    0 -0.18889377038E+02  0.22013735880E+02 -0.55818182469E+01  0.95460707063E+02  0.90775419392E+02 0.  0.
         11    1    3    3    0    0 -0.29522430055E+01 -0.27552072487E+02  0.23048950567E+02  0.36042843390E+02  0.51100000000E-03 0. -1.
         22    1    1    0    0    0  0.18889377038E+02 -0.22013735880E+02  0.55818182469E+01  0.29539292937E+02  0.00000000000E+00 0.  1.
</event>
<event>
 5    1  0.1094625E-009  0.9118800E+02  0.7818608E-02  0.1130116E+00
         25   -1    0    0    0    0  0.00000000000E+00  0.00000000000E+00  0.99999998245E-14  0.12500000000E+03  0.12500000000E+03 0.  0.
        -11    1    3    3    0    0  0.14569069141E+02  0.32221206328E+02 -0.19670809800E+02  0.40464857238E+02  0.51100000000E-03 0.  1.
         23    2    1    0    0    0  0.81221292615E+01 -0.23075032131E+02 -0.14939132040E+02  0.96336368728E+02  0.91973323209E+02 0.  0.
         11    1    3    3    0    0 -0.64469398792E+01 -0.55296238459E+02  0.47316777599E+01  0.55871511490E+02  0.51100000000E-03 0. -1.
         22    1    1    0    0    0 -0.81221292615E+01  0.23075032131E+02  0.14939132040E+02  0.28663631272E+02  0.00000000000E+00 0. -1.
</event>
<event>
 5    1  0.1094625E-009  0.9118800E+02  0.7818608E-02  0.1130116E+00
         25   -1    0    0    0    0  0.00000000000E+00  0.00000000000E+00  0.99999998245E-14  0.12500000000E+03  0.12500000000E+03 0.  0.
        -11    1    3    3    0    0  0.15228793538E+02 -0.46510518825E+02  0.10805164304E+02  0.50118819718E+02  0.51100000000E-03 0. -1.
         23    2    1    0    0    0 -0.47713267716E+01 -0.94619251488E+01  0.27591042243E+02  0.95443965104E+02  0.90752362372E+02 0.  0.
         11    1    3    3    0    0 -0.20000120310E+02  0.37048593677E+02  0.16785877940E+02  0.45325145386E+02  0.51100000000E-03 0.  1.
         22    1    1    0    0    0  0.47713267716E+01  0.94619251488E+01 -0.27591042243E+02  0.29556034896E+02  0.00000000000E+00 0.  1.
</event>
<event>
 5    1  0.1094625E-009  0.9118800E+02  0.7818608E-02  0.1130116E+00
         25   -1    0    0    0    0  0.00000000000E+00  0.00000000000E+00  0.99999998245E-14  0.12500000000E+03  0.12500000000E+03 0.  0.
        -11    1    3    3    0    0  0.38428099113E+02 -0.43272843543E+02  0.11504716985E+02  0.59005222675E+02  0.51100000000E-03 0. -1.
         23    2    1    0    0    0  0.23046768231E+02 -0.15076004268E+02 -0.76692676607E+01  0.96412291154E+02  0.92076450782E+02 0.  0.
         11    1    3    3    0    0 -0.15381330881E+02  0.28196839275E+02 -0.19173984646E+02  0.37407068480E+02  0.51100000000E-03 0.  1.
         22    1    1    0    0    0 -0.23046768231E+02  0.15076004268E+02  0.76692676607E+01  0.28587708846E+02  0.00000000000E+00 0. -1.
</event>
<event>
 5    1  0.1094625E-009  0.9118800E+02  0.7818608E-02  0.1130116E+00
         25   -1    0    0    0    0  0.00000000000E+00  0.00000000000E+00  0.99999998245E-14  0.12500000000E+03  0.12500000000E+03 0.  0.
        -11    1    3    3    0    0 -0.11366344674E+02  0.42119359207E+02  0.33661496263E+00  0.43627371238E+02  0.51100000000E-03 0.  1.
         23    2    1    0    0    0 -0.23747281930E+02 -0.51692378516E+01 -0.16831762622E+02  0.95437140667E+02  0.90742962078E+02 0.  0.
         11    1    3    3    0    0 -0.12380937256E+02 -0.47288597059E+02 -0.17168377584E+02  0.51809769429E+02  0.51100000000E-03 0. -1.
         22    1    1    0    0    0  0.23747281930E+02  0.51692378516E+01  0.16831762622E+02  0.29562859333E+02  0.00000000000E+00 0.  1.
</event>
<event>
 5    1  0.1094625E-009  0.9118800E+02  0.7818608E-02  0.1130116E+00
         25   -1    0    0    0    0  0.00000000000E+00  0.00000000000E+00  0.99999998245E-14  0.12500000000E+03  0.12500000000E+03 0.  0.
        -11    1    3    3    0    0  0.50242549080E+02  0.31995481062E+02 -0.91960688060E+01  0.60270989939E+02  0.51100000000E-03 0.  1.
         23    2    1    0    0    0  0.30630921465E+02  0.60020288067E+01 -0.13890636736E+01  0.93755685357E+02  0.88396387592E+02 0.  0.
         11    1    3    3    0    0 -0.19611627615E+02 -0.25993452255E+02  0.78070051325E+01  0.33484695418E+02  0.51100000000E-03 0. -1.
         22    1    1    0    0    0 -0.30630921465E+02 -0.60020288067E+01  0.13890636736E+01  0.31244314643E+02  0.00000000000E+00 0.  1.
</event>
<event>
 5    1  0.1094625E-009  0.9118800E+02  0.7818608E-02  0.1130116E+00
         25   -1    0    0    0    0  0.00000000000E+00  0.00000000000E+00  0.99999998245E-14  0.12500000000E+03  0.12500000000E+03 0.  0.
        -11    1    3    3    0    0  0.32404173460E+02  0.34697264379E+01  0.12342380602E+02  0.34848297209E+02  0.51100000000E-03 0.  1.
         23    2    1    0    0    0 -0.16239001012E+02 -0.84971276826E+01 -0.22583472730E+02  0.95915303452E+02  0.91399266207E+02 0.  0.
         11    1    3    3    0    0 -0.48643174472E+02 -0.11966854120E+02 -0.34925853332E+02  0.61067006243E+02  0.51100000000E-03 0. -1.
         22    1    1    0    0    0  0.16239001012E+02  0.84971276826E+01  0.22583472730E+02  0.29084696548E+02  0.00000000000E+00 0. -1.
</event>
<event>
 5    1  0.1094625E-009  0.9118800E+02  0.7818608E-02  0.1130116E+00
         25   -1    0    0    0    0  0.00000000000E+00  0.00000000000E+00  0.99999998245E-14  0.12500000000E+03  0.12500000000E+03 0.  0.
        -11    1    3    3    0    0  0.37275989386E+02  0.69794223815E+01  0.15136356344E+02  0.40832842237E+02  0.51100000000E-03 0.  1.
         23    2    1    0    0    0  0.68167370101E+01 -0.98558457848E+01 -0.26986273736E+02  0.95472647092E+02  0.90791859619E+02 0.  0.
         11    1    3    3    0    0 -0.30459252376E+02 -0.16835268166E+02 -0.42122630079E+02  0.54639804855E+02  0.51100000000E-03 0. -1.
         22    1    1    0    0    0 -0.68167370101E+01  0.98558457848E+01  0.26986273736E+02  0.29527352908E+02  0.00000000000E+00 0.  1.
</event>
<event>
 5    1  0.1094625E-009  0.9118800E+02  0.7818608E-02  0.1130116E+00
         25   -1    0    0    0    0  0.00000000000E+00  0.00000000000E+00  0.99999998245E-14  0.12500000000E+03  0.12500000000E+03 0.  0.
        -11    1    3    3    0    0  0.18976728143E+02  0.43336164377E+02 -0.39917290333E+02  0.61899349122E+02  0.51100000000E-03 0. -1.
         23    2    1    0    0    0  0.13719248758E+02  0.16227652825E+02 -0.16837544914E+02  0.97888057587E+02  0.94058568970E+02 0.  0.
         11    1    3    3    0    0 -0.52574793854E+01 -0.27108511553E+02  0.23079745419E+02  0.35988708465E+02  0.51100000000E-03 0.  1.
         22    1    1    0    0    0 -0.13719248758E+02 -0.16227652825E+02  0.16837544914E+02  0.27111942413E+02  0.00000000000E+00 0. -1.
</event>
<event>
 5    1  0.1094625E-009  0.9118800E+02  0.7818608E-02  0.1130116E+00
         25   -1    0    0    0    0  0.00000000000E+00  0.00000000000E+00  0.99999998245E-14  0.12500000000E+03  0.12500000000E+03 0.  0.
        -11    1    3    3    0    0  0.25758941757E+02  0.30488117081E+02  0.18676348557E+02  0.44066476593E+02  0.51100000000E-03 0.  1.
         23    2    1    0    0    0  0.21642184274E+02 -0.19122081849E+02  0.87139763209E+01  0.94834265503E+02  0.89908655734E+02 0.  0.
         11    1    3    3    0    0 -0.41167574826E+01 -0.49610198930E+02 -0.99623722364E+01  0.50767788911E+02  0.51100000000E-03 0. -1.
         22    1    1    0    0    0 -0.21642184274E+02  0.19122081849E+02 -0.87139763209E+01  0.30165734497E+02  0.00000000000E+00 0.  1.
</event>
<event>
 5    1  0.1094625E-009  0.9118800E+02  0.7818608E-02  0.1130116E+00
         25   -1    0    0    0    0  0.00000000000E+00  0.00000000000E+00  0.99999998245E-14  0.12500000000E+03  0.12500000000E+03 0.  0.
        -11    1    3    3    0    0  0.20893821853E+02  0.21396870846E+02  0.23595925374E+02  0.38093904606E+02  0.51100000000E-03 0.  1.
         23    2    1    0    0    0 -0.27299842539E+02 -0.63234027017E+01  0.69740574263E+01  0.96122598778E+02  0.91682330329E+02 0.  0.
         11    1    3    3    0    0 -0.48193664391E+02 -0.27720273548E+02 -0.16621867947E+02  0.58028694172E+02  0.51100000000E-03 0. -1.
         22    1    1    0    0    0  0.27299842539E+02  0.63234027017E+01 -0.69740574263E+01  0.28877401222E+02  0.00000000000E+00 0. -1.
</event>
<event>
 5    1  0.1094625E-009  0.9118800E+02  0.7818608E-02  0.1130116E+00
         25   -1    0    0    0    0  0.00000000000E+00  0.00000000000E+00  0.99999998245E-14  0.12500000000E+03  0.12500000000E+03 0.  0.
        -11    1    3    3    0    0 -0.18534228376E+02  0.25547570138E+02 -0.44199189817E+02  0.54311733007E+02  0.51100000000E-03 0. -1.
         23    2    1    0    0    0 -0.47965795319E+01  0.29654957100E+02 -0.70337807500E+01  0.94147160139E+02  0.88948243574E+02 0.  0.
         11    1    3    3    0    0  0.13737648844E+02  0.41073869620E+01  0.37165409067E+02  0.39835427132E+02  0.51100000000E-03 0.  1.
         22    1    1    0    0    0  0.47965795319E+01 -0.29654957100E+02  0.70337807500E+01  0.30852839861E+02  0.00000000000E+00 0. -1.
</event>
<event>
 5    1  0.1094625E-009  0.9118800E+02  0.7818608E-02  0.1130116E+00
         25   -1    0    0    0    0  0.00000000000E+00  0.00000000000E+00  0.99999998245E-14  0.12500000000E+03  0.12500000000E+03 0.  0.
        -11    1    3    3    0    0  0.37058455388E+02  0.34983950266E+01  0.16047503148E+02  0.40535049538E+02  0.51100000000E-03 0.  1.
         23    2    1    0    0    0 -0.12353326681E+02  0.25777352931E+02  0.78803784235E+01  0.95349081493E+02  0.90621577856E+02 0.  0.
         11    1    3    3    0    0 -0.49411782069E+02  0.22278957905E+02 -0.81671247247E+01  0.54814031954E+02  0.51100000000E-03 0. -1.
         22    1    1    0    0    0  0.12353326681E+02 -0.25777352931E+02 -0.78803784235E+01  0.29650918507E+02  0.00000000000E+00 0. -1.
</event>
<event>
 5    1  0.1094625E-009  0.9118800E+02  0.7818608E-02  0.1130116E+00
         25   -1    0    0    0    0  0.00000000000E+00  0.00000000000E+00  0.99999998245E-14  0.12500000000E+03  0.12500000000E+03 0.  0.
        -11    1    3    3    0    0  0.57550424625E+01  0.33826413887E+02 -0.21133657297E+02  0.40298613639E+02  0.51100000000E-03 0.  1.
         23    2    1    0    0    0 -0.34330317372E+02  0.18991290617E+02 -0.11545975366E+02  0.84103186465E+02  0.73490112371E+02 0.  0.
         11    1    3    3    0    0 -0.40085359834E+02 -0.14835123270E+02  0.95876819305E+01  0.43804572827E+02  0.51100000000E-03 0. -1.
         22    1    1    0    0    0  0.34330317372E+02 -0.18991290617E+02  0.11545975366E+02  0.40896813535E+02  0.00000000000E+00 0. -1.
</event>
<event>
 5    1  0.1094625E-009  0.9118800E+02  0.7818608E-02  0.1130116E+00
         25   -1    0    0    0    0  0.00000000000E+00  0.00000000000E+00  0.99999998245E-14  0.12500000000E+03  0.12500000000E+03 0.  0.
        -11    1    3    3    0    0  0.31278330247E+02 -0.23653448815E+02  0.53431349520E+01  0.39577375800E+02  0.51100000000E-03 0. -1.
         23    2    1    0    0    0  0.15426776496E+01  0.25394366303E+02  0.11139131194E+02  0.97227100655E+02  0.93176043938E+02 0.  0.
         11    1    3    3    0    0 -0.29735652597E+02  0.49047815118E+02  0.57959962420E+01  0.57649724855E+02  0.51100000000E-03 0.  1.
         22    1    1    0    0    0 -0.15426776496E+01 -0.25394366303E+02 -0.11139131194E+02  0.27772899345E+02  0.00000000000E+00 0.  1.
</event>
<event>
 5    1  0.1094625E-009  0.9118800E+02  0.7818608E-02  0.1130116E+00
         25   -1    0    0    0    0  0.00000000000E+00  0.00000000000E+00  0.99999998245E-14  0.12500000000E+03  0.12500000000E+03 0.  0.
        -11    1    3    3    0    0 -0.53901258141E+02 -0.21616276534E+02  0.18690920920E+02  0.61007864784E+02  0.51100000000E-03 0.  1.
         23    2    1    0    0    0 -0.28197746019E+02 -0.15278362653E+02  0.87623530239E+00  0.92917153583E+02  0.87202571039E+02 0.  0.
         11    1    3    3    0    0  0.25703512122E+02  0.63379138810E+01 -0.17814685618E+02  0.31909288799E+02  0.51100000000E-03 0. -1.
         22    1    1    0    0    0  0.28197746019E+02  0.15278362653E+02 -0.87623530239E+00  0.32082846417E+02  0.00000000000E+00 0.  1.
</event>
<event>
 5    1  0.1094625E-009  0.9118800E+02  0.7818608E-02  0.1130116E+00
         25   -1    0    0    0    0  0.00000000000E+00  0.00000000000E+00  0.99999998245E-14  0.12500000000E+03  0.12500000000E+03 0.  0.
        -11    1    3    3    0    0  0.11769683623E+02  0.27139294033E+02 -0.17266250591E+02  0.34251863350E+02  0.51100000000E-03 0.  1.
         23    2    1    0    0    0 -0.15767441080E+02 -0.21088874640E+02  0.10875296816E+02  0.96510968556E+02  0.92210314711E+02 0.  0.
         11    1    3    3    0    0 -0.27537124703E+02 -0.48228168672E+02  0.28141547407E+02  0.62259105207E+02  0.51100000000E-03 0. -1.
         22    1    1    0    0    0  0.15767441080E+02  0.21088874640E+02 -0.10875296816E+02  0.28489031444E+02  0.00000000000E+00 0. -1.
</event>
<event>
 5    1  0.1094625E-009  0.9118800E+02  0.7818608E-02  0.1130116E+00
         25   -1    0    0    0    0  0.00000000000E+00  0.00000000000E+00  0.99999998245E-14  0.12500000000E+03  0.12500000000E+03 0.  0.
        -11    1    3    3    0    0 -0.20476884570E+02  0.36299221108E+01 -0.38004491535E+02  0.43322286567E+02  0.51100000000E-03 0. -1.
         23    2    1    0    0    0  0.21958890857E+02  0.15524220048E+02 -0.69853307028E+01  0.97215307437E+02  0.93160221443E+02 0.  0.
         11    1    3    3    0    0  0.42435775428E+02  0.11894297937E+02  0.31019160833E+02  0.53893020871E+02  0.51100000000E-03 0.  1.
         22    1    1    0    0    0 -0.21958890857E+02 -0.15524220048E+02  0.69853307028E+01  0.27784692563E+02  0.00000000000E+00 0.  1.
</event>
<event>
 5    1  0.1094625E-009  0.9118800E+02  0.7818608E-02  0.1130116E+00
         25   -1    0    0    0    0  0.00000000000E+00  0.00000000000E+00  0.99999998245E-14  0.12500000000E+03  0.12500000000E+03 0.  0.
        -11    1    3    3    0    0 -0.30456682620E+02  0.20445716028E+02 -0.41617254208E+02  0.55476415423E+02  0.51100000000E-03 0. -1.
         23    2    1    0    0    0 -0.27575865410E+02 -0.52105156574E+01 -0.12837203320E+02  0.94139481281E+02  0.88937451731E+02 0.  0.
         11    1    3    3    0    0  0.28808172102E+01 -0.25656231686E+02  0.28780050889E+02  0.38663065858E+02  0.51100000000E-03 0.  1.
         22    1    1    0    0    0  0.27575865410E+02  0.52105156574E+01  0.12837203320E+02  0.30860518719E+02  0.00000000000E+00 0. -1.
</event>
<event>
 5    1  0.1094625E-009  0.9118800E+02  0.7818608E-02  0.1130116E+00
         25   -1    0    0    0    0  0.00000000000E+00  0.00000000000E+00  0.99999998245E-14  0.12500000000E+03  0.12500000000E+03 0.  0.
        -11    1    3    3    0    0  0.66742031046E+01  0.21234876062E+02  0.31246672354E+02  0.38364299575E+02  0.51100000000E-03 0. -1.
         23    2    1    0    0    0 -0.24350002064E+02 -0.71114940512E+01 -0.10450396597E+02  0.97564498598E+02  0.93627584874E+02 0.  0.
         11    1    3    3    0    0 -0.31024205169E+02 -0.28346370113E+02 -0.41697068951E+02  0.59200199022E+02  0.51100000000E-03 0.  1.
         22    1    1    0    0    0  0.24350002064E+02  0.71114940512E+01  0.10450396597E+02  0.27435501402E+02  0.00000000000E+00 0.  1.
</event>
<event>
 5    1  0.1094625E-009  0.9118800E+02  0.7818608E-02  0.1130116E+00
         25   -1    0    0    0    0  0.00000000000E+00  0.00000000000E+00  0.99999998245E-14  0.12500000000E+03  0.12500000000E+03 0.  0.
        -11    1    3    3    0    0  0.12782531745E+02  0.36120689525E+01  0.47199787290E+02  0.49033254842E+02  0.51100000000E-03 0. -1.
         23    2    1    0    0    0 -0.21050975352E+02 -0.96729862651E+01  0.19013667816E+02  0.95029518016E+02  0.90179706719E+02 0.  0.
         11    1    3    3    0    0 -0.33833507098E+02 -0.13285055218E+02 -0.28186119474E+02  0.45996263173E+02  0.51100000000E-03 0.  1.
         22    1    1    0    0    0  0.21050975352E+02  0.96729862651E+01 -0.19013667816E+02  0.29970481984E+02  0.00000000000E+00 0. -1.
</event>
<event>
 5    1  0.1094625E-009  0.9118800E+02  0.7818608E-02  0.1130116E+00
         25   -1    0    0    0    0  0.00000000000E+00  0.00000000000E+00  0.99999998245E-14  0.12500000000E+03  0.12500000000E+03 0.  0.
        -11    1    3    3    0    0 -0.44539843613E+02 -0.21995296583E+02 -0.20231851681E+01  0.49716033825E+02  0.51100000000E-03 0.  1.
         23    2    1    0    0    0 -0.19401116319E+02  0.10692336806E+02  0.18830663389E+02  0.95925556507E+02  0.91413287473E+02 0.  0.
         11    1    3    3    0    0  0.25138727294E+02  0.32687633389E+02  0.20853848557E+02  0.46209522681E+02  0.51100000000E-03 0. -1.
         22    1    1    0    0    0  0.19401116319E+02 -0.10692336806E+02 -0.18830663389E+02  0.29074443493E+02  0.00000000000E+00 0. -1.
</event>
<event>
 5    1  0.1094625E-009  0.9118800E+02  0.7818608E-02  0.1130116E+00
         25   -1    0    0    0    0  0.00000000000E+00  0.00000000000E+00  0.99999998245E-14  0.12500000000E+03  0.12500000000E+03 0.  0.
        -11    1    3    3    0    0 -0.35071096116E+02  0.29206504171E+02 -0.24921005650E+02  0.52000559531E+02  0.51100000000E-03 0. -1.
         23    2    1    0    0    0 -0.16818116592E+02  0.12936431189E+02  0.15140050196E+02  0.98934286552E+02  0.95438837158E+02 0.  0.
         11    1    3    3    0    0  0.18252979524E+02 -0.16270072982E+02  0.40061055846E+02  0.46933727021E+02  0.51100000000E-03 0.  1.
         22    1    1    0    0    0  0.16818116592E+02 -0.12936431189E+02 -0.15140050196E+02  0.26065713448E+02  0.00000000000E+00 0. -1.
</event>
<event>
 5    1  0.1094625E-009  0.9118800E+02  0.7818608E-02  0.1130116E+00
         25   -1    0    0    0    0  0.00000000000E+00  0.00000000000E+00  0.99999998245E-14  0.12500000000E+03  0.12500000000E+03 0.  0.
        -11    1    3    3    0    0 -0.31920829951E+02 -0.55695699539E+01 -0.49254960996E+02  0.58957702441E+02  0.51100000000E-03 0.  1.
         23    2    1    0    0    0 -0.19136013539E+02 -0.26943183133E+01 -0.51036098737E+01  0.10501267404E+03  0.10309300902E+03 0.  0.
         11    1    3    3    0    0  0.12784816412E+02  0.28752516405E+01  0.44151351122E+02  0.46054971597E+02  0.51100000000E-03 0. -1.
         22    1    1    0    0    0  0.19136013539E+02  0.26943183133E+01  0.51036098737E+01  0.19987325961E+02  0.00000000000E+00 0.  1.
</event>
<event>
 5    1  0.1094625E-009  0.9118800E+02  0.7818608E-02  0.1130116E+00
         25   -1    0    0    0    0  0.00000000000E+00  0.00000000000E+00  0.99999998245E-14  0.12500000000E+03  0.12500000000E+03 0.  0.
        -11    1    3    3    0    0 -0.10326679505E+02 -0.20007083873E+02  0.42868011465E+02  0.48420967792E+02  0.51100000000E-03 0. -1.
         23    2    1    0    0    0 -0.53846906789E+01  0.20828613634E+02  0.20687515197E+02  0.95153738515E+02  0.90351727315E+02 0.  0.
         11    1    3    3    0    0  0.49419888266E+01  0.40835697507E+02 -0.22180496268E+02  0.46732770723E+02  0.51100000000E-03 0.  1.
         22    1    1    0    0    0  0.53846906789E+01 -0.20828613634E+02 -0.20687515197E+02  0.29846261485E+02  0.00000000000E+00 0.  1.
</event>
<event>
 5    1  0.1094625E-009  0.9118800E+02  0.7818608E-02  0.1130116E+00
         25   -1    0    0    0    0  0.00000000000E+00  0.00000000000E+00  0.99999998245E-14  0.12500000000E+03  0.12500000000E+03 0.  0.
        -11    1    3    3    0    0 -0.63547354158E+01  0.50529088314E+02 -0.22389488394E+02  0.55631471479E+02  0.51100000000E-03 0.  1.
         23    2    1    0    0    0  0.61734177080E+01  0.28407854690E+02  0.76054769481E+01  0.94950697614E+02  0.90070385830E+02 0.  0.
         11    1    3    3    0    0  0.12528153124E+02 -0.22121233625E+02  0.29994965342E+02  0.39319226136E+02  0.51100000000E-03 0. -1.
         22    1    1    0    0    0 -0.61734177080E+01 -0.28407854690E+02 -0.76054769481E+01  0.30049302386E+02  0.00000000000E+00 0.  1.
</event>
<event>
 5    1  0.1094625E-009  0.9118800E+02  0.7818608E-02  0.1130116E+00
         25   -1    0    0    0    0  0.00000000000E+00  0.00000000000E+00  0.99999998245E-14  0.12500000000E+03  0.12500000000E+03 0.  0.
        -11    1    3    3    0    0 -0.23757968467E+02 -0.41071913876E+01 -0.35339013861E+01  0.24367981985E+02  0.51100000000E-03 0.  1.
         23    2    1    0    0    0  0.31462949920E+02  0.12529311491E+02 -0.21633605697E+02  0.84814010407E+02  0.74689374088E+02 0.  0.
         11    1    3    3    0    0  0.55220918387E+02  0.16636502879E+02 -0.18099704311E+02  0.60446028422E+02  0.51100000000E-03 0. -1.
         22    1    1    0    0    0 -0.31462949920E+02 -0.12529311491E+02  0.21633605697E+02  0.40185989593E+02  0.00000000000E+00 0. -1.
</event>
<event>
 5    1  0.1094625E-009  0.9118800E+02  0.7818608E-02  0.1130116E+00
         25   -1    0    0    0    0  0.00000000000E+00  0.00000000000E+00  0.99999998245E-14  0.12500000000E+03  0.12500000000E+03 0.  0.
        -11    1    3    3    0    0  0.10946865215E+02  0.34656483705E+02  0.22975156294E+02  0.42997250236E+02  0.51100000000E-03 0.  1.
         23    2    1    0    0    0 -0.16032507245E+02  0.19974165935E+02 -0.17626283567E+02  0.93908289437E+02  0.88611919961E+02 0.  0.
         11    1    3    3    0    0 -0.26979372461E+02 -0.14682317770E+02 -0.40601439861E+02  0.50911039201E+02  0.51100000000E-03 0. -1.
         22    1    1    0    0    0  0.16032507245E+02 -0.19974165935E+02  0.17626283567E+02  0.31091710563E+02  0.00000000000E+00 0. -1.
</event>
<event>
 5    1  0.1094625E-009  0.9118800E+02  0.7818608E-02  0.1130116E+00
         25   -1    0    0    0    0  0.00000000000E+00  0.00000000000E+00  0.99999998245E-14  0.12500000000E+03  0.12500000000E+03 0.  0.
        -11    1    3    3    0    0 -0.41267363015E+01  0.29025799075E+02  0.21711279178E+02  0.36481592732E+02  0.51100000000E-03 0.  1.
         23    2    1    0    0    0  0.45247481125E+01 -0.27776792878E+02  0.42211953107E+01  0.96542275953E+02  0.92252745153E+02 0.  0.
         11    1    3    3    0    0  0.86514844140E+01 -0.56802591953E+02 -0.17490083867E+02  0.60060683222E+02  0.51100000000E-03 0. -1.
         22    1    1    0    0    0 -0.45247481125E+01  0.27776792878E+02 -0.42211953107E+01  0.28457724047E+02  0.00000000000E+00 0. -1.
</event>
<event>
 5    1  0.1094625E-009  0.9118800E+02  0.7818608E-02  0.1130116E+00
         25   -1    0    0    0    0  0.00000000000E+00  0.00000000000E+00  0.99999998245E-14  0.12500000000E+03  0.12500000000E+03 0.  0.
        -11    1    3    3    0    0 -0.29845862700E+02 -0.21254930368E+02 -0.65970026981E+01  0.37229934597E+02  0.51100000000E-03 0.  1.
         23    2    1    0    0    0  0.38780003630E+01  0.27596847678E+02 -0.54587810680E+01  0.96602408917E+02  0.92334187759E+02 0.  0.
         11    1    3    3    0    0  0.33723863063E+02  0.48851778046E+02  0.11382216301E+01  0.59372474320E+02  0.51100000000E-03 0. -1.
         22    1    1    0    0    0 -0.38780003630E+01 -0.27596847678E+02  0.54587810680E+01  0.28397591083E+02  0.00000000000E+00 0. -1.
</event>
<event>
 5    1  0.1094625E-009  0.9118800E+02  0.7818608E-02  0.1130116E+00
         25   -1    0    0    0    0  0.00000000000E+00  0.00000000000E+00  0.99999998245E-14  0.12500000000E+03  0.12500000000E+03 0.  0.
        -11    1    3    3    0    0  0.13701979755E+02  0.53570320496E+02  0.85841901396E+01  0.55957231953E+02  0.51100000000E-03 0.  1.
         23    2    1    0    0    0  0.59779581181E+01  0.17331060223E+02  0.22887434409E+02  0.95675329745E+02  0.91070480598E+02 0.  0.
         11    1    3    3    0    0 -0.77240216371E+01 -0.36239260272E+02  0.14303244270E+02  0.39718097792E+02  0.51100000000E-03 0. -1.
         22    1    1    0    0    0 -0.59779581181E+01 -0.17331060223E+02 -0.22887434409E+02  0.29324670255E+02  0.00000000000E+00 0.  1.
</event>
<event>
 5    1  0.1094625E-009  0.9118800E+02  0.7818608E-02  0.1130116E+00
         25   -1    0    0    0    0  0.00000000000E+00  0.00000000000E+00  0.99999998245E-14  0.12500000000E+03  0.12500000000E+03 0.  0.
        -11    1    3    3    0    0  0.11658594726E+02 -0.16410645160E+02 -0.40665531165E+02  0.45375296481E+02  0.51100000000E-03 0.  1.
         23    2    1    0    0    0 -0.17778825998E+02 -0.56394501492E+01 -0.44302077620E+02  0.76931672243E+02  0.60065947598E+02 0.  0.
         11    1    3    3    0    0 -0.29437420724E+02  0.10771195011E+02 -0.36365464551E+01  0.31556375762E+02  0.51100000000E-03 0. -1.
         22    1    1    0    0    0  0.17778825998E+02  0.56394501492E+01  0.44302077620E+02  0.48068327757E+02  0.00000000000E+00 0. -1.
</event>
<event>
 5    1  0.1094625E-009  0.9118800E+02  0.7818608E-02  0.1130116E+00
         25   -1    0    0    0    0  0.00000000000E+00  0.00000000000E+00  0.99999998245E-14  0.12500000000E+03  0.12500000000E+03 0.  0.
        -11    1    3    3    0    0 -0.41087159121E+01  0.60422087918E+02  0.15101584030E+02  0.62416088433E+02  0.51100000000E-03 0.  1.
         23    2    1    0    0    0 -0.20383145295E+01  0.27683828812E+02  0.45791696990E+01  0.96866072102E+02  0.92690441932E+02 0.  0.
         11    1    3    3    0    0  0.20704013826E+01 -0.32738259106E+02 -0.10522414331E+02  0.34449983669E+02  0.51100000000E-03 0. -1.
         22    1    1    0    0    0  0.20383145295E+01 -0.27683828812E+02 -0.45791696990E+01  0.28133927898E+02  0.00000000000E+00 0.  1.
</event>
<event>
 5    1  0.1094625E-009  0.9118800E+02  0.7818608E-02  0.1130116E+00
         25   -1    0    0    0    0  0.00000000000E+00  0.00000000000E+00  0.99999998245E-14  0.12500000000E+03  0.12500000000E+03 0.  0.
        -11    1    3    3    0    0  0.31702461648E+02  0.26941745040E+02  0.83522524403E+01  0.42434229361E+02  0.51100000000E-03 0.  1.
         23    2    1    0    0    0  0.13568733917E+02 -0.23318604018E+02  0.10842365323E+02  0.95923811817E+02  0.91410901725E+02 0.  0.
         11    1    3    3    0    0 -0.18133727731E+02 -0.50260349058E+02  0.24901128823E+01  0.53489582456E+02  0.51100000000E-03 0. -1.
         22    1    1    0    0    0 -0.13568733917E+02  0.23318604018E+02 -0.10842365323E+02  0.29076188183E+02  0.00000000000E+00 0. -1.
</event>
<event>
 5    1  0.1094625E-009  0.9118800E+02  0.7818608E-02  0.1130116E+00
         25   -1    0    0    0    0  0.00000000000E+00  0.00000000000E+00  0.99999998245E-14  0.12500000000E+03  0.12500000000E+03 0.  0.
        -11    1    3    3    0    0  0.19094061087E+02 -0.48830667615E+02 -0.73812625498E+01  0.52948090670E+02  0.51100000000E-03 0.  1.
         23    2    1    0    0    0 -0.57245582766E+01 -0.23653094148E+02  0.16487541458E+02  0.95604788595E+02  0.90973606880E+02 0.  0.
         11    1    3    3    0    0 -0.24818619364E+02  0.25177573467E+02  0.23868804008E+02  0.42656697925E+02  0.51100000000E-03 0. -1.
         22    1    1    0    0    0  0.57245582766E+01  0.23653094148E+02 -0.16487541458E+02  0.29395211405E+02  0.00000000000E+00 0.  1.
</event>
<event>
 5    1  0.1094625E-009  0.9118800E+02  0.7818608E-02  0.1130116E+00
         25   -1    0    0    0    0  0.00000000000E+00  0.00000000000E+00  0.99999998245E-14  0.12500000000E+03  0.12500000000E+03 0.  0.
        -11    1    3    3    0    0  0.15775088326E+02 -0.35131155693E+02  0.15286755500E+02  0.41433517905E+02  0.51100000000E-03 0. -1.
         23    2    1    0    0    0 -0.24218647638E+02 -0.11340757211E+01  0.19204355240E+02  0.94070462639E+02  0.88840394302E+02 0.  0.
         11    1    3    3    0    0 -0.39993735964E+02  0.33997079972E+02  0.39175997402E+01  0.52636944734E+02  0.51100000000E-03 0.  1.
         22    1    1    0    0    0  0.24218647638E+02  0.11340757211E+01 -0.19204355240E+02  0.30929537361E+02  0.00000000000E+00 0.  1.
</event>
<event>
 5    1  0.1094625E-009  0.9118800E+02  0.7818608E-02  0.1130116E+00
         25   -1    0    0    0    0  0.00000000000E+00  0.00000000000E+00  0.99999998245E-14  0.12500000000E+03  0.12500000000E+03 0.  0.
        -11    1    3    3    0    0 -0.72630390942E+01  0.52290677577E+00 -0.43337335163E+02  0.43944849387E+02  0.51100000000E-03 0.  1.
         23    2    1    0    0    0  0.15020982225E+02  0.25023819629E+02 -0.37265517932E+01  0.95577072816E+02  0.90935516736E+02 0.  0.
         11    1    3    3    0    0  0.22284021319E+02  0.24500912853E+02  0.39610783370E+02  0.51632223429E+02  0.51100000000E-03 0. -1.
         22    1    1    0    0    0 -0.15020982225E+02 -0.25023819629E+02  0.37265517932E+01  0.29422927184E+02  0.00000000000E+00 0. -1.
</event>
<event>
 5    1  0.1094625E-009  0.9118800E+02  0.7818608E-02  0.1130116E+00
         25   -1    0    0    0    0  0.00000000000E+00  0.00000000000E+00  0.99999998245E-14  0.12500000000E+03  0.12500000000E+03 0.  0.
        -11    1    3    3    0    0 -0.20091263390E+02  0.30528434220E+02 -0.99549711137E+01  0.37878035993E+02  0.51100000000E-03 0. -1.
         23    2    1    0    0    0  0.79851323306E+00 -0.47432960959E+01  0.29699972489E+02  0.94913045234E+02  0.90018116558E+02 0.  0.
         11    1    3    3    0    0  0.20889776623E+02 -0.35271730316E+02  0.39654943602E+02  0.57035009242E+02  0.51100000000E-03 0.  1.
         22    1    1    0    0    0 -0.79851323306E+00  0.47432960959E+01 -0.29699972489E+02  0.30086954766E+02  0.00000000000E+00 0.  1.
</event>
<event>
 5    1  0.1094625E-009  0.9118800E+02  0.7818608E-02  0.1130116E+00
         25   -1    0    0    0    0  0.00000000000E+00  0.00000000000E+00  0.99999998245E-14  0.12500000000E+03  0.12500000000E+03 0.  0.
        -11    1    3    3    0    0  0.30315001466E+02  0.28445047421E+02 -0.13593731645E+02  0.43736821752E+02  0.51100000000E-03 0. -1.
         23    2    1    0    0    0  0.13727285385E+02 -0.41960952985E+01  0.24519583723E+02  0.96587756763E+02  0.92314349864E+02 0.  0.
         11    1    3    3    0    0 -0.16587716082E+02 -0.32641142719E+02  0.38113315369E+02  0.52850935011E+02  0.51100000000E-03 0.  1.
         22    1    1    0    0    0 -0.13727285385E+02  0.41960952985E+01 -0.24519583723E+02  0.28412243237E+02  0.00000000000E+00 0.  1.
</event>
<event>
 5    1  0.1094625E-009  0.9118800E+02  0.7818608E-02  0.1130116E+00
         25   -1    0    0    0    0  0.00000000000E+00  0.00000000000E+00  0.99999998245E-14  0.12500000000E+03  0.12500000000E+03 0.  0.
        -11    1    3    3    0    0 -0.44387051860E+02  0.17810945040E+02  0.51417742473E+01  0.48102785561E+02  0.51100000000E-03 0.  1.
         23    2    1    0    0    0 -0.10362040535E+02  0.83469723587E+01 -0.26388643015E+02  0.95446585446E+02  0.90755971493E+02 0.  0.
         11    1    3    3    0    0  0.34025011325E+02 -0.94639726817E+01 -0.31530417262E+02  0.47343799885E+02  0.51100000000E-03 0. -1.
         22    1    1    0    0    0  0.10362040535E+02 -0.83469723587E+01  0.26388643015E+02  0.29553414554E+02  0.00000000000E+00 0. -1.
</event>
<event>
 5    1  0.1094625E-009  0.9118800E+02  0.7818608E-02  0.1130116E+00
         25   -1    0    0    0    0  0.00000000000E+00  0.00000000000E+00  0.99999998245E-14  0.12500000000E+03  0.12500000000E+03 0.  0.
        -11    1    3    3    0    0 -0.26360843001E+02  0.32009555138E+02 -0.23815500931E+02  0.47819282185E+02  0.51100000000E-03 0. -1.
         23    2    1    0    0    0 -0.13402353471E+02 -0.16920310782E+02 -0.13692085040E+02  0.99438443156E+02  0.96096882307E+02 0.  0.
         11    1    3    3    0    0  0.12958489530E+02 -0.48929865920E+02  0.10123415890E+02  0.51619160971E+02  0.51100000000E-03 0.  1.
         22    1    1    0    0    0  0.13402353471E+02  0.16920310782E+02  0.13692085040E+02  0.25561556844E+02  0.00000000000E+00 0.  1.
</event>
<event>
 5    1  0.1094625E-009  0.9118800E+02  0.7818608E-02  0.1130116E+00
         25   -1    0    0    0    0  0.00000000000E+00  0.00000000000E+00  0.99999998245E-14  0.12500000000E+03  0.12500000000E+03 0.  0.
        -11    1    3    3    0    0  0.97776866711E-01  0.54475400558E+01 -0.43942997893E+02  0.44279479639E+02  0.51100000000E-03 0.  1.
         23    2    1    0    0    0 -0.24126996857E+02 -0.18121132455E+02 -0.76536775548E+01  0.93870171878E+02  0.88558133277E+02 0.  0.
         11    1    3    3    0    0 -0.24224773723E+02 -0.23568672511E+02  0.36289320339E+02  0.49590692239E+02  0.51100000000E-03 0. -1.
         22    1    1    0    0    0  0.24126996857E+02  0.18121132455E+02  0.76536775548E+01  0.31129828122E+02  0.00000000000E+00 0.  1.
</event>
<event>
 5    1  0.1094625E-009  0.9118800E+02  0.7818608E-02  0.1130116E+00
         25   -1    0    0    0    0  0.00000000000E+00  0.00000000000E+00  0.99999998245E-14  0.12500000000E+03  0.12500000000E+03 0.  0.
        -11    1    3    3    0    0 -0.12216675994E+02 -0.22841267962E+02 -0.29779438257E+02  0.39468793212E+02  0.51100000000E-03 0. -1.
         23    2    1    0    0    0  0.28205530018E+02  0.52566067499E+01 -0.14377366477E+01  0.96272819060E+02  0.91886912914E+02 0.  0.
         11    1    3    3    0    0  0.40422206012E+02  0.28097874712E+02  0.28341701609E+02  0.56804025848E+02  0.51100000000E-03 0.  1.
         22    1    1    0    0    0 -0.28205530018E+02 -0.52566067499E+01  0.14377366477E+01  0.28727180940E+02  0.00000000000E+00 0.  1.
</event>
<event>
 5    1  0.1094625E-009  0.9118800E+02  0.7818608E-02  0.1130116E+00
         25   -1    0    0    0    0  0.00000000000E+00  0.00000000000E+00  0.99999998245E-14  0.12500000000E+03  0.12500000000E+03 0.  0.
        -11    1    3    3    0    0  0.36723828802E+02 -0.98855707806E+01  0.32932017094E+02  0.50307870773E+02  0.51100000000E-03 0. -1.
         23    2    1    0    0    0  0.13145705335E+02  0.23024742251E+02  0.11738966398E+02  0.96004282099E+02  0.91520874803E+02 0.  0.
         11    1    3    3    0    0 -0.23578123467E+02  0.32910313032E+02 -0.21193050696E+02  0.45696411327E+02  0.51100000000E-03 0.  1.
         22    1    1    0    0    0 -0.13145705335E+02 -0.23024742251E+02 -0.11738966398E+02  0.28995717901E+02  0.00000000000E+00 0.  1.
</event>
<event>
 5    1  0.1094625E-009  0.9118800E+02  0.7818608E-02  0.1130116E+00
         25   -1    0    0    0    0  0.00000000000E+00  0.00000000000E+00  0.99999998245E-14  0.12500000000E+03  0.12500000000E+03 0.  0.
        -11    1    3    3    0    0  0.34301321925E+02  0.25981190900E+02 -0.13623495228E+02  0.45135380677E+02  0.51100000000E-03 0.  1.
         23    2    1    0    0    0 -0.15069182055E+02  0.51625392857E+01 -0.20372720477E+02  0.99139222763E+02  0.95706873790E+02 0.  0.
         11    1    3    3    0    0 -0.49370503980E+02 -0.20818651614E+02 -0.67492252490E+01  0.54003842086E+02  0.51100000000E-03 0. -1.
         22    1    1    0    0    0  0.15069182055E+02 -0.51625392857E+01  0.20372720477E+02  0.25860777237E+02  0.00000000000E+00 0.  1.
</event>
<event>
 5    1  0.1094625E-009  0.9118800E+02  0.7818608E-02  0.1130116E+00
         25   -1    0    0    0    0  0.00000000000E+00  0.00000000000E+00  0.99999998245E-14  0.12500000000E+03  0.12500000000E+03 0.  0.
        -11    1    3    3    0    0 -0.43608860805E+01 -0.32040300847E+02  0.49205759277E+01  0.32707954284E+02  0.51100000000E-03 0. -1.
         23    2    1    0    0    0 -0.34892647003E+01  0.25596895252E+02 -0.16661446851E+02  0.94259475837E+02  0.89105942334E+02 0.  0.
         11    1    3    3    0    0  0.87162138023E+00  0.57637196098E+02 -0.21582022779E+02  0.61551521552E+02  0.51100000000E-03 0.  1.
         22    1    1    0    0    0  0.34892647003E+01 -0.25596895252E+02  0.16661446851E+02  0.30740524163E+02  0.00000000000E+00 0.  1.
</event>
<event>
 5    1  0.1094625E-009  0.9118800E+02  0.7818608E-02  0.1130116E+00
         25   -1    0    0    0    0  0.00000000000E+00  0.00000000000E+00  0.99999998245E-14  0.12500000000E+03  0.12500000000E+03 0.  0.
        -11    1    3    3    0    0  0.12897307391E+02 -0.39498555454E+02  0.87915926043E+01  0.42470796104E+02  0.51100000000E-03 0.  1.
         23    2    1    0    0    0  0.20494653963E+02  0.13183725855E+02  0.15500324638E+02  0.96119184008E+02  0.91677674501E+02 0.  0.
         11    1    3    3    0    0  0.75973465718E+01  0.52682281309E+02  0.67087320340E+01  0.53648387904E+02  0.51100000000E-03 0. -1.
         22    1    1    0    0    0 -0.20494653963E+02 -0.13183725855E+02 -0.15500324638E+02  0.28880815992E+02  0.00000000000E+00 0. -1.
</event>
<event>
 5    1  0.1094625E-009  0.9118800E+02  0.7818608E-02  0.1130116E+00
         25   -1    0    0    0    0  0.00000000000E+00  0.00000000000E+00  0.99999998245E-14  0.12500000000E+03  0.12500000000E+03 0.  0.
        -11    1    3    3    0    0  0.32201543507E+02 -0.98994400913E+01 -0.10087725441E+02  0.35166753095E+02  0.51100000000E-03 0. -1.
         23    2    1    0    0    0 -0.15398538478E+02  0.20068573913E+02  0.13693896677E+02  0.96235691346E+02  0.91836391678E+02 0.  0.
         11    1    3    3    0    0 -0.47600081985E+02  0.29968014004E+02  0.23781622119E+02  0.61068938251E+02  0.51100000000E-03 0.  1.
         22    1    1    0    0    0  0.15398538478E+02 -0.20068573913E+02 -0.13693896677E+02  0.28764308654E+02  0.00000000000E+00 0.  1.
</event>
<event>
 5    1  0.1094625E-009  0.9118800E+02  0.7818608E-02  0.1130116E+00
         25   -1    0    0    0    0  0.00000000000E+00  0.00000000000E+00  0.99999998245E-14  0.12500000000E+03  0.12500000000E+03 0.  0.
        -11    1    3    3    0    0  0.11620930491E+02  0.32385482810E+02 -0.71046266685E+01  0.35133192890E+02  0.51100000000E-03 0. -1.
         23    2    1    0    0    0 -0.25541668840E+02 -0.13538558282E+02  0.55848391327E+01  0.95557516484E+02  0.90908630619E+02 0.  0.
         11    1    3    3    0    0 -0.37162599331E+02 -0.45924041092E+02  0.12689465801E+02  0.60424323594E+02  0.51100000000E-03 0.  1.
         22    1    1    0    0    0  0.25541668840E+02  0.13538558282E+02 -0.55848391327E+01  0.29442483516E+02  0.00000000000E+00 0.  1.
</event>
<event>
 5    1  0.1094625E-009  0.9118800E+02  0.7818608E-02  0.1130116E+00
         25   -1    0    0    0    0  0.00000000000E+00  0.00000000000E+00  0.99999998245E-14  0.12500000000E+03  0.12500000000E+03 0.  0.
        -11    1    3    3    0    0  0.19617043683E+02  0.13523747817E+02  0.32661881634E+02  0.40429180922E+02  0.51100000000E-03 0. -1.
         23    2    1    0    0    0 -0.27647045484E+02  0.59902617064E+01  0.34463875083E+01  0.96502281737E+02  0.92198538135E+02 0.  0.
         11    1    3    3    0    0 -0.47264089168E+02 -0.75334861104E+01 -0.29215494125E+02  0.56073100816E+02  0.51100000000E-03 0.  1.
         22    1    1    0    0    0  0.27647045484E+02 -0.59902617064E+01 -0.34463875083E+01  0.28497718263E+02  0.00000000000E+00 0.  1.
</event>
<event>
 5    1  0.1094625E-009  0.9118800E+02  0.7818608E-02  0.1130116E+00
         25   -1    0    0    0    0  0.00000000000E+00  0.00000000000E+00  0.99999998245E-14  0.12500000000E+03  0.12500000000E+03 0.  0.
        -11    1    3    3    0    0  0.18950806087E+02  0.54933552468E+02 -0.27812543957E+01  0.58177002452E+02  0.51100000000E-03 0. -1.
         23    2    1    0    0    0 -0.12248440496E+01  0.25594035891E+02 -0.14369731323E+02  0.95622387871E+02  0.90997785510E+02 0.  0.
         11    1    3    3    0    0 -0.20175650136E+02 -0.29339516577E+02 -0.11588476927E+02  0.37445385418E+02  0.51100000000E-03 0.  1.
         22    1    1    0    0    0  0.12248440496E+01 -0.25594035891E+02  0.14369731323E+02  0.29377612129E+02  0.00000000000E+00 0. -1.
</event>
<event>
 5    1  0.1094625E-009  0.9118800E+02  0.7818608E-02  0.1130116E+00
         25   -1    0    0    0    0  0.00000000000E+00  0.00000000000E+00  0.99999998245E-14  0.12500000000E+03  0.12500000000E+03 0.  0.
        -11    1    3    3    0    0  0.44048274440E+02 -0.19529176683E+02 -0.11110089996E+01  0.48196198650E+02  0.51100000000E-03 0. -1.
         23    2    1    0    0    0  0.53882897381E+01 -0.13866951328E+02  0.25505364174E+02  0.95472900463E+02  0.90792208453E+02 0.  0.
         11    1    3    3    0    0 -0.38659984702E+02  0.56622253552E+01  0.26616373174E+02  0.47276701813E+02  0.51100000000E-03 0.  1.
         22    1    1    0    0    0 -0.53882897381E+01  0.13866951328E+02 -0.25505364174E+02  0.29527099537E+02  0.00000000000E+00 0.  1.
</event>
<event>
 5    1  0.1094625E-009  0.9118800E+02  0.7818608E-02  0.1130116E+00
         25   -1    0    0    0    0  0.00000000000E+00  0.00000000000E+00  0.99999998245E-14  0.12500000000E+03  0.12500000000E+03 0.  0.
        -11    1    3    3    0    0  0.47598736229E+02 -0.36548738156E+02 -0.25988557980E+01  0.60068327787E+02  0.51100000000E-03 0. -1.
         23    2    1    0    0    0  0.28362478173E+02 -0.26222565979E+02  0.97636098927E+01  0.85158047076E+02  0.75262950839E+02 0.  0.
         11    1    3    3    0    0 -0.19236258055E+02  0.10326172178E+02  0.12362465691E+02  0.25089719289E+02  0.51100000000E-03 0.  1.
         22    1    1    0    0    0 -0.28362478173E+02  0.26222565979E+02 -0.97636098927E+01  0.39841952924E+02  0.00000000000E+00 0. -1.
</event>
<event>
 5    1  0.1094625E-009  0.9118800E+02  0.7818608E-02  0.1130116E+00
         25   -1    0    0    0    0  0.00000000000E+00  0.00000000000E+00  0.99999998245E-14  0.12500000000E+03  0.12500000000E+03 0.  0.
        -11    1    3    3    0    0 -0.14228767309E+02  0.98506089571E+01  0.32653539806E+02  0.36956000570E+02  0.51100000000E-03 0. -1.
         23    2    1    0    0    0  0.29024612595E+01  0.21357060110E+02 -0.21285322139E+02  0.94707868407E+02  0.89732753784E+02 0.  0.
         11    1    3    3    0    0  0.17131228568E+02  0.11506451153E+02 -0.53938861946E+02  0.57751867837E+02  0.51100000000E-03 0.  1.
         22    1    1    0    0    0 -0.29024612595E+01 -0.21357060110E+02  0.21285322139E+02  0.30292131593E+02  0.00000000000E+00 0.  1.
</event>
<event>
 5    1  0.1094625E-009  0.9118800E+02  0.7818608E-02  0.1130116E+00
         25   -1    0    0    0    0  0.00000000000E+00  0.00000000000E+00  0.99999998245E-14  0.12500000000E+03  0.12500000000E+03 0.  0.
        -11    1    3    3    0    0  0.17335011368E+02  0.16561156293E+02  0.21623937379E+02  0.32285742750E+02  0.51100000000E-03 0. -1.
         23    2    1    0    0    0 -0.18446608260E+02 -0.86873530168E+01 -0.22625923889E+02  0.94542162083E+02  0.89501623006E+02 0.  0.
         11    1    3    3    0    0 -0.35781619628E+02 -0.25248509310E+02 -0.44249861268E+02  0.62256419333E+02  0.51100000000E-03 0.  1.
         22    1    1    0    0    0  0.18446608260E+02  0.86873530168E+01  0.22625923889E+02  0.30457837917E+02  0.00000000000E+00 0.  1.
</event>
<event>
 5    1  0.1094625E-009  0.9118800E+02  0.7818608E-02  0.1130116E+00
         25   -1    0    0    0    0  0.00000000000E+00  0.00000000000E+00  0.99999998245E-14  0.12500000000E+03  0.12500000000E+03 0.  0.
        -11    1    3    3    0    0 -0.38516874937E+02 -0.11805198095E+02 -0.37043273340E+02  0.54727657149E+02  0.51100000000E-03 0. -1.
         23    2    1    0    0    0 -0.25553864029E+02  0.12251848329E+02 -0.60975227360E+01  0.96012286434E+02  0.91531806540E+02 0.  0.
         11    1    3    3    0    0  0.12963010908E+02  0.24057046424E+02  0.30945750604E+02  0.41284629285E+02  0.51100000000E-03 0.  1.
         22    1    1    0    0    0  0.25553864029E+02 -0.12251848329E+02  0.60975227360E+01  0.28987713566E+02  0.00000000000E+00 0. -1.
</event>
<event>
 5    1  0.1094625E-009  0.9118800E+02  0.7818608E-02  0.1130116E+00
         25   -1    0    0    0    0  0.00000000000E+00  0.00000000000E+00  0.99999998245E-14  0.12500000000E+03  0.12500000000E+03 0.  0.
        -11    1    3    3    0    0  0.16737979644E+02 -0.38102584295E+02  0.90480933169E+01  0.42589140464E+02  0.51100000000E-03 0. -1.
         23    2    1    0    0    0 -0.10429763063E+02  0.19973546792E+01  0.28347336643E+02  0.94728877160E+02  0.89762014739E+02 0.  0.
         11    1    3    3    0    0 -0.27167742707E+02  0.40099938974E+02  0.19299243326E+02  0.52139736696E+02  0.51100000000E-03 0.  1.
         22    1    1    0    0    0  0.10429763063E+02 -0.19973546792E+01 -0.28347336643E+02  0.30271122840E+02  0.00000000000E+00 0.  1.
</event>
<event>
 5    1  0.1094625E-009  0.9118800E+02  0.7818608E-02  0.1130116E+00
         25   -1    0    0    0    0  0.00000000000E+00  0.00000000000E+00  0.99999998245E-14  0.12500000000E+03  0.12500000000E+03 0.  0.
        -11    1    3    3    0    0 -0.40220779255E+01 -0.45313955176E+01 -0.42128161689E+02  0.42561633707E+02  0.51100000000E-03 0.  1.
         23    2    1    0    0    0  0.18470742923E+02 -0.19460665502E+02  0.57811396787E+01  0.97553553566E+02  0.93612971278E+02 0.  0.
         11    1    3    3    0    0  0.22492820848E+02 -0.14929269984E+02  0.47909301368E+02  0.54991919859E+02  0.51100000000E-03 0. -1.
         22    1    1    0    0    0 -0.18470742923E+02  0.19460665502E+02 -0.57811396787E+01  0.27446446434E+02  0.00000000000E+00 0. -1.
</event>
<event>
 5    1  0.1094625E-009  0.9118800E+02  0.7818608E-02  0.1130116E+00
         25   -1    0    0    0    0  0.00000000000E+00  0.00000000000E+00  0.99999998245E-14  0.12500000000E+03  0.12500000000E+03 0.  0.
        -11    1    3    3    0    0 -0.36392155313E+02 -0.46632506122E+02 -0.84001521554E+01  0.59745645465E+02  0.51100000000E-03 0. -1.
         23    2    1    0    0    0 -0.39610644906E+01 -0.25763609962E+02 -0.49785482646E+01  0.98462487438E+02  0.94818889782E+02 0.  0.
         11    1    3    3    0    0  0.32431090823E+02  0.20868896160E+02  0.34216038907E+01  0.38716841973E+02  0.51100000000E-03 0.  1.
         22    1    1    0    0    0  0.39610644906E+01  0.25763609962E+02  0.49785482646E+01  0.26537512562E+02  0.00000000000E+00 0. -1.
</event>
<event>
 5    1  0.1094625E-009  0.9118800E+02  0.7818608E-02  0.1130116E+00
         25   -1    0    0    0    0  0.00000000000E+00  0.00000000000E+00  0.99999998245E-14  0.12500000000E+03  0.12500000000E+03 0.  0.
        -11    1    3    3    0    0  0.38810969127E+01 -0.43834402181E+02 -0.35401525218E+02  0.56478187965E+02  0.51100000000E-03 0. -1.
         23    2    1    0    0    0  0.12289065742E+02 -0.30618778318E+02 -0.37483921035E+01  0.91794862358E+02  0.85578709907E+02 0.  0.
         11    1    3    3    0    0  0.84079688298E+01  0.13215623863E+02  0.31653133114E+02  0.35316674393E+02  0.51100000000E-03 0.  1.
         22    1    1    0    0    0 -0.12289065742E+02  0.30618778318E+02  0.37483921035E+01  0.33205137642E+02  0.00000000000E+00 0. -1.
</event>
<event>
 5    1  0.1094625E-009  0.9118800E+02  0.7818608E-02  0.1130116E+00
         25   -1    0    0    0    0  0.00000000000E+00  0.00000000000E+00  0.99999998245E-14  0.12500000000E+03  0.12500000000E+03 0.  0.
        -11    1    3    3    0    0 -0.12355795978E+02 -0.26906759807E+02 -0.26508545277E+02  0.39740940986E+02  0.51100000000E-03 0. -1.
         23    2    1    0    0    0  0.24920051654E+02  0.11376476477E+02 -0.61277952998E+01  0.96928963918E+02  0.92775217486E+02 0.  0.
         11    1    3    3    0    0  0.37275847632E+02  0.38283236283E+02  0.20380749977E+02  0.57188022932E+02  0.51100000000E-03 0.  1.
         22    1    1    0    0    0 -0.24920051654E+02 -0.11376476477E+02  0.61277952998E+01  0.28071036082E+02  0.00000000000E+00 0.  1.
</event>
<event>
 5    1  0.1094625E-009  0.9118800E+02  0.7818608E-02  0.1130116E+00
         25   -1    0    0    0    0  0.00000000000E+00  0.00000000000E+00  0.99999998245E-14  0.12500000000E+03  0.12500000000E+03 0.  0.
        -11    1    3    3    0    0 -0.26597746354E+02 -0.75957719183E+01  0.53249631473E+02  0.60005492369E+02  0.51100000000E-03 0. -1.
         23    2    1    0    0    0 -0.23566616634E+02 -0.45949275663E+01  0.19375835753E+02  0.94146770184E+02  0.88947695564E+02 0.  0.
         11    1    3    3    0    0  0.30311297200E+01  0.30008443520E+01 -0.33873795719E+02  0.34141277816E+02  0.51100000000E-03 0.  1.
         22    1    1    0    0    0  0.23566616634E+02  0.45949275663E+01 -0.19375835753E+02  0.30853229816E+02  0.00000000000E+00 0. -1.
</event>
<event>
 5    1  0.1094625E-009  0.9118800E+02  0.7818608E-02  0.1130116E+00
         25   -1    0    0    0    0  0.00000000000E+00  0.00000000000E+00  0.99999998245E-14  0.12500000000E+03  0.12500000000E+03 0.  0.
        -11    1    3    3    0    0 -0.39609107338E+02 -0.81698200014E+01 -0.45851712489E+02  0.61139241747E+02  0.51100000000E-03 0.  1.
         23    2    1    0    0    0 -0.23638892057E+02 -0.27170823728E+01 -0.13462477927E+02  0.97661052210E+02  0.93756402728E+02 0.  0.
         11    1    3    3    0    0  0.15970215281E+02  0.54527376286E+01  0.32389234562E+02  0.36521810463E+02  0.51100000000E-03 0. -1.
         22    1    1    0    0    0  0.23638892057E+02  0.27170823728E+01  0.13462477927E+02  0.27338947790E+02  0.00000000000E+00 0.  1.
</event>
<event>
 5    1  0.1094625E-009  0.9118800E+02  0.7818608E-02  0.1130116E+00
         25   -1    0    0    0    0  0.00000000000E+00  0.00000000000E+00  0.99999998245E-14  0.12500000000E+03  0.12500000000E+03 0.  0.
        -11    1    3    3    0    0  0.22877459197E+02  0.32941948200E+02  0.99437823407E+01  0.41321046672E+02  0.51100000000E-03 0. -1.
         23    2    1    0    0    0  0.87973218731E+01 -0.20796630679E+02  0.16177480642E+02  0.97222246317E+02  0.93169531389E+02 0.  0.
         11    1    3    3    0    0 -0.14080137324E+02 -0.53738578879E+02  0.62336983011E+01  0.55901199645E+02  0.51100000000E-03 0.  1.
         22    1    1    0    0    0 -0.87973218731E+01  0.20796630679E+02 -0.16177480642E+02  0.27777753683E+02  0.00000000000E+00 0.  1.
</event>
<event>
 5    1  0.1094625E-009  0.9118800E+02  0.7818608E-02  0.1130116E+00
         25   -1    0    0    0    0  0.00000000000E+00  0.00000000000E+00  0.99999998245E-14  0.12500000000E+03  0.12500000000E+03 0.  0.
        -11    1    3    3    0    0 -0.29381091177E+02 -0.10028100070E+01  0.49103657208E+02  0.57231313965E+02  0.51100000000E-03 0.  1.
         23    2    1    0    0    0 -0.13757042072E+02 -0.18226885131E+02  0.18853132428E+02  0.95387229942E+02  0.90674183125E+02 0.  0.
         11    1    3    3    0    0  0.15624049105E+02 -0.17224075124E+02 -0.30250524780E+02  0.38155915977E+02  0.51100000000E-03 0. -1.
         22    1    1    0    0    0  0.13757042072E+02  0.18226885131E+02 -0.18853132428E+02  0.29612770058E+02  0.00000000000E+00 0.  1.
</event>
<event>
 5    1  0.1094625E-009  0.9118800E+02  0.7818608E-02  0.1130116E+00
         25   -1    0    0    0    0  0.00000000000E+00  0.00000000000E+00  0.99999998245E-14  0.12500000000E+03  0.12500000000E+03 0.  0.
        -11    1    3    3    0    0  0.70778640934E+01 -0.36870797028E+02 -0.11875934811E+02  0.39377527366E+02  0.51100000000E-03 0.  1.
         23    2    1    0    0    0 -0.24614155517E+02  0.10907385259E+02 -0.83192974558E+01  0.96821312749E+02  0.92630060927E+02 0.  0.
         11    1    3    3    0    0 -0.31692019610E+02  0.47778182287E+02  0.35566373553E+01  0.57443785383E+02  0.51100000000E-03 0. -1.
         22    1    1    0    0    0  0.24614155517E+02 -0.10907385259E+02  0.83192974558E+01  0.28178687251E+02  0.00000000000E+00 0. -1.
</event>
<event>
 5    1  0.1094625E-009  0.9118800E+02  0.7818608E-02  0.1130116E+00
         25   -1    0    0    0    0  0.00000000000E+00  0.00000000000E+00  0.99999998245E-14  0.12500000000E+03  0.12500000000E+03 0.  0.
        -11    1    3    3    0    0  0.35055382047E+01  0.54286578289E+02  0.11227911350E+01  0.54411230832E+02  0.51100000000E-03 0.  1.
         23    2    1    0    0    0  0.85946174215E+01  0.19399760821E+02 -0.20274626265E+02  0.95652450890E+02  0.91039072505E+02 0.  0.
         11    1    3    3    0    0  0.50890792167E+01 -0.34886817467E+02 -0.21397417400E+02  0.41241220059E+02  0.51100000000E-03 0. -1.
         22    1    1    0    0    0 -0.85946174215E+01 -0.19399760821E+02  0.20274626265E+02  0.29347549110E+02  0.00000000000E+00 0.  1.
</event>
<event>
 5    1  0.1094625E-009  0.9118800E+02  0.7818608E-02  0.1130116E+00
         25   -1    0    0    0    0  0.00000000000E+00  0.00000000000E+00  0.99999998245E-14  0.12500000000E+03  0.12500000000E+03 0.  0.
        -11    1    3    3    0    0  0.31955410020E+02 -0.41763950057E+02 -0.26262776301E+02  0.58780176703E+02  0.51100000000E-03 0. -1.
         23    2    1    0    0    0  0.53660146756E+01 -0.17772093645E+02 -0.23990189364E+02  0.94665685903E+02  0.89673973235E+02 0.  0.
         11    1    3    3    0    0 -0.26589395344E+02  0.23991856412E+02  0.22725869374E+01  0.35885509200E+02  0.51100000000E-03 0.  1.
         22    1    1    0    0    0 -0.53660146756E+01  0.17772093645E+02  0.23990189364E+02  0.30334314097E+02  0.00000000000E+00 0. -1.
</event>
<event>
 5    1  0.1094625E-009  0.9118800E+02  0.7818608E-02  0.1130116E+00
         25   -1    0    0    0    0  0.00000000000E+00  0.00000000000E+00  0.99999998245E-14  0.12500000000E+03  0.12500000000E+03 0.  0.
        -11    1    3    3    0    0  0.99770379820E+01  0.16817330102E+02  0.38014257970E+02  0.42748657148E+02  0.51100000000E-03 0.  1.
         23    2    1    0    0    0  0.71050302244E+01 -0.20996407522E+02  0.38386723017E+02  0.80673133572E+02  0.67403882626E+02 0.  0.
         11    1    3    3    0    0 -0.28720077576E+01 -0.37813737623E+02  0.37246504735E+00  0.37924476425E+02  0.51100000000E-03 0. -1.
         22    1    1    0    0    0 -0.71050302244E+01  0.20996407522E+02 -0.38386723017E+02  0.44326866428E+02  0.00000000000E+00 0. -1.
</event>
<event>
 5    1  0.1094625E-009  0.9118800E+02  0.7818608E-02  0.1130116E+00
         25   -1    0    0    0    0  0.00000000000E+00  0.00000000000E+00  0.99999998245E-14  0.12500000000E+03  0.12500000000E+03 0.  0.
        -11    1    3    3    0    0 -0.94302079031E+01  0.33576182632E+02  0.18068871018E+02  0.39278148650E+02  0.51100000000E-03 0.  1.
         23    2    1    0    0    0 -0.19747192430E+02 -0.20643848052E+02  0.73431767072E+01  0.95503520287E+02  0.90834355130E+02 0.  0.
         11    1    3    3    0    0 -0.10316984527E+02 -0.54220030684E+02 -0.10725694311E+02  0.56225371638E+02  0.51100000000E-03 0. -1.
         22    1    1    0    0    0  0.19747192430E+02  0.20643848052E+02 -0.73431767072E+01  0.29496479713E+02  0.00000000000E+00 0. -1.
</event>
<event>
 5    1  0.1094625E-009  0.9118800E+02  0.7818608E-02  0.1130116E+00
         25   -1    0    0    0    0  0.00000000000E+00  0.00000000000E+00  0.99999998245E-14  0.12500000000E+03  0.12500000000E+03 0.  0.
        -11    1    3    3    0    0  0.38952107096E+02 -0.35365306785E+02  0.69631388863E+01  0.53070301249E+02  0.51100000000E-03 0.  1.
         23    2    1    0    0    0 -0.56123217341E-01 -0.23953081940E+02  0.17827637584E+02  0.95140697495E+02  0.90333683495E+02 0.  0.
         11    1    3    3    0    0 -0.39008230313E+02  0.11412224845E+02  0.10864498698E+02  0.42070396246E+02  0.51100000000E-03 0. -1.
         22    1    1    0    0    0  0.56123217341E-01  0.23953081940E+02 -0.17827637584E+02  0.29859302505E+02  0.00000000000E+00 0.  1.
</event>
<event>
 5    1  0.1094625E-009  0.9118800E+02  0.7818608E-02  0.1130116E+00
         25   -1    0    0    0    0  0.00000000000E+00  0.00000000000E+00  0.99999998245E-14  0.12500000000E+03  0.12500000000E+03 0.  0.
        -11    1    3    3    0    0 -0.42296394728E+02 -0.14046121825E+02 -0.42710460184E+02  0.61728939361E+02  0.51100000000E-03 0. -1.
         23    2    1    0    0    0 -0.22176252303E+02 -0.11338821997E+02 -0.15552773565E+02  0.95636011578E+02  0.91016497925E+02 0.  0.
         11    1    3    3    0    0  0.20120142424E+02  0.27072998281E+01  0.27157686619E+02  0.33907072217E+02  0.51100000000E-03 0.  1.
         22    1    1    0    0    0  0.22176252303E+02  0.11338821997E+02  0.15552773565E+02  0.29363988422E+02  0.00000000000E+00 0. -1.
</event>
<event>
 5    1  0.1094625E-009  0.9118800E+02  0.7818608E-02  0.1130116E+00
         25   -1    0    0    0    0  0.00000000000E+00  0.00000000000E+00  0.99999998245E-14  0.12500000000E+03  0.12500000000E+03 0.  0.
        -11    1    3    3    0    0  0.33536663860E+01 -0.32449574581E+01  0.39415780915E+02  0.39691064643E+02  0.51100000000E-03 0. -1.
         23    2    1    0    0    0  0.11816914175E+02  0.23948092529E+02 -0.98005846190E+01  0.96553522973E+02  0.92267983305E+02 0.  0.
         11    1    3    3    0    0  0.84632477889E+01  0.27193049987E+02 -0.49216365534E+02  0.56862458330E+02  0.51100000000E-03 0.  1.
         22    1    1    0    0    0 -0.11816914175E+02 -0.23948092529E+02  0.98005846190E+01  0.28446477027E+02  0.00000000000E+00 0. -1.
</event>
<event>
 5    1  0.1094625E-009  0.9118800E+02  0.7818608E-02  0.1130116E+00
         25   -1    0    0    0    0  0.00000000000E+00  0.00000000000E+00  0.99999998245E-14  0.12500000000E+03  0.12500000000E+03 0.  0.
        -11    1    3    3    0    0  0.43785367636E+01  0.28023742209E+02 -0.36329214672E+02  0.46090276095E+02  0.51100000000E-03 0.  1.
         23    2    1    0    0    0 -0.29014245495E+02  0.96222922974E+01 -0.23917179983E+02  0.86187032463E+02  0.76952960408E+02 0.  0.
         11    1    3    3    0    0 -0.33392782259E+02 -0.18401449912E+02  0.12412034688E+02  0.40096756368E+02  0.51100000000E-03 0. -1.
         22    1    1    0    0    0  0.29014245495E+02 -0.96222922974E+01  0.23917179983E+02  0.38812967537E+02  0.00000000000E+00 0.  1.
</event>
<event>
 5    1  0.1094625E-009  0.9118800E+02  0.7818608E-02  0.1130116E+00
         25   -1    0    0    0    0  0.00000000000E+00  0.00000000000E+00  0.99999998245E-14  0.12500000000E+03  0.12500000000E+03 0.  0.
        -11    1    3    3    0    0 -0.13293505807E+02 -0.27785759820E+02  0.15968509806E+02  0.34695230957E+02  0.51100000000E-03 0.  1.
         23    2    1    0    0    0  0.25611057398E+01  0.28664643530E+01 -0.31435546577E+02  0.93330306773E+02  0.87792805475E+02 0.  0.
         11    1    3    3    0    0  0.15854611547E+02  0.30652224173E+02 -0.47404056384E+02  0.58635075816E+02  0.51100000000E-03 0. -1.
         22    1    1    0    0    0 -0.25611057398E+01 -0.28664643530E+01  0.31435546577E+02  0.31669693227E+02  0.00000000000E+00 0. -1.
</event>
<event>
 5    1  0.1094625E-009  0.9118800E+02  0.7818608E-02  0.1130116E+00
         25   -1    0    0    0    0  0.00000000000E+00  0.00000000000E+00  0.99999998245E-14  0.12500000000E+03  0.12500000000E+03 0.  0.
        -11    1    3    3    0    0 -0.45059234907E+02  0.57298378351E+01 -0.25865346897E+02  0.52270277045E+02  0.51100000000E-03 0. -1.
         23    2    1    0    0    0 -0.11647237720E+02 -0.20917270619E+02 -0.16218724983E+02  0.96082230433E+02  0.91627275460E+02 0.  0.
         11    1    3    3    0    0  0.33411997187E+02 -0.26647108454E+02  0.96466219138E+01  0.43811953387E+02  0.51100000000E-03 0.  1.
         22    1    1    0    0    0  0.11647237720E+02  0.20917270619E+02  0.16218724983E+02  0.28917769567E+02  0.00000000000E+00 0.  1.
</event>
<event>
 5    1  0.1094625E-009  0.9118800E+02  0.7818608E-02  0.1130116E+00
         25   -1    0    0    0    0  0.00000000000E+00  0.00000000000E+00  0.99999998245E-14  0.12500000000E+03  0.12500000000E+03 0.  0.
        -11    1    3    3    0    0 -0.15788418566E+02  0.45393435435E+02 -0.88534236606E+01  0.48869430651E+02  0.51100000000E-03 0. -1.
         23    2    1    0    0    0  0.21446191730E+02  0.19164925496E+02 -0.10333038961E+02  0.94438501294E+02  0.89356730712E+02 0.  0.
         11    1    3    3    0    0  0.37234610297E+02 -0.26228509939E+02 -0.14796153001E+01  0.45569070643E+02  0.51100000000E-03 0.  1.
         22    1    1    0    0    0 -0.21446191730E+02 -0.19164925496E+02  0.10333038961E+02  0.30561498706E+02  0.00000000000E+00 0. -1.
</event>
<event>
 5    1  0.1094625E-009  0.9118800E+02  0.7818608E-02  0.1130116E+00
         25   -1    0    0    0    0  0.00000000000E+00  0.00000000000E+00  0.99999998245E-14  0.12500000000E+03  0.12500000000E+03 0.  0.
        -11    1    3    3    0    0 -0.20620140224E+02  0.11832529301E+02 -0.28618136697E+02  0.37204793787E+02  0.51100000000E-03 0. -1.
         23    2    1    0    0    0  0.15840045576E+02  0.16608279832E+02  0.17464154197E+02  0.96160119892E+02  0.91733472478E+02 0.  0.
         11    1    3    3    0    0  0.36460185800E+02  0.47757505311E+01  0.46082290894E+02  0.58955326104E+02  0.51100000000E-03 0.  1.
         22    1    1    0    0    0 -0.15840045576E+02 -0.16608279832E+02 -0.17464154197E+02  0.28839880108E+02  0.00000000000E+00 0.  1.
</event>
<event>
 5    1  0.1094625E-009  0.9118800E+02  0.7818608E-02  0.1130116E+00
         25   -1    0    0    0    0  0.00000000000E+00  0.00000000000E+00  0.99999998245E-14  0.12500000000E+03  0.12500000000E+03 0.  0.
        -11    1    3    3    0    0  0.11015231043E+02 -0.35630496686E+02 -0.18413084793E+02  0.41592178362E+02  0.51100000000E-03 0. -1.
         23    2    1    0    0    0 -0.27115332473E+02 -0.96130761056E+01  0.84691580536E+01  0.95010349694E+02  0.90153133187E+02 0.  0.
         11    1    3    3    0    0 -0.38130563517E+02  0.26017420580E+02  0.26882242847E+02  0.53418171332E+02  0.51100000000E-03 0.  1.
         22    1    1    0    0    0  0.27115332473E+02  0.96130761056E+01 -0.84691580536E+01  0.29989650306E+02  0.00000000000E+00 0.  1.
</event>
<event>
 5    1  0.1094625E-009  0.9118800E+02  0.7818608E-02  0.1130116E+00
         25   -1    0    0    0    0  0.00000000000E+00  0.00000000000E+00  0.99999998245E-14  0.12500000000E+03  0.12500000000E+03 0.  0.
        -11    1    3    3    0    0 -0.10683425796E+02  0.37446729575E+02  0.14918977631E+02  0.41700947668E+02  0.51100000000E-03 0.  1.
         23    2    1    0    0    0 -0.22675337401E+02 -0.15383065529E+02  0.88078311999E+01  0.96218277992E+02  0.91812687021E+02 0.  0.
         11    1    3    3    0    0 -0.11991911604E+02 -0.52829795104E+02 -0.61111464315E+01  0.54517330324E+02  0.51100000000E-03 0. -1.
         22    1    1    0    0    0  0.22675337401E+02  0.15383065529E+02 -0.88078311999E+01  0.28781722008E+02  0.00000000000E+00 0. -1.
</event>
<event>
 5    1  0.1094625E-009  0.9118800E+02  0.7818608E-02  0.1130116E+00
         25   -1    0    0    0    0  0.00000000000E+00  0.00000000000E+00  0.99999998245E-14  0.12500000000E+03  0.12500000000E+03 0.  0.
        -11    1    3    3    0    0  0.20862111781E+02  0.34005756813E+02 -0.10377063768E+02  0.41222598864E+02  0.51100000000E-03 0. -1.
         23    2    1    0    0    0 -0.97465235977E+01  0.19166696979E+00 -0.31891191622E+02  0.91652143074E+02  0.85369993373E+02 0.  0.
         11    1    3    3    0    0 -0.30608635379E+02 -0.33814089843E+02 -0.21514127854E+02  0.50429544210E+02  0.51100000000E-03 0.  1.
         22    1    1    0    0    0  0.97465235977E+01 -0.19166696979E+00  0.31891191622E+02  0.33347856926E+02  0.00000000000E+00 0. -1.
</event>
<event>
 5    1  0.1094625E-009  0.9118800E+02  0.7818608E-02  0.1130116E+00
         25   -1    0    0    0    0  0.00000000000E+00  0.00000000000E+00  0.99999998245E-14  0.12500000000E+03  0.12500000000E+03 0.  0.
        -11    1    3    3    0    0 -0.57137540701E+01  0.40139246194E+02 -0.23388992553E+02  0.46806527788E+02  0.51100000000E-03 0. -1.
         23    2    1    0    0    0  0.58269681847E+01 -0.48917410951E+01 -0.30260300230E+02  0.93797941427E+02  0.88456121082E+02 0.  0.
         11    1    3    3    0    0  0.11540722255E+02 -0.45030987289E+02 -0.68713076766E+01  0.46991413640E+02  0.51100000000E-03 0.  1.
         22    1    1    0    0    0 -0.58269681847E+01  0.48917410951E+01  0.30260300230E+02  0.31202058573E+02  0.00000000000E+00 0.  1.
</event>
<event>
 5    1  0.1094625E-009  0.9118800E+02  0.7818608E-02  0.1130116E+00
         25   -1    0    0    0    0  0.00000000000E+00  0.00000000000E+00  0.99999998245E-14  0.12500000000E+03  0.12500000000E+03 0.  0.
        -11    1    3    3    0    0  0.49476805197E+01 -0.29875246791E+02 -0.29022410449E+02  0.41944132151E+02  0.51100000000E-03 0. -1.
         23    2    1    0    0    0 -0.39065094114E+01  0.21257890306E+02 -0.21735399601E+02  0.94347327818E+02  0.89229098138E+02 0.  0.
         11    1    3    3    0    0 -0.88541899310E+01  0.51133137098E+02  0.72870108478E+01  0.52403195667E+02  0.51100000000E-03 0.  1.
         22    1    1    0    0    0  0.39065094114E+01 -0.21257890306E+02  0.21735399601E+02  0.30652672182E+02  0.00000000000E+00 0. -1.
</event>
<event>
 5    1  0.1094625E-009  0.9118800E+02  0.7818608E-02  0.1130116E+00
         25   -1    0    0    0    0  0.00000000000E+00  0.00000000000E+00  0.99999998245E-14  0.12500000000E+03  0.12500000000E+03 0.  0.
        -11    1    3    3    0    0  0.89042027299E+01  0.44913035093E+02  0.40357052070E+02  0.61034065894E+02  0.51100000000E-03 0.  1.
         23    2    1    0    0    0 -0.28992119833E+01  0.17546706094E+02  0.24298552737E+02  0.94888341295E+02  0.89983805897E+02 0.  0.
         11    1    3    3    0    0 -0.11803414713E+02 -0.27366328999E+02 -0.16058499333E+02  0.33854275400E+02  0.51100000000E-03 0. -1.
         22    1    1    0    0    0  0.28992119833E+01 -0.17546706094E+02 -0.24298552737E+02  0.30111658705E+02  0.00000000000E+00 0.  1.
</event>
<event>
 5    1  0.1094625E-009  0.9118800E+02  0.7818608E-02  0.1130116E+00
         25   -1    0    0    0    0  0.00000000000E+00  0.00000000000E+00  0.99999998245E-14  0.12500000000E+03  0.12500000000E+03 0.  0.
        -11    1    3    3    0    0  0.36870894947E+01 -0.45500249780E+02  0.37212937841E+01  0.45800822991E+02  0.51100000000E-03 0.  1.
         23    2    1    0    0    0  0.28617695667E+02 -0.39550127319E+01 -0.66614482303E+01  0.95352242521E+02  0.90625937955E+02 0.  0.
         11    1    3    3    0    0  0.24930606172E+02  0.41545237048E+02 -0.10382742014E+02  0.49551419530E+02  0.51100000000E-03 0. -1.
         22    1    1    0    0    0 -0.28617695667E+02  0.39550127319E+01  0.66614482303E+01  0.29647757479E+02  0.00000000000E+00 0. -1.
</event>
<event>
 5    1  0.1094625E-009  0.9118800E+02  0.7818608E-02  0.1130116E+00
         25   -1    0    0    0    0  0.00000000000E+00  0.00000000000E+00  0.99999998245E-14  0.12500000000E+03  0.12500000000E+03 0.  0.
        -11    1    3    3    0    0  0.52519316926E+01 -0.55062005939E+02  0.80740315668E+01  0.55898097200E+02  0.51100000000E-03 0.  1.
         23    2    1    0    0    0  0.11275663544E+02 -0.15937878229E+02  0.19810167246E+02  0.97186347289E+02  0.93121355351E+02 0.  0.
         11    1    3    3    0    0  0.60237318512E+01  0.39124127710E+02  0.11736135679E+02  0.41288250089E+02  0.51100000000E-03 0. -1.
         22    1    1    0    0    0 -0.11275663544E+02  0.15937878229E+02 -0.19810167246E+02  0.27813652711E+02  0.00000000000E+00 0. -1.
</event>
<event>
 5    1  0.1094625E-009  0.9118800E+02  0.7818608E-02  0.1130116E+00
         25   -1    0    0    0    0  0.00000000000E+00  0.00000000000E+00  0.99999998245E-14  0.12500000000E+03  0.12500000000E+03 0.  0.
        -11    1    3    3    0    0  0.21012309418E+02 -0.28609862882E+02 -0.45706177191E+02  0.57871374918E+02  0.51100000000E-03 0. -1.
         23    2    1    0    0    0  0.25142674515E+01 -0.26601943276E+02 -0.13507900783E+02  0.95059253342E+02  0.90220914069E+02 0.  0.
         11    1    3    3    0    0 -0.18498041967E+02  0.20079196060E+01  0.32198276408E+02  0.37187878424E+02  0.51100000000E-03 0.  1.
         22    1    1    0    0    0 -0.25142674515E+01  0.26601943276E+02  0.13507900783E+02  0.29940746658E+02  0.00000000000E+00 0. -1.
</event>
<event>
 5    1  0.1094625E-009  0.9118800E+02  0.7818608E-02  0.1130116E+00
         25   -1    0    0    0    0  0.00000000000E+00  0.00000000000E+00  0.99999998245E-14  0.12500000000E+03  0.12500000000E+03 0.  0.
        -11    1    3    3    0    0 -0.27096795434E+02 -0.12194634554E+02 -0.49699657093E+02  0.57905106426E+02  0.51100000000E-03 0. -1.
         23    2    1    0    0    0 -0.20415054940E+02 -0.16605205584E+02 -0.12664791769E+02  0.95795475158E+02  0.91235238748E+02 0.  0.
         11    1    3    3    0    0  0.66817404945E+01 -0.44105710300E+01  0.37034865324E+02  0.37890368732E+02  0.51100000000E-03 0.  1.
         22    1    1    0    0    0  0.20415054940E+02  0.16605205584E+02  0.12664791769E+02  0.29204524842E+02  0.00000000000E+00 0. -1.
</event>
<event>
 5    1  0.1094625E-009  0.9118800E+02  0.7818608E-02  0.1130116E+00
         25   -1    0    0    0    0  0.00000000000E+00  0.00000000000E+00  0.99999998245E-14  0.12500000000E+03  0.12500000000E+03 0.  0.
        -11    1    3    3    0    0  0.78136389104E+00 -0.90173113205E+01  0.53551641033E+02  0.54311147020E+02  0.51100000000E-03 0.  1.
         23    2    1    0    0    0  0.21336480211E+02  0.32211991783E+01  0.19568206570E+02  0.95870354957E+02  0.91337772796E+02 0.  0.
         11    1    3    3    0    0  0.20555116320E+02  0.12238510499E+02 -0.33983434464E+02  0.41559207937E+02  0.51100000000E-03 0. -1.
         22    1    1    0    0    0 -0.21336480211E+02 -0.32211991783E+01 -0.19568206570E+02  0.29129645043E+02  0.00000000000E+00 0.  1.
</event>
<event>
 5    1  0.1094625E-009  0.9118800E+02  0.7818608E-02  0.1130116E+00
         25   -1    0    0    0    0  0.00000000000E+00  0.00000000000E+00  0.99999998245E-14  0.12500000000E+03  0.12500000000E+03 0.  0.
        -11    1    3    3    0    0 -0.46604209079E+02 -0.27156124851E+02 -0.10464049905E+01  0.53949072137E+02  0.51100000000E-03 0.  1.
         23    2    1    0    0    0 -0.17606843764E+02 -0.67333954416E+01 -0.22691903144E+02  0.95499796106E+02  0.90829230022E+02 0.  0.
         11    1    3    3    0    0  0.28997365315E+02  0.20422729410E+02 -0.21645498154E+02  0.41550723969E+02  0.51100000000E-03 0. -1.
         22    1    1    0    0    0  0.17606843764E+02  0.67333954416E+01  0.22691903144E+02  0.29500203894E+02  0.00000000000E+00 0.  1.
</event>
<event>
 5    1  0.1094625E-009  0.9118800E+02  0.7818608E-02  0.1130116E+00
         25   -1    0    0    0    0  0.00000000000E+00  0.00000000000E+00  0.99999998245E-14  0.12500000000E+03  0.12500000000E+03 0.  0.
        -11    1    3    3    0    0  0.13288690882E+02  0.29631787231E+02  0.36576180161E+01  0.32680426706E+02  0.51100000000E-03 0.  1.
         23    2    1    0    0    0 -0.23389153643E+02 -0.19643365431E+02 -0.21450584189E+01  0.94381123646E+02  0.89276429764E+02 0.  0.
         11    1    3    3    0    0 -0.36677844525E+02 -0.49275152662E+02 -0.58026764350E+01  0.61700696940E+02  0.51100000000E-03 0. -1.
         22    1    1    0    0    0  0.23389153643E+02  0.19643365431E+02  0.21450584189E+01  0.30618876354E+02  0.00000000000E+00 0. -1.
</event>
<event>
 5    1  0.1094625E-009  0.9118800E+02  0.7818608E-02  0.1130116E+00
         25   -1    0    0    0    0  0.00000000000E+00  0.00000000000E+00  0.99999998245E-14  0.12500000000E+03  0.12500000000E+03 0.  0.
        -11    1    3    3    0    0  0.27071084885E+02 -0.36619941348E+02 -0.42552763569E+02  0.62326570809E+02  0.51100000000E-03 0.  1.
         23    2    1    0    0    0  0.15213479326E+02 -0.15118725828E+02 -0.20522053798E+02  0.95315315128E+02  0.90574989826E+02 0.  0.
         11    1    3    3    0    0 -0.11857605559E+02  0.21501215520E+02  0.22030709772E+02  0.32988744319E+02  0.51100000000E-03 0. -1.
         22    1    1    0    0    0 -0.15213479326E+02  0.15118725828E+02  0.20522053798E+02  0.29684684872E+02  0.00000000000E+00 0.  1.
</event>
<event>
 5    1  0.1094625E-009  0.9118800E+02  0.7818608E-02  0.1130116E+00
         25   -1    0    0    0    0  0.00000000000E+00  0.00000000000E+00  0.99999998245E-14  0.12500000000E+03  0.12500000000E+03 0.  0.
        -11    1    3    3    0    0 -0.36063957130E+02  0.25400684584E+02 -0.35597363404E+02  0.56683119734E+02  0.51100000000E-03 0.  1.
         23    2    1    0    0    0 -0.12115628508E+02  0.25894824245E+02 -0.43085217851E+01  0.96088173064E+02  0.91635382173E+02 0.  0.
         11    1    3    3    0    0  0.23948328622E+02  0.49413966048E+00  0.31288841619E+02  0.39405053330E+02  0.51100000000E-03 0. -1.
         22    1    1    0    0    0  0.12115628508E+02 -0.25894824245E+02  0.43085217851E+01  0.28911826936E+02  0.00000000000E+00 0.  1.
</event>
<event>
 5    1  0.1094625E-009  0.9118800E+02  0.7818608E-02  0.1130116E+00
         25   -1    0    0    0    0  0.00000000000E+00  0.00000000000E+00  0.99999998245E-14  0.12500000000E+03  0.12500000000E+03 0.  0.
        -11    1    3    3    0    0  0.25911230876E+02 -0.25966891187E+02 -0.13845428788E+01  0.36709512155E+02  0.51100000000E-03 0.  1.
         23    2    1    0    0    0 -0.38377624295E+01  0.24684534734E+02 -0.13377051170E+02  0.96662742308E+02  0.92415829688E+02 0.  0.
         11    1    3    3    0    0 -0.29748993305E+02  0.50651425920E+02 -0.11992508292E+02  0.59953230153E+02  0.51100000000E-03 0. -1.
         22    1    1    0    0    0  0.38377624295E+01 -0.24684534734E+02  0.13377051170E+02  0.28337257692E+02  0.00000000000E+00 0. -1.
</event>
<event>
 5    1  0.1094625E-009  0.9118800E+02  0.7818608E-02  0.1130116E+00
         25   -1    0    0    0    0  0.00000000000E+00  0.00000000000E+00  0.99999998245E-14  0.12500000000E+03  0.12500000000E+03 0.  0.
        -11    1    3    3    0    0 -0.22715433614E+02  0.35554059854E+02  0.52191716218E+01  0.42512608118E+02  0.51100000000E-03 0. -1.
         23    2    1    0    0    0  0.18369747969E+02  0.16609747365E+02 -0.18959242579E+02  0.93810510950E+02  0.88473881669E+02 0.  0.
         11    1    3    3    0    0  0.41085181583E+02 -0.18944312489E+02 -0.24178414201E+02  0.51297902832E+02  0.51100000000E-03 0.  1.
         22    1    1    0    0    0 -0.18369747969E+02 -0.16609747365E+02  0.18959242579E+02  0.31189489050E+02  0.00000000000E+00 0. -1.
</event>
<event>
 5    1  0.1094625E-009  0.9118800E+02  0.7818608E-02  0.1130116E+00
         25   -1    0    0    0    0  0.00000000000E+00  0.00000000000E+00  0.99999998245E-14  0.12500000000E+03  0.12500000000E+03 0.  0.
        -11    1    3    3    0    0 -0.40021898617E+02  0.11224241246E+02 -0.29983395704E+02  0.51251731470E+02  0.51100000000E-03 0. -1.
         23    2    1    0    0    0 -0.14923987074E+02  0.24090522329E+02  0.50372120529E+01  0.96217155083E+02  0.91811158204E+02 0.  0.
         11    1    3    3    0    0  0.25097911543E+02  0.12866281082E+02  0.35020607757E+02  0.44965423613E+02  0.51100000000E-03 0.  1.
         22    1    1    0    0    0  0.14923987074E+02 -0.24090522329E+02 -0.50372120529E+01  0.28782844917E+02  0.00000000000E+00 0. -1.
</event>
<event>
 5    1  0.1094625E-009  0.9118800E+02  0.7818608E-02  0.1130116E+00
         25   -1    0    0    0    0  0.00000000000E+00  0.00000000000E+00  0.99999998245E-14  0.12500000000E+03  0.12500000000E+03 0.  0.
        -11    1    3    3    0    0  0.51158944142E+01 -0.19705985109E+02  0.32243334798E+02  0.38133067854E+02  0.51100000000E-03 0.  1.
         23    2    1    0    0    0 -0.52753817619E+01 -0.93212489912E+01 -0.25302213189E+02  0.97524241088E+02  0.93573822579E+02 0.  0.
         11    1    3    3    0    0 -0.10391276176E+02  0.10384736118E+02 -0.57545547987E+02  0.59391173235E+02  0.51100000000E-03 0. -1.
         22    1    1    0    0    0  0.52753817619E+01  0.93212489912E+01  0.25302213189E+02  0.27475758912E+02  0.00000000000E+00 0. -1.
</event>
<event>
 5    1  0.1094625E-009  0.9118800E+02  0.7818608E-02  0.1130116E+00
         25   -1    0    0    0    0  0.00000000000E+00  0.00000000000E+00  0.99999998245E-14  0.12500000000E+03  0.12500000000E+03 0.  0.
        -11    1    3    3    0    0  0.63134160259E+01 -0.48023504277E+02 -0.33384899017E+02  0.58827439751E+02  0.51100000000E-03 0.  1.
         23    2    1    0    0    0 -0.11837594478E+02 -0.22847683403E+02 -0.11436151500E+02  0.96840972300E+02  0.92656586787E+02 0.  0.
         11    1    3    3    0    0 -0.18151010504E+02  0.25175820875E+02  0.21948747517E+02  0.38013532549E+02  0.51100000000E-03 0. -1.
         22    1    1    0    0    0  0.11837594478E+02  0.22847683403E+02  0.11436151500E+02  0.28159027700E+02  0.00000000000E+00 0.  1.
</event>
<event>
 5    1  0.1094625E-009  0.9118800E+02  0.7818608E-02  0.1130116E+00
         25   -1    0    0    0    0  0.00000000000E+00  0.00000000000E+00  0.99999998245E-14  0.12500000000E+03  0.12500000000E+03 0.  0.
        -11    1    3    3    0    0  0.13794429209E+02  0.45755604129E+02 -0.29152628923E+02  0.55979794210E+02  0.51100000000E-03 0.  1.
         23    2    1    0    0    0  0.24331152949E+02  0.13133076882E+02 -0.81886622765E+01  0.96163618430E+02  0.91738239614E+02 0.  0.
         11    1    3    3    0    0  0.10536723739E+02 -0.32622527247E+02  0.20963966646E+02  0.40183824220E+02  0.51100000000E-03 0. -1.
         22    1    1    0    0    0 -0.24331152949E+02 -0.13133076882E+02  0.81886622765E+01  0.28836381570E+02  0.00000000000E+00 0.  1.
</event>
<event>
 5    1  0.1094625E-009  0.9118800E+02  0.7818608E-02  0.1130116E+00
         25   -1    0    0    0    0  0.00000000000E+00  0.00000000000E+00  0.99999998245E-14  0.12500000000E+03  0.12500000000E+03 0.  0.
        -11    1    3    3    0    0 -0.12515473231E+02  0.16223909825E+02  0.32433037980E+02  0.38363449703E+02  0.51100000000E-03 0.  1.
         23    2    1    0    0    0  0.67708520623E+01  0.28630506119E+01 -0.24223354607E+02  0.99685727250E+02  0.96418005645E+02 0.  0.
         11    1    3    3    0    0  0.19286325294E+02 -0.13360859214E+02 -0.56656392587E+02  0.61322277547E+02  0.51100000000E-03 0. -1.
         22    1    1    0    0    0 -0.67708520623E+01 -0.28630506119E+01  0.24223354607E+02  0.25314272750E+02  0.00000000000E+00 0. -1.
</event>
<event>
 5    1  0.1094625E-009  0.9118800E+02  0.7818608E-02  0.1130116E+00
         25   -1    0    0    0    0  0.00000000000E+00  0.00000000000E+00  0.99999998245E-14  0.12500000000E+03  0.12500000000E+03 0.  0.
        -11    1    3    3    0    0  0.16675759245E+02  0.30741336161E+02  0.10417761673E+02  0.36491649098E+02  0.51100000000E-03 0.  1.
         23    2    1    0    0    0 -0.29537710701E+02 -0.30448117097E+01 -0.25751247694E+01  0.95194321021E+02  0.90407855053E+02 0.  0.
         11    1    3    3    0    0 -0.46213469947E+02 -0.33786147871E+02 -0.12992886443E+02  0.58702671923E+02  0.51100000000E-03 0. -1.
         22    1    1    0    0    0  0.29537710701E+02  0.30448117097E+01  0.25751247694E+01  0.29805678979E+02  0.00000000000E+00 0. -1.
</event>
<event>
 5    1  0.1094625E-009  0.9118800E+02  0.7818608E-02  0.1130116E+00
         25   -1    0    0    0    0  0.00000000000E+00  0.00000000000E+00  0.99999998245E-14  0.12500000000E+03  0.12500000000E+03 0.  0.
        -11    1    3    3    0    0  0.83042779998E+01 -0.43075594973E+02  0.22478860560E+02  0.49292667687E+02  0.51100000000E-03 0.  1.
         23    2    1    0    0    0  0.18796003178E+02 -0.22991093846E+02 -0.13947012392E+02  0.92191475401E+02  0.86156072625E+02 0.  0.
         11    1    3    3    0    0  0.10491725179E+02  0.20084501127E+02 -0.36425872951E+02  0.42898807714E+02  0.51100000000E-03 0. -1.
         22    1    1    0    0    0 -0.18796003178E+02  0.22991093846E+02  0.13947012392E+02  0.32808524599E+02  0.00000000000E+00 0. -1.
</event>
<event>
 5    1  0.1094625E-009  0.9118800E+02  0.7818608E-02  0.1130116E+00
         25   -1    0    0    0    0  0.00000000000E+00  0.00000000000E+00  0.99999998245E-14  0.12500000000E+03  0.12500000000E+03 0.  0.
        -11    1    3    3    0    0 -0.43304823197E+00 -0.22160047060E+02  0.31103345307E+02  0.38192581819E+02  0.51100000000E-03 0.  1.
         23    2    1    0    0    0  0.18723637144E+02  0.18620806979E+02 -0.75264852694E+01  0.97541722178E+02  0.93597171669E+02 0.  0.
         11    1    3    3    0    0  0.19156685376E+02  0.40780854038E+02 -0.38629830577E+02  0.59349140359E+02  0.51100000000E-03 0. -1.
         22    1    1    0    0    0 -0.18723637144E+02 -0.18620806979E+02  0.75264852694E+01  0.27458277822E+02  0.00000000000E+00 0. -1.
</event>
<event>
 5    1  0.1094625E-009  0.9118800E+02  0.7818608E-02  0.1130116E+00
         25   -1    0    0    0    0  0.00000000000E+00  0.00000000000E+00  0.99999998245E-14  0.12500000000E+03  0.12500000000E+03 0.  0.
        -11    1    3    3    0    0 -0.27681646775E+02 -0.12420942908E+02 -0.53031141865E+02  0.61097098120E+02  0.51100000000E-03 0.  1.
         23    2    1    0    0    0 -0.13164540501E+02 -0.15031813872E+02 -0.23158674718E+02  0.94412669787E+02  0.89320588034E+02 0.  0.
         11    1    3    3    0    0  0.14517106274E+02 -0.26108709641E+01  0.29872467147E+02  0.33315571667E+02  0.51100000000E-03 0. -1.
         22    1    1    0    0    0  0.13164540501E+02  0.15031813872E+02  0.23158674718E+02  0.30587330213E+02  0.00000000000E+00 0.  1.
</event>
<event>
 5    1  0.1094625E-009  0.9118800E+02  0.7818608E-02  0.1130116E+00
         25   -1    0    0    0    0  0.00000000000E+00  0.00000000000E+00  0.99999998245E-14  0.12500000000E+03  0.12500000000E+03 0.  0.
        -11    1    3    3    0    0 -0.81737474941E+01 -0.43372340819E+01 -0.47925058631E+02  0.48810173044E+02  0.51100000000E-03 0.  1.
         23    2    1    0    0    0  0.25041060896E+02  0.38588364768E+00 -0.15048374943E+02  0.95782586949E+02  0.91217579102E+02 0.  0.
         11    1    3    3    0    0  0.33214808390E+02  0.47231177296E+01  0.32876683688E+02  0.46972413904E+02  0.51100000000E-03 0. -1.
         22    1    1    0    0    0 -0.25041060896E+02 -0.38588364768E+00  0.15048374943E+02  0.29217413051E+02  0.00000000000E+00 0.  1.
</event>
<event>
 5    1  0.1094625E-009  0.9118800E+02  0.7818608E-02  0.1130116E+00
         25   -1    0    0    0    0  0.00000000000E+00  0.00000000000E+00  0.99999998245E-14  0.12500000000E+03  0.12500000000E+03 0.  0.
        -11    1    3    3    0    0 -0.17047325219E+02 -0.26132748522E+02 -0.36811184959E+02  0.48255519692E+02  0.51100000000E-03 0.  1.
         23    2    1    0    0    0  0.38026760716E+01 -0.29390333222E+02  0.48631540222E+01  0.94968311748E+02  0.90094827471E+02 0.  0.
         11    1    3    3    0    0  0.20850001290E+02 -0.32575847000E+01  0.41674338981E+02  0.46712792056E+02  0.51100000000E-03 0. -1.
         22    1    1    0    0    0 -0.38026760716E+01  0.29390333222E+02 -0.48631540222E+01  0.30031688252E+02  0.00000000000E+00 0.  1.
</event>
<event>
 5    1  0.1094625E-009  0.9118800E+02  0.7818608E-02  0.1130116E+00
         25   -1    0    0    0    0  0.00000000000E+00  0.00000000000E+00  0.99999998245E-14  0.12500000000E+03  0.12500000000E+03 0.  0.
        -11    1    3    3    0    0  0.65064639972E+01  0.73306234805E+01  0.32193944866E+02  0.33652967189E+02  0.51100000000E-03 0. -1.
         23    2    1    0    0    0  0.25692117038E+02  0.12754850959E+01 -0.21805056921E+02  0.91278015369E+02  0.84820421139E+02 0.  0.
         11    1    3    3    0    0  0.19185653041E+02 -0.60551383846E+01 -0.53999001787E+02  0.57625048180E+02  0.51100000000E-03 0.  1.
         22    1    1    0    0    0 -0.25692117038E+02 -0.12754850959E+01  0.21805056921E+02  0.33721984631E+02  0.00000000000E+00 0.  1.
</event>
<event>
 5    1  0.1094625E-009  0.9118800E+02  0.7818608E-02  0.1130116E+00
         25   -1    0    0    0    0  0.00000000000E+00  0.00000000000E+00  0.99999998245E-14  0.12500000000E+03  0.12500000000E+03 0.  0.
        -11    1    3    3    0    0  0.31432687552E+02  0.33362013146E+02 -0.28599013380E+02  0.54027227714E+02  0.51100000000E-03 0.  1.
         23    2    1    0    0    0  0.18263667511E+02  0.14471790601E+01 -0.31379076118E+02  0.88664035775E+02  0.80876504275E+02 0.  0.
         11    1    3    3    0    0 -0.13169020042E+02 -0.31914834086E+02 -0.27800627375E+01  0.34636808061E+02  0.51100000000E-03 0. -1.
         22    1    1    0    0    0 -0.18263667511E+02 -0.14471790601E+01  0.31379076118E+02  0.36335964225E+02  0.00000000000E+00 0.  1.
</event>
<event>
 5    1  0.1094625E-009  0.9118800E+02  0.7818608E-02  0.1130116E+00
         25   -1    0    0    0    0  0.00000000000E+00  0.00000000000E+00  0.99999998245E-14  0.12500000000E+03  0.12500000000E+03 0.  0.
        -11    1    3    3    0    0 -0.43684821820E+02  0.18928534086E+02 -0.83720021098E+00  0.47616740382E+02  0.51100000000E-03 0.  1.
         23    2    1    0    0    0 -0.19059635476E+01  0.41089136516E+01 -0.26012533596E+02  0.98596065207E+02  0.94994822500E+02 0.  0.
         11    1    3    3    0    0  0.41778858273E+02 -0.14819620434E+02 -0.25175333385E+02  0.50979324826E+02  0.51100000000E-03 0. -1.
         22    1    1    0    0    0  0.19059635476E+01 -0.41089136516E+01  0.26012533596E+02  0.26403934793E+02  0.00000000000E+00 0.  1.
</event>
<event>
 5    1  0.1094625E-009  0.9118800E+02  0.7818608E-02  0.1130116E+00
         25   -1    0    0    0    0  0.00000000000E+00  0.00000000000E+00  0.99999998245E-14  0.12500000000E+03  0.12500000000E+03 0.  0.
        -11    1    3    3    0    0 -0.99274661529E+01  0.27353917207E+02 -0.76613531379E+01  0.30091322719E+02  0.51100000000E-03 0.  1.
         23    2    1    0    0    0  0.12425566793E+02  0.43564633507E+01 -0.44300621393E+02  0.78784001268E+02  0.63804391047E+02 0.  0.
         11    1    3    3    0    0  0.22353032946E+02 -0.22997453857E+02 -0.36639268255E+02  0.48692678549E+02  0.51100000000E-03 0. -1.
         22    1    1    0    0    0 -0.12425566793E+02 -0.43564633507E+01  0.44300621393E+02  0.46215998732E+02  0.00000000000E+00 0. -1.
</event>
<event>
 5    1  0.1094625E-009  0.9118800E+02  0.7818608E-02  0.1130116E+00
         25   -1    0    0    0    0  0.00000000000E+00  0.00000000000E+00  0.99999998245E-14  0.12500000000E+03  0.12500000000E+03 0.  0.
        -11    1    3    3    0    0  0.54267064132E+01  0.46044403042E+02  0.16344452788E+02  0.49159712480E+02  0.51100000000E-03 0.  1.
         23    2    1    0    0    0  0.18283459262E+02  0.13099356678E+02 -0.16248490855E+02  0.97253081558E+02  0.93210892011E+02 0.  0.
         11    1    3    3    0    0  0.12856752849E+02 -0.32945046364E+02 -0.32592943643E+02  0.48093369078E+02  0.51100000000E-03 0. -1.
         22    1    1    0    0    0 -0.18283459262E+02 -0.13099356678E+02  0.16248490855E+02  0.27746918442E+02  0.00000000000E+00 0.  1.
</event>
<event>
 5    1  0.1094625E-009  0.9118800E+02  0.7818608E-02  0.1130116E+00
         25   -1    0    0    0    0  0.00000000000E+00  0.00000000000E+00  0.99999998245E-14  0.12500000000E+03  0.12500000000E+03 0.  0.
        -11    1    3    3    0    0 -0.18309758129E+02  0.76399747645E+01  0.36814405033E+02  0.41820053508E+02  0.51100000000E-03 0.  1.
         23    2    1    0    0    0 -0.23952770303E+02 -0.20487874429E+02 -0.55613137650E+01  0.92993494183E+02  0.87311932436E+02 0.  0.
         11    1    3    3    0    0 -0.56430121740E+01 -0.28127849193E+02 -0.42375718798E+02  0.51173440676E+02  0.51100000000E-03 0. -1.
         22    1    1    0    0    0  0.23952770303E+02  0.20487874429E+02  0.55613137650E+01  0.32006505817E+02  0.00000000000E+00 0. -1.
</event>
<event>
 5    1  0.1094625E-009  0.9118800E+02  0.7818608E-02  0.1130116E+00
         25   -1    0    0    0    0  0.00000000000E+00  0.00000000000E+00  0.99999998245E-14  0.12500000000E+03  0.12500000000E+03 0.  0.
        -11    1    3    3    0    0 -0.25295624703E+02 -0.16278316671E+02 -0.32231677365E+02  0.44087790246E+02  0.51100000000E-03 0. -1.
         23    2    1    0    0    0  0.21311692309E+02  0.13445334993E+01 -0.20757552298E+02  0.95219604153E+02  0.90442805343E+02 0.  0.
         11    1    3    3    0    0  0.46607317011E+02  0.17622850170E+02  0.11474125067E+02  0.51131813907E+02  0.51100000000E-03 0.  1.
         22    1    1    0    0    0 -0.21311692309E+02 -0.13445334993E+01  0.20757552298E+02  0.29780395847E+02  0.00000000000E+00 0. -1.
</event>
<event>
 5    1  0.1094625E-009  0.9118800E+02  0.7818608E-02  0.1130116E+00
         25   -1    0    0    0    0  0.00000000000E+00  0.00000000000E+00  0.99999998245E-14  0.12500000000E+03  0.12500000000E+03 0.  0.
        -11    1    3    3    0    0  0.28730494209E+02 -0.10396702151E+02  0.53526954287E+02  0.61633331474E+02  0.51100000000E-03 0.  1.
         23    2    1    0    0    0  0.69209361343E+01 -0.72903362078E+01  0.27434414389E+02  0.95781932783E+02  0.91216682662E+02 0.  0.
         11    1    3    3    0    0 -0.21809558074E+02  0.31063659436E+01 -0.26092539898E+02  0.34148601309E+02  0.51100000000E-03 0. -1.
         22    1    1    0    0    0 -0.69209361343E+01  0.72903362078E+01 -0.27434414389E+02  0.29218067217E+02  0.00000000000E+00 0.  1.
</event>
<event>
 5    1  0.1094625E-009  0.9118800E+02  0.7818608E-02  0.1130116E+00
         25   -1    0    0    0    0  0.00000000000E+00  0.00000000000E+00  0.99999998245E-14  0.12500000000E+03  0.12500000000E+03 0.  0.
        -11    1    3    3    0    0  0.12500539346E+02  0.49593047406E+02  0.17646741315E+02  0.54103061968E+02  0.51100000000E-03 0. -1.
         23    2    1    0    0    0  0.48036485260E+00  0.98125528230E+01  0.26626368642E+02  0.96619012520E+02  0.92356662618E+02 0.  0.
         11    1    3    3    0    0 -0.12020174493E+02 -0.39780494583E+02  0.89796273273E+01  0.42515950552E+02  0.51100000000E-03 0.  1.
         22    1    1    0    0    0 -0.48036485260E+00 -0.98125528230E+01 -0.26626368642E+02  0.28380987480E+02  0.00000000000E+00 0.  1.
</event>
<event>
 5    1  0.1094625E-009  0.9118800E+02  0.7818608E-02  0.1130116E+00
         25   -1    0    0    0    0  0.00000000000E+00  0.00000000000E+00  0.99999998245E-14  0.12500000000E+03  0.12500000000E+03 0.  0.
        -11    1    3    3    0    0 -0.99175767662E+01 -0.34676031418E+02 -0.83486696060E+01  0.37020072505E+02  0.51100000000E-03 0. -1.
         23    2    1    0    0    0 -0.46820589836E+00  0.55874402834E+01  0.30635900054E+02  0.93855223908E+02  0.88537031671E+02 0.  0.
         11    1    3    3    0    0  0.94493708678E+01  0.40263471701E+02  0.38984569660E+02  0.56835151404E+02  0.51100000000E-03 0.  1.
         22    1    1    0    0    0  0.46820589836E+00 -0.55874402834E+01 -0.30635900054E+02  0.31144776092E+02  0.00000000000E+00 0.  1.
</event>
<event>
 5    1  0.1094625E-009  0.9118800E+02  0.7818608E-02  0.1130116E+00
         25   -1    0    0    0    0  0.00000000000E+00  0.00000000000E+00  0.99999998245E-14  0.12500000000E+03  0.12500000000E+03 0.  0.
        -11    1    3    3    0    0  0.24155828641E+02  0.41033612716E+02 -0.17227020233E+02  0.50636268191E+02  0.51100000000E-03 0. -1.
         23    2    1    0    0    0 -0.79112785513E+01  0.24702154885E+02  0.11445859710E+02  0.96648765657E+02  0.92396923185E+02 0.  0.
         11    1    3    3    0    0 -0.32067107192E+02 -0.16331457831E+02  0.28672879943E+02  0.46012497466E+02  0.51100000000E-03 0.  1.
         22    1    1    0    0    0  0.79112785513E+01 -0.24702154885E+02 -0.11445859710E+02  0.28351234343E+02  0.00000000000E+00 0. -1.
</event>
<event>
 5    1  0.1094625E-009  0.9118800E+02  0.7818608E-02  0.1130116E+00
         25   -1    0    0    0    0  0.00000000000E+00  0.00000000000E+00  0.99999998245E-14  0.12500000000E+03  0.12500000000E+03 0.  0.
        -11    1    3    3    0    0 -0.20021933208E+02  0.52853259100E+02  0.15681980188E+02  0.58653808996E+02  0.51100000000E-03 0. -1.
         23    2    1    0    0    0 -0.10200047485E+02  0.16096527031E+02 -0.89178901239E+01  0.10396032521E+03  0.10180904332E+03 0.  0.
         11    1    3    3    0    0  0.98218857234E+01 -0.36756732069E+02 -0.24599870311E+02  0.45306516211E+02  0.51100000000E-03 0.  1.
         22    1    1    0    0    0  0.10200047485E+02 -0.16096527031E+02  0.89178901239E+01  0.21039674793E+02  0.00000000000E+00 0. -1.
</event>
<event>
 5    1  0.1094625E-009  0.9118800E+02  0.7818608E-02  0.1130116E+00
         25   -1    0    0    0    0  0.00000000000E+00  0.00000000000E+00  0.99999998245E-14  0.12500000000E+03  0.12500000000E+03 0.  0.
        -11    1    3    3    0    0  0.11194480999E+02 -0.16607302124E+02 -0.52193599150E+02  0.55904299308E+02  0.51100000000E-03 0.  1.
         23    2    1    0    0    0  0.96239838245E+01  0.11870970823E+02 -0.27075020874E+02  0.93909844512E+02  0.88614113594E+02 0.  0.
         11    1    3    3    0    0 -0.15704971743E+01  0.28478272946E+02  0.25118578276E+02  0.38005545204E+02  0.51100000000E-03 0. -1.
         22    1    1    0    0    0 -0.96239838245E+01 -0.11870970823E+02  0.27075020874E+02  0.31090155488E+02  0.00000000000E+00 0.  1.
</event>
<event>
 5    1  0.1094625E-009  0.9118800E+02  0.7818608E-02  0.1130116E+00
         25   -1    0    0    0    0  0.00000000000E+00  0.00000000000E+00  0.99999998245E-14  0.12500000000E+03  0.12500000000E+03 0.  0.
        -11    1    3    3    0    0 -0.37671720657E+00 -0.42073510569E+02 -0.22629125087E+02  0.47774465041E+02  0.51100000000E-03 0.  1.
         23    2    1    0    0    0  0.84769120283E+01  0.41116572510E+01 -0.28329614330E+02  0.95144836108E+02  0.90339410155E+02 0.  0.
         11    1    3    3    0    0  0.88536292349E+01  0.46185167820E+02 -0.57004892436E+01  0.47370371068E+02  0.51100000000E-03 0. -1.
         22    1    1    0    0    0 -0.84769120283E+01 -0.41116572510E+01  0.28329614330E+02  0.29855163892E+02  0.00000000000E+00 0. -1.
</event>
<event>
 5    1  0.1094625E-009  0.9118800E+02  0.7818608E-02  0.1130116E+00
         25   -1    0    0    0    0  0.00000000000E+00  0.00000000000E+00  0.99999998245E-14  0.12500000000E+03  0.12500000000E+03 0.  0.
        -11    1    3    3    0    0 -0.15610486844E+02 -0.27019588187E+02 -0.11774099780E+02  0.33352284347E+02  0.51100000000E-03 0.  1.
         23    2    1    0    0    0  0.16186001770E+02  0.23502133650E+02  0.64044370711E+01  0.95753568532E+02  0.91177805046E+02 0.  0.
         11    1    3    3    0    0  0.31796488614E+02  0.50521721838E+02  0.18178536851E+02  0.62401284185E+02  0.51100000000E-03 0. -1.
         22    1    1    0    0    0 -0.16186001770E+02 -0.23502133650E+02 -0.64044370711E+01  0.29246431468E+02  0.00000000000E+00 0. -1.
</event>
<event>
 5    1  0.1094625E-009  0.9118800E+02  0.7818608E-02  0.1130116E+00
         25   -1    0    0    0    0  0.00000000000E+00  0.00000000000E+00  0.99999998245E-14  0.12500000000E+03  0.12500000000E+03 0.  0.
        -11    1    3    3    0    0  0.89431535586E+01  0.38277456587E+02  0.12063000930E+02  0.41117632107E+02  0.51100000000E-03 0.  1.
         23    2    1    0    0    0  0.30912556488E+01 -0.13719190577E+02  0.26152373844E+02  0.95306251344E+02  0.90562480289E+02 0.  0.
         11    1    3    3    0    0 -0.58518979098E+01 -0.51996647164E+02  0.14089372914E+02  0.54188619237E+02  0.51100000000E-03 0. -1.
         22    1    1    0    0    0 -0.30912556488E+01  0.13719190577E+02 -0.26152373844E+02  0.29693748656E+02  0.00000000000E+00 0. -1.
</event>
<event>
 5    1  0.1094625E-009  0.9118800E+02  0.7818608E-02  0.1130116E+00
         25   -1    0    0    0    0  0.00000000000E+00  0.00000000000E+00  0.99999998245E-14  0.12500000000E+03  0.12500000000E+03 0.  0.
        -11    1    3    3    0    0  0.46735397245E+01  0.41691855093E+01 -0.32629655479E+02  0.33225268972E+02  0.51100000000E-03 0.  1.
         23    2    1    0    0    0 -0.27289615902E-01 -0.18051209186E+02  0.24421619126E+02  0.94631226917E+02  0.89625926658E+02 0.  0.
         11    1    3    3    0    0 -0.47008293404E+01 -0.22220394695E+02  0.57051274605E+02  0.61405957945E+02  0.51100000000E-03 0. -1.
         22    1    1    0    0    0  0.27289615902E-01  0.18051209186E+02 -0.24421619126E+02  0.30368773083E+02  0.00000000000E+00 0. -1.
</event>
<event>
 5    1  0.1094625E-009  0.9118800E+02  0.7818608E-02  0.1130116E+00
         25   -1    0    0    0    0  0.00000000000E+00  0.00000000000E+00  0.99999998245E-14  0.12500000000E+03  0.12500000000E+03 0.  0.
        -11    1    3    3    0    0  0.12011495212E+02  0.33634335497E+02 -0.12618476635E+02  0.37878364463E+02  0.51100000000E-03 0.  1.
         23    2    1    0    0    0 -0.23731573402E+02 -0.28720332506E+00  0.17393481716E+02  0.95575464862E+02  0.90933306414E+02 0.  0.
         11    1    3    3    0    0 -0.35743068615E+02 -0.33921538822E+02  0.30011958351E+02  0.57697100398E+02  0.51100000000E-03 0. -1.
         22    1    1    0    0    0  0.23731573402E+02  0.28720332506E+00 -0.17393481716E+02  0.29424535138E+02  0.00000000000E+00 0. -1.
</event>
<event>
 5    1  0.1094625E-009  0.9118800E+02  0.7818608E-02  0.1130116E+00
         25   -1    0    0    0    0  0.00000000000E+00  0.00000000000E+00  0.99999998245E-14  0.12500000000E+03  0.12500000000E+03 0.  0.
        -11    1    3    3    0    0  0.27383624714E+02 -0.54433114515E+02 -0.54854697996E+01  0.61179385723E+02  0.51100000000E-03 0. -1.
         23    2    1    0    0    0  0.49280360624E+01 -0.29493384580E+02 -0.45628105292E+01  0.94751619657E+02  0.89793679701E+02 0.  0.
         11    1    3    3    0    0 -0.22455588651E+02  0.24939729935E+02  0.92265927037E+00  0.33572233934E+02  0.51100000000E-03 0.  1.
         22    1    1    0    0    0 -0.49280360624E+01  0.29493384580E+02  0.45628105292E+01  0.30248380343E+02  0.00000000000E+00 0. -1.
</event>
<event>
 5    1  0.1094625E-009  0.9118800E+02  0.7818608E-02  0.1130116E+00
         25   -1    0    0    0    0  0.00000000000E+00  0.00000000000E+00  0.99999998245E-14  0.12500000000E+03  0.12500000000E+03 0.  0.
        -11    1    3    3    0    0  0.64982657587E+01 -0.12157045737E+01  0.38979475742E+02  0.39536121773E+02  0.51100000000E-03 0. -1.
         23    2    1    0    0    0  0.26379687530E+02  0.57293338208E+01 -0.12570566545E+02  0.95221948964E+02  0.90446046022E+02 0.  0.
         11    1    3    3    0    0  0.19881421771E+02  0.69450383945E+01 -0.51550042287E+02  0.55685827191E+02  0.51100000000E-03 0.  1.
         22    1    1    0    0    0 -0.26379687530E+02 -0.57293338208E+01  0.12570566545E+02  0.29778051036E+02  0.00000000000E+00 0.  1.
</event>
<event>
 5    1  0.1094625E-009  0.9118800E+02  0.7818608E-02  0.1130116E+00
         25   -1    0    0    0    0  0.00000000000E+00  0.00000000000E+00  0.99999998245E-14  0.12500000000E+03  0.12500000000E+03 0.  0.
        -11    1    3    3    0    0 -0.20943790860E+02 -0.66991915526E+01 -0.31014373214E+02  0.38018586101E+02  0.51100000000E-03 0.  1.
         23    2    1    0    0    0  0.10965585080E+02  0.23876874416E+02  0.85851147754E+01  0.97358484417E+02  0.93352134975E+02 0.  0.
         11    1    3    3    0    0  0.31909375939E+02  0.30576065968E+02  0.39599487989E+02  0.59339898316E+02  0.51100000000E-03 0. -1.
         22    1    1    0    0    0 -0.10965585080E+02 -0.23876874416E+02 -0.85851147754E+01  0.27641515583E+02  0.00000000000E+00 0. -1.
</event>
<event>
 5    1  0.1094625E-009  0.9118800E+02  0.7818608E-02  0.1130116E+00
         25   -1    0    0    0    0  0.00000000000E+00  0.00000000000E+00  0.99999998245E-14  0.12500000000E+03  0.12500000000E+03 0.  0.
        -11    1    3    3    0    0  0.25200390500E+02 -0.29896718930E+02 -0.36800988010E+02  0.53695308947E+02  0.51100000000E-03 0. -1.
         23    2    1    0    0    0  0.25852887718E+02  0.44693443955E+01 -0.11613775465E+02  0.96308073902E+02  0.91934859958E+02 0.  0.
         11    1    3    3    0    0  0.65249721766E+00  0.34366063325E+02  0.25187212544E+02  0.42612764955E+02  0.51100000000E-03 0.  1.
         22    1    1    0    0    0 -0.25852887718E+02 -0.44693443955E+01  0.11613775465E+02  0.28691926098E+02  0.00000000000E+00 0. -1.
</event>
<event>
 5    1  0.1094625E-009  0.9118800E+02  0.7818608E-02  0.1130116E+00
         25   -1    0    0    0    0  0.00000000000E+00  0.00000000000E+00  0.99999998245E-14  0.12500000000E+03  0.12500000000E+03 0.  0.
        -11    1    3    3    0    0  0.16606060703E+02 -0.24180002097E+02 -0.36078553350E+00  0.29335369777E+02  0.51100000000E-03 0. -1.
         23    2    1    0    0    0 -0.14150739899E+02 -0.34102885807E+01  0.38963026156E+02  0.83406840525E+02  0.72295989731E+02 0.  0.
         11    1    3    3    0    0 -0.30756800602E+02  0.20769713516E+02  0.39323811689E+02  0.54071470748E+02  0.51100000000E-03 0.  1.
         22    1    1    0    0    0  0.14150739899E+02  0.34102885807E+01 -0.38963026156E+02  0.41593159475E+02  0.00000000000E+00 0.  1.
</event>
<event>
 5    1  0.1094625E-009  0.9118800E+02  0.7818608E-02  0.1130116E+00
         25   -1    0    0    0    0  0.00000000000E+00  0.00000000000E+00  0.99999998245E-14  0.12500000000E+03  0.12500000000E+03 0.  0.
        -11    1    3    3    0    0  0.33336355113E+02 -0.21469444101E+02  0.10341434209E+02  0.40977980233E+02  0.51100000000E-03 0.  1.
         23    2    1    0    0    0  0.91224728668E+01  0.27379989094E+02  0.32959958804E+01  0.95952678216E+02  0.91450366615E+02 0.  0.
         11    1    3    3    0    0 -0.24213882246E+02  0.48849433194E+02 -0.70454383290E+01  0.54974697983E+02  0.51100000000E-03 0. -1.
         22    1    1    0    0    0 -0.91224728668E+01 -0.27379989094E+02 -0.32959958804E+01  0.29047321784E+02  0.00000000000E+00 0. -1.
</event>
<event>
 5    1  0.1094625E-009  0.9118800E+02  0.7818608E-02  0.1130116E+00
         25   -1    0    0    0    0  0.00000000000E+00  0.00000000000E+00  0.99999998245E-14  0.12500000000E+03  0.12500000000E+03 0.  0.
        -11    1    3    3    0    0 -0.50873943438E+02 -0.24304764112E+02  0.24696877337E+02  0.61553354335E+02  0.51100000000E-03 0.  1.
         23    2    1    0    0    0 -0.18808112634E+02 -0.16200556996E+02  0.14900769128E+02  0.96047693210E+02  0.91580146880E+02 0.  0.
         11    1    3    3    0    0  0.32065830804E+02  0.81042071164E+01 -0.97961082087E+01  0.34494338875E+02  0.51100000000E-03 0. -1.
         22    1    1    0    0    0  0.18808112634E+02  0.16200556996E+02 -0.14900769128E+02  0.28952306790E+02  0.00000000000E+00 0.  1.
</event>
<event>
 5    1  0.1094625E-009  0.9118800E+02  0.7818608E-02  0.1130116E+00
         25   -1    0    0    0    0  0.00000000000E+00  0.00000000000E+00  0.99999998245E-14  0.12500000000E+03  0.12500000000E+03 0.  0.
        -11    1    3    3    0    0  0.58710396180E+01 -0.19203708251E+02 -0.32924453526E+02  0.38565154700E+02  0.51100000000E-03 0. -1.
         23    2    1    0    0    0 -0.27776407092E+02  0.68994500808E+01  0.54212203321E+01  0.95870619090E+02  0.91338134273E+02 0.  0.
         11    1    3    3    0    0 -0.33647446710E+02  0.26103158332E+02  0.38345673858E+02  0.57305464389E+02  0.51100000000E-03 0.  1.
         22    1    1    0    0    0  0.27776407092E+02 -0.68994500808E+01 -0.54212203321E+01  0.29129380910E+02  0.00000000000E+00 0.  1.
</event>
<event>
 5    1  0.1094625E-009  0.9118800E+02  0.7818608E-02  0.1130116E+00
         25   -1    0    0    0    0  0.00000000000E+00  0.00000000000E+00  0.99999998245E-14  0.12500000000E+03  0.12500000000E+03 0.  0.
        -11    1    3    3    0    0 -0.18274386433E+02 -0.47702427769E+02 -0.22698036504E+02  0.55898798520E+02  0.51100000000E-03 0. -1.
         23    2    1    0    0    0  0.94358709272E+01 -0.22950847948E+02 -0.19958575971E+02  0.93154720342E+02  0.87542447336E+02 0.  0.
         11    1    3    3    0    0  0.27710257360E+02  0.24751579821E+02  0.27394605334E+01  0.37255921823E+02  0.51100000000E-03 0.  1.
         22    1    1    0    0    0 -0.94358709272E+01  0.22950847948E+02  0.19958575971E+02  0.31845279658E+02  0.00000000000E+00 0. -1.
</event>
<event>
 5    1  0.1094625E-009  0.9118800E+02  0.7818608E-02  0.1130116E+00
         25   -1    0    0    0    0  0.00000000000E+00  0.00000000000E+00  0.99999998245E-14  0.12500000000E+03  0.12500000000E+03 0.  0.
        -11    1    3    3    0    0 -0.59555751908E+01 -0.22392116856E+02  0.23847511928E+02  0.33250257121E+02  0.51100000000E-03 0.  1.
         23    2    1    0    0    0  0.43171296246E+01  0.20898704440E+02 -0.20025119148E+02  0.95735706871E+02  0.91153314354E+02 0.  0.
         11    1    3    3    0    0  0.10272704815E+02  0.43290821296E+02 -0.43872631076E+02  0.62485449750E+02  0.51100000000E-03 0. -1.
         22    1    1    0    0    0 -0.43171296246E+01 -0.20898704440E+02  0.20025119148E+02  0.29264293129E+02  0.00000000000E+00 0. -1.
</event>
<event>
 5    1  0.1094625E-009  0.9118800E+02  0.7818608E-02  0.1130116E+00
         25   -1    0    0    0    0  0.00000000000E+00  0.00000000000E+00  0.99999998245E-14  0.12500000000E+03  0.12500000000E+03 0.  0.
        -11    1    3    3    0    0  0.26151971968E+02 -0.97077553606E+01  0.45155615653E+02  0.53077262337E+02  0.51100000000E-03 0. -1.
         23    2    1    0    0    0  0.22898522000E+02  0.66457452316E+00 -0.24989244903E+01  0.10195594236E+03  0.99317599594E+02 0.  0.
         11    1    3    3    0    0 -0.32534499683E+01  0.10372329884E+02 -0.47654540143E+02  0.48878680019E+02  0.51100000000E-03 0.  1.
         22    1    1    0    0    0 -0.22898522000E+02 -0.66457452316E+00  0.24989244903E+01  0.23044057644E+02  0.00000000000E+00 0.  1.
</event>
<event>
 5    1  0.1094625E-009  0.9118800E+02  0.7818608E-02  0.1130116E+00
         25   -1    0    0    0    0  0.00000000000E+00  0.00000000000E+00  0.99999998245E-14  0.12500000000E+03  0.12500000000E+03 0.  0.
        -11    1    3    3    0    0 -0.48345639825E+02 -0.22798964777E+01  0.11440690979E+02  0.49733170303E+02  0.51100000000E-03 0.  1.
         23    2    1    0    0    0 -0.96952764221E+01 -0.25753563911E+02  0.12054344270E+02  0.94957502521E+02  0.90079829208E+02 0.  0.
         11    1    3    3    0    0  0.38650363403E+02 -0.23473667433E+02  0.61365329118E+00  0.45224332218E+02  0.51100000000E-03 0. -1.
         22    1    1    0    0    0  0.96952764221E+01  0.25753563911E+02 -0.12054344270E+02  0.30042497479E+02  0.00000000000E+00 0.  1.
</event>
<event>
 5    1  0.1094625E-009  0.9118800E+02  0.7818608E-02  0.1130116E+00
         25   -1    0    0    0    0  0.00000000000E+00  0.00000000000E+00  0.99999998245E-14  0.12500000000E+03  0.12500000000E+03 0.  0.
        -11    1    3    3    0    0 -0.22140830713E+02  0.26020079137E+02  0.35603239790E+02  0.49344215332E+02  0.51100000000E-03 0. -1.
         23    2    1    0    0    0 -0.10726815133E+02 -0.16229680856E+02  0.22976568316E+02  0.94893691771E+02  0.89991238145E+02 0.  0.
         11    1    3    3    0    0  0.11414015580E+02 -0.42249759992E+02 -0.12626671474E+02  0.45549476439E+02  0.51100000000E-03 0.  1.
         22    1    1    0    0    0  0.10726815133E+02  0.16229680856E+02 -0.22976568316E+02  0.30106308229E+02  0.00000000000E+00 0. -1.
</event>
<event>
 5    1  0.1094625E-009  0.9118800E+02  0.7818608E-02  0.1130116E+00
         25   -1    0    0    0    0  0.00000000000E+00  0.00000000000E+00  0.99999998245E-14  0.12500000000E+03  0.12500000000E+03 0.  0.
        -11    1    3    3    0    0 -0.34855996704E+02  0.82618807509E+01 -0.23548319520E+02  0.42868666089E+02  0.51100000000E-03 0. -1.
         23    2    1    0    0    0 -0.15564939462E+01 -0.28774643396E+02 -0.70755082057E+01  0.95327359532E+02  0.90591610445E+02 0.  0.
         11    1    3    3    0    0  0.33299502758E+02 -0.37036524147E+02  0.16472811315E+02  0.52458693443E+02  0.51100000000E-03 0.  1.
         22    1    1    0    0    0  0.15564939462E+01  0.28774643396E+02  0.70755082057E+01  0.29672640468E+02  0.00000000000E+00 0. -1.
</event>
<event>
 5    1  0.1094625E-009  0.9118800E+02  0.7818608E-02  0.1130116E+00
         25   -1    0    0    0    0  0.00000000000E+00  0.00000000000E+00  0.99999998245E-14  0.12500000000E+03  0.12500000000E+03 0.  0.
        -11    1    3    3    0    0 -0.52000024088E+02 -0.76422018268E+01 -0.25085638286E+02  0.58238260640E+02  0.51100000000E-03 0.  1.
         23    2    1    0    0    0 -0.30135486176E+02 -0.76315673734E+01  0.29293123123E+01  0.93775502914E+02  0.88424406860E+02 0.  0.
         11    1    3    3    0    0  0.21864537912E+02  0.10634453444E-01  0.28014950598E+02  0.35537242274E+02  0.51100000000E-03 0. -1.
         22    1    1    0    0    0  0.30135486176E+02  0.76315673734E+01 -0.29293123123E+01  0.31224497086E+02  0.00000000000E+00 0.  1.
</event>
<event>
 5    1  0.1094625E-009  0.9118800E+02  0.7818608E-02  0.1130116E+00
         25   -1    0    0    0    0  0.00000000000E+00  0.00000000000E+00  0.99999998245E-14  0.12500000000E+03  0.12500000000E+03 0.  0.
        -11    1    3    3    0    0 -0.67840003995E+01  0.44023042731E+02 -0.12724949543E+02  0.46324672625E+02  0.51100000000E-03 0. -1.
         23    2    1    0    0    0  0.23875751767E+02  0.59846495434E+01 -0.16563492588E+02  0.95331551451E+02  0.90597394348E+02 0.  0.
         11    1    3    3    0    0  0.30659752167E+02 -0.38038393188E+02 -0.38385430450E+01  0.49006878825E+02  0.51100000000E-03 0.  1.
         22    1    1    0    0    0 -0.23875751767E+02 -0.59846495434E+01  0.16563492588E+02  0.29668448549E+02  0.00000000000E+00 0.  1.
</event>
<event>
 5    1  0.1094625E-009  0.9118800E+02  0.7818608E-02  0.1130116E+00
         25   -1    0    0    0    0  0.00000000000E+00  0.00000000000E+00  0.99999998245E-14  0.12500000000E+03  0.12500000000E+03 0.  0.
        -11    1    3    3    0    0  0.32681381797E+02 -0.25877992157E+02 -0.35381822147E+02  0.54677385938E+02  0.51100000000E-03 0.  1.
         23    2    1    0    0    0 -0.42319033248E+01 -0.96519288935E+01 -0.27211454752E+02  0.95818978653E+02  0.91267434845E+02 0.  0.
         11    1    3    3    0    0 -0.36913285122E+02  0.16226063263E+02  0.81703673947E+01  0.41141592715E+02  0.51100000000E-03 0. -1.
         22    1    1    0    0    0  0.42319033248E+01  0.96519288935E+01  0.27211454752E+02  0.29181021347E+02  0.00000000000E+00 0.  1.
</event>
<event>
 5    1  0.1094625E-009  0.9118800E+02  0.7818608E-02  0.1130116E+00
         25   -1    0    0    0    0  0.00000000000E+00  0.00000000000E+00  0.99999998245E-14  0.12500000000E+03  0.12500000000E+03 0.  0.
        -11    1    3    3    0    0  0.26652637048E+00  0.27718883953E+02 -0.25991730096E+02  0.37999705230E+02  0.51100000000E-03 0. -1.
         23    2    1    0    0    0 -0.11548561263E+02  0.23737008601E+02  0.23878631125E+02  0.89405002192E+02  0.82013721705E+02 0.  0.
         11    1    3    3    0    0 -0.11815087633E+02 -0.39818753524E+01  0.49870361222E+02  0.51405296962E+02  0.51100000000E-03 0.  1.
         22    1    1    0    0    0  0.11548561263E+02 -0.23737008601E+02 -0.23878631125E+02  0.35594997808E+02  0.00000000000E+00 0.  1.
</event>
<event>
 5    1  0.1094625E-009  0.9118800E+02  0.7818608E-02  0.1130116E+00
         25   -1    0    0    0    0  0.00000000000E+00  0.00000000000E+00  0.99999998245E-14  0.12500000000E+03  0.12500000000E+03 0.  0.
        -11    1    3    3    0    0 -0.15823141695E+01  0.84957896011E+01  0.34416556163E+02  0.35484947477E+02  0.51100000000E-03 0.  1.
         23    2    1    0    0    0  0.30259180072E+02 -0.22602623796E+02  0.19953424090E+02  0.82284245131E+02  0.70328239583E+02 0.  0.
         11    1    3    3    0    0  0.31841494241E+02 -0.31098413397E+02 -0.14463132073E+02  0.46799297655E+02  0.51100000000E-03 0. -1.
         22    1    1    0    0    0 -0.30259180072E+02  0.22602623796E+02 -0.19953424090E+02  0.42715754869E+02  0.00000000000E+00 0. -1.
</event>
<event>
 5    1  0.1094625E-009  0.9118800E+02  0.7818608E-02  0.1130116E+00
         25   -1    0    0    0    0  0.00000000000E+00  0.00000000000E+00  0.99999998245E-14  0.12500000000E+03  0.12500000000E+03 0.  0.
        -11    1    3    3    0    0 -0.23951812742E+02  0.50748299597E+02 -0.10041929427E+02  0.57008066031E+02  0.51100000000E-03 0.  1.
         23    2    1    0    0    0 -0.42571266772E+01  0.29144803495E+02  0.11561840943E+02  0.93357957331E+02  0.87832165706E+02 0.  0.
         11    1    3    3    0    0  0.19694686065E+02 -0.21603496103E+02  0.21603770370E+02  0.36349891300E+02  0.51100000000E-03 0. -1.
         22    1    1    0    0    0  0.42571266772E+01 -0.29144803495E+02 -0.11561840943E+02  0.31642042669E+02  0.00000000000E+00 0.  1.
</event>
<event>
 5    1  0.1094625E-009  0.9118800E+02  0.7818608E-02  0.1130116E+00
         25   -1    0    0    0    0  0.00000000000E+00  0.00000000000E+00  0.99999998245E-14  0.12500000000E+03  0.12500000000E+03 0.  0.
        -11    1    3    3    0    0  0.11858872228E+02  0.20188377746E+02 -0.38440510649E+02  0.45009735677E+02  0.51100000000E-03 0. -1.
         23    2    1    0    0    0  0.89006547578E+01 -0.24120190198E+02 -0.12954323342E+02  0.96210770702E+02  0.91802465519E+02 0.  0.
         11    1    3    3    0    0 -0.29582174702E+01 -0.44308567945E+02  0.25486187306E+02  0.51201035025E+02  0.51100000000E-03 0.  1.
         22    1    1    0    0    0 -0.89006547578E+01  0.24120190198E+02  0.12954323342E+02  0.28789229298E+02  0.00000000000E+00 0. -1.
</event>
<event>
 5    1  0.1094625E-009  0.9118800E+02  0.7818608E-02  0.1130116E+00
         25   -1    0    0    0    0  0.00000000000E+00  0.00000000000E+00  0.99999998245E-14  0.12500000000E+03  0.12500000000E+03 0.  0.
        -11    1    3    3    0    0  0.26286853826E+02 -0.37954244310E+02  0.25995249488E+02  0.52983736574E+02  0.51100000000E-03 0.  1.
         23    2    1    0    0    0  0.19988558607E+02  0.48627058175E+01  0.19329997584E+02  0.96771695240E+02  0.92563080167E+02 0.  0.
         11    1    3    3    0    0 -0.62982952198E+01  0.42816950127E+02 -0.66652519033E+01  0.43787958665E+02  0.51100000000E-03 0. -1.
         22    1    1    0    0    0 -0.19988558607E+02 -0.48627058175E+01 -0.19329997584E+02  0.28228304760E+02  0.00000000000E+00 0.  1.
</event>
<event>
 5    1  0.1094625E-009  0.9118800E+02  0.7818608E-02  0.1130116E+00
         25   -1    0    0    0    0  0.00000000000E+00  0.00000000000E+00  0.99999998245E-14  0.12500000000E+03  0.12500000000E+03 0.  0.
        -11    1    3    3    0    0 -0.78069531147E+01 -0.46816683358E+02  0.27549102286E+02  0.54878988644E+02  0.51100000000E-03 0.  1.
         23    2    1    0    0    0  0.98617456802E+01 -0.91216424822E+01  0.25038929075E+02  0.96585103227E+02  0.92310756722E+02 0.  0.
         11    1    3    3    0    0  0.17668698795E+02  0.37695040876E+02 -0.25101732114E+01  0.41706114582E+02  0.51100000000E-03 0. -1.
         22    1    1    0    0    0 -0.98617456802E+01  0.91216424822E+01 -0.25038929075E+02  0.28414896773E+02  0.00000000000E+00 0.  1.
</event>
<event>
 5    1  0.1094625E-009  0.9118800E+02  0.7818608E-02  0.1130116E+00
         25   -1    0    0    0    0  0.00000000000E+00  0.00000000000E+00  0.99999998245E-14  0.12500000000E+03  0.12500000000E+03 0.  0.
        -11    1    3    3    0    0  0.45407570624E+02 -0.14705391452E+02 -0.24451014185E+02  0.53627866848E+02  0.51100000000E-03 0.  1.
         23    2    1    0    0    0  0.20757120575E+02 -0.18790520580E+02  0.91884594968E+01  0.95531890014E+02  0.90873387212E+02 0.  0.
         11    1    3    3    0    0 -0.24650450049E+02 -0.40851291283E+01  0.33639473682E+02  0.41904023166E+02  0.51100000000E-03 0. -1.
         22    1    1    0    0    0 -0.20757120575E+02  0.18790520580E+02 -0.91884594968E+01  0.29468109986E+02  0.00000000000E+00 0. -1.
</event>
<event>
 5    1  0.1094625E-009  0.9118800E+02  0.7818608E-02  0.1130116E+00
         25   -1    0    0    0    0  0.00000000000E+00  0.00000000000E+00  0.99999998245E-14  0.12500000000E+03  0.12500000000E+03 0.  0.
        -11    1    3    3    0    0  0.20572676895E+02  0.38665084943E+02 -0.15008920772E+02  0.46297856660E+02  0.51100000000E-03 0. -1.
         23    2    1    0    0    0  0.32795067261E+01  0.16531776825E+02  0.24798012629E+02  0.95016734005E+02  0.90161984790E+02 0.  0.
         11    1    3    3    0    0 -0.17293170169E+02 -0.22133308117E+02  0.39806933401E+02  0.48718877345E+02  0.51100000000E-03 0.  1.
         22    1    1    0    0    0 -0.32795067261E+01 -0.16531776825E+02 -0.24798012629E+02  0.29983265995E+02  0.00000000000E+00 0.  1.
</event>
<event>
 5    1  0.1094625E-009  0.9118800E+02  0.7818608E-02  0.1130116E+00
         25   -1    0    0    0    0  0.00000000000E+00  0.00000000000E+00  0.99999998245E-14  0.12500000000E+03  0.12500000000E+03 0.  0.
        -11    1    3    3    0    0  0.16569369774E+02  0.47199801174E+02  0.49581861348E+01  0.50268766203E+02  0.51100000000E-03 0. -1.
         23    2    1    0    0    0  0.92381682575E+01  0.15146200135E+02 -0.24726478450E+02  0.94567289509E+02  0.89536709663E+02 0.  0.
         11    1    3    3    0    0 -0.73312015169E+01 -0.32053601039E+02 -0.29684664585E+02  0.44298523305E+02  0.51100000000E-03 0.  1.
         22    1    1    0    0    0 -0.92381682575E+01 -0.15146200135E+02  0.24726478450E+02  0.30432710491E+02  0.00000000000E+00 0. -1.
</event>
<event>
 5    1  0.1094625E-009  0.9118800E+02  0.7818608E-02  0.1130116E+00
         25   -1    0    0    0    0  0.00000000000E+00  0.00000000000E+00  0.99999998245E-14  0.12500000000E+03  0.12500000000E+03 0.  0.
        -11    1    3    3    0    0  0.17547590339E+02  0.19359095984E+02 -0.42138773527E+02  0.49581939844E+02  0.51100000000E-03 0.  1.
         23    2    1    0    0    0  0.10968110882E+02  0.27295774349E+02  0.25766533260E+01  0.95470389505E+02  0.90788751375E+02 0.  0.
         11    1    3    3    0    0 -0.65794794567E+01  0.79366783643E+01  0.44715426853E+02  0.45888449661E+02  0.51100000000E-03 0. -1.
         22    1    1    0    0    0 -0.10968110882E+02 -0.27295774349E+02 -0.25766533260E+01  0.29529610495E+02  0.00000000000E+00 0. -1.
</event>
<event>
 5    1  0.1094625E-009  0.9118800E+02  0.7818608E-02  0.1130116E+00
         25   -1    0    0    0    0  0.00000000000E+00  0.00000000000E+00  0.99999998245E-14  0.12500000000E+03  0.12500000000E+03 0.  0.
        -11    1    3    3    0    0 -0.32295383644E+02 -0.97319415580E+01 -0.20217717492E+02  0.39325037725E+02  0.51100000000E-03 0. -1.
         23    2    1    0    0    0 -0.40387514475E+01 -0.36795925967E+00  0.28389045890E+02  0.96322747102E+02  0.91954808332E+02 0.  0.
         11    1    3    3    0    0  0.28256632197E+02  0.93639822983E+01  0.48606763381E+02  0.56997709377E+02  0.51100000000E-03 0.  1.
         22    1    1    0    0    0  0.40387514475E+01  0.36795925967E+00 -0.28389045890E+02  0.28677252898E+02  0.00000000000E+00 0.  1.
</event>
<event>
 5    1  0.1094625E-009  0.9118800E+02  0.7818608E-02  0.1130116E+00
         25   -1    0    0    0    0  0.00000000000E+00  0.00000000000E+00  0.99999998245E-14  0.12500000000E+03  0.12500000000E+03 0.  0.
        -11    1    3    3    0    0 -0.15240829352E+02 -0.14658065134E+02  0.56558105039E+02  0.60381793603E+02  0.51100000000E-03 0.  1.
         23    2    1    0    0    0 -0.60990563086E+01  0.42064339600E+01  0.29352387800E+02  0.94726988190E+02  0.89759384175E+02 0.  0.
         11    1    3    3    0    0  0.91417730433E+01  0.18864499094E+02 -0.27205717239E+02  0.34345194587E+02  0.51100000000E-03 0. -1.
         22    1    1    0    0    0  0.60990563086E+01 -0.42064339600E+01 -0.29352387800E+02  0.30273011810E+02  0.00000000000E+00 0.  1.
</event>
<event>
 5    1  0.1094625E-009  0.9118800E+02  0.7818608E-02  0.1130116E+00
         25   -1    0    0    0    0  0.00000000000E+00  0.00000000000E+00  0.99999998245E-14  0.12500000000E+03  0.12500000000E+03 0.  0.
        -11    1    3    3    0    0 -0.88220240025E+01 -0.39048936449E+02  0.39994010573E+02  0.56587705619E+02  0.51100000000E-03 0. -1.
         23    2    1    0    0    0 -0.32061445774E+01  0.38535658034E+00  0.25990383215E+02  0.98809775060E+02  0.95275619993E+02 0.  0.
         11    1    3    3    0    0  0.56158794251E+01  0.39434293029E+02 -0.14003627359E+02  0.42222069441E+02  0.51100000000E-03 0.  1.
         22    1    1    0    0    0  0.32061445774E+01 -0.38535658034E+00 -0.25990383215E+02  0.26190224940E+02  0.00000000000E+00 0. -1.
</event>
<event>
 5    1  0.1094625E-009  0.9118800E+02  0.7818608E-02  0.1130116E+00
         25   -1    0    0    0    0  0.00000000000E+00  0.00000000000E+00  0.99999998245E-14  0.12500000000E+03  0.12500000000E+03 0.  0.
        -11    1    3    3    0    0 -0.44150532479E+02 -0.47170837752E+01 -0.35340062563E+02  0.56748924393E+02  0.51100000000E-03 0. -1.
         23    2    1    0    0    0 -0.20609839336E+02  0.16706136509E+02 -0.17142323393E+02  0.93413298275E+02  0.87910889933E+02 0.  0.
         11    1    3    3    0    0  0.23540693143E+02  0.21423220285E+02  0.18197739170E+02  0.36664373882E+02  0.51100000000E-03 0.  1.
         22    1    1    0    0    0  0.20609839336E+02 -0.16706136509E+02  0.17142323393E+02  0.31586701725E+02  0.00000000000E+00 0.  1.
</event>
<event>
 5    1  0.1094625E-009  0.9118800E+02  0.7818608E-02  0.1130116E+00
         25   -1    0    0    0    0  0.00000000000E+00  0.00000000000E+00  0.99999998245E-14  0.12500000000E+03  0.12500000000E+03 0.  0.
        -11    1    3    3    0    0 -0.27804890177E+02  0.11865033825E+02 -0.48684680065E+02  0.57306971816E+02  0.51100000000E-03 0.  1.
         23    2    1    0    0    0 -0.21228431242E+02 -0.92934863769E+01 -0.15826453453E+02  0.96937715508E+02  0.92787008126E+02 0.  0.
         11    1    3    3    0    0  0.65764589349E+01 -0.21158520202E+02  0.32858226612E+02  0.39630743692E+02  0.51100000000E-03 0. -1.
         22    1    1    0    0    0  0.21228431242E+02  0.92934863769E+01  0.15826453453E+02  0.28062284492E+02  0.00000000000E+00 0.  1.
</event>
<event>
 5    1  0.1094625E-009  0.9118800E+02  0.7818608E-02  0.1130116E+00
         25   -1    0    0    0    0  0.00000000000E+00  0.00000000000E+00  0.99999998245E-14  0.12500000000E+03  0.12500000000E+03 0.  0.
        -11    1    3    3    0    0  0.84227767842E+01  0.54151654487E+02  0.25439721374E+02  0.60419568653E+02  0.51100000000E-03 0.  1.
         23    2    1    0    0    0 -0.34634029812E+01  0.36406594878E+02  0.90924943590E+01  0.87315669510E+02  0.78764950184E+02 0.  0.
         11    1    3    3    0    0 -0.11886179765E+02 -0.17745059609E+02 -0.16347227015E+02  0.26896100857E+02  0.51100000000E-03 0. -1.
         22    1    1    0    0    0  0.34634029812E+01 -0.36406594878E+02 -0.90924943590E+01  0.37684330490E+02  0.00000000000E+00 0.  1.
</event>
<event>
 5    1  0.1094625E-009  0.9118800E+02  0.7818608E-02  0.1130116E+00
         25   -1    0    0    0    0  0.00000000000E+00  0.00000000000E+00  0.99999998245E-14  0.12500000000E+03  0.12500000000E+03 0.  0.
        -11    1    3    3    0    0  0.57733225190E+02 -0.13216536621E+02  0.17282976095E+02  0.61696866971E+02  0.51100000000E-03 0.  1.
         23    2    1    0    0    0  0.26456392216E+02 -0.12707529392E+02  0.54084700332E+01  0.95155845791E+02  0.90354642647E+02 0.  0.
         11    1    3    3    0    0 -0.31276832974E+02  0.50900722917E+00 -0.11874506062E+02  0.33458978820E+02  0.51100000000E-03 0. -1.
         22    1    1    0    0    0 -0.26456392216E+02  0.12707529392E+02 -0.54084700332E+01  0.29844154209E+02  0.00000000000E+00 0.  1.
</event>
<event>
 5    1  0.1094625E-009  0.9118800E+02  0.7818608E-02  0.1130116E+00
         25   -1    0    0    0    0  0.00000000000E+00  0.00000000000E+00  0.99999998245E-14  0.12500000000E+03  0.12500000000E+03 0.  0.
        -11    1    3    3    0    0  0.41893792512E+01 -0.37761245198E+02  0.22880688738E+02  0.44350743566E+02  0.51100000000E-03 0.  1.
         23    2    1    0    0    0 -0.14818920077E+02 -0.15154403493E+02 -0.19627083256E+02  0.96112654421E+02  0.91668771156E+02 0.  0.
         11    1    3    3    0    0 -0.19008299328E+02  0.22606841706E+02 -0.42507771994E+02  0.51761910855E+02  0.51100000000E-03 0. -1.
         22    1    1    0    0    0  0.14818920077E+02  0.15154403493E+02  0.19627083256E+02  0.28887345579E+02  0.00000000000E+00 0. -1.
</event>
<event>
 5    1  0.1094625E-009  0.9118800E+02  0.7818608E-02  0.1130116E+00
         25   -1    0    0    0    0  0.00000000000E+00  0.00000000000E+00  0.99999998245E-14  0.12500000000E+03  0.12500000000E+03 0.  0.
        -11    1    3    3    0    0 -0.28564891467E+02  0.30760675992E+02  0.13315763500E+02  0.44039547794E+02  0.51100000000E-03 0.  1.
         23    2    1    0    0    0 -0.23811791000E+02 -0.16150041557E+01 -0.22251450314E+02  0.92369697058E+02  0.86414259613E+02 0.  0.
         11    1    3    3    0    0  0.47531004679E+01 -0.32375680148E+02 -0.35567213814E+02  0.48330149264E+02  0.51100000000E-03 0. -1.
         22    1    1    0    0    0  0.23811791000E+02  0.16150041557E+01  0.22251450314E+02  0.32630302942E+02  0.00000000000E+00 0. -1.
</event>
<event>
 5    1  0.1094625E-009  0.9118800E+02  0.7818608E-02  0.1130116E+00
         25   -1    0    0    0    0  0.00000000000E+00  0.00000000000E+00  0.99999998245E-14  0.12500000000E+03  0.12500000000E+03 0.  0.
        -11    1    3    3    0    0  0.28113731196E+02 -0.19652765215E+02  0.17688668559E+02  0.38594067653E+02  0.51100000000E-03 0.  1.
         23    2    1    0    0    0 -0.60075141540E+01 -0.13876812284E+02 -0.26359805167E+02  0.94610931670E+02  0.89597616696E+02 0.  0.
         11    1    3    3    0    0 -0.34121245350E+02  0.57759529306E+01 -0.44048473726E+02  0.56016864017E+02  0.51100000000E-03 0. -1.
         22    1    1    0    0    0  0.60075141540E+01  0.13876812284E+02  0.26359805167E+02  0.30389068330E+02  0.00000000000E+00 0. -1.
</event>
<event>
 5    1  0.1094625E-009  0.9118800E+02  0.7818608E-02  0.1130116E+00
         25   -1    0    0    0    0  0.00000000000E+00  0.00000000000E+00  0.99999998245E-14  0.12500000000E+03  0.12500000000E+03 0.  0.
        -11    1    3    3    0    0  0.28830138217E+02 -0.18522770991E+02  0.18136396756E+02  0.38771107830E+02  0.51100000000E-03 0. -1.
         23    2    1    0    0    0 -0.49070366634E+01 -0.16426466479E+02 -0.25687777988E+02  0.94116837148E+02  0.88905620109E+02 0.  0.
         11    1    3    3    0    0 -0.33737174880E+02  0.20963045126E+01 -0.43824174744E+02  0.55345729318E+02  0.51100000000E-03 0.  1.
         22    1    1    0    0    0  0.49070366634E+01  0.16426466479E+02  0.25687777988E+02  0.30883162852E+02  0.00000000000E+00 0.  1.
</event>
<event>
 5    1  0.1094625E-009  0.9118800E+02  0.7818608E-02  0.1130116E+00
         25   -1    0    0    0    0  0.00000000000E+00  0.00000000000E+00  0.99999998245E-14  0.12500000000E+03  0.12500000000E+03 0.  0.
        -11    1    3    3    0    0  0.11011258143E+02 -0.86568717775E+00  0.37294657930E+02  0.38895870353E+02  0.51100000000E-03 0.  1.
         23    2    1    0    0    0 -0.23108429735E+02  0.11851090230E+02 -0.87473638816E+01  0.97596273258E+02  0.93669996875E+02 0.  0.
         11    1    3    3    0    0 -0.34119687878E+02  0.12716777408E+02 -0.46042021811E+02  0.58700402905E+02  0.51100000000E-03 0. -1.
         22    1    1    0    0    0  0.23108429735E+02 -0.11851090230E+02  0.87473638816E+01  0.27403726742E+02  0.00000000000E+00 0. -1.
</event>
<event>
 5    1  0.1094625E-009  0.9118800E+02  0.7818608E-02  0.1130116E+00
         25   -1    0    0    0    0  0.00000000000E+00  0.00000000000E+00  0.99999998245E-14  0.12500000000E+03  0.12500000000E+03 0.  0.
        -11    1    3    3    0    0 -0.54648773799E+02 -0.20494423885E+02  0.13781764543E+02  0.59970383709E+02  0.51100000000E-03 0.  1.
         23    2    1    0    0    0 -0.23714449338E+02 -0.32734076042E+01  0.17174403634E+02  0.95537304181E+02  0.90880834311E+02 0.  0.
         11    1    3    3    0    0  0.30934324460E+02  0.17221016280E+02  0.33926390907E+01  0.35566920471E+02  0.51100000000E-03 0. -1.
         22    1    1    0    0    0  0.23714449338E+02  0.32734076042E+01 -0.17174403634E+02  0.29462695819E+02  0.00000000000E+00 0.  1.
</event>
<event>
 5    1  0.1094625E-009  0.9118800E+02  0.7818608E-02  0.1130116E+00
         25   -1    0    0    0    0  0.00000000000E+00  0.00000000000E+00  0.99999998245E-14  0.12500000000E+03  0.12500000000E+03 0.  0.
        -11    1    3    3    0    0  0.43406940676E+00 -0.50076324008E+02 -0.32122364380E+02  0.59495150525E+02  0.51100000000E-03 0.  1.
         23    2    1    0    0    0 -0.11301239832E+02 -0.19188034056E+02 -0.21086389709E+02  0.94331865012E+02  0.89207433844E+02 0.  0.
         11    1    3    3    0    0 -0.11735309238E+02  0.30888289952E+02  0.11035974671E+02  0.34836714487E+02  0.51100000000E-03 0. -1.
         22    1    1    0    0    0  0.11301239832E+02  0.19188034056E+02  0.21086389709E+02  0.30668134988E+02  0.00000000000E+00 0.  1.
</event>
<event>
 5    1  0.1094625E-009  0.9118800E+02  0.7818608E-02  0.1130116E+00
         25   -1    0    0    0    0  0.00000000000E+00  0.00000000000E+00  0.99999998245E-14  0.12500000000E+03  0.12500000000E+03 0.  0.
        -11    1    3    3    0    0  0.53735621454E+02 -0.11268447105E+02 -0.11211887930E+02  0.56037499448E+02  0.51100000000E-03 0. -1.
         23    2    1    0    0    0  0.25009945468E+02  0.14460670384E+02 -0.32425995012E+00  0.96108591160E+02  0.91663230305E+02 0.  0.
         11    1    3    3    0    0 -0.28725675986E+02  0.25729117489E+02  0.10887627980E+02  0.40071091711E+02  0.51100000000E-03 0.  1.
         22    1    1    0    0    0 -0.25009945468E+02 -0.14460670384E+02  0.32425995012E+00  0.28891408840E+02  0.00000000000E+00 0. -1.
</event>
<event>
 5    1  0.1094625E-009  0.9118800E+02  0.7818608E-02  0.1130116E+00
         25   -1    0    0    0    0  0.00000000000E+00  0.00000000000E+00  0.99999998245E-14  0.12500000000E+03  0.12500000000E+03 0.  0.
        -11    1    3    3    0    0  0.37641000686E+01  0.38963310534E+02 -0.26654927583E+02  0.47358137440E+02  0.51100000000E-03 0.  1.
         23    2    1    0    0    0 -0.25267639243E+02  0.11752303181E+02  0.29833623149E+01  0.96973750275E+02  0.92835540440E+02 0.  0.
         11    1    3    3    0    0 -0.29031739311E+02 -0.27211007353E+02  0.29638289898E+02  0.49615612834E+02  0.51100000000E-03 0. -1.
         22    1    1    0    0    0  0.25267639243E+02 -0.11752303181E+02 -0.29833623149E+01  0.28026249725E+02  0.00000000000E+00 0. -1.
</event>
<event>
 5    1  0.1094625E-009  0.9118800E+02  0.7818608E-02  0.1130116E+00
         25   -1    0    0    0    0  0.00000000000E+00  0.00000000000E+00  0.99999998245E-14  0.12500000000E+03  0.12500000000E+03 0.  0.
        -11    1    3    3    0    0  0.67107473542E+01 -0.55490383916E+02 -0.46061205462E+01  0.56084161614E+02  0.51100000000E-03 0.  1.
         23    2    1    0    0    0 -0.16780881346E+02 -0.22068326440E+02 -0.43499118292E+01  0.96937021834E+02  0.92786073624E+02 0.  0.
         11    1    3    3    0    0 -0.23491628700E+02  0.33422057476E+02  0.25620871707E+00  0.40852860220E+02  0.51100000000E-03 0. -1.
         22    1    1    0    0    0  0.16780881346E+02  0.22068326440E+02  0.43499118292E+01  0.28062978166E+02  0.00000000000E+00 0.  1.
</event>
<event>
 5    1  0.1094625E-009  0.9118800E+02  0.7818608E-02  0.1130116E+00
         25   -1    0    0    0    0  0.00000000000E+00  0.00000000000E+00  0.99999998245E-14  0.12500000000E+03  0.12500000000E+03 0.  0.
        -11    1    3    3    0    0 -0.64014787604E+01 -0.51960697516E+02  0.51326628252E+00  0.52356054656E+02  0.51100000000E-03 0. -1.
         23    2    1    0    0    0  0.18399195031E+02 -0.17424609816E+02  0.12794421926E+02  0.96612597205E+02  0.92347979410E+02 0.  0.
         11    1    3    3    0    0  0.24800673792E+02  0.34536087700E+02  0.12281155644E+02  0.44256542548E+02  0.51100000000E-03 0.  1.
         22    1    1    0    0    0 -0.18399195031E+02  0.17424609816E+02 -0.12794421926E+02  0.28387402795E+02  0.00000000000E+00 0. -1.
</event>
<event>
 5    1  0.1094625E-009  0.9118800E+02  0.7818608E-02  0.1130116E+00
         25   -1    0    0    0    0  0.00000000000E+00  0.00000000000E+00  0.99999998245E-14  0.12500000000E+03  0.12500000000E+03 0.  0.
        -11    1    3    3    0    0  0.22356428782E+01  0.11480972153E+02 -0.34039363626E+02  0.35992903425E+02  0.51100000000E-03 0.  1.
         23    2    1    0    0    0  0.13355971179E+02 -0.19094752414E+02  0.16744973103E+02  0.96305302578E+02  0.91931091827E+02 0.  0.
         11    1    3    3    0    0  0.11120328301E+02 -0.30575724567E+02  0.50784336729E+02  0.60312399153E+02  0.51100000000E-03 0. -1.
         22    1    1    0    0    0 -0.13355971179E+02  0.19094752414E+02 -0.16744973103E+02  0.28694697422E+02  0.00000000000E+00 0. -1.
</event>
<event>
 5    1  0.1094625E-009  0.9118800E+02  0.7818608E-02  0.1130116E+00
         25   -1    0    0    0    0  0.00000000000E+00  0.00000000000E+00  0.99999998245E-14  0.12500000000E+03  0.12500000000E+03 0.  0.
        -11    1    3    3    0    0  0.17941300354E+02  0.34907283612E+02  0.38539178158E+02  0.55006153846E+02  0.51100000000E-03 0. -1.
         23    2    1    0    0    0 -0.73380890190E+01  0.26654569323E+02  0.65807351330E+01  0.96581349590E+02  0.92305673701E+02 0.  0.
         11    1    3    3    0    0 -0.25279389374E+02 -0.82527142887E+01 -0.31958443025E+02  0.41575195743E+02  0.51100000000E-03 0.  1.
         22    1    1    0    0    0  0.73380890190E+01 -0.26654569323E+02 -0.65807351330E+01  0.28418650410E+02  0.00000000000E+00 0. -1.
</event>
<event>
 5    1  0.1094625E-009  0.9118800E+02  0.7818608E-02  0.1130116E+00
         25   -1    0    0    0    0  0.00000000000E+00  0.00000000000E+00  0.99999998245E-14  0.12500000000E+03  0.12500000000E+03 0.  0.
        -11    1    3    3    0    0 -0.56299379960E+02 -0.45855995072E+01  0.11025656871E+02  0.57551828958E+02  0.51100000000E-03 0. -1.
         23    2    1    0    0    0 -0.25553571364E+02 -0.64188714161E+01 -0.12040368164E+02  0.96031786641E+02  0.91558433037E+02 0.  0.
         11    1    3    3    0    0  0.30745808596E+02 -0.18332719089E+01 -0.23066025034E+02  0.38479957683E+02  0.51100000000E-03 0.  1.
         22    1    1    0    0    0  0.25553571364E+02  0.64188714161E+01  0.12040368164E+02  0.28968213359E+02  0.00000000000E+00 0.  1.
</event>
<event>
 5    1  0.1094625E-009  0.9118800E+02  0.7818608E-02  0.1130116E+00
         25   -1    0    0    0    0  0.00000000000E+00  0.00000000000E+00  0.99999998245E-14  0.12500000000E+03  0.12500000000E+03 0.  0.
        -11    1    3    3    0    0 -0.15207241444E+02 -0.17182477752E+01 -0.36580678020E+02  0.39652976842E+02  0.51100000000E-03 0.  1.
         23    2    1    0    0    0  0.91618691884E+01 -0.27183908475E+02  0.67710704524E+01  0.95525398695E+02  0.90864457704E+02 0.  0.
         11    1    3    3    0    0  0.24369110632E+02 -0.25465660700E+02  0.43351748472E+02  0.55872421853E+02  0.51100000000E-03 0. -1.
         22    1    1    0    0    0 -0.91618691884E+01  0.27183908475E+02 -0.67710704524E+01  0.29474601305E+02  0.00000000000E+00 0. -1.
</event>
<event>
 5    1  0.1094625E-009  0.9118800E+02  0.7818608E-02  0.1130116E+00
         25   -1    0    0    0    0  0.00000000000E+00  0.00000000000E+00  0.99999998245E-14  0.12500000000E+03  0.12500000000E+03 0.  0.
        -11    1    3    3    0    0  0.11966789655E+02  0.58442860157E+02 -0.16463959029E+02  0.61885651852E+02  0.51100000000E-03 0. -1.
         23    2    1    0    0    0  0.41645919649E+01  0.28857132186E+02 -0.18730349255E+01  0.95783803052E+02  0.91219245574E+02 0.  0.
         11    1    3    3    0    0 -0.78021976902E+01 -0.29585727970E+02  0.14590924104E+02  0.33898151200E+02  0.51100000000E-03 0.  1.
         22    1    1    0    0    0 -0.41645919649E+01 -0.28857132186E+02  0.18730349255E+01  0.29216196948E+02  0.00000000000E+00 0. -1.
</event>
<event>
 5    1  0.1094625E-009  0.9118800E+02  0.7818608E-02  0.1130116E+00
         25   -1    0    0    0    0  0.00000000000E+00  0.00000000000E+00  0.99999998245E-14  0.12500000000E+03  0.12500000000E+03 0.  0.
        -11    1    3    3    0    0 -0.29947657765E+02 -0.47687064599E+01 -0.27998839984E+02  0.41273936178E+02  0.51100000000E-03 0. -1.
         23    2    1    0    0    0 -0.10775291250E+02  0.19754212333E+02  0.17563995847E+02  0.96454776993E+02  0.92134110124E+02 0.  0.
         11    1    3    3    0    0  0.19172366515E+02  0.24522918793E+02  0.45562835831E+02  0.55180840815E+02  0.51100000000E-03 0.  1.
         22    1    1    0    0    0  0.10775291250E+02 -0.19754212333E+02 -0.17563995847E+02  0.28545223007E+02  0.00000000000E+00 0.  1.
</event>
<event>
 5    1  0.1094625E-009  0.9118800E+02  0.7818608E-02  0.1130116E+00
         25   -1    0    0    0    0  0.00000000000E+00  0.00000000000E+00  0.99999998245E-14  0.12500000000E+03  0.12500000000E+03 0.  0.
        -11    1    3    3    0    0 -0.41967089784E+02  0.10238417796E+02  0.40098534531E+01  0.43383646100E+02  0.51100000000E-03 0.  1.
         23    2    1    0    0    0 -0.53161322134E+01 -0.17280933434E+02  0.25287135217E+02  0.93914132962E+02  0.88620162719E+02 0.  0.
         11    1    3    3    0    0  0.36650957571E+02 -0.27519351230E+02  0.21277281763E+02  0.50530486862E+02  0.51100000000E-03 0. -1.
         22    1    1    0    0    0  0.53161322134E+01  0.17280933434E+02 -0.25287135217E+02  0.31085867038E+02  0.00000000000E+00 0. -1.
</event>
<event>
 5    1  0.1094625E-009  0.9118800E+02  0.7818608E-02  0.1130116E+00
         25   -1    0    0    0    0  0.00000000000E+00  0.00000000000E+00  0.99999998245E-14  0.12500000000E+03  0.12500000000E+03 0.  0.
        -11    1    3    3    0    0 -0.14947868106E+02 -0.33529849808E+02  0.28181582586E+01  0.36818902825E+02  0.51100000000E-03 0.  1.
         23    2    1    0    0    0  0.31210629817E+02 -0.64119410318E+01  0.11644200414E+02  0.91076500701E+02  0.84522926921E+02 0.  0.
         11    1    3    3    0    0  0.46158497923E+02  0.27117908776E+02  0.88260421554E+01  0.54257597876E+02  0.51100000000E-03 0. -1.
         22    1    1    0    0    0 -0.31210629817E+02  0.64119410318E+01 -0.11644200414E+02  0.33923499299E+02  0.00000000000E+00 0. -1.
</event>
<event>
 5    1  0.1094625E-009  0.9118800E+02  0.7818608E-02  0.1130116E+00
         25   -1    0    0    0    0  0.00000000000E+00  0.00000000000E+00  0.99999998245E-14  0.12500000000E+03  0.12500000000E+03 0.  0.
        -11    1    3    3    0    0  0.29016916323E+02  0.34047425327E+02  0.30423829307E+02  0.54100073884E+02  0.51100000000E-03 0.  1.
         23    2    1    0    0    0 -0.18539168313E+01  0.32397777216E+02  0.10441402068E+02  0.90910766314E+02  0.84277467798E+02 0.  0.
         11    1    3    3    0    0 -0.30870833155E+02 -0.16496481111E+01 -0.19982427239E+02  0.36810692430E+02  0.51100000000E-03 0. -1.
         22    1    1    0    0    0  0.18539168313E+01 -0.32397777216E+02 -0.10441402068E+02  0.34089233686E+02  0.00000000000E+00 0.  1.
</event>
<event>
 5    1  0.1094625E-009  0.9118800E+02  0.7818608E-02  0.1130116E+00
         25   -1    0    0    0    0  0.00000000000E+00  0.00000000000E+00  0.99999998245E-14  0.12500000000E+03  0.12500000000E+03 0.  0.
        -11    1    3    3    0    0  0.50012253591E+02 -0.18335350515E+02 -0.83930673437E+00  0.53273961969E+02  0.51100000000E-03 0. -1.
         23    2    1    0    0    0  0.24320948422E+02  0.14228833086E+02  0.80517836034E+01  0.95694719889E+02  0.91097090910E+02 0.  0.
         11    1    3    3    0    0 -0.25691305169E+02  0.32564183601E+02  0.88910903378E+01  0.42420757921E+02  0.51100000000E-03 0.  1.
         22    1    1    0    0    0 -0.24320948422E+02 -0.14228833086E+02 -0.80517836034E+01  0.29305280111E+02  0.00000000000E+00 0. -1.
</event>
<event>
 5    1  0.1094625E-009  0.9118800E+02  0.7818608E-02  0.1130116E+00
         25   -1    0    0    0    0  0.00000000000E+00  0.00000000000E+00  0.99999998245E-14  0.12500000000E+03  0.12500000000E+03 0.  0.
        -11    1    3    3    0    0  0.13542813114E+02  0.95680244641E+01  0.50399553189E+02  0.53057231751E+02  0.51100000000E-03 0. -1.
         23    2    1    0    0    0 -0.16669098878E+02 -0.51928064151E+01  0.20698165140E+02  0.97921629739E+02  0.94103174413E+02 0.  0.
         11    1    3    3    0    0 -0.30211911991E+02 -0.14760830879E+02 -0.29701388050E+02  0.44864397987E+02  0.51100000000E-03 0.  1.
         22    1    1    0    0    0  0.16669098878E+02  0.51928064151E+01 -0.20698165140E+02  0.27078370261E+02  0.00000000000E+00 0. -1.
</event>
<event>
 5    1  0.1094625E-009  0.9118800E+02  0.7818608E-02  0.1130116E+00
         25   -1    0    0    0    0  0.00000000000E+00  0.00000000000E+00  0.99999998245E-14  0.12500000000E+03  0.12500000000E+03 0.  0.
        -11    1    3    3    0    0  0.65351670303E+01 -0.19768794104E+02 -0.79641080493E+01  0.22292165568E+02  0.51100000000E-03 0. -1.
         23    2    1    0    0    0  0.33266971001E+02  0.30182096896E+02  0.29384616807E+01  0.79985725712E+02  0.66116801405E+02 0.  0.
         11    1    3    3    0    0  0.26731803971E+02  0.49950890999E+02  0.10902569730E+02  0.57693560144E+02  0.51100000000E-03 0.  1.
         22    1    1    0    0    0 -0.33266971001E+02 -0.30182096896E+02 -0.29384616807E+01  0.45014274288E+02  0.00000000000E+00 0.  1.
</event>
<event>
 5    1  0.1094625E-009  0.9118800E+02  0.7818608E-02  0.1130116E+00
         25   -1    0    0    0    0  0.00000000000E+00  0.00000000000E+00  0.99999998245E-14  0.12500000000E+03  0.12500000000E+03 0.  0.
        -11    1    3    3    0    0  0.24646055704E+02 -0.70926921415E+01 -0.27829787974E+02  0.37844833763E+02  0.51100000000E-03 0.  1.
         23    2    1    0    0    0 -0.22400150826E+02 -0.18896343087E+02  0.33451834516E+01  0.95503749537E+02  0.90834670606E+02 0.  0.
         11    1    3    3    0    0 -0.47046206530E+02 -0.11803650945E+02  0.31174971426E+02  0.57658915774E+02  0.51100000000E-03 0. -1.
         22    1    1    0    0    0  0.22400150826E+02  0.18896343087E+02 -0.33451834516E+01  0.29496250463E+02  0.00000000000E+00 0. -1.
</event>
<event>
 5    1  0.1094625E-009  0.9118800E+02  0.7818608E-02  0.1130116E+00
         25   -1    0    0    0    0  0.00000000000E+00  0.00000000000E+00  0.99999998245E-14  0.12500000000E+03  0.12500000000E+03 0.  0.
        -11    1    3    3    0    0 -0.23289672493E+02  0.24876121074E+02  0.16343065391E+02  0.37793200859E+02  0.51100000000E-03 0. -1.
         23    2    1    0    0    0  0.21567696497E+02 -0.11591798228E+02  0.16266048971E+02  0.95604087572E+02  0.90972643652E+02 0.  0.
         11    1    3    3    0    0  0.44857368989E+02 -0.36467919302E+02 -0.77016419729E-01  0.57810886714E+02  0.51100000000E-03 0.  1.
         22    1    1    0    0    0 -0.21567696497E+02  0.11591798228E+02 -0.16266048971E+02  0.29395912428E+02  0.00000000000E+00 0.  1.
</event>
<event>
 5    1  0.1094625E-009  0.9118800E+02  0.7818608E-02  0.1130116E+00
         25   -1    0    0    0    0  0.00000000000E+00  0.00000000000E+00  0.99999998245E-14  0.12500000000E+03  0.12500000000E+03 0.  0.
        -11    1    3    3    0    0  0.26021859681E+02 -0.61883579996E+01 -0.51303372897E+02  0.57857316105E+02  0.51100000000E-03 0.  1.
         23    2    1    0    0    0  0.88478159614E+01 -0.19610847579E+02 -0.25117951305E+02  0.91927644961E+02  0.85772438698E+02 0.  0.
         11    1    3    3    0    0 -0.17174043719E+02 -0.13422489579E+02  0.26185421592E+02  0.34070328856E+02  0.51100000000E-03 0. -1.
         22    1    1    0    0    0 -0.88478159614E+01  0.19610847579E+02  0.25117951305E+02  0.33072355039E+02  0.00000000000E+00 0.  1.
</event>
<event>
 5    1  0.1094625E-009  0.9118800E+02  0.7818608E-02  0.1130116E+00
         25   -1    0    0    0    0  0.00000000000E+00  0.00000000000E+00  0.99999998245E-14  0.12500000000E+03  0.12500000000E+03 0.  0.
        -11    1    3    3    0    0 -0.39943931505E+02  0.44408211228E+02 -0.60544160597E+01  0.60035513179E+02  0.51100000000E-03 0. -1.
         23    2    1    0    0    0 -0.23450049800E+02  0.16640914557E+02  0.78425903811E+01  0.95195116226E+02  0.90408954515E+02 0.  0.
         11    1    3    3    0    0  0.16493881705E+02 -0.27767296671E+02  0.13897006441E+02  0.35159603047E+02  0.51100000000E-03 0.  1.
         22    1    1    0    0    0  0.23450049800E+02 -0.16640914557E+02 -0.78425903811E+01  0.29804883774E+02  0.00000000000E+00 0. -1.
</event>
<event>
 5    1  0.1094625E-009  0.9118800E+02  0.7818608E-02  0.1130116E+00
         25   -1    0    0    0    0  0.00000000000E+00  0.00000000000E+00  0.99999998245E-14  0.12500000000E+03  0.12500000000E+03 0.  0.
        -11    1    3    3    0    0  0.35722313583E+02 -0.38938757982E+02  0.72076385390E+00  0.52847233245E+02  0.51100000000E-03 0. -1.
         23    2    1    0    0    0  0.31461474301E+02 -0.15089642567E+01 -0.98927597546E+01  0.91985336078E+02  0.85856473370E+02 0.  0.
         11    1    3    3    0    0 -0.42608392815E+01  0.37429793725E+02 -0.10613523609E+02  0.39138102833E+02  0.51100000000E-03 0.  1.
         22    1    1    0    0    0 -0.31461474301E+02  0.15089642567E+01  0.98927597546E+01  0.33014663922E+02  0.00000000000E+00 0. -1.
</event>
<event>
 5    1  0.1094625E-009  0.9118800E+02  0.7818608E-02  0.1130116E+00
         25   -1    0    0    0    0  0.00000000000E+00  0.00000000000E+00  0.99999998245E-14  0.12500000000E+03  0.12500000000E+03 0.  0.
        -11    1    3    3    0    0  0.44029475155E+02 -0.19161747710E+02 -0.39387230745E+02  0.62105726014E+02  0.51100000000E-03 0. -1.
         23    2    1    0    0    0  0.19026751001E+02 -0.66112010081E+01 -0.22576892893E+02  0.94743739076E+02  0.89782708630E+02 0.  0.
         11    1    3    3    0    0 -0.25002724154E+02  0.12550546702E+02  0.16810337852E+02  0.32638013061E+02  0.51100000000E-03 0.  1.
         22    1    1    0    0    0 -0.19026751001E+02  0.66112010081E+01  0.22576892893E+02  0.30256260924E+02  0.00000000000E+00 0. -1.
</event>
<event>
 5    1  0.1094625E-009  0.9118800E+02  0.7818608E-02  0.1130116E+00
         25   -1    0    0    0    0  0.00000000000E+00  0.00000000000E+00  0.99999998245E-14  0.12500000000E+03  0.12500000000E+03 0.  0.
        -11    1    3    3    0    0  0.29017261310E+02  0.13520000794E+02 -0.39493705646E+02  0.50838417179E+02  0.51100000000E-03 0.  1.
         23    2    1    0    0    0  0.24923822698E+02  0.12647331100E+02  0.59085527112E+01  0.96433185040E+02  0.92104811275E+02 0.  0.
         11    1    3    3    0    0 -0.40934386119E+01 -0.87266969459E+00  0.45402258357E+02  0.45594767860E+02  0.51100000000E-03 0. -1.
         22    1    1    0    0    0 -0.24923822698E+02 -0.12647331100E+02 -0.59085527112E+01  0.28566814960E+02  0.00000000000E+00 0.  1.
</event>
<event>
 5    1  0.1094625E-009  0.9118800E+02  0.7818608E-02  0.1130116E+00
         25   -1    0    0    0    0  0.00000000000E+00  0.00000000000E+00  0.99999998245E-14  0.12500000000E+03  0.12500000000E+03 0.  0.
        -11    1    3    3    0    0 -0.39530986720E+02 -0.40877834912E+02 -0.43758998376E+01  0.57033716324E+02  0.51100000000E-03 0.  1.
         23    2    1    0    0    0 -0.28828693721E+02 -0.36475200430E+01 -0.89733014686E+00  0.95927621605E+02  0.91416111278E+02 0.  0.
         11    1    3    3    0    0  0.10702292998E+02  0.37230314869E+02  0.34785696907E+01  0.38893905281E+02  0.51100000000E-03 0. -1.
         22    1    1    0    0    0  0.28828693721E+02  0.36475200430E+01  0.89733014686E+00  0.29072378395E+02  0.00000000000E+00 0.  1.
</event>
<event>
 5    1  0.1094625E-009  0.9118800E+02  0.7818608E-02  0.1130116E+00
         25   -1    0    0    0    0  0.00000000000E+00  0.00000000000E+00  0.99999998245E-14  0.12500000000E+03  0.12500000000E+03 0.  0.
        -11    1    3    3    0    0 -0.12479569232E+02  0.37582581118E+02  0.12414609935E+02  0.41500754112E+02  0.51100000000E-03 0. -1.
         23    2    1    0    0    0 -0.25854519117E+02 -0.10425448128E+02 -0.89466931936E+01  0.95722202157E+02  0.91134793242E+02 0.  0.
         11    1    3    3    0    0 -0.13374949885E+02 -0.48008029246E+02 -0.21361303129E+02  0.54221448045E+02  0.51100000000E-03 0.  1.
         22    1    1    0    0    0  0.25854519117E+02  0.10425448128E+02  0.89466931936E+01  0.29277797843E+02  0.00000000000E+00 0.  1.
</event>
<event>
 5    1  0.1094625E-009  0.9118800E+02  0.7818608E-02  0.1130116E+00
         25   -1    0    0    0    0  0.00000000000E+00  0.00000000000E+00  0.99999998245E-14  0.12500000000E+03  0.12500000000E+03 0.  0.
        -11    1    3    3    0    0 -0.22822596618E+02 -0.89591698146E+01  0.41235673879E+02  0.47974143460E+02  0.51100000000E-03 0.  1.
         23    2    1    0    0    0  0.16079163930E+02 -0.18987675077E+02  0.16171412249E+02  0.95325332493E+02  0.90588813456E+02 0.  0.
         11    1    3    3    0    0  0.38901760548E+02 -0.10028505262E+02 -0.25064261631E+02  0.47351189034E+02  0.51100000000E-03 0. -1.
         22    1    1    0    0    0 -0.16079163930E+02  0.18987675077E+02 -0.16171412249E+02  0.29674667507E+02  0.00000000000E+00 0. -1.
</event>
<event>
 5    1  0.1094625E-009  0.9118800E+02  0.7818608E-02  0.1130116E+00
         25   -1    0    0    0    0  0.00000000000E+00  0.00000000000E+00  0.99999998245E-14  0.12500000000E+03  0.12500000000E+03 0.  0.
        -11    1    3    3    0    0  0.25264863716E+02  0.16306814309E+02  0.20217360721E+02  0.36234889351E+02  0.51100000000E-03 0.  1.
         23    2    1    0    0    0 -0.42394007656E+01 -0.30324475981E+02  0.21230684072E+01  0.94307105353E+02  0.89172733154E+02 0.  0.
         11    1    3    3    0    0 -0.29504264482E+02 -0.46631290290E+02 -0.18094292314E+02  0.58072216002E+02  0.51100000000E-03 0. -1.
         22    1    1    0    0    0  0.42394007656E+01  0.30324475981E+02 -0.21230684072E+01  0.30692894647E+02  0.00000000000E+00 0. -1.
</event>
<event>
 5    1  0.1094625E-009  0.9118800E+02  0.7818608E-02  0.1130116E+00
         25   -1    0    0    0    0  0.00000000000E+00  0.00000000000E+00  0.99999998245E-14  0.12500000000E+03  0.12500000000E+03 0.  0.
        -11    1    3    3    0    0  0.32676748718E+01 -0.45359867030E+02  0.24318062691E+02  0.51570955094E+02  0.51100000000E-03 0.  1.
         23    2    1    0    0    0 -0.14805039435E+01 -0.26540760754E+02 -0.14317307492E+02  0.94807465042E+02  0.89871387330E+02 0.  0.
         11    1    3    3    0    0 -0.47481788153E+01  0.18819106275E+02 -0.38635370183E+02  0.43236509948E+02  0.51100000000E-03 0. -1.
         22    1    1    0    0    0  0.14805039435E+01  0.26540760754E+02  0.14317307492E+02  0.30192534958E+02  0.00000000000E+00 0.  1.
</event>
<event>
 5    1  0.1094625E-009  0.9118800E+02  0.7818608E-02  0.1130116E+00
         25   -1    0    0    0    0  0.00000000000E+00  0.00000000000E+00  0.99999998245E-14  0.12500000000E+03  0.12500000000E+03 0.  0.
        -11    1    3    3    0    0 -0.46147998840E+01 -0.30904373789E+02 -0.39877450543E+02  0.50661501747E+02  0.51100000000E-03 0. -1.
         23    2    1    0    0    0 -0.14432645911E+02 -0.25416074408E+02  0.35823794597E+01  0.95553242133E+02  0.90902753166E+02 0.  0.
         11    1    3    3    0    0 -0.98178460270E+01  0.54882993809E+01  0.43459830003E+02  0.44891740385E+02  0.51100000000E-03 0.  1.
         22    1    1    0    0    0  0.14432645911E+02  0.25416074408E+02 -0.35823794597E+01  0.29446757867E+02  0.00000000000E+00 0.  1.
</event>
<event>
 5    1  0.1094625E-009  0.9118800E+02  0.7818608E-02  0.1130116E+00
         25   -1    0    0    0    0  0.00000000000E+00  0.00000000000E+00  0.99999998245E-14  0.12500000000E+03  0.12500000000E+03 0.  0.
        -11    1    3    3    0    0 -0.15036835857E+02  0.30287736748E+02  0.20008910382E+02  0.39291346692E+02  0.51100000000E-03 0.  1.
         23    2    1    0    0    0 -0.22651575964E+02 -0.20461475597E+02 -0.28011492675E+00  0.94473874442E+02  0.89406200067E+02 0.  0.
         11    1    3    3    0    0 -0.76147401063E+01 -0.50749212345E+02 -0.20289025309E+02  0.55182527749E+02  0.51100000000E-03 0. -1.
         22    1    1    0    0    0  0.22651575964E+02  0.20461475597E+02  0.28011492675E+00  0.30526125558E+02  0.00000000000E+00 0. -1.
</event>
<event>
 5    1  0.1094625E-009  0.9118800E+02  0.7818608E-02  0.1130116E+00
         25   -1    0    0    0    0  0.00000000000E+00  0.00000000000E+00  0.99999998245E-14  0.12500000000E+03  0.12500000000E+03 0.  0.
        -11    1    3    3    0    0  0.30998158593E+02  0.19641662000E+02 -0.28124996595E+02  0.46235226354E+02  0.51100000000E-03 0.  1.
         23    2    1    0    0    0  0.11939549939E+02 -0.21352842230E+02  0.18307818954E+01  0.10046739952E+03  0.97426125242E+02 0.  0.
         11    1    3    3    0    0 -0.19058608654E+02 -0.40994504230E+02  0.29955778490E+02  0.54232173164E+02  0.51100000000E-03 0. -1.
         22    1    1    0    0    0 -0.11939549939E+02  0.21352842230E+02 -0.18307818954E+01  0.24532600482E+02  0.00000000000E+00 0. -1.
</event>
<event>
 5    1  0.1094625E-009  0.9118800E+02  0.7818608E-02  0.1130116E+00
         25   -1    0    0    0    0  0.00000000000E+00  0.00000000000E+00  0.99999998245E-14  0.12500000000E+03  0.12500000000E+03 0.  0.
        -11    1    3    3    0    0 -0.62112631957E+02  0.49197703604E+01  0.31521793166E+01  0.62386852972E+02  0.51100000000E-03 0.  1.
         23    2    1    0    0    0 -0.28135629219E+02  0.45006438958E+01  0.28132738851E+01  0.96368130746E+02  0.92016480516E+02 0.  0.
         11    1    3    3    0    0  0.33977002738E+02 -0.41912646457E+00 -0.33890543153E+00  0.33981277775E+02  0.51100000000E-03 0. -1.
         22    1    1    0    0    0  0.28135629219E+02 -0.45006438958E+01 -0.28132738851E+01  0.28631869254E+02  0.00000000000E+00 0.  1.
</event>
<event>
 5    1  0.1094625E-009  0.9118800E+02  0.7818608E-02  0.1130116E+00
         25   -1    0    0    0    0  0.00000000000E+00  0.00000000000E+00  0.99999998245E-14  0.12500000000E+03  0.12500000000E+03 0.  0.
        -11    1    3    3    0    0  0.38479418573E+02  0.39688295976E+02 -0.16797330549E+02  0.57775226568E+02  0.51100000000E-03 0. -1.
         23    2    1    0    0    0  0.17959274475E+02  0.31394368377E+02  0.45759480527E+01  0.88543433979E+02  0.80689890908E+02 0.  0.
         11    1    3    3    0    0 -0.20520144098E+02 -0.82939275992E+01  0.21373278601E+02  0.30768207411E+02  0.51100000000E-03 0.  1.
         22    1    1    0    0    0 -0.17959274475E+02 -0.31394368377E+02 -0.45759480527E+01  0.36456566021E+02  0.00000000000E+00 0. -1.
</event>
<event>
 5    1  0.1094625E-009  0.9118800E+02  0.7818608E-02  0.1130116E+00
         25   -1    0    0    0    0  0.00000000000E+00  0.00000000000E+00  0.99999998245E-14  0.12500000000E+03  0.12500000000E+03 0.  0.
        -11    1    3    3    0    0  0.41516710642E+01  0.16735540370E+02  0.42327359287E+02  0.45704704666E+02  0.51100000000E-03 0. -1.
         23    2    1    0    0    0 -0.10482334631E+02  0.25711721355E+02 -0.56530852459E+01  0.96663992392E+02  0.92417520515E+02 0.  0.
         11    1    3    3    0    0 -0.14634005695E+02  0.89761809852E+01 -0.47980444533E+02  0.50959287727E+02  0.51100000000E-03 0.  1.
         22    1    1    0    0    0  0.10482334631E+02 -0.25711721355E+02  0.56530852459E+01  0.28336007608E+02  0.00000000000E+00 0. -1.
</event>
<event>
 5    1  0.1094625E-009  0.9118800E+02  0.7818608E-02  0.1130116E+00
         25   -1    0    0    0    0  0.00000000000E+00  0.00000000000E+00  0.99999998245E-14  0.12500000000E+03  0.12500000000E+03 0.  0.
        -11    1    3    3    0    0 -0.12682468303E+02 -0.13807758150E+02  0.30670348679E+02  0.35946758905E+02  0.51100000000E-03 0. -1.
         23    2    1    0    0    0  0.99045770825E+01 -0.71935921102E+01 -0.25426198769E+02  0.96780503221E+02  0.92574973969E+02 0.  0.
         11    1    3    3    0    0  0.22587045386E+02  0.66141660398E+01 -0.56096547448E+02  0.60833744316E+02  0.51100000000E-03 0.  1.
         22    1    1    0    0    0 -0.99045770825E+01  0.71935921102E+01  0.25426198769E+02  0.28219496779E+02  0.00000000000E+00 0.  1.
</event>
<event>
 5    1  0.1094625E-009  0.9118800E+02  0.7818608E-02  0.1130116E+00
         25   -1    0    0    0    0  0.00000000000E+00  0.00000000000E+00  0.99999998245E-14  0.12500000000E+03  0.12500000000E+03 0.  0.
        -11    1    3    3    0    0 -0.11634926450E+02 -0.21112201545E+01  0.35428465965E+02  0.37349765259E+02  0.51100000000E-03 0.  1.
         23    2    1    0    0    0  0.87518899663E+00 -0.39401685788E+02  0.25962079885E+02  0.77805843681E+02  0.61858394098E+02 0.  0.
         11    1    3    3    0    0  0.12510115446E+02 -0.37290465633E+02 -0.94663860801E+01  0.40456078422E+02  0.51100000000E-03 0. -1.
         22    1    1    0    0    0 -0.87518899663E+00  0.39401685788E+02 -0.25962079885E+02  0.47194156319E+02  0.00000000000E+00 0.  1.
</event>
<event>
 5    1  0.1094625E-009  0.9118800E+02  0.7818608E-02  0.1130116E+00
         25   -1    0    0    0    0  0.00000000000E+00  0.00000000000E+00  0.99999998245E-14  0.12500000000E+03  0.12500000000E+03 0.  0.
        -11    1    3    3    0    0 -0.69807075099E+01  0.25479760977E+02  0.28025846202E+02  0.38514887412E+02  0.51100000000E-03 0.  1.
         23    2    1    0    0    0 -0.10060665526E+02 -0.54402265760E+01 -0.23602219383E+02  0.98772575120E+02  0.95226801795E+02 0.  0.
         11    1    3    3    0    0 -0.30799580162E+01 -0.30919987553E+02 -0.51628065585E+02  0.60257687708E+02  0.51100000000E-03 0. -1.
         22    1    1    0    0    0  0.10060665526E+02  0.54402265760E+01  0.23602219383E+02  0.26227424880E+02  0.00000000000E+00 0. -1.
</event>
<event>
 5    1  0.1094625E-009  0.9118800E+02  0.7818608E-02  0.1130116E+00
         25   -1    0    0    0    0  0.00000000000E+00  0.00000000000E+00  0.99999998245E-14  0.12500000000E+03  0.12500000000E+03 0.  0.
        -11    1    3    3    0    0  0.11669601478E+02 -0.31688619658E+01  0.37231764455E+02  0.39146207601E+02  0.51100000000E-03 0.  1.
         23    2    1    0    0    0  0.53801832177E+00 -0.27126246062E+02 -0.12244527719E+02  0.95233388702E+02  0.90461854809E+02 0.  0.
         11    1    3    3    0    0 -0.11131583156E+02 -0.23957384096E+02 -0.49476292174E+02  0.56087181101E+02  0.51100000000E-03 0. -1.
         22    1    1    0    0    0 -0.53801832177E+00  0.27126246062E+02  0.12244527719E+02  0.29766611298E+02  0.00000000000E+00 0. -1.
</event>
<event>
 5    1  0.1094625E-009  0.9118800E+02  0.7818608E-02  0.1130116E+00
         25   -1    0    0    0    0  0.00000000000E+00  0.00000000000E+00  0.99999998245E-14  0.12500000000E+03  0.12500000000E+03 0.  0.
        -11    1    3    3    0    0  0.22206768788E+02  0.30156563033E+02 -0.16669649442E+02  0.40993122432E+02  0.51100000000E-03 0. -1.
         23    2    1    0    0    0 -0.20767337847E+02  0.24129721444E+02  0.96351690011E+01  0.91737975709E+02  0.85495578408E+02 0.  0.
         11    1    3    3    0    0 -0.42974106635E+02 -0.60268415882E+01  0.26304818443E+02  0.50744853278E+02  0.51100000000E-03 0.  1.
         22    1    1    0    0    0  0.20767337847E+02 -0.24129721444E+02 -0.96351690011E+01  0.33262024291E+02  0.00000000000E+00 0.  1.
</event>
<event>
 5    1  0.1094625E-009  0.9118800E+02  0.7818608E-02  0.1130116E+00
         25   -1    0    0    0    0  0.00000000000E+00  0.00000000000E+00  0.99999998245E-14  0.12500000000E+03  0.12500000000E+03 0.  0.
        -11    1    3    3    0    0  0.23725482043E+02  0.29202397464E+02  0.84773960702E+01  0.38568701822E+02  0.51100000000E-03 0.  1.
         23    2    1    0    0    0 -0.26816688968E+02  0.57443219838E+01 -0.75612509382E+01  0.96551721352E+02  0.92265542528E+02 0.  0.
         11    1    3    3    0    0 -0.50542171011E+02 -0.23458075480E+02 -0.16038647008E+02  0.57983019531E+02  0.51100000000E-03 0. -1.
         22    1    1    0    0    0  0.26816688968E+02 -0.57443219838E+01  0.75612509382E+01  0.28448278648E+02  0.00000000000E+00 0. -1.
</event>
<event>
 5    1  0.1094625E-009  0.9118800E+02  0.7818608E-02  0.1130116E+00
         25   -1    0    0    0    0  0.00000000000E+00  0.00000000000E+00  0.99999998245E-14  0.12500000000E+03  0.12500000000E+03 0.  0.
        -11    1    3    3    0    0  0.12101021806E+02 -0.36598081299E+02  0.77323463593E+01  0.39314672376E+02  0.51100000000E-03 0.  1.
         23    2    1    0    0    0 -0.88519091081E+01  0.96267994711E+01 -0.22924693515E+02  0.98607327993E+02  0.95009641607E+02 0.  0.
         11    1    3    3    0    0 -0.20952930914E+02  0.46224880770E+02 -0.30657039874E+02  0.59292655618E+02  0.51100000000E-03 0. -1.
         22    1    1    0    0    0  0.88519091081E+01 -0.96267994711E+01  0.22924693515E+02  0.26392672007E+02  0.00000000000E+00 0. -1.
</event>
<event>
 5    1  0.1094625E-009  0.9118800E+02  0.7818608E-02  0.1130116E+00
         25   -1    0    0    0    0  0.00000000000E+00  0.00000000000E+00  0.99999998245E-14  0.12500000000E+03  0.12500000000E+03 0.  0.
        -11    1    3    3    0    0 -0.40460753565E+02  0.13656899910E+01  0.31190507795E+02  0.51105630463E+02  0.51100000000E-03 0.  1.
         23    2    1    0    0    0 -0.10370641747E+02 -0.24934298062E+02  0.11687986235E+02  0.95574187312E+02  0.90931550235E+02 0.  0.
         11    1    3    3    0    0  0.30090111818E+02 -0.26299988053E+02 -0.19502521561E+02  0.44468556850E+02  0.51100000000E-03 0. -1.
         22    1    1    0    0    0  0.10370641747E+02  0.24934298062E+02 -0.11687986235E+02  0.29425812688E+02  0.00000000000E+00 0. -1.
</event>
<event>
 5    1  0.1094625E-009  0.9118800E+02  0.7818608E-02  0.1130116E+00
         25   -1    0    0    0    0  0.00000000000E+00  0.00000000000E+00  0.99999998245E-14  0.12500000000E+03  0.12500000000E+03 0.  0.
        -11    1    3    3    0    0  0.14834982043E+02  0.52645726232E+02  0.26563695029E+02  0.60805255337E+02  0.51100000000E-03 0.  1.
         23    2    1    0    0    0  0.11415817491E+02  0.16645223518E+02  0.17972289791E+02  0.97974316747E+02  0.94173134102E+02 0.  0.
         11    1    3    3    0    0 -0.34191645518E+01 -0.36000502714E+02 -0.85914052373E+01  0.37169061410E+02  0.51100000000E-03 0. -1.
         22    1    1    0    0    0 -0.11415817491E+02 -0.16645223518E+02 -0.17972289791E+02  0.27025683253E+02  0.00000000000E+00 0.  1.
</event>
<event>
 5    1  0.1094625E-009  0.9118800E+02  0.7818608E-02  0.1130116E+00
         25   -1    0    0    0    0  0.00000000000E+00  0.00000000000E+00  0.99999998245E-14  0.12500000000E+03  0.12500000000E+03 0.  0.
        -11    1    3    3    0    0 -0.33573281351E+02  0.12008204307E+01  0.25673028014E+02  0.42281338177E+02  0.51100000000E-03 0.  1.
         23    2    1    0    0    0 -0.82452615586E+01  0.24478411959E+02 -0.14666509360E+02  0.95296742822E+02  0.90549355081E+02 0.  0.
         11    1    3    3    0    0  0.25328019792E+02  0.23277591528E+02 -0.40339537373E+02  0.53015404645E+02  0.51100000000E-03 0. -1.
         22    1    1    0    0    0  0.82452615586E+01 -0.24478411959E+02  0.14666509360E+02  0.29703257178E+02  0.00000000000E+00 0.  1.
</event>
<event>
 5    1  0.1094625E-009  0.9118800E+02  0.7818608E-02  0.1130116E+00
         25   -1    0    0    0    0  0.00000000000E+00  0.00000000000E+00  0.99999998245E-14  0.12500000000E+03  0.12500000000E+03 0.  0.
        -11    1    3    3    0    0 -0.28921338516E+02 -0.50966813686E+02 -0.10261297274E+01  0.58609835875E+02  0.51100000000E-03 0.  1.
         23    2    1    0    0    0 -0.36937369870E+01 -0.22150827849E+02 -0.13389435640E+02  0.98854639913E+02  0.95334463749E+02 0.  0.
         11    1    3    3    0    0  0.25227601529E+02  0.28815985837E+02 -0.12363305912E+02  0.40244804038E+02  0.51100000000E-03 0. -1.
         22    1    1    0    0    0  0.36937369870E+01  0.22150827849E+02  0.13389435640E+02  0.26145360087E+02  0.00000000000E+00 0.  1.
</event>
<event>
 5    1  0.1094625E-009  0.9118800E+02  0.7818608E-02  0.1130116E+00
         25   -1    0    0    0    0  0.00000000000E+00  0.00000000000E+00  0.99999998245E-14  0.12500000000E+03  0.12500000000E+03 0.  0.
        -11    1    3    3    0    0 -0.38391797351E+02 -0.42166149723E+01  0.17076593950E+02  0.42229373744E+02  0.51100000000E-03 0.  1.
         23    2    1    0    0    0  0.12469732582E+02  0.10932729541E+01  0.27828868565E+02  0.94485488664E+02  0.89422436592E+02 0.  0.
         11    1    3    3    0    0  0.50861529933E+02  0.53098879263E+01  0.10752274616E+02  0.52256114920E+02  0.51100000000E-03 0. -1.
         22    1    1    0    0    0 -0.12469732582E+02 -0.10932729541E+01 -0.27828868565E+02  0.30514511336E+02  0.00000000000E+00 0. -1.
</event>
<event>
 5    1  0.1094625E-009  0.9118800E+02  0.7818608E-02  0.1130116E+00
         25   -1    0    0    0    0  0.00000000000E+00  0.00000000000E+00  0.99999998245E-14  0.12500000000E+03  0.12500000000E+03 0.  0.
        -11    1    3    3    0    0 -0.12660401991E+02  0.16491464338E+00  0.36087737101E+02  0.38244447240E+02  0.51100000000E-03 0.  1.
         23    2    1    0    0    0  0.22817569265E+02 -0.16627634259E+02 -0.63605470134E+01  0.96059090434E+02  0.91595701910E+02 0.  0.
         11    1    3    3    0    0  0.35477971256E+02 -0.16792548902E+02 -0.42448284114E+02  0.57814643193E+02  0.51100000000E-03 0. -1.
         22    1    1    0    0    0 -0.22817569265E+02  0.16627634259E+02  0.63605470134E+01  0.28940909566E+02  0.00000000000E+00 0. -1.
</event>
<event>
 5    1  0.1094625E-009  0.9118800E+02  0.7818608E-02  0.1130116E+00
         25   -1    0    0    0    0  0.00000000000E+00  0.00000000000E+00  0.99999998245E-14  0.12500000000E+03  0.12500000000E+03 0.  0.
        -11    1    3    3    0    0 -0.29905255081E+02 -0.98597429108E+01  0.31578706443E+02  0.44595442733E+02  0.51100000000E-03 0.  1.
         23    2    1    0    0    0 -0.22811174032E+02  0.21370442076E+02 -0.51446005505E+01  0.93321736631E+02  0.87780602400E+02 0.  0.
         11    1    3    3    0    0  0.70940810487E+01  0.31230184987E+02 -0.36723306993E+02  0.48726293898E+02  0.51100000000E-03 0. -1.
         22    1    1    0    0    0  0.22811174032E+02 -0.21370442076E+02  0.51446005505E+01  0.31678263369E+02  0.00000000000E+00 0. -1.
</event>
<event>
 5    1  0.1094625E-009  0.9118800E+02  0.7818608E-02  0.1130116E+00
         25   -1    0    0    0    0  0.00000000000E+00  0.00000000000E+00  0.99999998245E-14  0.12500000000E+03  0.12500000000E+03 0.  0.
        -11    1    3    3    0    0  0.33411831221E+02  0.96568030361E+00  0.10327771860E+02  0.34984937842E+02  0.51100000000E-03 0.  1.
         23    2    1    0    0    0 -0.12822357619E+02  0.27316725372E+02 -0.11773396721E+02  0.92608192235E+02  0.86758561875E+02 0.  0.
         11    1    3    3    0    0 -0.46234188839E+02  0.26351045069E+02 -0.22101168581E+02  0.57623254392E+02  0.51100000000E-03 0. -1.
         22    1    1    0    0    0  0.12822357619E+02 -0.27316725372E+02  0.11773396721E+02  0.32391807765E+02  0.00000000000E+00 0. -1.
</event>
<event>
 5    1  0.1094625E-009  0.9118800E+02  0.7818608E-02  0.1130116E+00
         25   -1    0    0    0    0  0.00000000000E+00  0.00000000000E+00  0.99999998245E-14  0.12500000000E+03  0.12500000000E+03 0.  0.
        -11    1    3    3    0    0  0.16887436306E+02  0.36216057904E+02 -0.15335696935E+02  0.42801541512E+02  0.51100000000E-03 0.  1.
         23    2    1    0    0    0  0.14821668901E+02  0.11058059708E+01  0.24750478778E+02  0.96129757958E+02  0.91692090659E+02 0.  0.
         11    1    3    3    0    0 -0.20657674049E+01 -0.35110251933E+02  0.40086175713E+02  0.53328216446E+02  0.51100000000E-03 0. -1.
         22    1    1    0    0    0 -0.14821668901E+02 -0.11058059708E+01 -0.24750478778E+02  0.28870242042E+02  0.00000000000E+00 0. -1.
</event>
<event>
 5    1  0.1094625E-009  0.9118800E+02  0.7818608E-02  0.1130116E+00
         25   -1    0    0    0    0  0.00000000000E+00  0.00000000000E+00  0.99999998245E-14  0.12500000000E+03  0.12500000000E+03 0.  0.
        -11    1    3    3    0    0  0.80644117504E+00 -0.35506797690E+02 -0.13611838698E+02  0.38035052025E+02  0.51100000000E-03 0.  1.
         23    2    1    0    0    0 -0.30589720739E+02 -0.13558988702E+02  0.17367486149E+02  0.87301103933E+02  0.78741831216E+02 0.  0.
         11    1    3    3    0    0 -0.31396161914E+02  0.21947808988E+02  0.30979324847E+02  0.49266051907E+02  0.51100000000E-03 0. -1.
         22    1    1    0    0    0  0.30589720739E+02  0.13558988702E+02 -0.17367486149E+02  0.37698896067E+02  0.00000000000E+00 0. -1.
</event>
<event>
 5    1  0.1094625E-009  0.9118800E+02  0.7818608E-02  0.1130116E+00
         25   -1    0    0    0    0  0.00000000000E+00  0.00000000000E+00  0.99999998245E-14  0.12500000000E+03  0.12500000000E+03 0.  0.
        -11    1    3    3    0    0 -0.15214000296E+02 -0.47342530160E+02  0.16103722923E+02  0.52269597849E+02  0.51100000000E-03 0.  1.
         23    2    1    0    0    0  0.17904920222E+02 -0.19233727092E+02  0.12621665765E+02  0.95848175483E+02  0.91307414105E+02 0.  0.
         11    1    3    3    0    0  0.33118920519E+02  0.28108803069E+02 -0.34820571580E+01  0.43578577634E+02  0.51100000000E-03 0. -1.
         22    1    1    0    0    0 -0.17904920222E+02  0.19233727092E+02 -0.12621665765E+02  0.29151824517E+02  0.00000000000E+00 0.  1.
</event>
<event>
 5    1  0.1094625E-009  0.9118800E+02  0.7818608E-02  0.1130116E+00
         25   -1    0    0    0    0  0.00000000000E+00  0.00000000000E+00  0.99999998245E-14  0.12500000000E+03  0.12500000000E+03 0.  0.
        -11    1    3    3    0    0 -0.85238025958E+01 -0.33365302665E+02 -0.93932610561E+01  0.35694985448E+02  0.51100000000E-03 0. -1.
         23    2    1    0    0    0  0.24259794705E+02  0.11831323067E+02  0.11965766227E+02  0.95475477887E+02  0.90795756903E+02 0.  0.
         11    1    3    3    0    0  0.32783597301E+02  0.45196625732E+02  0.21359027283E+02  0.59780492439E+02  0.51100000000E-03 0.  1.
         22    1    1    0    0    0 -0.24259794705E+02 -0.11831323067E+02 -0.11965766227E+02  0.29524522113E+02  0.00000000000E+00 0.  1.
</event>
<event>
 5    1  0.1094625E-009  0.9118800E+02  0.7818608E-02  0.1130116E+00
         25   -1    0    0    0    0  0.00000000000E+00  0.00000000000E+00  0.99999998245E-14  0.12500000000E+03  0.12500000000E+03 0.  0.
        -11    1    3    3    0    0  0.15585799553E+02  0.15326296775E+01  0.58213277085E+02  0.60283096558E+02  0.51100000000E-03 0.  1.
         23    2    1    0    0    0 -0.55230612497E-01 -0.84253576100E+01  0.28257859529E+02  0.95512776895E+02  0.90847092544E+02 0.  0.
         11    1    3    3    0    0 -0.15641030165E+02 -0.99579872875E+01 -0.29955417555E+02  0.35229680337E+02  0.51100000000E-03 0. -1.
         22    1    1    0    0    0  0.55230612497E-01  0.84253576100E+01 -0.28257859529E+02  0.29487223105E+02  0.00000000000E+00 0.  1.
</event>
<event>
 5    1  0.1094625E-009  0.9118800E+02  0.7818608E-02  0.1130116E+00
         25   -1    0    0    0    0  0.00000000000E+00  0.00000000000E+00  0.99999998245E-14  0.12500000000E+03  0.12500000000E+03 0.  0.
        -11    1    3    3    0    0  0.14809852086E+02 -0.56008704387E+02  0.21512073694E+02  0.61798673131E+02  0.51100000000E-03 0. -1.
         23    2    1    0    0    0  0.72308635224E+01 -0.23643422866E+02  0.16147765094E+02  0.95469555546E+02  0.90787603155E+02 0.  0.
         11    1    3    3    0    0 -0.75789885634E+01  0.32365281521E+02 -0.53643085998E+01  0.33670882415E+02  0.51100000000E-03 0.  1.
         22    1    1    0    0    0 -0.72308635224E+01  0.23643422866E+02 -0.16147765094E+02  0.29530444454E+02  0.00000000000E+00 0. -1.
</event>
<event>
 5    1  0.1094625E-009  0.9118800E+02  0.7818608E-02  0.1130116E+00
         25   -1    0    0    0    0  0.00000000000E+00  0.00000000000E+00  0.99999998245E-14  0.12500000000E+03  0.12500000000E+03 0.  0.
        -11    1    3    3    0    0 -0.19543839566E+02  0.19015332476E+02 -0.17784583644E+02  0.32555121714E+02  0.51100000000E-03 0.  1.
         23    2    1    0    0    0  0.11037249176E+02 -0.11306076368E+02  0.26386058697E+02  0.94244962596E+02  0.89085580477E+02 0.  0.
         11    1    3    3    0    0  0.30581088742E+02 -0.30321408844E+02  0.44170642341E+02  0.61689840882E+02  0.51100000000E-03 0. -1.
         22    1    1    0    0    0 -0.11037249176E+02  0.11306076368E+02 -0.26386058697E+02  0.30755037404E+02  0.00000000000E+00 0. -1.
</event>
<event>
 5    1  0.1094625E-009  0.9118800E+02  0.7818608E-02  0.1130116E+00
         25   -1    0    0    0    0  0.00000000000E+00  0.00000000000E+00  0.99999998245E-14  0.12500000000E+03  0.12500000000E+03 0.  0.
        -11    1    3    3    0    0  0.15584213078E+02 -0.35483895006E+02 -0.31882185639E+01  0.38886234582E+02  0.51100000000E-03 0. -1.
         23    2    1    0    0    0  0.17510316027E+02  0.20554629221E+02  0.95002336638E+01  0.96375563072E+02  0.92026576422E+02 0.  0.
         11    1    3    3    0    0  0.19261029490E+01  0.56038524227E+02  0.12688452228E+02  0.57489328491E+02  0.51100000000E-03 0.  1.
         22    1    1    0    0    0 -0.17510316027E+02 -0.20554629221E+02 -0.95002336638E+01  0.28624436928E+02  0.00000000000E+00 0.  1.
</event>
<event>
 5    1  0.1094625E-009  0.9118800E+02  0.7818608E-02  0.1130116E+00
         25   -1    0    0    0    0  0.00000000000E+00  0.00000000000E+00  0.99999998245E-14  0.12500000000E+03  0.12500000000E+03 0.  0.
        -11    1    3    3    0    0  0.15094529248E+02 -0.30404279636E+02  0.17256543392E+02  0.38079565695E+02  0.51100000000E-03 0. -1.
         23    2    1    0    0    0  0.77949473439E+01  0.25276567579E+02  0.15662507523E+02  0.94259469514E+02  0.89105933464E+02 0.  0.
         11    1    3    3    0    0 -0.72995819041E+01  0.55680847215E+02 -0.15940358694E+01  0.56179903819E+02  0.51100000000E-03 0.  1.
         22    1    1    0    0    0 -0.77949473439E+01 -0.25276567579E+02 -0.15662507523E+02  0.30740530486E+02  0.00000000000E+00 0.  1.
</event>
<event>
 5    1  0.1094625E-009  0.9118800E+02  0.7818608E-02  0.1130116E+00
         25   -1    0    0    0    0  0.00000000000E+00  0.00000000000E+00  0.99999998245E-14  0.12500000000E+03  0.12500000000E+03 0.  0.
        -11    1    3    3    0    0 -0.12557711513E+02  0.54922394323E+02 -0.78338620243E+01  0.56881762552E+02  0.51100000000E-03 0. -1.
         23    2    1    0    0    0  0.11895908869E+02  0.27429996457E+02  0.22035071445E+01  0.95020460357E+02  0.90167150833E+02 0.  0.
         11    1    3    3    0    0  0.24453620382E+02 -0.27492397865E+02  0.10037369169E+02  0.38138697805E+02  0.51100000000E-03 0.  1.
         22    1    1    0    0    0 -0.11895908869E+02 -0.27429996457E+02 -0.22035071445E+01  0.29979539643E+02  0.00000000000E+00 0. -1.
</event>
<event>
 5    1  0.1094625E-009  0.9118800E+02  0.7818608E-02  0.1130116E+00
         25   -1    0    0    0    0  0.00000000000E+00  0.00000000000E+00  0.99999998245E-14  0.12500000000E+03  0.12500000000E+03 0.  0.
        -11    1    3    3    0    0 -0.35472931332E+01 -0.54411691917E+02  0.10224077376E+02  0.55477448250E+02  0.51100000000E-03 0. -1.
         23    2    1    0    0    0 -0.20658797306E+02 -0.17756952477E+02 -0.18578560153E+01  0.97695295343E+02  0.93802046011E+02 0.  0.
         11    1    3    3    0    0 -0.17111504173E+02  0.36654739440E+02 -0.12081933391E+02  0.42217847093E+02  0.51100000000E-03 0.  1.
         22    1    1    0    0    0  0.20658797306E+02  0.17756952477E+02  0.18578560153E+01  0.27304704657E+02  0.00000000000E+00 0. -1.
</event>
<event>
 5    1  0.1094625E-009  0.9118800E+02  0.7818608E-02  0.1130116E+00
         25   -1    0    0    0    0  0.00000000000E+00  0.00000000000E+00  0.99999998245E-14  0.12500000000E+03  0.12500000000E+03 0.  0.
        -11    1    3    3    0    0 -0.23419472194E+02  0.22939716736E+02  0.13726418208E+02  0.35540355074E+02  0.51100000000E-03 0.  1.
         23    2    1    0    0    0  0.13587201587E+02  0.78054451957E+01 -0.27738593373E+02  0.93141459795E+02  0.87523510834E+02 0.  0.
         11    1    3    3    0    0  0.37006673780E+02 -0.15134271540E+02 -0.41465011581E+02  0.57601104720E+02  0.51100000000E-03 0. -1.
         22    1    1    0    0    0 -0.13587201587E+02 -0.78054451957E+01  0.27738593373E+02  0.31858540205E+02  0.00000000000E+00 0. -1.
</event>
<event>
 5    1  0.1094625E-009  0.9118800E+02  0.7818608E-02  0.1130116E+00
         25   -1    0    0    0    0  0.00000000000E+00  0.00000000000E+00  0.99999998245E-14  0.12500000000E+03  0.12500000000E+03 0.  0.
        -11    1    3    3    0    0 -0.38456477026E+02 -0.34973524885E+02  0.15538344071E+02  0.54253923406E+02  0.51100000000E-03 0. -1.
         23    2    1    0    0    0 -0.11605102932E+02 -0.44749350906E+01  0.25969215630E+02  0.96205840548E+02  0.91795752282E+02 0.  0.
         11    1    3    3    0    0  0.26851374094E+02  0.30498589795E+02  0.10430871558E+02  0.41951917142E+02  0.51100000000E-03 0.  1.
         22    1    1    0    0    0  0.11605102932E+02  0.44749350906E+01 -0.25969215630E+02  0.28794159452E+02  0.00000000000E+00 0. -1.
</event>
<event>
 5    1  0.1094625E-009  0.9118800E+02  0.7818608E-02  0.1130116E+00
         25   -1    0    0    0    0  0.00000000000E+00  0.00000000000E+00  0.99999998245E-14  0.12500000000E+03  0.12500000000E+03 0.  0.
        -11    1    3    3    0    0  0.29155352937E+02  0.17754037152E+02  0.37494275409E+02  0.50705632121E+02  0.51100000000E-03 0. -1.
         23    2    1    0    0    0  0.11373234527E+02  0.25180729109E+02 -0.45891609745E+01  0.96991430231E+02  0.92859342867E+02 0.  0.
         11    1    3    3    0    0 -0.17782118410E+02  0.74266919567E+01 -0.42083436384E+02  0.46285798110E+02  0.51100000000E-03 0.  1.
         22    1    1    0    0    0 -0.11373234527E+02 -0.25180729109E+02  0.45891609745E+01  0.28008569769E+02  0.00000000000E+00 0. -1.
</event>
<event>
 5    1  0.1094625E-009  0.9118800E+02  0.7818608E-02  0.1130116E+00
         25   -1    0    0    0    0  0.00000000000E+00  0.00000000000E+00  0.99999998245E-14  0.12500000000E+03  0.12500000000E+03 0.  0.
        -11    1    3    3    0    0  0.30033720882E+02 -0.82436339824E+01  0.30776573300E+02  0.43785606718E+02  0.51100000000E-03 0. -1.
         23    2    1    0    0    0 -0.11577141153E+02  0.21031501654E+02  0.13132402319E+02  0.97635529427E+02  0.93722368497E+02 0.  0.
         11    1    3    3    0    0 -0.41610862036E+02  0.29275135636E+02 -0.17644170981E+02  0.53849922709E+02  0.51100000000E-03 0.  1.
         22    1    1    0    0    0  0.11577141153E+02 -0.21031501654E+02 -0.13132402319E+02  0.27364470573E+02  0.00000000000E+00 0. -1.
</event>
<event>
 5    1  0.1094625E-009  0.9118800E+02  0.7818608E-02  0.1130116E+00
         25   -1    0    0    0    0  0.00000000000E+00  0.00000000000E+00  0.99999998245E-14  0.12500000000E+03  0.12500000000E+03 0.  0.
        -11    1    3    3    0    0 -0.73454020736E+01 -0.92054295450E+01  0.56805056436E+02  0.58013009762E+02  0.51100000000E-03 0. -1.
         23    2    1    0    0    0 -0.14931514836E+02 -0.14967420696E+02  0.20484328653E+02  0.95562242987E+02  0.90915129361E+02 0.  0.
         11    1    3    3    0    0 -0.75861127623E+01 -0.57619911510E+01 -0.36320727783E+02  0.37549233225E+02  0.51100000000E-03 0.  1.
         22    1    1    0    0    0  0.14931514836E+02  0.14967420696E+02 -0.20484328653E+02  0.29437757013E+02  0.00000000000E+00 0. -1.
</event>
<event>
 5    1  0.1094625E-009  0.9118800E+02  0.7818608E-02  0.1130116E+00
         25   -1    0    0    0    0  0.00000000000E+00  0.00000000000E+00  0.99999998245E-14  0.12500000000E+03  0.12500000000E+03 0.  0.
        -11    1    3    3    0    0 -0.22786563869E+02 -0.14269373560E+00  0.28164432339E+02  0.36228208674E+02  0.51100000000E-03 0. -1.
         23    2    1    0    0    0  0.19892312715E+02  0.16841669059E+02 -0.11112942028E+02  0.96665508609E+02  0.92419571262E+02 0.  0.
         11    1    3    3    0    0  0.42678876584E+02  0.16984362795E+02 -0.39277374367E+02  0.60437299935E+02  0.51100000000E-03 0.  1.
         22    1    1    0    0    0 -0.19892312715E+02 -0.16841669059E+02  0.11112942028E+02  0.28334491391E+02  0.00000000000E+00 0.  1.
</event>
<event>
 5    1  0.1094625E-009  0.9118800E+02  0.7818608E-02  0.1130116E+00
         25   -1    0    0    0    0  0.00000000000E+00  0.00000000000E+00  0.99999998245E-14  0.12500000000E+03  0.12500000000E+03 0.  0.
        -11    1    3    3    0    0 -0.20840450917E+02  0.42940487216E+02  0.11371472674E+02  0.49066487828E+02  0.51100000000E-03 0.  1.
         23    2    1    0    0    0  0.18943351598E+02  0.23560573207E+02 -0.44631100464E-01  0.94768341568E+02  0.89816954925E+02 0.  0.
         11    1    3    3    0    0  0.39783802515E+02 -0.19379914009E+02 -0.11416103775E+02  0.45701853740E+02  0.51100000000E-03 0. -1.
         22    1    1    0    0    0 -0.18943351598E+02 -0.23560573207E+02  0.44631100464E-01  0.30231658432E+02  0.00000000000E+00 0. -1.
</event>
<event>
 5    1  0.1094625E-009  0.9118800E+02  0.7818608E-02  0.1130116E+00
         25   -1    0    0    0    0  0.00000000000E+00  0.00000000000E+00  0.99999998245E-14  0.12500000000E+03  0.12500000000E+03 0.  0.
        -11    1    3    3    0    0 -0.29250360950E+02 -0.21402384270E+02 -0.20842246349E+02  0.41809626897E+02  0.51100000000E-03 0.  1.
         23    2    1    0    0    0 -0.53894169052E+01  0.26460248685E+02 -0.84228915689E+01  0.96713330393E+02  0.92484228917E+02 0.  0.
         11    1    3    3    0    0  0.23860944045E+02  0.47862632955E+02  0.12419354780E+02  0.54903703496E+02  0.51100000000E-03 0. -1.
         22    1    1    0    0    0  0.53894169052E+01 -0.26460248685E+02  0.84228915689E+01  0.28286669607E+02  0.00000000000E+00 0. -1.
</event>
<event>
 5    1  0.1094625E-009  0.9118800E+02  0.7818608E-02  0.1130116E+00
         25   -1    0    0    0    0  0.00000000000E+00  0.00000000000E+00  0.99999998245E-14  0.12500000000E+03  0.12500000000E+03 0.  0.
        -11    1    3    3    0    0 -0.43004515125E+02 -0.22498064890E+02  0.29194511528E+02  0.56638068015E+02  0.51100000000E-03 0. -1.
         23    2    1    0    0    0 -0.11680951977E+02 -0.22039626495E+00  0.27509180872E+02  0.95112741078E+02  0.90294990279E+02 0.  0.
         11    1    3    3    0    0  0.31323563148E+02  0.22277668625E+02 -0.16853306562E+01  0.38474673063E+02  0.51100000000E-03 0.  1.
         22    1    1    0    0    0  0.11680951977E+02  0.22039626495E+00 -0.27509180872E+02  0.29887258922E+02  0.00000000000E+00 0. -1.
</event>
<event>
 5    1  0.1094625E-009  0.9118800E+02  0.7818608E-02  0.1130116E+00
         25   -1    0    0    0    0  0.00000000000E+00  0.00000000000E+00  0.99999998245E-14  0.12500000000E+03  0.12500000000E+03 0.  0.
        -11    1    3    3    0    0 -0.78112275175E+01 -0.28751297771E+02 -0.20778713351E+02  0.36323646948E+02  0.51100000000E-03 0.  1.
         23    2    1    0    0    0  0.12509338072E+02  0.24958260758E+02 -0.98303378330E+00  0.97064991954E+02  0.92958313176E+02 0.  0.
         11    1    3    3    0    0  0.20320565590E+02  0.53709558530E+02  0.19795679568E+02  0.60741345006E+02  0.51100000000E-03 0. -1.
         22    1    1    0    0    0 -0.12509338072E+02 -0.24958260758E+02  0.98303378330E+00  0.27935008046E+02  0.00000000000E+00 0. -1.
</event>
<event>
 5    1  0.1094625E-009  0.9118800E+02  0.7818608E-02  0.1130116E+00
         25   -1    0    0    0    0  0.00000000000E+00  0.00000000000E+00  0.99999998245E-14  0.12500000000E+03  0.12500000000E+03 0.  0.
        -11    1    3    3    0    0 -0.48543306998E+01  0.45965942481E+02  0.81345352362E+01  0.46931898091E+02  0.51100000000E-03 0. -1.
         23    2    1    0    0    0  0.87376857042E+01  0.51260737394E+01 -0.22875675298E+02  0.99981600695E+02  0.96800827341E+02 0.  0.
         11    1    3    3    0    0  0.13592016404E+02 -0.40839868741E+02 -0.31010210534E+02  0.53049702604E+02  0.51100000000E-03 0.  1.
         22    1    1    0    0    0 -0.87376857042E+01 -0.51260737394E+01  0.22875675298E+02  0.25018399305E+02  0.00000000000E+00 0.  1.
</event>
<event>
 5    1  0.1094625E-009  0.9118800E+02  0.7818608E-02  0.1130116E+00
         25   -1    0    0    0    0  0.00000000000E+00  0.00000000000E+00  0.99999998245E-14  0.12500000000E+03  0.12500000000E+03 0.  0.
        -11    1    3    3    0    0 -0.37338418745E+02 -0.28792630499E+02  0.38845570192E+01  0.47310282909E+02  0.51100000000E-03 0.  1.
         23    2    1    0    0    0 -0.24761367538E+01 -0.30573166055E+02  0.22582567801E+02  0.86910341242E+02  0.78119045760E+02 0.  0.
         11    1    3    3    0    0  0.34862281991E+02 -0.17805355551E+01  0.18698010782E+02  0.39600058333E+02  0.51100000000E-03 0. -1.
         22    1    1    0    0    0  0.24761367538E+01  0.30573166055E+02 -0.22582567801E+02  0.38089658758E+02  0.00000000000E+00 0.  1.
</event>
<event>
 5    1  0.1094625E-009  0.9118800E+02  0.7818608E-02  0.1130116E+00
         25   -1    0    0    0    0  0.00000000000E+00  0.00000000000E+00  0.99999998245E-14  0.12500000000E+03  0.12500000000E+03 0.  0.
        -11    1    3    3    0    0  0.29358148310E+02  0.20129472237E+02 -0.47927780119E+02  0.59700658557E+02  0.51100000000E-03 0. -1.
         23    2    1    0    0    0  0.95158470311E+01  0.20457309700E+02 -0.15827828089E+02  0.97439647918E+02  0.93460751011E+02 0.  0.
         11    1    3    3    0    0 -0.19842301279E+02  0.32783746266E+00  0.32099952030E+02  0.37738989361E+02  0.51100000000E-03 0.  1.
         22    1    1    0    0    0 -0.95158470311E+01 -0.20457309700E+02  0.15827828089E+02  0.27560352082E+02  0.00000000000E+00 0. -1.
</event>
<event>
 5    1  0.1094625E-009  0.9118800E+02  0.7818608E-02  0.1130116E+00
         25   -1    0    0    0    0  0.00000000000E+00  0.00000000000E+00  0.99999998245E-14  0.12500000000E+03  0.12500000000E+03 0.  0.
        -11    1    3    3    0    0  0.26506050034E+02 -0.21538463796E+02 -0.38647644249E+02  0.51576317408E+02  0.51100000000E-03 0.  1.
         23    2    1    0    0    0  0.21708812341E+02  0.13435943570E+02 -0.82278477843E+01  0.98176603645E+02  0.94441256404E+02 0.  0.
         11    1    3    3    0    0 -0.47972376930E+01  0.34974407366E+02  0.30419796465E+02  0.46600286237E+02  0.51100000000E-03 0. -1.
         22    1    1    0    0    0 -0.21708812341E+02 -0.13435943570E+02  0.82278477843E+01  0.26823396355E+02  0.00000000000E+00 0. -1.
</event>
<event>
 5    1  0.1094625E-009  0.9118800E+02  0.7818608E-02  0.1130116E+00
         25   -1    0    0    0    0  0.00000000000E+00  0.00000000000E+00  0.99999998245E-14  0.12500000000E+03  0.12500000000E+03 0.  0.
        -11    1    3    3    0    0 -0.36366107080E+00 -0.51830827554E+02  0.82528127536E+01  0.52485005982E+02  0.51100000000E-03 0.  1.
         23    2    1    0    0    0  0.52747994626E+01 -0.12555036745E+02  0.25766011654E+02  0.95856564829E+02  0.91318898412E+02 0.  0.
         11    1    3    3    0    0  0.56384605334E+01  0.39275790809E+02  0.17513198900E+02  0.43371558847E+02  0.51100000000E-03 0. -1.
         22    1    1    0    0    0 -0.52747994626E+01  0.12555036745E+02 -0.25766011654E+02  0.29143435171E+02  0.00000000000E+00 0.  1.
</event>
<event>
 5    1  0.1094625E-009  0.9118800E+02  0.7818608E-02  0.1130116E+00
         25   -1    0    0    0    0  0.00000000000E+00  0.00000000000E+00  0.99999998245E-14  0.12500000000E+03  0.12500000000E+03 0.  0.
        -11    1    3    3    0    0  0.27243151391E+02 -0.37053381562E+01  0.35699556393E+02  0.45059706562E+02  0.51100000000E-03 0. -1.
         23    2    1    0    0    0  0.23782158283E+02  0.12514452011E+02 -0.12006213064E+02  0.95566146806E+02  0.90920496597E+02 0.  0.
         11    1    3    3    0    0 -0.34609931082E+01  0.16219790167E+02 -0.47705769456E+02  0.50506440243E+02  0.51100000000E-03 0.  1.
         22    1    1    0    0    0 -0.23782158283E+02 -0.12514452011E+02  0.12006213064E+02  0.29433853194E+02  0.00000000000E+00 0.  1.
</event>
<event>
 5    1  0.1094625E-009  0.9118800E+02  0.7818608E-02  0.1130116E+00
         25   -1    0    0    0    0  0.00000000000E+00  0.00000000000E+00  0.99999998245E-14  0.12500000000E+03  0.12500000000E+03 0.  0.
        -11    1    3    3    0    0 -0.42319618194E+02  0.36508263136E+02  0.14265897245E+02  0.57682919359E+02  0.51100000000E-03 0.  1.
         23    2    1    0    0    0 -0.28452080898E+02  0.19147437764E+01  0.64503616176E+01  0.95763134297E+02  0.91190918266E+02 0.  0.
         11    1    3    3    0    0  0.13867537296E+02 -0.34593519360E+02 -0.78155356272E+01  0.38080214938E+02  0.51100000000E-03 0. -1.
         22    1    1    0    0    0  0.28452080898E+02 -0.19147437764E+01 -0.64503616176E+01  0.29236865703E+02  0.00000000000E+00 0.  1.
</event>
<event>
 5    1  0.1094625E-009  0.9118800E+02  0.7818608E-02  0.1130116E+00
         25   -1    0    0    0    0  0.00000000000E+00  0.00000000000E+00  0.99999998245E-14  0.12500000000E+03  0.12500000000E+03 0.  0.
        -11    1    3    3    0    0  0.12934149301E+02 -0.15784581137E+02  0.28808401830E+02  0.35303954964E+02  0.51100000000E-03 0. -1.
         23    2    1    0    0    0  0.13048960022E+02  0.14400430665E+02 -0.22769330327E+02  0.95065234851E+02  0.90229200998E+02 0.  0.
         11    1    3    3    0    0  0.11481072081E+00  0.30185011802E+02 -0.51577732157E+02  0.59761279887E+02  0.51100000000E-03 0.  1.
         22    1    1    0    0    0 -0.13048960022E+02 -0.14400430665E+02  0.22769330327E+02  0.29934765149E+02  0.00000000000E+00 0.  1.
</event>
<event>
 5    1  0.1094625E-009  0.9118800E+02  0.7818608E-02  0.1130116E+00
         25   -1    0    0    0    0  0.00000000000E+00  0.00000000000E+00  0.99999998245E-14  0.12500000000E+03  0.12500000000E+03 0.  0.
        -11    1    3    3    0    0  0.58555604153E+00 -0.32274684679E+02  0.35801469010E+02  0.48205220988E+02  0.51100000000E-03 0. -1.
         23    2    1    0    0    0  0.26781989656E+02 -0.33738628157E+01  0.23789674781E+02  0.89019358727E+02  0.81423827482E+02 0.  0.
         11    1    3    3    0    0  0.26196433615E+02  0.28900821863E+02 -0.12011794229E+02  0.40814137739E+02  0.51100000000E-03 0.  1.
         22    1    1    0    0    0 -0.26781989656E+02  0.33738628157E+01 -0.23789674781E+02  0.35980641273E+02  0.00000000000E+00 0.  1.
</event>
<event>
 5    1  0.1094625E-009  0.9118800E+02  0.7818608E-02  0.1130116E+00
         25   -1    0    0    0    0  0.00000000000E+00  0.00000000000E+00  0.99999998245E-14  0.12500000000E+03  0.12500000000E+03 0.  0.
        -11    1    3    3    0    0 -0.54001047382E+02  0.22734926917E+02  0.29347834996E+01  0.58665176849E+02  0.51100000000E-03 0.  1.
         23    2    1    0    0    0 -0.18845973202E+02  0.19199735170E+02  0.12594776163E+02  0.95294294771E+02  0.90545975575E+02 0.  0.
         11    1    3    3    0    0  0.35155074180E+02 -0.35351917467E+01  0.96599926637E+01  0.36629117923E+02  0.51100000000E-03 0. -1.
         22    1    1    0    0    0  0.18845973202E+02 -0.19199735170E+02 -0.12594776163E+02  0.29705705229E+02  0.00000000000E+00 0. -1.
</event>
<event>
 5    1  0.1094625E-009  0.9118800E+02  0.7818608E-02  0.1130116E+00
         25   -1    0    0    0    0  0.00000000000E+00  0.00000000000E+00  0.99999998245E-14  0.12500000000E+03  0.12500000000E+03 0.  0.
        -11    1    3    3    0    0 -0.31727034194E+02  0.66221023630E+01 -0.82958300561E+01  0.33455608424E+02  0.51100000000E-03 0. -1.
         23    2    1    0    0    0  0.25798890181E+02 -0.87973040609E+01  0.10320552134E+02  0.95854003882E+02  0.91315392846E+02 0.  0.
         11    1    3    3    0    0  0.57525924375E+02 -0.15419406424E+02  0.18616382190E+02  0.62398395458E+02  0.51100000000E-03 0.  1.
         22    1    1    0    0    0 -0.25798890181E+02  0.87973040609E+01 -0.10320552134E+02  0.29145996118E+02  0.00000000000E+00 0.  1.
</event>
<event>
 5    1  0.1094625E-009  0.9118800E+02  0.7818608E-02  0.1130116E+00
         25   -1    0    0    0    0  0.00000000000E+00  0.00000000000E+00  0.99999998245E-14  0.12500000000E+03  0.12500000000E+03 0.  0.
        -11    1    3    3    0    0  0.48751708965E+02  0.29114153574E+02 -0.23791847186E+02  0.61566346799E+02  0.51100000000E-03 0. -1.
         23    2    1    0    0    0  0.28127341362E+02  0.14422561257E+02 -0.52351394828E+01  0.92959958010E+02  0.87263907215E+02 0.  0.
         11    1    3    3    0    0 -0.20624367603E+02 -0.14691592317E+02  0.18556707703E+02  0.31393611211E+02  0.51100000000E-03 0.  1.
         22    1    1    0    0    0 -0.28127341362E+02 -0.14422561257E+02  0.52351394828E+01  0.32040041990E+02  0.00000000000E+00 0. -1.
</event>
<event>
 5    1  0.1094625E-009  0.9118800E+02  0.7818608E-02  0.1130116E+00
         25   -1    0    0    0    0  0.00000000000E+00  0.00000000000E+00  0.99999998245E-14  0.12500000000E+03  0.12500000000E+03 0.  0.
        -11    1    3    3    0    0  0.13710213813E+02  0.13894740445E+02  0.43016162223E+02  0.47237950712E+02  0.51100000000E-03 0.  1.
         23    2    1    0    0    0  0.23198249561E+02  0.16552612650E+02 -0.48363077994E+01  0.96094332020E+02  0.91643783231E+02 0.  0.
         11    1    3    3    0    0  0.94880357487E+01  0.26578722051E+01 -0.47852470022E+02  0.48856381308E+02  0.51100000000E-03 0. -1.
         22    1    1    0    0    0 -0.23198249561E+02 -0.16552612650E+02  0.48363077994E+01  0.28905667980E+02  0.00000000000E+00 0.  1.
</event>
<event>
 5    1  0.1094625E-009  0.9118800E+02  0.7818608E-02  0.1130116E+00
         25   -1    0    0    0    0  0.00000000000E+00  0.00000000000E+00  0.99999998245E-14  0.12500000000E+03  0.12500000000E+03 0.  0.
        -11    1    3    3    0    0 -0.36065282029E+02 -0.17750865630E+02  0.24936081572E+02  0.47303339870E+02  0.51100000000E-03 0. -1.
         23    2    1    0    0    0 -0.16080950220E+02  0.21374417809E+02 -0.83709686094E+00  0.98238770062E+02  0.94523502450E+02 0.  0.
         11    1    3    3    0    0  0.19984331809E+02  0.39125283439E+02 -0.25773178433E+02  0.50935430192E+02  0.51100000000E-03 0.  1.
         22    1    1    0    0    0  0.16080950220E+02 -0.21374417809E+02  0.83709686094E+00  0.26761229938E+02  0.00000000000E+00 0.  1.
</event>
<event>
 5    1  0.1094625E-009  0.9118800E+02  0.7818608E-02  0.1130116E+00
         25   -1    0    0    0    0  0.00000000000E+00  0.00000000000E+00  0.99999998245E-14  0.12500000000E+03  0.12500000000E+03 0.  0.
        -11    1    3    3    0    0 -0.33370117817E+02 -0.83083967448E+01 -0.12949932274E+02  0.36746359898E+02  0.51100000000E-03 0. -1.
         23    2    1    0    0    0  0.12711905383E+02 -0.11612900775E+02  0.23691356058E+02  0.95712931953E+02  0.91122077392E+02 0.  0.
         11    1    3    3    0    0  0.46082023200E+02 -0.33045040306E+01  0.36641288333E+02  0.58966572056E+02  0.51100000000E-03 0.  1.
         22    1    1    0    0    0 -0.12711905383E+02  0.11612900775E+02 -0.23691356058E+02  0.29287068047E+02  0.00000000000E+00 0.  1.
</event>
<event>
 5    1  0.1094625E-009  0.9118800E+02  0.7818608E-02  0.1130116E+00
         25   -1    0    0    0    0  0.00000000000E+00  0.00000000000E+00  0.99999998245E-14  0.12500000000E+03  0.12500000000E+03 0.  0.
        -11    1    3    3    0    0  0.58204674843E+01 -0.22843500762E+02  0.39655280314E+02  0.46132901771E+02  0.51100000000E-03 0.  1.
         23    2    1    0    0    0  0.93748302512E+00  0.22086811768E+02  0.19109860692E+02  0.95778554038E+02  0.91212052435E+02 0.  0.
         11    1    3    3    0    0 -0.48829844592E+01  0.44930312530E+02 -0.20545419622E+02  0.49645652266E+02  0.51100000000E-03 0. -1.
         22    1    1    0    0    0 -0.93748302512E+00 -0.22086811768E+02 -0.19109860692E+02  0.29221445962E+02  0.00000000000E+00 0. -1.
</event>
<event>
 5    1  0.1094625E-009  0.9118800E+02  0.7818608E-02  0.1130116E+00
         25   -1    0    0    0    0  0.00000000000E+00  0.00000000000E+00  0.99999998245E-14  0.12500000000E+03  0.12500000000E+03 0.  0.
        -11    1    3    3    0    0  0.81315718490E+01  0.31934009906E+02  0.16091333680E+02  0.36671984802E+02  0.51100000000E-03 0. -1.
         23    2    1    0    0    0 -0.43455043573E+01  0.23528994578E+02 -0.30846357561E+02  0.85961624409E+02  0.76585939325E+02 0.  0.
         11    1    3    3    0    0 -0.12477076206E+02 -0.84050153287E+01 -0.46937691241E+02  0.49289639608E+02  0.51100000000E-03 0.  1.
         22    1    1    0    0    0  0.43455043573E+01 -0.23528994578E+02  0.30846357561E+02  0.39038375591E+02  0.00000000000E+00 0.  1.
</event>
<event>
 5    1  0.1094625E-009  0.9118800E+02  0.7818608E-02  0.1130116E+00
         25   -1    0    0    0    0  0.00000000000E+00  0.00000000000E+00  0.99999998245E-14  0.12500000000E+03  0.12500000000E+03 0.  0.
        -11    1    3    3    0    0  0.22404903864E+02  0.29051728496E+02 -0.24061127090E+02  0.43873915746E+02  0.51100000000E-03 0. -1.
         23    2    1    0    0    0  0.35699832783E+02 -0.35736882015E+01  0.39803112532E+01  0.88901631813E+02  0.81242894786E+02 0.  0.
         11    1    3    3    0    0  0.13294928919E+02 -0.32625416697E+02  0.28041438343E+02  0.45027716067E+02  0.51100000000E-03 0.  1.
         22    1    1    0    0    0 -0.35699832783E+02  0.35736882015E+01 -0.39803112532E+01  0.36098368187E+02  0.00000000000E+00 0.  1.
</event>
<event>
 5    1  0.1094625E-009  0.9118800E+02  0.7818608E-02  0.1130116E+00
         25   -1    0    0    0    0  0.00000000000E+00  0.00000000000E+00  0.99999998245E-14  0.12500000000E+03  0.12500000000E+03 0.  0.
        -11    1    3    3    0    0  0.16440831509E+02  0.21300055775E+02  0.31380827828E+02  0.41337025439E+02  0.51100000000E-03 0.  1.
         23    2    1    0    0    0  0.22036468427E+02 -0.15234174026E+02 -0.96177997299E+01  0.96536197186E+02  0.92244508219E+02 0.  0.
         11    1    3    3    0    0  0.55956369179E+01 -0.36534229801E+02 -0.40998627558E+02  0.55199171747E+02  0.51100000000E-03 0. -1.
         22    1    1    0    0    0 -0.22036468427E+02  0.15234174026E+02  0.96177997299E+01  0.28463802814E+02  0.00000000000E+00 0. -1.
</event>
<event>
 5    1  0.1094625E-009  0.9118800E+02  0.7818608E-02  0.1130116E+00
         25   -1    0    0    0    0  0.00000000000E+00  0.00000000000E+00  0.99999998245E-14  0.12500000000E+03  0.12500000000E+03 0.  0.
        -11    1    3    3    0    0  0.24035874998E+02  0.33370548883E+02  0.22000583861E+02  0.46640567215E+02  0.51100000000E-03 0. -1.
         23    2    1    0    0    0 -0.17907104261E+02  0.22450580246E+02 -0.20533516022E+01  0.96209216940E+02  0.91800349864E+02 0.  0.
         11    1    3    3    0    0 -0.41942979258E+02 -0.10919968637E+02 -0.24053935463E+02  0.49568649726E+02  0.51100000000E-03 0.  1.
         22    1    1    0    0    0  0.17907104261E+02 -0.22450580246E+02  0.20533516022E+01  0.28790783060E+02  0.00000000000E+00 0.  1.
</event>
<event>
 5    1  0.1094625E-009  0.9118800E+02  0.7818608E-02  0.1130116E+00
         25   -1    0    0    0    0  0.00000000000E+00  0.00000000000E+00  0.99999998245E-14  0.12500000000E+03  0.12500000000E+03 0.  0.
        -11    1    3    3    0    0  0.41707460561E+02  0.53691218561E+01 -0.38990976994E+02  0.57346630443E+02  0.51100000000E-03 0.  1.
         23    2    1    0    0    0  0.10429626954E+02 -0.12366683720E+02 -0.23434304653E+02  0.96524069476E+02  0.92228072564E+02 0.  0.
         11    1    3    3    0    0 -0.31277833607E+02 -0.17735805576E+02  0.15556672340E+02  0.39177439033E+02  0.51100000000E-03 0. -1.
         22    1    1    0    0    0 -0.10429626954E+02  0.12366683720E+02  0.23434304653E+02  0.28475930524E+02  0.00000000000E+00 0.  1.
</event>
<event>
 5    1  0.1094625E-009  0.9118800E+02  0.7818608E-02  0.1130116E+00
         25   -1    0    0    0    0  0.00000000000E+00  0.00000000000E+00  0.99999998245E-14  0.12500000000E+03  0.12500000000E+03 0.  0.
        -11    1    3    3    0    0 -0.37107465114E+02  0.21969140924E+02  0.38930335884E+02  0.58096283637E+02  0.51100000000E-03 0. -1.
         23    2    1    0    0    0 -0.16826812069E+02  0.25119948295E+02  0.10850837543E+02  0.92876891773E+02  0.87144838879E+02 0.  0.
         11    1    3    3    0    0  0.20280653044E+02  0.31508073707E+01 -0.28079498341E+02  0.34780608136E+02  0.51100000000E-03 0.  1.
         22    1    1    0    0    0  0.16826812069E+02 -0.25119948295E+02 -0.10850837543E+02  0.32123108227E+02  0.00000000000E+00 0. -1.
</event>
<event>
 5    1  0.1094625E-009  0.9118800E+02  0.7818608E-02  0.1130116E+00
         25   -1    0    0    0    0  0.00000000000E+00  0.00000000000E+00  0.99999998245E-14  0.12500000000E+03  0.12500000000E+03 0.  0.
        -11    1    3    3    0    0  0.61078921524E+01 -0.59516693520E+01 -0.18117819118E+02  0.20024586999E+02  0.51100000000E-03 0. -1.
         23    2    1    0    0    0  0.31983516625E+01  0.21682525235E+01  0.43039614401E+02  0.81787279880E+02  0.69439325818E+02 0.  0.
         11    1    3    3    0    0 -0.29095404898E+01  0.81199218754E+01  0.61157433519E+02  0.61762692882E+02  0.51100000000E-03 0.  1.
         22    1    1    0    0    0 -0.31983516625E+01 -0.21682525235E+01 -0.43039614401E+02  0.43212720120E+02  0.00000000000E+00 0.  1.
</event>
<event>
 5    1  0.1094625E-009  0.9118800E+02  0.7818608E-02  0.1130116E+00
         25   -1    0    0    0    0  0.00000000000E+00  0.00000000000E+00  0.99999998245E-14  0.12500000000E+03  0.12500000000E+03 0.  0.
        -11    1    3    3    0    0  0.24907637460E+01  0.90832665268E+01  0.44538935741E+02  0.45523910553E+02  0.51100000000E-03 0. -1.
         23    2    1    0    0    0  0.21860560225E+02  0.19771194003E+02 -0.29989805579E+00  0.95523328809E+02  0.90861610168E+02 0.  0.
         11    1    3    3    0    0  0.19369796479E+02  0.10687927476E+02 -0.44838833797E+02  0.49999418256E+02  0.51100000000E-03 0.  1.
         22    1    1    0    0    0 -0.21860560225E+02 -0.19771194003E+02  0.29989805579E+00  0.29476671191E+02  0.00000000000E+00 0.  1.
</event>
<event>
 5    1  0.1094625E-009  0.9118800E+02  0.7818608E-02  0.1130116E+00
         25   -1    0    0    0    0  0.00000000000E+00  0.00000000000E+00  0.99999998245E-14  0.12500000000E+03  0.12500000000E+03 0.  0.
        -11    1    3    3    0    0  0.21846711518E+02  0.21205026956E+02 -0.18648560694E+02  0.35702952098E+02  0.51100000000E-03 0. -1.
         23    2    1    0    0    0 -0.25778940238E+02  0.28518903618E+01  0.13234390022E+02  0.95882374450E+02  0.91354220551E+02 0.  0.
         11    1    3    3    0    0 -0.47625651756E+02 -0.18353136594E+02  0.31882950716E+02  0.60179422352E+02  0.51100000000E-03 0.  1.
         22    1    1    0    0    0  0.25778940238E+02 -0.28518903618E+01 -0.13234390022E+02  0.29117625550E+02  0.00000000000E+00 0.  1.
</event>
<event>
 5    1  0.1094625E-009  0.9118800E+02  0.7818608E-02  0.1130116E+00
         25   -1    0    0    0    0  0.00000000000E+00  0.00000000000E+00  0.99999998245E-14  0.12500000000E+03  0.12500000000E+03 0.  0.
        -11    1    3    3    0    0 -0.54519979255E+01  0.36710822284E+02  0.12732270314E+02  0.39236710639E+02  0.51100000000E-03 0. -1.
         23    2    1    0    0    0  0.28873333778E+02  0.13136168969E+02 -0.15647783367E+02  0.89629370052E+02  0.82354978677E+02 0.  0.
         11    1    3    3    0    0  0.34325331704E+02 -0.23574653315E+02 -0.28380053681E+02  0.50392659413E+02  0.51100000000E-03 0.  1.
         22    1    1    0    0    0 -0.28873333778E+02 -0.13136168969E+02  0.15647783367E+02  0.35370629948E+02  0.00000000000E+00 0.  1.
</event>
<event>
 5    1  0.1094625E-009  0.9118800E+02  0.7818608E-02  0.1130116E+00
         25   -1    0    0    0    0  0.00000000000E+00  0.00000000000E+00  0.99999998245E-14  0.12500000000E+03  0.12500000000E+03 0.  0.
        -11    1    3    3    0    0  0.13929813976E+02  0.17726757984E+02  0.28272942670E+02  0.36161263163E+02  0.51100000000E-03 0. -1.
         23    2    1    0    0    0  0.26561429627E+02  0.23569009962E+02 -0.18498921401E+02  0.84959796861E+02  0.74932964810E+02 0.  0.
         11    1    3    3    0    0  0.12631615651E+02  0.58422519783E+01 -0.46771864071E+02  0.48798533698E+02  0.51100000000E-03 0.  1.
         22    1    1    0    0    0 -0.26561429627E+02 -0.23569009962E+02  0.18498921401E+02  0.40040203139E+02  0.00000000000E+00 0.  1.
</event>
<event>
 5    1  0.1094625E-009  0.9118800E+02  0.7818608E-02  0.1130116E+00
         25   -1    0    0    0    0  0.00000000000E+00  0.00000000000E+00  0.99999998245E-14  0.12500000000E+03  0.12500000000E+03 0.  0.
        -11    1    3    3    0    0  0.48587423133E+02  0.10750976524E+02  0.33526150292E+02  0.60002699411E+02  0.51100000000E-03 0.  1.
         23    2    1    0    0    0  0.25998381660E+02 -0.66872148170E+01  0.12878419955E+02  0.95226045082E+02  0.90451706841E+02 0.  0.
         11    1    3    3    0    0 -0.22589041473E+02 -0.17438191341E+02 -0.20647730337E+02  0.35223345671E+02  0.51100000000E-03 0. -1.
         22    1    1    0    0    0 -0.25998381660E+02  0.66872148170E+01 -0.12878419955E+02  0.29773954918E+02  0.00000000000E+00 0.  1.
</event>
<event>
 5    1  0.1094625E-009  0.9118800E+02  0.7818608E-02  0.1130116E+00
         25   -1    0    0    0    0  0.00000000000E+00  0.00000000000E+00  0.99999998245E-14  0.12500000000E+03  0.12500000000E+03 0.  0.
        -11    1    3    3    0    0 -0.66813055065E+01 -0.51045770544E+02 -0.18721243776E+02  0.54779517180E+02  0.51100000000E-03 0. -1.
         23    2    1    0    0    0  0.18859238236E+02 -0.22315118591E+02 -0.72380493297E+01  0.94899755106E+02  0.89999659869E+02 0.  0.
         11    1    3    3    0    0  0.25540543742E+02  0.28730651953E+02  0.11483194446E+02  0.40120237926E+02  0.51100000000E-03 0.  1.
         22    1    1    0    0    0 -0.18859238236E+02  0.22315118591E+02  0.72380493297E+01  0.30100244894E+02  0.00000000000E+00 0. -1.
</event>
<event>
 5    1  0.1094625E-009  0.9118800E+02  0.7818608E-02  0.1130116E+00
         25   -1    0    0    0    0  0.00000000000E+00  0.00000000000E+00  0.99999998245E-14  0.12500000000E+03  0.12500000000E+03 0.  0.
        -11    1    3    3    0    0 -0.15570593102E+02 -0.40876033810E+01 -0.28822724093E+02  0.33013653165E+02  0.51100000000E-03 0.  1.
         23    2    1    0    0    0  0.16604873993E+02  0.28972434560E+01  0.24248559911E+02  0.95468516500E+02  0.90786172543E+02 0.  0.
         11    1    3    3    0    0  0.32175467094E+02  0.69848468371E+01  0.53071284004E+02  0.62454863335E+02  0.51100000000E-03 0. -1.
         22    1    1    0    0    0 -0.16604873993E+02 -0.28972434560E+01 -0.24248559911E+02  0.29531483500E+02  0.00000000000E+00 0. -1.
</event>
<event>
 5    1  0.1094625E-009  0.9118800E+02  0.7818608E-02  0.1130116E+00
         25   -1    0    0    0    0  0.00000000000E+00  0.00000000000E+00  0.99999998245E-14  0.12500000000E+03  0.12500000000E+03 0.  0.
        -11    1    3    3    0    0 -0.55194826464E+01  0.11256272902E+02 -0.35988046504E+02  0.38109157164E+02  0.51100000000E-03 0. -1.
         23    2    1    0    0    0  0.32063545001E+01  0.25094889170E+02  0.17627765609E+02  0.94165404299E+02  0.88973878610E+02 0.  0.
         11    1    3    3    0    0  0.87258371465E+01  0.13838616268E+02  0.53615812113E+02  0.56056247135E+02  0.51100000000E-03 0.  1.
         22    1    1    0    0    0 -0.32063545001E+01 -0.25094889170E+02 -0.17627765609E+02  0.30834595701E+02  0.00000000000E+00 0.  1.
</event>
<event>
 5    1  0.1094625E-009  0.9118800E+02  0.7818608E-02  0.1130116E+00
         25   -1    0    0    0    0  0.00000000000E+00  0.00000000000E+00  0.99999998245E-14  0.12500000000E+03  0.12500000000E+03 0.  0.
        -11    1    3    3    0    0  0.72049198636E+01 -0.21450909730E+02 -0.43887040257E+02  0.49377370336E+02  0.51100000000E-03 0. -1.
         23    2    1    0    0    0  0.52751319255E+01  0.18832172423E+02 -0.23048798896E+02  0.94772117747E+02  0.89822210152E+02 0.  0.
         11    1    3    3    0    0 -0.19297879381E+01  0.40283082152E+02  0.20838241362E+02  0.45394747411E+02  0.51100000000E-03 0.  1.
         22    1    1    0    0    0 -0.52751319255E+01 -0.18832172423E+02  0.23048798896E+02  0.30227882253E+02  0.00000000000E+00 0. -1.
</event>
<event>
 5    1  0.1094625E-009  0.9118800E+02  0.7818608E-02  0.1130116E+00
         25   -1    0    0    0    0  0.00000000000E+00  0.00000000000E+00  0.99999998245E-14  0.12500000000E+03  0.12500000000E+03 0.  0.
        -11    1    3    3    0    0 -0.14371783679E+02  0.31133735388E+02  0.42767846213E+02  0.54817390628E+02  0.51100000000E-03 0.  1.
         23    2    1    0    0    0 -0.24198272699E+02  0.14679114229E+02  0.63148577939E+01  0.96001547884E+02  0.91517140313E+02 0.  0.
         11    1    3    3    0    0 -0.98264890199E+01 -0.16454621158E+02 -0.36452988419E+02  0.41184157256E+02  0.51100000000E-03 0. -1.
         22    1    1    0    0    0  0.24198272699E+02 -0.14679114229E+02 -0.63148577939E+01  0.28998452116E+02  0.00000000000E+00 0.  1.
</event>
<event>
 5    1  0.1094625E-009  0.9118800E+02  0.7818608E-02  0.1130116E+00
         25   -1    0    0    0    0  0.00000000000E+00  0.00000000000E+00  0.99999998245E-14  0.12500000000E+03  0.12500000000E+03 0.  0.
        -11    1    3    3    0    0  0.54323582590E+02  0.26857442975E+02  0.10964858552E+02  0.61584105027E+02  0.51100000000E-03 0.  1.
         23    2    1    0    0    0  0.24605558952E+02  0.99903840937E+01  0.12195347172E+02  0.95777272572E+02  0.91210296256E+02 0.  0.
         11    1    3    3    0    0 -0.29718023639E+02 -0.16867058881E+02  0.12304886202E+01  0.34193167546E+02  0.51100000000E-03 0. -1.
         22    1    1    0    0    0 -0.24605558952E+02 -0.99903840937E+01 -0.12195347172E+02  0.29222727428E+02  0.00000000000E+00 0.  1.
</event>
<event>
 5    1  0.1094625E-009  0.9118800E+02  0.7818608E-02  0.1130116E+00
         25   -1    0    0    0    0  0.00000000000E+00  0.00000000000E+00  0.99999998245E-14  0.12500000000E+03  0.12500000000E+03 0.  0.
        -11    1    3    3    0    0  0.13438467076E+02  0.36913414821E+02  0.87963587579E+01  0.40256285456E+02  0.51100000000E-03 0.  1.
         23    2    1    0    0    0 -0.16027018263E+01 -0.13251924598E+02  0.26325458622E+02  0.95483700598E+02  0.90807076539E+02 0.  0.
         11    1    3    3    0    0 -0.15041168903E+02 -0.50165339419E+02  0.17529099864E+02  0.55227415142E+02  0.51100000000E-03 0. -1.
         22    1    1    0    0    0  0.16027018263E+01  0.13251924598E+02 -0.26325458622E+02  0.29516299402E+02  0.00000000000E+00 0. -1.
</event>
<event>
 5    1  0.1094625E-009  0.9118800E+02  0.7818608E-02  0.1130116E+00
         25   -1    0    0    0    0  0.00000000000E+00  0.00000000000E+00  0.99999998245E-14  0.12500000000E+03  0.12500000000E+03 0.  0.
        -11    1    3    3    0    0  0.34035832557E+01  0.52999180150E+01 -0.39238429830E+02  0.39740758495E+02  0.51100000000E-03 0. -1.
         23    2    1    0    0    0  0.31736146850E+02 -0.88005223763E+01  0.23284273280E+01  0.91984037425E+02  0.85854582616E+02 0.  0.
         11    1    3    3    0    0  0.28332563594E+02 -0.14100440391E+02  0.41566857158E+02  0.52243278930E+02  0.51100000000E-03 0.  1.
         22    1    1    0    0    0 -0.31736146850E+02  0.88005223763E+01 -0.23284273280E+01  0.33015962575E+02  0.00000000000E+00 0.  1.
</event>
<event>
 5    1  0.1094625E-009  0.9118800E+02  0.7818608E-02  0.1130116E+00
         25   -1    0    0    0    0  0.00000000000E+00  0.00000000000E+00  0.99999998245E-14  0.12500000000E+03  0.12500000000E+03 0.  0.
        -11    1    3    3    0    0 -0.46141728995E+00  0.98217803677E+01  0.23234936381E+02  0.25229794775E+02  0.51100000000E-03 0.  1.
         23    2    1    0    0    0  0.84302962699E+01  0.44656988575E+01 -0.37223787045E+02  0.86573151528E+02  0.77577624880E+02 0.  0.
         11    1    3    3    0    0  0.88917135598E+01 -0.53560815102E+01 -0.60458723426E+02  0.61343356753E+02  0.51100000000E-03 0. -1.
         22    1    1    0    0    0 -0.84302962699E+01 -0.44656988575E+01  0.37223787045E+02  0.38426848472E+02  0.00000000000E+00 0. -1.
</event>
<event>
 5    1  0.1094625E-009  0.9118800E+02  0.7818608E-02  0.1130116E+00
         25   -1    0    0    0    0  0.00000000000E+00  0.00000000000E+00  0.99999998245E-14  0.12500000000E+03  0.12500000000E+03 0.  0.
        -11    1    3    3    0    0 -0.12755254961E+02  0.38476115763E+02  0.29660802826E+02  0.50228191665E+02  0.51100000000E-03 0. -1.
         23    2    1    0    0    0 -0.16950484053E+02  0.17171260949E+02 -0.12628750466E+02  0.97766629835E+02  0.93897057775E+02 0.  0.
         11    1    3    3    0    0 -0.41952290925E+01 -0.21304854815E+02 -0.42289553292E+02  0.47538438171E+02  0.51100000000E-03 0.  1.
         22    1    1    0    0    0  0.16950484053E+02 -0.17171260949E+02  0.12628750466E+02  0.27233370165E+02  0.00000000000E+00 0.  1.
</event>
<event>
 5    1  0.1094625E-009  0.9118800E+02  0.7818608E-02  0.1130116E+00
         25   -1    0    0    0    0  0.00000000000E+00  0.00000000000E+00  0.99999998245E-14  0.12500000000E+03  0.12500000000E+03 0.  0.
        -11    1    3    3    0    0  0.13717359804E+02  0.29124603026E+02 -0.36241053908E+02  0.48474967251E+02  0.51100000000E-03 0.  1.
         23    2    1    0    0    0 -0.87751234730E+01  0.27363202907E+02  0.53303556418E+01  0.95773978092E+02  0.91205781193E+02 0.  0.
         11    1    3    3    0    0 -0.22492483277E+02 -0.17614001190E+01  0.41571409549E+02  0.47299010841E+02  0.51100000000E-03 0. -1.
         22    1    1    0    0    0  0.87751234730E+01 -0.27363202907E+02 -0.53303556418E+01  0.29226021908E+02  0.00000000000E+00 0.  1.
</event>
<event>
 5    1  0.1094625E-009  0.9118800E+02  0.7818608E-02  0.1130116E+00
         25   -1    0    0    0    0  0.00000000000E+00  0.00000000000E+00  0.99999998245E-14  0.12500000000E+03  0.12500000000E+03 0.  0.
        -11    1    3    3    0    0 -0.33394106421E+01 -0.22950433120E+02  0.38488320018E+02  0.44935785538E+02  0.51100000000E-03 0. -1.
         23    2    1    0    0    0  0.12413248191E+02  0.20253812891E+02  0.17552691117E+02  0.95463537234E+02  0.90779316524E+02 0.  0.
         11    1    3    3    0    0  0.15752658833E+02  0.43204246011E+02 -0.20935628901E+02  0.50527751696E+02  0.51100000000E-03 0.  1.
         22    1    1    0    0    0 -0.12413248191E+02 -0.20253812891E+02 -0.17552691117E+02  0.29536462766E+02  0.00000000000E+00 0. -1.
</event>
<event>
 5    1  0.1094625E-009  0.9118800E+02  0.7818608E-02  0.1130116E+00
         25   -1    0    0    0    0  0.00000000000E+00  0.00000000000E+00  0.99999998245E-14  0.12500000000E+03  0.12500000000E+03 0.  0.
        -11    1    3    3    0    0 -0.82193427024E+01  0.30902170520E+02 -0.29130446685E+02  0.43256036130E+02  0.51100000000E-03 0. -1.
         23    2    1    0    0    0  0.26170573129E+02  0.12465184549E+02  0.55795938543E+01  0.95480318577E+02  0.90802420916E+02 0.  0.
         11    1    3    3    0    0  0.34389915832E+02 -0.18436985971E+02  0.34710040539E+02  0.52224282447E+02  0.51100000000E-03 0.  1.
         22    1    1    0    0    0 -0.26170573129E+02 -0.12465184549E+02 -0.55795938543E+01  0.29519681423E+02  0.00000000000E+00 0. -1.
</event>
<event>
 5    1  0.1094625E-009  0.9118800E+02  0.7818608E-02  0.1130116E+00
         25   -1    0    0    0    0  0.00000000000E+00  0.00000000000E+00  0.99999998245E-14  0.12500000000E+03  0.12500000000E+03 0.  0.
        -11    1    3    3    0    0 -0.48563012921E+02  0.44929057900E+01  0.37737692015E+02  0.61665921101E+02  0.51100000000E-03 0.  1.
         23    2    1    0    0    0 -0.25396849778E+02  0.55353320719E+01  0.11813782151E+02  0.96448199207E+02  0.92125185491E+02 0.  0.
         11    1    3    3    0    0  0.23166163143E+02  0.10424262819E+01 -0.25923909864E+02  0.34782278106E+02  0.51100000000E-03 0. -1.
         22    1    1    0    0    0  0.25396849778E+02 -0.55353320719E+01 -0.11813782151E+02  0.28551800793E+02  0.00000000000E+00 0.  1.
</event>
<event>
 5    1  0.1094625E-009  0.9118800E+02  0.7818608E-02  0.1130116E+00
         25   -1    0    0    0    0  0.00000000000E+00  0.00000000000E+00  0.99999998245E-14  0.12500000000E+03  0.12500000000E+03 0.  0.
        -11    1    3    3    0    0 -0.20024374134E+00 -0.26622894526E+02 -0.32758037063E+02  0.42212647429E+02  0.51100000000E-03 0.  1.
         23    2    1    0    0    0  0.69959141210E+01  0.22734436315E+02 -0.20554540780E+02  0.93562974765E+02  0.88123457100E+02 0.  0.
         11    1    3    3    0    0  0.71961578623E+01  0.49357330841E+02  0.12203496282E+02  0.51350327336E+02  0.51100000000E-03 0. -1.
         22    1    1    0    0    0 -0.69959141210E+01 -0.22734436315E+02  0.20554540780E+02  0.31437025235E+02  0.00000000000E+00 0.  1.
</event>
<event>
 5    1  0.1094625E-009  0.9118800E+02  0.7818608E-02  0.1130116E+00
         25   -1    0    0    0    0  0.00000000000E+00  0.00000000000E+00  0.99999998245E-14  0.12500000000E+03  0.12500000000E+03 0.  0.
        -11    1    3    3    0    0 -0.17219304936E+02 -0.13163602615E+02  0.31115389795E+02  0.37920342544E+02  0.51100000000E-03 0.  1.
         23    2    1    0    0    0 -0.12989420572E+02  0.39133648438E+01 -0.24905840906E+02  0.96639104697E+02  0.92383852345E+02 0.  0.
         11    1    3    3    0    0  0.42298843645E+01  0.17076967459E+02 -0.56021230700E+02  0.58718762153E+02  0.51100000000E-03 0. -1.
         22    1    1    0    0    0  0.12989420572E+02 -0.39133648438E+01  0.24905840906E+02  0.28360895303E+02  0.00000000000E+00 0. -1.
</event>
<event>
 5    1  0.1094625E-009  0.9118800E+02  0.7818608E-02  0.1130116E+00
         25   -1    0    0    0    0  0.00000000000E+00  0.00000000000E+00  0.99999998245E-14  0.12500000000E+03  0.12500000000E+03 0.  0.
        -11    1    3    3    0    0  0.28144298762E+02 -0.33121727899E+02  0.40897762663E+02  0.59680628373E+02  0.51100000000E-03 0. -1.
         23    2    1    0    0    0  0.89004878845E+01 -0.34154724893E+01  0.24541632882E+02  0.98671766459E+02  0.95094382666E+02 0.  0.
         11    1    3    3    0    0 -0.19243810877E+02  0.29706255410E+02 -0.16356129782E+02  0.38991138086E+02  0.51100000000E-03 0.  1.
         22    1    1    0    0    0 -0.89004878845E+01  0.34154724893E+01 -0.24541632882E+02  0.26328233541E+02  0.00000000000E+00 0. -1.
</event>
<event>
 5    1  0.1094625E-009  0.9118800E+02  0.7818608E-02  0.1130116E+00
         25   -1    0    0    0    0  0.00000000000E+00  0.00000000000E+00  0.99999998245E-14  0.12500000000E+03  0.12500000000E+03 0.  0.
        -11    1    3    3    0    0  0.46811974509E+02 -0.27892186115E+02 -0.24728015107E+02  0.59839867439E+02  0.51100000000E-03 0.  1.
         23    2    1    0    0    0  0.13598272328E+02 -0.22655604281E+02 -0.13767319697E+02  0.95205226846E+02  0.90422932443E+02 0.  0.
         11    1    3    3    0    0 -0.33213702181E+02  0.52365818341E+01  0.10960695409E+02  0.35365359407E+02  0.51100000000E-03 0. -1.
         22    1    1    0    0    0 -0.13598272328E+02  0.22655604281E+02  0.13767319697E+02  0.29794773154E+02  0.00000000000E+00 0.  1.
</event>
<event>
 5    1  0.1094625E-009  0.9118800E+02  0.7818608E-02  0.1130116E+00
         25   -1    0    0    0    0  0.00000000000E+00  0.00000000000E+00  0.99999998245E-14  0.12500000000E+03  0.12500000000E+03 0.  0.
        -11    1    3    3    0    0  0.32189458342E+01 -0.40562616144E+02  0.25557980563E+02  0.48050991784E+02  0.51100000000E-03 0. -1.
         23    2    1    0    0    0 -0.31128906109E+01 -0.17070143185E+02 -0.19277908048E+02  0.99063199600E+02  0.95607530561E+02 0.  0.
         11    1    3    3    0    0 -0.63318364452E+01  0.23492472959E+02 -0.44835888610E+02  0.51012207816E+02  0.51100000000E-03 0.  1.
         22    1    1    0    0    0  0.31128906109E+01  0.17070143185E+02  0.19277908048E+02  0.25936800400E+02  0.00000000000E+00 0. -1.
</event>
<event>
 5    1  0.1094625E-009  0.9118800E+02  0.7818608E-02  0.1130116E+00
         25   -1    0    0    0    0  0.00000000000E+00  0.00000000000E+00  0.99999998245E-14  0.12500000000E+03  0.12500000000E+03 0.  0.
        -11    1    3    3    0    0  0.20423354725E+02 -0.24702136897E+02 -0.18531100402E+02  0.37023109916E+02  0.51100000000E-03 0. -1.
         23    2    1    0    0    0 -0.46926878890E+01 -0.38355483320E+01  0.29378931378E+02  0.95002427439E+02  0.90142148076E+02 0.  0.
         11    1    3    3    0    0 -0.25116042614E+02  0.20866588565E+02  0.47910031780E+02  0.57979317523E+02  0.51100000000E-03 0.  1.
         22    1    1    0    0    0  0.46926878890E+01  0.38355483320E+01 -0.29378931378E+02  0.29997572561E+02  0.00000000000E+00 0.  1.
</event>
<event>
 5    1  0.1094625E-009  0.9118800E+02  0.7818608E-02  0.1130116E+00
         25   -1    0    0    0    0  0.00000000000E+00  0.00000000000E+00  0.99999998245E-14  0.12500000000E+03  0.12500000000E+03 0.  0.
        -11    1    3    3    0    0  0.17428847965E+02  0.30384899830E+02 -0.62898457064E+01  0.35588889254E+02  0.51100000000E-03 0.  1.
         23    2    1    0    0    0  0.60806651764E+01 -0.27895387089E+02  0.49650907947E+01  0.96021055291E+02  0.91543780907E+02 0.  0.
         11    1    3    3    0    0 -0.11348182789E+02 -0.58280286919E+02  0.11254936501E+02  0.60432166037E+02  0.51100000000E-03 0. -1.
         22    1    1    0    0    0 -0.60806651764E+01  0.27895387089E+02 -0.49650907947E+01  0.28978944709E+02  0.00000000000E+00 0. -1.
</event>
<event>
 5    1  0.1094625E-009  0.9118800E+02  0.7818608E-02  0.1130116E+00
         25   -1    0    0    0    0  0.00000000000E+00  0.00000000000E+00  0.99999998245E-14  0.12500000000E+03  0.12500000000E+03 0.  0.
        -11    1    3    3    0    0  0.42373221416E+02  0.68439817920E+01 -0.29040347006E+02  0.51823467025E+02  0.51100000000E-03 0.  1.
         23    2    1    0    0    0  0.94889307015E+01 -0.20581195326E+02 -0.18039664459E+02  0.96033555608E+02  0.91560848085E+02 0.  0.
         11    1    3    3    0    0 -0.32884290715E+02 -0.27425177118E+02  0.11000682547E+02  0.44210088583E+02  0.51100000000E-03 0. -1.
         22    1    1    0    0    0 -0.94889307015E+01  0.20581195326E+02  0.18039664459E+02  0.28966444392E+02  0.00000000000E+00 0. -1.
</event>
<event>
 5    1  0.1094625E-009  0.9118800E+02  0.7818608E-02  0.1130116E+00
         25   -1    0    0    0    0  0.00000000000E+00  0.00000000000E+00  0.99999998245E-14  0.12500000000E+03  0.12500000000E+03 0.  0.
        -11    1    3    3    0    0 -0.44713843329E+02  0.29454481149E+02  0.31418031839E+02  0.62080487835E+02  0.51100000000E-03 0.  1.
         23    2    1    0    0    0 -0.19504595287E+02  0.12535943425E+02  0.19529174960E+02  0.94685518485E+02  0.89701614374E+02 0.  0.
         11    1    3    3    0    0  0.25209248041E+02 -0.16918537723E+02 -0.11888856878E+02  0.32605030649E+02  0.51100000000E-03 0. -1.
         22    1    1    0    0    0  0.19504595287E+02 -0.12535943425E+02 -0.19529174960E+02  0.30314481515E+02  0.00000000000E+00 0.  1.
</event>
<event>
 5    1  0.1094625E-009  0.9118800E+02  0.7818608E-02  0.1130116E+00
         25   -1    0    0    0    0  0.00000000000E+00  0.00000000000E+00  0.99999998245E-14  0.12500000000E+03  0.12500000000E+03 0.  0.
        -11    1    3    3    0    0  0.49454001863E+02 -0.30946574818E+02 -0.34448964166E+01  0.58440192546E+02  0.51100000000E-03 0. -1.
         23    2    1    0    0    0  0.14078514983E+02 -0.27542023517E+02 -0.15947107811E+01  0.94027258016E+02  0.88779583824E+02 0.  0.
         11    1    3    3    0    0 -0.35375486881E+02  0.34045513004E+01  0.18501856355E+01  0.35587065470E+02  0.51100000000E-03 0.  1.
         22    1    1    0    0    0 -0.14078514983E+02  0.27542023517E+02  0.15947107811E+01  0.30972741984E+02  0.00000000000E+00 0. -1.
</event>
<event>
 5    1  0.1094625E-009  0.9118800E+02  0.7818608E-02  0.1130116E+00
         25   -1    0    0    0    0  0.00000000000E+00  0.00000000000E+00  0.99999998245E-14  0.12500000000E+03  0.12500000000E+03 0.  0.
        -11    1    3    3    0    0  0.21171473805E+02 -0.36287643494E+02  0.11374111981E+02  0.43524645858E+02  0.51100000000E-03 0.  1.
         23    2    1    0    0    0 -0.21445423548E+02 -0.31053823176E+02  0.50935490064E+01  0.86918634919E+02  0.78132315528E+02 0.  0.
         11    1    3    3    0    0 -0.42616897353E+02  0.52338203186E+01 -0.62805629750E+01  0.43393989061E+02  0.51100000000E-03 0. -1.
         22    1    1    0    0    0  0.21445423548E+02  0.31053823176E+02 -0.50935490064E+01  0.38081365081E+02  0.00000000000E+00 0.  1.
</event>
<event>
 5    1  0.1094625E-009  0.9118800E+02  0.7818608E-02  0.1130116E+00
         25   -1    0    0    0    0  0.00000000000E+00  0.00000000000E+00  0.99999998245E-14  0.12500000000E+03  0.12500000000E+03 0.  0.
        -11    1    3    3    0    0  0.25547892348E+01 -0.50924143692E+02 -0.26449585642E+02  0.57440194461E+02  0.51100000000E-03 0. -1.
         23    2    1    0    0    0  0.18310422479E+02 -0.20244502462E+02 -0.15415750800E+02  0.93651047481E+02  0.88248296699E+02 0.  0.
         11    1    3    3    0    0  0.15755633244E+02  0.30679641230E+02  0.11033834842E+02  0.36210853021E+02  0.51100000000E-03 0.  1.
         22    1    1    0    0    0 -0.18310422479E+02  0.20244502462E+02  0.15415750800E+02  0.31348952519E+02  0.00000000000E+00 0. -1.
</event>
<event>
 5    1  0.1094625E-009  0.9118800E+02  0.7818608E-02  0.1130116E+00
         25   -1    0    0    0    0  0.00000000000E+00  0.00000000000E+00  0.99999998245E-14  0.12500000000E+03  0.12500000000E+03 0.  0.
        -11    1    3    3    0    0 -0.24980064113E+02  0.43142570634E+02  0.16661392947E+02  0.52563171700E+02  0.51100000000E-03 0.  1.
         23    2    1    0    0    0 -0.22476578384E+02  0.11354727047E+02 -0.13476925365E+02  0.96438593882E+02  0.92112151589E+02 0.  0.
         11    1    3    3    0    0  0.25034857292E+01 -0.31787843587E+02 -0.30138318312E+02  0.43875422182E+02  0.51100000000E-03 0. -1.
         22    1    1    0    0    0  0.22476578384E+02 -0.11354727047E+02  0.13476925365E+02  0.28561406118E+02  0.00000000000E+00 0. -1.
</event>
<event>
 5    1  0.1094625E-009  0.9118800E+02  0.7818608E-02  0.1130116E+00
         25   -1    0    0    0    0  0.00000000000E+00  0.00000000000E+00  0.99999998245E-14  0.12500000000E+03  0.12500000000E+03 0.  0.
        -11    1    3    3    0    0  0.42271275013E+02 -0.22333192885E+01  0.20064506252E+02  0.46844773644E+02  0.51100000000E-03 0. -1.
         23    2    1    0    0    0  0.10694919506E+02  0.26731612263E+02 -0.39088235877E+01  0.95944203689E+02  0.91438782375E+02 0.  0.
         11    1    3    3    0    0 -0.31576355507E+02  0.28964931552E+02 -0.23973329840E+02  0.49099430045E+02  0.51100000000E-03 0.  1.
         22    1    1    0    0    0 -0.10694919506E+02 -0.26731612263E+02  0.39088235877E+01  0.29055796311E+02  0.00000000000E+00 0.  1.
</event>
<event>
 5    1  0.1094625E-009  0.9118800E+02  0.7818608E-02  0.1130116E+00
         25   -1    0    0    0    0  0.00000000000E+00  0.00000000000E+00  0.99999998245E-14  0.12500000000E+03  0.12500000000E+03 0.  0.
        -11    1    3    3    0    0  0.42213939948E+01  0.20758684700E+02 -0.25120445269E+02  0.32860004998E+02  0.51100000000E-03 0.  1.
         23    2    1    0    0    0 -0.12734922732E+02 -0.25073914446E+02  0.12195665382E+02  0.94346881125E+02  0.89228472369E+02 0.  0.
         11    1    3    3    0    0 -0.16956316727E+02 -0.45832599146E+02  0.37316110651E+02  0.61486876127E+02  0.51100000000E-03 0. -1.
         22    1    1    0    0    0  0.12734922732E+02  0.25073914446E+02 -0.12195665382E+02  0.30653118875E+02  0.00000000000E+00 0. -1.
</event>
<event>
 5    1  0.1094625E-009  0.9118800E+02  0.7818608E-02  0.1130116E+00
         25   -1    0    0    0    0  0.00000000000E+00  0.00000000000E+00  0.99999998245E-14  0.12500000000E+03  0.12500000000E+03 0.  0.
        -11    1    3    3    0    0 -0.28937438629E+02  0.49067967547E+02  0.25825361939E+01  0.57023769492E+02  0.51100000000E-03 0.  1.
         23    2    1    0    0    0 -0.23526164242E+02  0.11464177245E+02  0.12067510497E+02  0.96181037953E+02  0.91761971907E+02 0.  0.
         11    1    3    3    0    0  0.54112743868E+01 -0.37603790302E+02  0.94849743033E+01  0.39157268461E+02  0.51100000000E-03 0. -1.
         22    1    1    0    0    0  0.23526164242E+02 -0.11464177245E+02 -0.12067510497E+02  0.28818962047E+02  0.00000000000E+00 0. -1.
</event>
<event>
 5    1  0.1094625E-009  0.9118800E+02  0.7818608E-02  0.1130116E+00
         25   -1    0    0    0    0  0.00000000000E+00  0.00000000000E+00  0.99999998245E-14  0.12500000000E+03  0.12500000000E+03 0.  0.
        -11    1    3    3    0    0  0.23835704476E+02 -0.10130409196E+02 -0.20501914684E+02  0.33031719669E+02  0.51100000000E-03 0.  1.
         23    2    1    0    0    0  0.13905317749E+01 -0.48259506221E+01  0.33171457139E+02  0.91450500052E+02  0.85074232368E+02 0.  0.
         11    1    3    3    0    0 -0.22445172701E+02  0.53044585740E+01  0.53673371823E+02  0.58418780383E+02  0.51100000000E-03 0. -1.
         22    1    1    0    0    0 -0.13905317749E+01  0.48259506221E+01 -0.33171457139E+02  0.33549499948E+02  0.00000000000E+00 0. -1.
</event>
<event>
 5    1  0.1094625E-009  0.9118800E+02  0.7818608E-02  0.1130116E+00
         25   -1    0    0    0    0  0.00000000000E+00  0.00000000000E+00  0.99999998245E-14  0.12500000000E+03  0.12500000000E+03 0.  0.
        -11    1    3    3    0    0 -0.43955767097E+02  0.64471999643E+01  0.27300875985E+02  0.52144162456E+02  0.51100000000E-03 0. -1.
         23    2    1    0    0    0 -0.23401327029E+02 -0.17082149981E+02 -0.32547446047E+01  0.95844977840E+02  0.91303036422E+02 0.  0.
         11    1    3    3    0    0  0.20554440067E+02 -0.23529349946E+02 -0.30555620589E+02  0.43700815384E+02  0.51100000000E-03 0.  1.
         22    1    1    0    0    0  0.23401327029E+02  0.17082149981E+02  0.32547446047E+01  0.29155022160E+02  0.00000000000E+00 0. -1.
</event>
<event>
 5    1  0.1094625E-009  0.9118800E+02  0.7818608E-02  0.1130116E+00
         25   -1    0    0    0    0  0.00000000000E+00  0.00000000000E+00  0.99999998245E-14  0.12500000000E+03  0.12500000000E+03 0.  0.
        -11    1    3    3    0    0  0.10962159818E+02  0.25517277932E+02 -0.34641926624E+02  0.44400039430E+02  0.51100000000E-03 0. -1.
         23    2    1    0    0    0 -0.23060938413E+02 -0.81378922048E+01 -0.16091067354E+02  0.95726212773E+02  0.91140294016E+02 0.  0.
         11    1    3    3    0    0 -0.34023098230E+02 -0.33655170137E+02  0.18550859270E+02  0.51326173343E+02  0.51100000000E-03 0.  1.
         22    1    1    0    0    0  0.23060938413E+02  0.81378922048E+01  0.16091067354E+02  0.29273787227E+02  0.00000000000E+00 0.  1.
</event>
<event>
 5    1  0.1094625E-009  0.9118800E+02  0.7818608E-02  0.1130116E+00
         25   -1    0    0    0    0  0.00000000000E+00  0.00000000000E+00  0.99999998245E-14  0.12500000000E+03  0.12500000000E+03 0.  0.
        -11    1    3    3    0    0 -0.13835089846E+02 -0.33513053821E+02  0.67330193357E+01  0.36876388612E+02  0.51100000000E-03 0.  1.
         23    2    1    0    0    0  0.17940821022E+01  0.21391647893E+02 -0.15900881846E+02  0.98285596139E+02  0.94585406035E+02 0.  0.
         11    1    3    3    0    0  0.15629171948E+02  0.54904701714E+02 -0.22633901182E+02  0.61409207527E+02  0.51100000000E-03 0. -1.
         22    1    1    0    0    0 -0.17940821022E+01 -0.21391647893E+02  0.15900881846E+02  0.26714403861E+02  0.00000000000E+00 0. -1.
</event>
<event>
 5    1  0.1094625E-009  0.9118800E+02  0.7818608E-02  0.1130116E+00
         25   -1    0    0    0    0  0.00000000000E+00  0.00000000000E+00  0.99999998245E-14  0.12500000000E+03  0.12500000000E+03 0.  0.
        -11    1    3    3    0    0 -0.20361234614E+02  0.24185411259E+02  0.13263261313E+02  0.34284516821E+02  0.51100000000E-03 0.  1.
         23    2    1    0    0    0  0.17998743585E+02 -0.21884891641E+02  0.11947599241E+02  0.94248603603E+02  0.89090689192E+02 0.  0.
         11    1    3    3    0    0  0.38359978198E+02 -0.46070302899E+02 -0.13156620727E+01  0.59964086782E+02  0.51100000000E-03 0. -1.
         22    1    1    0    0    0 -0.17998743585E+02  0.21884891641E+02 -0.11947599241E+02  0.30751396397E+02  0.00000000000E+00 0. -1.
</event>
<event>
 5    1  0.1094625E-009  0.9118800E+02  0.7818608E-02  0.1130116E+00
         25   -1    0    0    0    0  0.00000000000E+00  0.00000000000E+00  0.99999998245E-14  0.12500000000E+03  0.12500000000E+03 0.  0.
        -11    1    3    3    0    0 -0.22269757572E+02  0.15161595345E+02  0.35483345460E+02  0.44552035655E+02  0.51100000000E-03 0. -1.
         23    2    1    0    0    0 -0.16353026505E+02 -0.23437051739E+02  0.13940650706E+01  0.96387759831E+02  0.92043141829E+02 0.  0.
         11    1    3    3    0    0  0.59167310666E+01 -0.38598647083E+02 -0.34089280389E+02  0.51835724176E+02  0.51100000000E-03 0.  1.
         22    1    1    0    0    0  0.16353026505E+02  0.23437051739E+02 -0.13940650706E+01  0.28612240169E+02  0.00000000000E+00 0.  1.
</event>
<event>
 5    1  0.1094625E-009  0.9118800E+02  0.7818608E-02  0.1130116E+00
         25   -1    0    0    0    0  0.00000000000E+00  0.00000000000E+00  0.99999998245E-14  0.12500000000E+03  0.12500000000E+03 0.  0.
        -11    1    3    3    0    0 -0.27215652270E+02  0.41733798040E+02 -0.28228615951E+02  0.57264791854E+02  0.51100000000E-03 0.  1.
         23    2    1    0    0    0  0.75614554638E+00  0.15533679516E+02 -0.24778051500E+02  0.95745619276E+02  0.91166906381E+02 0.  0.
         11    1    3    3    0    0  0.27971797817E+02 -0.26200118524E+02  0.34505644505E+01  0.38480827422E+02  0.51100000000E-03 0. -1.
         22    1    1    0    0    0 -0.75614554638E+00 -0.15533679516E+02  0.24778051500E+02  0.29254380724E+02  0.00000000000E+00 0.  1.
</event>
<event>
 5    1  0.1094625E-009  0.9118800E+02  0.7818608E-02  0.1130116E+00
         25   -1    0    0    0    0  0.00000000000E+00  0.00000000000E+00  0.99999998245E-14  0.12500000000E+03  0.12500000000E+03 0.  0.
        -11    1    3    3    0    0 -0.51140866459E+01 -0.36363961974E+02  0.45090613900E+02  0.58151999749E+02  0.51100000000E-03 0. -1.
         23    2    1    0    0    0  0.60529123546E+01 -0.27625746294E+02  0.11763870261E+02  0.94369814728E+02  0.89260594228E+02 0.  0.
         11    1    3    3    0    0  0.11166999001E+02  0.87382156797E+01 -0.33326743640E+02  0.36217814979E+02  0.51100000000E-03 0.  1.
         22    1    1    0    0    0 -0.60529123546E+01  0.27625746294E+02 -0.11763870261E+02  0.30630185272E+02  0.00000000000E+00 0. -1.
</event>
<event>
 5    1  0.1094625E-009  0.9118800E+02  0.7818608E-02  0.1130116E+00
         25   -1    0    0    0    0  0.00000000000E+00  0.00000000000E+00  0.99999998245E-14  0.12500000000E+03  0.12500000000E+03 0.  0.
        -11    1    3    3    0    0  0.68694608708E+01 -0.43709035689E+02 -0.11168914134E+02  0.45633473862E+02  0.51100000000E-03 0.  1.
         23    2    1    0    0    0 -0.97532223104E+01 -0.86011364047E+01 -0.32532351473E+02  0.89964892105E+02  0.82862675712E+02 0.  0.
         11    1    3    3    0    0 -0.16622683181E+02  0.35107899284E+02 -0.21363437339E+02  0.44331418243E+02  0.51100000000E-03 0. -1.
         22    1    1    0    0    0  0.97532223104E+01  0.86011364047E+01  0.32532351473E+02  0.35035107895E+02  0.00000000000E+00 0.  1.
</event>
<event>
 5    1  0.1094625E-009  0.9118800E+02  0.7818608E-02  0.1130116E+00
         25   -1    0    0    0    0  0.00000000000E+00  0.00000000000E+00  0.99999998245E-14  0.12500000000E+03  0.12500000000E+03 0.  0.
        -11    1    3    3    0    0 -0.32543918258E+02 -0.23266175289E+02 -0.26663415728E-01  0.40005277644E+02  0.51100000000E-03 0. -1.
         23    2    1    0    0    0 -0.15787928297E+02  0.27395566422E+02 -0.77358613328E+00  0.93371307725E+02  0.87851163517E+02 0.  0.
         11    1    3    3    0    0  0.16755989961E+02  0.50661741711E+02 -0.74692271755E+00  0.53366030081E+02  0.51100000000E-03 0.  1.
         22    1    1    0    0    0  0.15787928297E+02 -0.27395566422E+02  0.77358613328E+00  0.31628692275E+02  0.00000000000E+00 0.  1.
</event>
<event>
 5    1  0.1094625E-009  0.9118800E+02  0.7818608E-02  0.1130116E+00
         25   -1    0    0    0    0  0.00000000000E+00  0.00000000000E+00  0.99999998245E-14  0.12500000000E+03  0.12500000000E+03 0.  0.
        -11    1    3    3    0    0 -0.17955206543E+02 -0.28786915975E+02  0.50004119975E+02  0.60427543290E+02  0.51100000000E-03 0.  1.
         23    2    1    0    0    0 -0.18483863301E+02 -0.90911746719E+01  0.20243869601E+02  0.96118917682E+02  0.91677311372E+02 0.  0.
         11    1    3    3    0    0 -0.52865675750E+00  0.19695741303E+02 -0.29760250374E+02  0.35691374392E+02  0.51100000000E-03 0. -1.
         22    1    1    0    0    0  0.18483863301E+02  0.90911746719E+01 -0.20243869601E+02  0.28881082318E+02  0.00000000000E+00 0.  1.
</event>
<event>
 5    1  0.1094625E-009  0.9118800E+02  0.7818608E-02  0.1130116E+00
         25   -1    0    0    0    0  0.00000000000E+00  0.00000000000E+00  0.99999998245E-14  0.12500000000E+03  0.12500000000E+03 0.  0.
        -11    1    3    3    0    0  0.22258017678E+02 -0.21469570889E+02  0.34817824168E+02  0.46568688034E+02  0.51100000000E-03 0.  1.
         23    2    1    0    0    0  0.23464112156E+02 -0.15371443719E+02 -0.12497888416E+02  0.94290993892E+02  0.89150145670E+02 0.  0.
         11    1    3    3    0    0  0.12060944783E+01  0.60981271700E+01 -0.47315712584E+02  0.47722305858E+02  0.51100000000E-03 0. -1.
         22    1    1    0    0    0 -0.23464112156E+02  0.15371443719E+02  0.12497888416E+02  0.30709006108E+02  0.00000000000E+00 0. -1.
</event>
<event>
 5    1  0.1094625E-009  0.9118800E+02  0.7818608E-02  0.1130116E+00
         25   -1    0    0    0    0  0.00000000000E+00  0.00000000000E+00  0.99999998245E-14  0.12500000000E+03  0.12500000000E+03 0.  0.
        -11    1    3    3    0    0 -0.17914104686E+02  0.12165428945E+01 -0.45421275593E+02  0.48841451658E+02  0.51100000000E-03 0.  1.
         23    2    1    0    0    0 -0.27685219861E+02  0.34806276805E+01  0.17257228273E+01  0.97043528709E+02  0.92929447309E+02 0.  0.
         11    1    3    3    0    0 -0.97711151745E+01  0.22640847859E+01  0.47146998420E+02  0.48202077051E+02  0.51100000000E-03 0. -1.
         22    1    1    0    0    0  0.27685219861E+02 -0.34806276805E+01 -0.17257228273E+01  0.27956471291E+02  0.00000000000E+00 0.  1.
</event>
<event>
 5    1  0.1094625E-009  0.9118800E+02  0.7818608E-02  0.1130116E+00
         25   -1    0    0    0    0  0.00000000000E+00  0.00000000000E+00  0.99999998245E-14  0.12500000000E+03  0.12500000000E+03 0.  0.
        -11    1    3    3    0    0 -0.18974824061E+02 -0.32888524862E+02  0.79868790504E+00  0.37978111043E+02  0.51100000000E-03 0.  1.
         23    2    1    0    0    0 -0.40409405354E+01  0.18758137413E+02 -0.21500940374E+02  0.96181822462E+02  0.91763040575E+02 0.  0.
         11    1    3    3    0    0  0.14933883526E+02  0.51646662275E+02 -0.22299628279E+02  0.58203711419E+02  0.51100000000E-03 0. -1.
         22    1    1    0    0    0  0.40409405354E+01 -0.18758137413E+02  0.21500940374E+02  0.28818177538E+02  0.00000000000E+00 0. -1.
</event>
<event>
 5    1  0.1094625E-009  0.9118800E+02  0.7818608E-02  0.1130116E+00
         25   -1    0    0    0    0  0.00000000000E+00  0.00000000000E+00  0.99999998245E-14  0.12500000000E+03  0.12500000000E+03 0.  0.
        -11    1    3    3    0    0 -0.29792323354E+02 -0.82320255218E+01 -0.20415527624E+02  0.37042442460E+02  0.51100000000E-03 0.  1.
         23    2    1    0    0    0  0.13397709018E+02 -0.15150282868E+02  0.19971262882E+02  0.96576752137E+02  0.92299447638E+02 0.  0.
         11    1    3    3    0    0  0.43190032372E+02 -0.69182573465E+01  0.40386790507E+02  0.59534309677E+02  0.51100000000E-03 0. -1.
         22    1    1    0    0    0 -0.13397709018E+02  0.15150282868E+02 -0.19971262882E+02  0.28423247863E+02  0.00000000000E+00 0. -1.
</event>
<event>
 5    1  0.1094625E-009  0.9118800E+02  0.7818608E-02  0.1130116E+00
         25   -1    0    0    0    0  0.00000000000E+00  0.00000000000E+00  0.99999998245E-14  0.12500000000E+03  0.12500000000E+03 0.  0.
        -11    1    3    3    0    0  0.14602138825E+01 -0.15343265331E+02  0.55420870348E+02  0.57524089615E+02  0.51100000000E-03 0. -1.
         23    2    1    0    0    0 -0.15225014561E+02  0.54432287832E+00  0.25622262361E+02  0.95190644350E+02  0.90402771459E+02 0.  0.
         11    1    3    3    0    0 -0.16685228444E+02  0.15887588209E+02 -0.29798607987E+02  0.37666554735E+02  0.51100000000E-03 0.  1.
         22    1    1    0    0    0  0.15225014561E+02 -0.54432287832E+00 -0.25622262361E+02  0.29809355650E+02  0.00000000000E+00 0. -1.
</event>
<event>
 5    1  0.1094625E-009  0.9118800E+02  0.7818608E-02  0.1130116E+00
         25   -1    0    0    0    0  0.00000000000E+00  0.00000000000E+00  0.99999998245E-14  0.12500000000E+03  0.12500000000E+03 0.  0.
        -11    1    3    3    0    0 -0.25739867466E+02  0.31201192280E+01  0.22193672838E+02  0.34129679686E+02  0.51100000000E-03 0. -1.
         23    2    1    0    0    0  0.30275978145E+02  0.23410917007E+01  0.16502314449E+02  0.90439300569E+02  0.83575266331E+02 0.  0.
         11    1    3    3    0    0  0.56015845611E+02 -0.77902752730E+00 -0.56913583887E+01  0.56309620883E+02  0.51100000000E-03 0.  1.
         22    1    1    0    0    0 -0.30275978145E+02 -0.23410917007E+01 -0.16502314449E+02  0.34560699431E+02  0.00000000000E+00 0.  1.
</event>
<event>
 5    1  0.1094625E-009  0.9118800E+02  0.7818608E-02  0.1130116E+00
         25   -1    0    0    0    0  0.00000000000E+00  0.00000000000E+00  0.99999998245E-14  0.12500000000E+03  0.12500000000E+03 0.  0.
        -11    1    3    3    0    0 -0.50024051044E+01 -0.21226750629E+02 -0.26481830844E+02  0.34305777418E+02  0.51100000000E-03 0.  1.
         23    2    1    0    0    0 -0.69619398993E+01  0.11516835891E+02  0.25728003298E+02  0.95964913125E+02  0.91467088515E+02 0.  0.
         11    1    3    3    0    0 -0.19595347949E+01  0.32743586520E+02  0.52209834142E+02  0.61659135708E+02  0.51100000000E-03 0. -1.
         22    1    1    0    0    0  0.69619398993E+01 -0.11516835891E+02 -0.25728003298E+02  0.29035086875E+02  0.00000000000E+00 0. -1.
</event>
<event>
 5    1  0.1094625E-009  0.9118800E+02  0.7818608E-02  0.1130116E+00
         25   -1    0    0    0    0  0.00000000000E+00  0.00000000000E+00  0.99999998245E-14  0.12500000000E+03  0.12500000000E+03 0.  0.
        -11    1    3    3    0    0  0.30346317980E+02 -0.35882088374E+01 -0.52390727327E+02  0.60651154710E+02  0.51100000000E-03 0. -1.
         23    2    1    0    0    0  0.13330198391E+02 -0.12204220144E+02 -0.28956995806E+02  0.90865782790E+02  0.84210721986E+02 0.  0.
         11    1    3    3    0    0 -0.17016119589E+02 -0.86160113067E+01  0.23433731521E+02  0.30214628079E+02  0.51100000000E-03 0.  1.
         22    1    1    0    0    0 -0.13330198391E+02  0.12204220144E+02  0.28956995806E+02  0.34134217210E+02  0.00000000000E+00 0. -1.
</event>
<event>
 5    1  0.1094625E-009  0.9118800E+02  0.7818608E-02  0.1130116E+00
         25   -1    0    0    0    0  0.00000000000E+00  0.00000000000E+00  0.99999998245E-14  0.12500000000E+03  0.12500000000E+03 0.  0.
        -11    1    3    3    0    0  0.30445719363E+02 -0.47487898301E+02 -0.38264748311E+01  0.56539227289E+02  0.51100000000E-03 0.  1.
         23    2    1    0    0    0  0.19506570599E+01 -0.24483731356E+02 -0.16634041163E+02  0.95336057418E+02  0.90603611156E+02 0.  0.
         11    1    3    3    0    0 -0.28495062303E+02  0.23004166944E+02 -0.12807566332E+02  0.38796830129E+02  0.51100000000E-03 0. -1.
         22    1    1    0    0    0 -0.19506570599E+01  0.24483731356E+02  0.16634041163E+02  0.29663942582E+02  0.00000000000E+00 0.  1.
</event>
<event>
 5    1  0.1094625E-009  0.9118800E+02  0.7818608E-02  0.1130116E+00
         25   -1    0    0    0    0  0.00000000000E+00  0.00000000000E+00  0.99999998245E-14  0.12500000000E+03  0.12500000000E+03 0.  0.
        -11    1    3    3    0    0 -0.37148573595E+02  0.34528657764E+02 -0.22955284746E+02  0.55670367568E+02  0.51100000000E-03 0. -1.
         23    2    1    0    0    0 -0.10666999274E+01  0.18035887715E+02 -0.23513342645E+02  0.95346865650E+02  0.90618521355E+02 0.  0.
         11    1    3    3    0    0  0.36081873668E+02 -0.16492770048E+02 -0.55805789952E+00  0.39676498083E+02  0.51100000000E-03 0.  1.
         22    1    1    0    0    0  0.10666999274E+01 -0.18035887715E+02  0.23513342645E+02  0.29653134350E+02  0.00000000000E+00 0. -1.
</event>
<event>
 5    1  0.1094625E-009  0.9118800E+02  0.7818608E-02  0.1130116E+00
         25   -1    0    0    0    0  0.00000000000E+00  0.00000000000E+00  0.99999998245E-14  0.12500000000E+03  0.12500000000E+03 0.  0.
        -11    1    3    3    0    0 -0.20281731441E+02  0.15019280460E+02 -0.50594302095E+02  0.56539462507E+02  0.51100000000E-03 0.  1.
         23    2    1    0    0    0 -0.21056460363E+02 -0.80329516806E+01 -0.19894274462E+02  0.94938646203E+02  0.90053659286E+02 0.  0.
         11    1    3    3    0    0 -0.77472892184E+00 -0.23052232141E+02  0.30700027633E+02  0.38399183696E+02  0.51100000000E-03 0. -1.
         22    1    1    0    0    0  0.21056460363E+02  0.80329516806E+01  0.19894274462E+02  0.30061353797E+02  0.00000000000E+00 0.  1.
</event>
<event>
 5    1  0.1094625E-009  0.9118800E+02  0.7818608E-02  0.1130116E+00
         25   -1    0    0    0    0  0.00000000000E+00  0.00000000000E+00  0.99999998245E-14  0.12500000000E+03  0.12500000000E+03 0.  0.
        -11    1    3    3    0    0 -0.32421964283E+02  0.49168688751E+02  0.18130432314E+02  0.61623504424E+02  0.51100000000E-03 0. -1.
         23    2    1    0    0    0 -0.13708933579E+02  0.25981623065E+02  0.18792273999E+01  0.95563439525E+02  0.90916774477E+02 0.  0.
         11    1    3    3    0    0  0.18713030704E+02 -0.23187065686E+02 -0.16251204914E+02  0.33939935101E+02  0.51100000000E-03 0.  1.
         22    1    1    0    0    0  0.13708933579E+02 -0.25981623065E+02 -0.18792273999E+01  0.29436560475E+02  0.00000000000E+00 0. -1.
</event>
<event>
 5    1  0.1094625E-009  0.9118800E+02  0.7818608E-02  0.1130116E+00
         25   -1    0    0    0    0  0.00000000000E+00  0.00000000000E+00  0.99999998245E-14  0.12500000000E+03  0.12500000000E+03 0.  0.
        -11    1    3    3    0    0 -0.31794754553E+02  0.14515074488E+02 -0.73581526373E+01  0.35717449726E+02  0.51100000000E-03 0.  1.
         23    2    1    0    0    0  0.26177245232E+02  0.15940009919E+02  0.11615794151E+01  0.94329470972E+02  0.89204079183E+02 0.  0.
         11    1    3    3    0    0  0.57971999784E+02  0.14249354309E+01  0.85197320523E+01  0.58612021246E+02  0.51100000000E-03 0. -1.
         22    1    1    0    0    0 -0.26177245232E+02 -0.15940009919E+02 -0.11615794151E+01  0.30670529028E+02  0.00000000000E+00 0. -1.
</event>
<event>
 5    1  0.1094625E-009  0.9118800E+02  0.7818608E-02  0.1130116E+00
         25   -1    0    0    0    0  0.00000000000E+00  0.00000000000E+00  0.99999998245E-14  0.12500000000E+03  0.12500000000E+03 0.  0.
        -11    1    3    3    0    0  0.37096165948E+02  0.39621374686E+02  0.53496542929E+01  0.54539872216E+02  0.51100000000E-03 0. -1.
         23    2    1    0    0    0  0.29315852237E+02 -0.15698407729E-01 -0.20781365905E+01  0.95610578596E+02  0.90981562137E+02 0.  0.
         11    1    3    3    0    0 -0.77803137114E+01 -0.39637073093E+02 -0.74277908834E+01  0.41070706380E+02  0.51100000000E-03 0.  1.
         22    1    1    0    0    0 -0.29315852237E+02  0.15698407729E-01  0.20781365905E+01  0.29389421404E+02  0.00000000000E+00 0. -1.
</event>
<event>
 5    1  0.1094625E-009  0.9118800E+02  0.7818608E-02  0.1130116E+00
         25   -1    0    0    0    0  0.00000000000E+00  0.00000000000E+00  0.99999998245E-14  0.12500000000E+03  0.12500000000E+03 0.  0.
        -11    1    3    3    0    0 -0.17017453870E+02  0.24231042295E+02 -0.21639536729E+02  0.36674332946E+02  0.51100000000E-03 0. -1.
         23    2    1    0    0    0 -0.93844284598E+01 -0.21563620472E+02  0.16095718153E+02  0.96502116425E+02  0.92198314010E+02 0.  0.
         11    1    3    3    0    0  0.76330254102E+01 -0.45794662766E+02  0.37735254882E+02  0.59827783480E+02  0.51100000000E-03 0.  1.
         22    1    1    0    0    0  0.93844284598E+01  0.21563620472E+02 -0.16095718153E+02  0.28497883575E+02  0.00000000000E+00 0.  1.
</event>
<event>
 5    1  0.1094625E-009  0.9118800E+02  0.7818608E-02  0.1130116E+00
         25   -1    0    0    0    0  0.00000000000E+00  0.00000000000E+00  0.99999998245E-14  0.12500000000E+03  0.12500000000E+03 0.  0.
        -11    1    3    3    0    0  0.58301005376E+02  0.19050337944E+02 -0.42618739609E+01  0.61482405398E+02  0.51100000000E-03 0.  1.
         23    2    1    0    0    0  0.23632002492E+02  0.13603720166E+02  0.37388034911E+01  0.97477075088E+02  0.93510794950E+02 0.  0.
         11    1    3    3    0    0 -0.34669002884E+02 -0.54466177782E+01  0.80006774520E+01  0.35994669690E+02  0.51100000000E-03 0. -1.
         22    1    1    0    0    0 -0.23632002492E+02 -0.13603720166E+02 -0.37388034911E+01  0.27522924912E+02  0.00000000000E+00 0.  1.
</event>
<event>
 5    1  0.1094625E-009  0.9118800E+02  0.7818608E-02  0.1130116E+00
         25   -1    0    0    0    0  0.00000000000E+00  0.00000000000E+00  0.99999998245E-14  0.12500000000E+03  0.12500000000E+03 0.  0.
        -11    1    3    3    0    0  0.57145368154E+01  0.16834694737E+02  0.29553220283E+02  0.34488486590E+02  0.51100000000E-03 0.  1.
         23    2    1    0    0    0  0.37297131387E+01  0.15123117114E+02 -0.28457581124E+02  0.92558462509E+02  0.86686882671E+02 0.  0.
         11    1    3    3    0    0 -0.19848236767E+01 -0.17115776234E+01 -0.58010801408E+02  0.58069975919E+02  0.51100000000E-03 0. -1.
         22    1    1    0    0    0 -0.37297131387E+01 -0.15123117114E+02  0.28457581124E+02  0.32441537491E+02  0.00000000000E+00 0. -1.
</event>
<event>
 5    1  0.1094625E-009  0.9118800E+02  0.7818608E-02  0.1130116E+00
         25   -1    0    0    0    0  0.00000000000E+00  0.00000000000E+00  0.99999998245E-14  0.12500000000E+03  0.12500000000E+03 0.  0.
        -11    1    3    3    0    0  0.37774223694E+02 -0.14682940066E+02  0.13519712626E+02  0.42723100712E+02  0.51100000000E-03 0.  1.
         23    2    1    0    0    0  0.16520331697E+02  0.22143737311E+02  0.26026560673E+02  0.87044126648E+02  0.78332826210E+02 0.  0.
         11    1    3    3    0    0 -0.21253891998E+02  0.36826677377E+02  0.12506848047E+02  0.44321025936E+02  0.51100000000E-03 0. -1.
         22    1    1    0    0    0 -0.16520331697E+02 -0.22143737311E+02 -0.26026560673E+02  0.37955873352E+02  0.00000000000E+00 0. -1.
</event>
<event>
 5    1  0.1094625E-009  0.9118800E+02  0.7818608E-02  0.1130116E+00
         25   -1    0    0    0    0  0.00000000000E+00  0.00000000000E+00  0.99999998245E-14  0.12500000000E+03  0.12500000000E+03 0.  0.
        -11    1    3    3    0    0  0.12944891675E+02 -0.14745585430E+02  0.29475438886E+02  0.35409094989E+02  0.51100000000E-03 0. -1.
         23    2    1    0    0    0 -0.80622277748E+01  0.24127172217E+02 -0.12766015790E+02  0.96537900376E+02  0.92246816172E+02 0.  0.
         11    1    3    3    0    0 -0.21007119450E+02  0.38872757647E+02 -0.42241454675E+02  0.61128805387E+02  0.51100000000E-03 0.  1.
         22    1    1    0    0    0  0.80622277748E+01 -0.24127172217E+02  0.12766015790E+02  0.28462099624E+02  0.00000000000E+00 0.  1.
</event>
<event>
 5    1  0.1094625E-009  0.9118800E+02  0.7818608E-02  0.1130116E+00
         25   -1    0    0    0    0  0.00000000000E+00  0.00000000000E+00  0.99999998245E-14  0.12500000000E+03  0.12500000000E+03 0.  0.
        -11    1    3    3    0    0 -0.11216384772E+02 -0.17596387092E+02  0.31203156020E+02  0.37537675366E+02  0.51100000000E-03 0. -1.
         23    2    1    0    0    0  0.27324359454E+02 -0.10607805621E+02 -0.96563495153E+01  0.94139163238E+02  0.88937004726E+02 0.  0.
         11    1    3    3    0    0  0.38540744226E+02  0.69885814707E+01 -0.40859505535E+02  0.56601487872E+02  0.51100000000E-03 0.  1.
         22    1    1    0    0    0 -0.27324359454E+02  0.10607805621E+02  0.96563495153E+01  0.30860836762E+02  0.00000000000E+00 0.  1.
</event>
<event>
 5    1  0.1094625E-009  0.9118800E+02  0.7818608E-02  0.1130116E+00
         25   -1    0    0    0    0  0.00000000000E+00  0.00000000000E+00  0.99999998245E-14  0.12500000000E+03  0.12500000000E+03 0.  0.
        -11    1    3    3    0    0 -0.11689662987E+01  0.37960193004E+02  0.97915017921E+01  0.39220099984E+02  0.51100000000E-03 0.  1.
         23    2    1    0    0    0  0.13214649921E+02 -0.16593267828E+02  0.19166136737E+02  0.96411465460E+02  0.92075329839E+02 0.  0.
         11    1    3    3    0    0  0.14383616220E+02 -0.54553460833E+02  0.93746349444E+01  0.57191365476E+02  0.51100000000E-03 0. -1.
         22    1    1    0    0    0 -0.13214649921E+02  0.16593267828E+02 -0.19166136737E+02  0.28588534540E+02  0.00000000000E+00 0. -1.
</event>
<event>
 5    1  0.1094625E-009  0.9118800E+02  0.7818608E-02  0.1130116E+00
         25   -1    0    0    0    0  0.00000000000E+00  0.00000000000E+00  0.99999998245E-14  0.12500000000E+03  0.12500000000E+03 0.  0.
        -11    1    3    3    0    0  0.41968759135E+02 -0.13213035804E+01 -0.22486284883E+02  0.47631455936E+02  0.51100000000E-03 0. -1.
         23    2    1    0    0    0  0.10013375072E+02 -0.27808892324E+02  0.11972613955E+01  0.95418999215E+02  0.90717968472E+02 0.  0.
         11    1    3    3    0    0 -0.31955384063E+02 -0.26487588743E+02  0.23683546278E+02  0.47787543279E+02  0.51100000000E-03 0.  1.
         22    1    1    0    0    0 -0.10013375072E+02  0.27808892324E+02 -0.11972613955E+01  0.29581000785E+02  0.00000000000E+00 0.  1.
</event>
<event>
 5    1  0.1094625E-009  0.9118800E+02  0.7818608E-02  0.1130116E+00
         25   -1    0    0    0    0  0.00000000000E+00  0.00000000000E+00  0.99999998245E-14  0.12500000000E+03  0.12500000000E+03 0.  0.
        -11    1    3    3    0    0 -0.10710560627E+02 -0.40326307764E+02  0.10187286063E+02  0.42950064079E+02  0.51100000000E-03 0. -1.
         23    2    1    0    0    0  0.25822615367E+02  0.64510327804E+00 -0.16899917644E+01  0.99114102395E+02  0.95674059174E+02 0.  0.
         11    1    3    3    0    0  0.36533175995E+02  0.40971411042E+02 -0.11877277828E+02  0.56164038316E+02  0.51100000000E-03 0.  1.
         22    1    1    0    0    0 -0.25822615367E+02 -0.64510327804E+00  0.16899917644E+01  0.25885897605E+02  0.00000000000E+00 0.  1.
</event>
<event>
 5    1  0.1094625E-009  0.9118800E+02  0.7818608E-02  0.1130116E+00
         25   -1    0    0    0    0  0.00000000000E+00  0.00000000000E+00  0.99999998245E-14  0.12500000000E+03  0.12500000000E+03 0.  0.
        -11    1    3    3    0    0  0.11178312217E+02 -0.33119542936E+02  0.16267290017E+02  0.38554941487E+02  0.51100000000E-03 0.  1.
         23    2    1    0    0    0 -0.29229595810E+02  0.40432514732E+01  0.12725072042E+01  0.95464657979E+02  0.90780859739E+02 0.  0.
         11    1    3    3    0    0 -0.40407908027E+02  0.37162794409E+02 -0.14994782812E+02  0.56909716493E+02  0.51100000000E-03 0. -1.
         22    1    1    0    0    0  0.29229595810E+02 -0.40432514732E+01 -0.12725072042E+01  0.29535342021E+02  0.00000000000E+00 0. -1.
</event>
<event>
 5    1  0.1094625E-009  0.9118800E+02  0.7818608E-02  0.1130116E+00
         25   -1    0    0    0    0  0.00000000000E+00  0.00000000000E+00  0.99999998245E-14  0.12500000000E+03  0.12500000000E+03 0.  0.
        -11    1    3    3    0    0 -0.27727678883E+02 -0.18125557848E+02  0.14025054837E+02  0.35973075862E+02  0.51100000000E-03 0. -1.
         23    2    1    0    0    0  0.26334268942E+02  0.77291516884E+01  0.90315454839E+01  0.96107054142E+02  0.91661134269E+02 0.  0.
         11    1    3    3    0    0  0.54061947825E+02  0.25854709537E+02 -0.49935093526E+01  0.60133978280E+02  0.51100000000E-03 0.  1.
         22    1    1    0    0    0 -0.26334268942E+02 -0.77291516884E+01 -0.90315454839E+01  0.28892945858E+02  0.00000000000E+00 0.  1.
</event>
<event>
 5    1  0.1094625E-009  0.9118800E+02  0.7818608E-02  0.1130116E+00
         25   -1    0    0    0    0  0.00000000000E+00  0.00000000000E+00  0.99999998245E-14  0.12500000000E+03  0.12500000000E+03 0.  0.
        -11    1    3    3    0    0 -0.32262985634E+02 -0.25689802634E+02  0.38404311571E+01  0.41419984466E+02  0.51100000000E-03 0. -1.
         23    2    1    0    0    0  0.20092973126E+02 -0.19410619376E+02 -0.89199852883E+01  0.95673120672E+02  0.91067448454E+02 0.  0.
         11    1    3    3    0    0  0.52355958760E+02  0.62791832585E+01 -0.12760416445E+02  0.54253136206E+02  0.51100000000E-03 0.  1.
         22    1    1    0    0    0 -0.20092973126E+02  0.19410619376E+02  0.89199852883E+01  0.29326879328E+02  0.00000000000E+00 0.  1.
</event>
<event>
 5    1  0.1094625E-009  0.9118800E+02  0.7818608E-02  0.1130116E+00
         25   -1    0    0    0    0  0.00000000000E+00  0.00000000000E+00  0.99999998245E-14  0.12500000000E+03  0.12500000000E+03 0.  0.
        -11    1    3    3    0    0  0.40951899410E+02 -0.15091806744E+02 -0.55169433693E+01  0.43991560105E+02  0.51100000000E-03 0.  1.
         23    2    1    0    0    0  0.13129624910E+02  0.19319239905E+02  0.19275764758E+02  0.94715099674E+02  0.89742826557E+02 0.  0.
         11    1    3    3    0    0 -0.27822274500E+02  0.34411046648E+02  0.24792708127E+02  0.50723539568E+02  0.51100000000E-03 0. -1.
         22    1    1    0    0    0 -0.13129624910E+02 -0.19319239905E+02 -0.19275764758E+02  0.30284900326E+02  0.00000000000E+00 0.  1.
</event>
<event>
 5    1  0.1094625E-009  0.9118800E+02  0.7818608E-02  0.1130116E+00
         25   -1    0    0    0    0  0.00000000000E+00  0.00000000000E+00  0.99999998245E-14  0.12500000000E+03  0.12500000000E+03 0.  0.
        -11    1    3    3    0    0 -0.25027062614E+02 -0.39619822735E+02 -0.12975976603E+01  0.46880358111E+02  0.51100000000E-03 0.  1.
         23    2    1    0    0    0 -0.17865080219E+02 -0.32866596042E+01 -0.27356172442E+02  0.92162165217E+02  0.86113537288E+02 0.  0.
         11    1    3    3    0    0  0.71619823947E+01  0.36333163131E+02 -0.26058574781E+02  0.45281807106E+02  0.51100000000E-03 0. -1.
         22    1    1    0    0    0  0.17865080219E+02  0.32866596042E+01  0.27356172442E+02  0.32837834783E+02  0.00000000000E+00 0. -1.
</event>
<event>
 5    1  0.1094625E-009  0.9118800E+02  0.7818608E-02  0.1130116E+00
         25   -1    0    0    0    0  0.00000000000E+00  0.00000000000E+00  0.99999998245E-14  0.12500000000E+03  0.12500000000E+03 0.  0.
        -11    1    3    3    0    0 -0.39119525037E+02 -0.47517238570E+01  0.77827485336E+01  0.40168237374E+02  0.51100000000E-03 0. -1.
         23    2    1    0    0    0  0.16042603561E+02  0.18530417057E+02  0.48851304031E+00  0.10048510391E+03  0.97448837743E+02 0.  0.
         11    1    3    3    0    0  0.55162128598E+02  0.23282140914E+02 -0.72942354933E+01  0.60316866536E+02  0.51100000000E-03 0.  1.
         22    1    1    0    0    0 -0.16042603561E+02 -0.18530417057E+02 -0.48851304031E+00  0.24514896090E+02  0.00000000000E+00 0.  1.
</event>
<event>
 5    1  0.1094625E-009  0.9118800E+02  0.7818608E-02  0.1130116E+00
         25   -1    0    0    0    0  0.00000000000E+00  0.00000000000E+00  0.99999998245E-14  0.12500000000E+03  0.12500000000E+03 0.  0.
        -11    1    3    3    0    0 -0.14173418879E+02  0.43602136060E+02 -0.17439550108E+02  0.49052726529E+02  0.51100000000E-03 0.  1.
         23    2    1    0    0    0 -0.49474207367E+01 -0.31048654385E+00 -0.29153647955E+02  0.95427909054E+02  0.90730244481E+02 0.  0.
         11    1    3    3    0    0  0.92259981424E+01 -0.43912622604E+02 -0.11714097847E+02  0.46375182525E+02  0.51100000000E-03 0. -1.
         22    1    1    0    0    0  0.49474207367E+01  0.31048654385E+00  0.29153647955E+02  0.29572090946E+02  0.00000000000E+00 0. -1.
</event>
<event>
 5    1  0.1094625E-009  0.9118800E+02  0.7818608E-02  0.1130116E+00
         25   -1    0    0    0    0  0.00000000000E+00  0.00000000000E+00  0.99999998245E-14  0.12500000000E+03  0.12500000000E+03 0.  0.
        -11    1    3    3    0    0 -0.20480123104E+02  0.43164060234E+02 -0.39055398875E+02  0.61708149542E+02  0.51100000000E-03 0.  1.
         23    2    1    0    0    0 -0.13250719025E+02  0.22282102056E+02 -0.12608286179E+02  0.96172192121E+02  0.91749921146E+02 0.  0.
         11    1    3    3    0    0  0.72294040787E+01 -0.20881958179E+02  0.26447112696E+02  0.34464042580E+02  0.51100000000E-03 0. -1.
         22    1    1    0    0    0  0.13250719025E+02 -0.22282102056E+02  0.12608286179E+02  0.28827807879E+02  0.00000000000E+00 0.  1.
</event>
<event>
 5    1  0.1094625E-009  0.9118800E+02  0.7818608E-02  0.1130116E+00
         25   -1    0    0    0    0  0.00000000000E+00  0.00000000000E+00  0.99999998245E-14  0.12500000000E+03  0.12500000000E+03 0.  0.
        -11    1    3    3    0    0  0.25395691865E+02  0.24887020449E+01 -0.33799133364E+02  0.42349925851E+02  0.51100000000E-03 0. -1.
         23    2    1    0    0    0 -0.14482428310E+01  0.28858281378E+02  0.41694582242E+01  0.95806127470E+02  0.91249832151E+02 0.  0.
         11    1    3    3    0    0 -0.26843934696E+02  0.26369579333E+02  0.37968591588E+02  0.53456201620E+02  0.51100000000E-03 0.  1.
         22    1    1    0    0    0  0.14482428310E+01 -0.28858281378E+02 -0.41694582242E+01  0.29193872530E+02  0.00000000000E+00 0. -1.
</event>
<event>
 5    1  0.1094625E-009  0.9118800E+02  0.7818608E-02  0.1130116E+00
         25   -1    0    0    0    0  0.00000000000E+00  0.00000000000E+00  0.99999998245E-14  0.12500000000E+03  0.12500000000E+03 0.  0.
        -11    1    3    3    0    0  0.22092840135E+01 -0.15283368143E+02  0.45135481708E+02  0.47704024850E+02  0.51100000000E-03 0.  1.
         23    2    1    0    0    0  0.23784630522E+02 -0.10033217169E+02 -0.12764229509E+01  0.99154239199E+02  0.95726484317E+02 0.  0.
         11    1    3    3    0    0  0.21575346509E+02  0.52501509740E+01 -0.46411904659E+02  0.51450214349E+02  0.51100000000E-03 0. -1.
         22    1    1    0    0    0 -0.23784630522E+02  0.10033217169E+02  0.12764229509E+01  0.25845760801E+02  0.00000000000E+00 0.  1.
</event>
<event>
 5    1  0.1094625E-009  0.9118800E+02  0.7818608E-02  0.1130116E+00
         25   -1    0    0    0    0  0.00000000000E+00  0.00000000000E+00  0.99999998245E-14  0.12500000000E+03  0.12500000000E+03 0.  0.
        -11    1    3    3    0    0 -0.14001392084E+02  0.34885426598E+02  0.11282261627E+02  0.39246928503E+02  0.51100000000E-03 0.  1.
         23    2    1    0    0    0 -0.15664253310E+02 -0.50984248859E+01 -0.26183068319E+02  0.94065943773E+02  0.88834035950E+02 0.  0.
         11    1    3    3    0    0 -0.16628612263E+01 -0.39983851484E+02 -0.37465329946E+02  0.54819015270E+02  0.51100000000E-03 0. -1.
         22    1    1    0    0    0  0.15664253310E+02  0.50984248859E+01  0.26183068319E+02  0.30934056227E+02  0.00000000000E+00 0. -1.
</event>
<event>
 5    1  0.1094625E-009  0.9118800E+02  0.7818608E-02  0.1130116E+00
         25   -1    0    0    0    0  0.00000000000E+00  0.00000000000E+00  0.99999998245E-14  0.12500000000E+03  0.12500000000E+03 0.  0.
        -11    1    3    3    0    0 -0.58468238484E+02 -0.20478767213E+02  0.61830159587E+01  0.62258690193E+02  0.51100000000E-03 0.  1.
         23    2    1    0    0    0 -0.27822941833E+02 -0.88559018676E+01  0.67194564238E+01  0.95038454900E+02  0.90192093473E+02 0.  0.
         11    1    3    3    0    0  0.30645296651E+02  0.11622865345E+02  0.53644046506E+00  0.32779764707E+02  0.51100000000E-03 0. -1.
         22    1    1    0    0    0  0.27822941833E+02  0.88559018676E+01 -0.67194564238E+01  0.29961545100E+02  0.00000000000E+00 0.  1.
</event>
<event>
 5    1  0.1094625E-009  0.9118800E+02  0.7818608E-02  0.1130116E+00
         25   -1    0    0    0    0  0.00000000000E+00  0.00000000000E+00  0.99999998245E-14  0.12500000000E+03  0.12500000000E+03 0.  0.
        -11    1    3    3    0    0  0.13736529007E+02 -0.21648512969E+02 -0.48153431190E+02  0.54553673374E+02  0.51100000000E-03 0.  1.
         23    2    1    0    0    0  0.71030034454E+01  0.12540358360E+02 -0.24237627304E+02  0.96801137912E+02  0.92602831911E+02 0.  0.
         11    1    3    3    0    0 -0.66335255615E+01  0.34188871329E+02  0.23915803886E+02  0.42247464538E+02  0.51100000000E-03 0. -1.
         22    1    1    0    0    0 -0.71030034454E+01 -0.12540358360E+02  0.24237627304E+02  0.28198862088E+02  0.00000000000E+00 0. -1.
</event>
<event>
 5    1  0.1094625E-009  0.9118800E+02  0.7818608E-02  0.1130116E+00
         25   -1    0    0    0    0  0.00000000000E+00  0.00000000000E+00  0.99999998245E-14  0.12500000000E+03  0.12500000000E+03 0.  0.
        -11    1    3    3    0    0  0.20686818087E+01 -0.42262991401E+02  0.13487101796E+02  0.44411054950E+02  0.51100000000E-03 0.  1.
         23    2    1    0    0    0 -0.20291274548E+02  0.38687687199E+01  0.20193141367E+02  0.96112872201E+02  0.91669068122E+02 0.  0.
         11    1    3    3    0    0 -0.22359956357E+02  0.46131760121E+02  0.67060395707E+01  0.51701817252E+02  0.51100000000E-03 0. -1.
         22    1    1    0    0    0  0.20291274548E+02 -0.38687687199E+01 -0.20193141367E+02  0.28887127799E+02  0.00000000000E+00 0. -1.
</event>
<event>
 5    1  0.1094625E-009  0.9118800E+02  0.7818608E-02  0.1130116E+00
         25   -1    0    0    0    0  0.00000000000E+00  0.00000000000E+00  0.99999998245E-14  0.12500000000E+03  0.12500000000E+03 0.  0.
        -11    1    3    3    0    0 -0.22812215119E+02  0.32626563506E+02  0.10758466119E+02  0.41238748748E+02  0.51100000000E-03 0.  1.
         23    2    1    0    0    0 -0.17264645526E+02 -0.21942040401E+02  0.29046240166E+00  0.97078583659E+02  0.92976587992E+02 0.  0.
         11    1    3    3    0    0  0.55475695923E+01 -0.54568603907E+02 -0.10468003717E+02  0.55839834910E+02  0.51100000000E-03 0. -1.
         22    1    1    0    0    0  0.17264645526E+02  0.21942040401E+02 -0.29046240166E+00  0.27921416341E+02  0.00000000000E+00 0. -1.
</event>
<event>
 5    1  0.1094625E-009  0.9118800E+02  0.7818608E-02  0.1130116E+00
         25   -1    0    0    0    0  0.00000000000E+00  0.00000000000E+00  0.99999998245E-14  0.12500000000E+03  0.12500000000E+03 0.  0.
        -11    1    3    3    0    0  0.36932433008E+02 -0.82034297597E+01  0.35530746792E+00  0.37834205573E+02  0.51100000000E-03 0.  1.
         23    2    1    0    0    0 -0.16318239005E+02 -0.51408212570E+01 -0.23225777287E+02  0.96152994991E+02  0.91723763267E+02 0.  0.
         11    1    3    3    0    0 -0.53250672013E+02  0.30626085028E+01 -0.23581084754E+02  0.58318789418E+02  0.51100000000E-03 0. -1.
         22    1    1    0    0    0  0.16318239005E+02  0.51408212570E+01  0.23225777287E+02  0.28847005009E+02  0.00000000000E+00 0. -1.
</event>
<event>
 5    1  0.1094625E-009  0.9118800E+02  0.7818608E-02  0.1130116E+00
         25   -1    0    0    0    0  0.00000000000E+00  0.00000000000E+00  0.99999998245E-14  0.12500000000E+03  0.12500000000E+03 0.  0.
        -11    1    3    3    0    0 -0.22530812646E+02 -0.51334982033E+01  0.51516963843E+02  0.56462269580E+02  0.51100000000E-03 0. -1.
         23    2    1    0    0    0 -0.12605037994E+02 -0.20226411294E+02  0.16043295322E+02  0.96270537398E+02  0.91883808962E+02 0.  0.
         11    1    3    3    0    0  0.99257746522E+01 -0.15092913090E+02 -0.35473668521E+02  0.39808267817E+02  0.51100000000E-03 0.  1.
         22    1    1    0    0    0  0.12605037994E+02  0.20226411294E+02 -0.16043295322E+02  0.28729462602E+02  0.00000000000E+00 0. -1.
</event>
<event>
 5    1  0.1094625E-009  0.9118800E+02  0.7818608E-02  0.1130116E+00
         25   -1    0    0    0    0  0.00000000000E+00  0.00000000000E+00  0.99999998245E-14  0.12500000000E+03  0.12500000000E+03 0.  0.
        -11    1    3    3    0    0  0.76471859836E+01 -0.37118156836E+02 -0.18126018003E+02  0.42009398345E+02  0.51100000000E-03 0.  1.
         23    2    1    0    0    0  0.88602833987E+01  0.19929458111E+02 -0.13705645172E+02  0.99240872839E+02  0.95839544081E+02 0.  0.
         11    1    3    3    0    0  0.12130974151E+01  0.57047614948E+02  0.44203728307E+01  0.57231474494E+02  0.51100000000E-03 0. -1.
         22    1    1    0    0    0 -0.88602833987E+01 -0.19929458111E+02  0.13705645172E+02  0.25759127161E+02  0.00000000000E+00 0. -1.
</event>
<event>
 5    1  0.1094625E-009  0.9118800E+02  0.7818608E-02  0.1130116E+00
         25   -1    0    0    0    0  0.00000000000E+00  0.00000000000E+00  0.99999998245E-14  0.12500000000E+03  0.12500000000E+03 0.  0.
        -11    1    3    3    0    0 -0.18088189742E+02 -0.70948897031E+01  0.29639034844E+02  0.35439983843E+02  0.51100000000E-03 0.  1.
         23    2    1    0    0    0  0.26926201804E+01 -0.32150669692E+01 -0.27924405472E+02  0.96762449114E+02  0.92550593075E+02 0.  0.
         11    1    3    3    0    0  0.20780809923E+02  0.38798227338E+01 -0.57563440317E+02  0.61322465271E+02  0.51100000000E-03 0. -1.
         22    1    1    0    0    0 -0.26926201804E+01  0.32150669692E+01  0.27924405472E+02  0.28237550886E+02  0.00000000000E+00 0. -1.
</event>
<event>
 5    1  0.1094625E-009  0.9118800E+02  0.7818608E-02  0.1130116E+00
         25   -1    0    0    0    0  0.00000000000E+00  0.00000000000E+00  0.99999998245E-14  0.12500000000E+03  0.12500000000E+03 0.  0.
        -11    1    3    3    0    0 -0.40065894185E+02  0.17159921606E+02 -0.37663700365E+02  0.57604627520E+02  0.51100000000E-03 0.  1.
         23    2    1    0    0    0 -0.19221652933E+02 -0.86744487746E+01 -0.22699100421E+02  0.94016663141E+02  0.88764665184E+02 0.  0.
         11    1    3    3    0    0  0.20844241252E+02 -0.25834370380E+02  0.14964599944E+02  0.36412035621E+02  0.51100000000E-03 0. -1.
         22    1    1    0    0    0  0.19221652933E+02  0.86744487746E+01  0.22699100421E+02  0.30983336859E+02  0.00000000000E+00 0.  1.
</event>
<event>
 5    1  0.1094625E-009  0.9118800E+02  0.7818608E-02  0.1130116E+00
         25   -1    0    0    0    0  0.00000000000E+00  0.00000000000E+00  0.99999998245E-14  0.12500000000E+03  0.12500000000E+03 0.  0.
        -11    1    3    3    0    0  0.37324809863E+02 -0.34647155215E+02  0.62006370528E+00  0.50930847971E+02  0.51100000000E-03 0. -1.
         23    2    1    0    0    0  0.11687103991E+01 -0.23207145242E+02  0.20734163867E+02  0.93857697170E+02  0.88540523448E+02 0.  0.
         11    1    3    3    0    0 -0.36156099464E+02  0.11440009973E+02  0.20114100162E+02  0.42926849199E+02  0.51100000000E-03 0.  1.
         22    1    1    0    0    0 -0.11687103991E+01  0.23207145242E+02 -0.20734163867E+02  0.31142302830E+02  0.00000000000E+00 0.  1.
</event>
<event>
 5    1  0.1094625E-009  0.9118800E+02  0.7818608E-02  0.1130116E+00
         25   -1    0    0    0    0  0.00000000000E+00  0.00000000000E+00  0.99999998245E-14  0.12500000000E+03  0.12500000000E+03 0.  0.
        -11    1    3    3    0    0  0.26280095923E+02  0.20323001839E+02  0.68606329017E+01  0.33922501817E+02  0.51100000000E-03 0.  1.
         23    2    1    0    0    0 -0.51022407750E+01 -0.18057922931E+02 -0.25657245439E+02  0.93212963570E+02  0.87625572138E+02 0.  0.
         11    1    3    3    0    0 -0.31382336698E+02 -0.38380924770E+02 -0.32517878341E+02  0.59290461753E+02  0.51100000000E-03 0. -1.
         22    1    1    0    0    0  0.51022407750E+01  0.18057922931E+02  0.25657245439E+02  0.31787036430E+02  0.00000000000E+00 0. -1.
</event>
<event>
 4    1  0.1094625E-009  0.9118800E+02  0.7818608E-02  0.1130116E+00
         25   -1    0    0    0    0  0.00000000000E+00  0.00000000000E+00  0.99999998245E-14  0.12500000000E+03  0.12500000000E+03 0.  0.
        -11    1    1    0    0    0 -0.10900751498E+02 -0.12851975561E+01 -0.10009369533E+02  0.14854817222E+02  0.51100000000E-03 0.  1.
         11    1    1    0    0    0 -0.35802518890E+02  0.19993492410E+02 -0.25749336912E+02  0.48420950520E+02  0.51100000000E-03 0. -1.
         22    1    1    0    0    0  0.46703270389E+02 -0.18708294854E+02  0.35758706444E+02  0.61724232258E+02  0.00000000000E+00 0.  1.
</event>
<event>
 5    1  0.1094625E-009  0.9118800E+02  0.7818608E-02  0.1130116E+00
         25   -1    0    0    0    0  0.00000000000E+00  0.00000000000E+00  0.99999998245E-14  0.12500000000E+03  0.12500000000E+03 0.  0.
        -11    1    3    3    0    0 -0.23423483398E+02  0.23779435015E+02  0.47380447337E+02  0.57957121170E+02  0.51100000000E-03 0. -1.
         23    2    1    0    0    0 -0.24840734875E+02  0.92878325930E+01  0.12648297546E+02  0.95617941287E+02  0.90991677212E+02 0.  0.
         11    1    3    3    0    0 -0.14172514763E+01 -0.14491602422E+02 -0.34732149791E+02  0.37660820117E+02  0.51100000000E-03 0.  1.
         22    1    1    0    0    0  0.24840734875E+02 -0.92878325930E+01 -0.12648297546E+02  0.29382058713E+02  0.00000000000E+00 0. -1.
</event>
<event>
 5    1  0.1094625E-009  0.9118800E+02  0.7818608E-02  0.1130116E+00
         25   -1    0    0    0    0  0.00000000000E+00  0.00000000000E+00  0.99999998245E-14  0.12500000000E+03  0.12500000000E+03 0.  0.
        -11    1    3    3    0    0 -0.25918104718E+01  0.41164457139E+02 -0.46351991674E+02  0.62046250051E+02  0.51100000000E-03 0. -1.
         23    2    1    0    0    0  0.37295582896E+01  0.20463988013E+02 -0.20048020745E+02  0.96110424956E+02  0.91665730996E+02 0.  0.
         11    1    3    3    0    0  0.63213687615E+01 -0.20700469126E+02  0.26303970929E+02  0.34064174905E+02  0.51100000000E-03 0.  1.
         22    1    1    0    0    0 -0.37295582896E+01 -0.20463988013E+02  0.20048020745E+02  0.28889575044E+02  0.00000000000E+00 0. -1.
</event>
<event>
 5    1  0.1094625E-009  0.9118800E+02  0.7818608E-02  0.1130116E+00
         25   -1    0    0    0    0  0.00000000000E+00  0.00000000000E+00  0.99999998245E-14  0.12500000000E+03  0.12500000000E+03 0.  0.
        -11    1    3    3    0    0 -0.37491282120E+02  0.13564983620E+02 -0.68687388670E+01  0.40457194533E+02  0.51100000000E-03 0.  1.
         23    2    1    0    0    0  0.28961320147E+01  0.25034248759E+01  0.29094017534E+02  0.95655212166E+02  0.91042863759E+02 0.  0.
         11    1    3    3    0    0  0.40387414135E+02 -0.11061558744E+02  0.35962756401E+02  0.55198017633E+02  0.51100000000E-03 0. -1.
         22    1    1    0    0    0 -0.28961320147E+01 -0.25034248759E+01 -0.29094017534E+02  0.29344787834E+02  0.00000000000E+00 0. -1.
</event>
<event>
 5    1  0.1094625E-009  0.9118800E+02  0.7818608E-02  0.1130116E+00
         25   -1    0    0    0    0  0.00000000000E+00  0.00000000000E+00  0.99999998245E-14  0.12500000000E+03  0.12500000000E+03 0.  0.
        -11    1    3    3    0    0  0.25166204179E+02 -0.16065244760E+02 -0.49351905981E+02  0.57680504039E+02  0.51100000000E-03 0. -1.
         23    2    1    0    0    0 -0.47491039744E+01 -0.12572822071E+02 -0.25781858811E+02  0.95925370387E+02  0.91413032970E+02 0.  0.
         11    1    3    3    0    0 -0.29915308153E+02  0.34924226899E+01  0.23570047170E+02  0.38244866348E+02  0.51100000000E-03 0.  1.
         22    1    1    0    0    0  0.47491039744E+01  0.12572822071E+02  0.25781858811E+02  0.29074629613E+02  0.00000000000E+00 0. -1.
</event>
<event>
 5    1  0.1094625E-009  0.9118800E+02  0.7818608E-02  0.1130116E+00
         25   -1    0    0    0    0  0.00000000000E+00  0.00000000000E+00  0.99999998245E-14  0.12500000000E+03  0.12500000000E+03 0.  0.
        -11    1    3    3    0    0  0.15306816185E+02 -0.33230052122E+02  0.19532128611E+02  0.41473353302E+02  0.51100000000E-03 0.  1.
         23    2    1    0    0    0 -0.92497949702E+01 -0.10956240950E+02 -0.24512833100E+02  0.96601462901E+02  0.92332907055E+02 0.  0.
         11    1    3    3    0    0 -0.24556611155E+02  0.22273811172E+02 -0.44044961711E+02  0.55128109599E+02  0.51100000000E-03 0. -1.
         22    1    1    0    0    0  0.92497949702E+01  0.10956240950E+02  0.24512833100E+02  0.28398537099E+02  0.00000000000E+00 0. -1.
</event>
<event>
 5    1  0.1094625E-009  0.9118800E+02  0.7818608E-02  0.1130116E+00
         25   -1    0    0    0    0  0.00000000000E+00  0.00000000000E+00  0.99999998245E-14  0.12500000000E+03  0.12500000000E+03 0.  0.
        -11    1    3    3    0    0  0.29445708542E+02  0.24346081065E+02  0.72492864879E+01  0.38888733196E+02  0.51100000000E-03 0. -1.
         23    2    1    0    0    0  0.67765196505E+01 -0.12718242651E+02 -0.27121672711E+02  0.94287461106E+02  0.89145192111E+02 0.  0.
         11    1    3    3    0    0 -0.22669188891E+02 -0.37064323716E+02 -0.34370959199E+02  0.55398727910E+02  0.51100000000E-03 0.  1.
         22    1    1    0    0    0 -0.67765196505E+01  0.12718242651E+02  0.27121672711E+02  0.30712538894E+02  0.00000000000E+00 0.  1.
</event>
<event>
 5    1  0.1094625E-009  0.9118800E+02  0.7818608E-02  0.1130116E+00
         25   -1    0    0    0    0  0.00000000000E+00  0.00000000000E+00  0.99999998245E-14  0.12500000000E+03  0.12500000000E+03 0.  0.
        -11    1    3    3    0    0  0.29983321190E+02  0.21915841768E+02 -0.64499253152E+01  0.37694896297E+02  0.51100000000E-03 0. -1.
         23    2    1    0    0    0 -0.99278686798E+01 -0.48890315860E+00  0.28198830160E+02  0.95100574834E+02  0.90278146351E+02 0.  0.
         11    1    3    3    0    0 -0.39911189870E+02 -0.22404744927E+02  0.34648755476E+02  0.57405678537E+02  0.51100000000E-03 0.  1.
         22    1    1    0    0    0  0.99278686798E+01  0.48890315860E+00 -0.28198830160E+02  0.29899425166E+02  0.00000000000E+00 0.  1.
</event>
<event>
 5    1  0.1094625E-009  0.9118800E+02  0.7818608E-02  0.1130116E+00
         25   -1    0    0    0    0  0.00000000000E+00  0.00000000000E+00  0.99999998245E-14  0.12500000000E+03  0.12500000000E+03 0.  0.
        -11    1    3    3    0    0 -0.46324058623E+02  0.15677121606E+02  0.34677227013E+01  0.49027702884E+02  0.51100000000E-03 0.  1.
         23    2    1    0    0    0 -0.11001375933E+02 -0.42539082389E+00  0.27975234415E+02  0.94936318084E+02  0.90050427656E+02 0.  0.
         11    1    3    3    0    0  0.35322682689E+02 -0.16102512430E+02  0.24507511713E+02  0.45908615200E+02  0.51100000000E-03 0. -1.
         22    1    1    0    0    0  0.11001375933E+02  0.42539082389E+00 -0.27975234415E+02  0.30063681916E+02  0.00000000000E+00 0.  1.
</event>
<event>
 5    1  0.1094625E-009  0.9118800E+02  0.7818608E-02  0.1130116E+00
         25   -1    0    0    0    0  0.00000000000E+00  0.00000000000E+00  0.99999998245E-14  0.12500000000E+03  0.12500000000E+03 0.  0.
        -11    1    3    3    0    0  0.90601898914E+01 -0.37183017565E+02 -0.37283374190E+02  0.53429522059E+02  0.51100000000E-03 0.  1.
         23    2    1    0    0    0  0.20743208669E+02  0.99258222582E-01 -0.20115310765E+02  0.96105082017E+02  0.91658444806E+02 0.  0.
         11    1    3    3    0    0  0.11683018778E+02  0.37282275788E+02  0.17168063425E+02  0.42675559958E+02  0.51100000000E-03 0. -1.
         22    1    1    0    0    0 -0.20743208669E+02 -0.99258222582E-01  0.20115310765E+02  0.28894917983E+02  0.00000000000E+00 0.  1.
</event>
<event>
 5    1  0.1094625E-009  0.9118800E+02  0.7818608E-02  0.1130116E+00
         25   -1    0    0    0    0  0.00000000000E+00  0.00000000000E+00  0.99999998245E-14  0.12500000000E+03  0.12500000000E+03 0.  0.
        -11    1    3    3    0    0 -0.21967188578E+02 -0.48303940189E+02  0.25676327100E+02  0.58949993939E+02  0.51100000000E-03 0. -1.
         23    2    1    0    0    0 -0.67827603168E+01 -0.14954852356E+02  0.24366523300E+02  0.95616656007E+02  0.90989911538E+02 0.  0.
         11    1    3    3    0    0  0.15184428261E+02  0.33349087833E+02 -0.13098038006E+01  0.36666662068E+02  0.51100000000E-03 0.  1.
         22    1    1    0    0    0  0.67827603168E+01  0.14954852356E+02 -0.24366523300E+02  0.29383343993E+02  0.00000000000E+00 0. -1.
</event>
<event>
 5    1  0.1094625E-009  0.9118800E+02  0.7818608E-02  0.1130116E+00
         25   -1    0    0    0    0  0.00000000000E+00  0.00000000000E+00  0.99999998245E-14  0.12500000000E+03  0.12500000000E+03 0.  0.
        -11    1    3    3    0    0 -0.43269033059E+02 -0.14606206141E+02 -0.38292924588E+02  0.59597806616E+02  0.51100000000E-03 0. -1.
         23    2    1    0    0    0 -0.19791996557E+02  0.42151595834E+01 -0.25880311828E+02  0.92147583980E+02  0.86092368971E+02 0.  0.
         11    1    3    3    0    0  0.23477036502E+02  0.18821365725E+02  0.12412612760E+02  0.32549777364E+02  0.51100000000E-03 0.  1.
         22    1    1    0    0    0  0.19791996557E+02 -0.42151595834E+01  0.25880311828E+02  0.32852416020E+02  0.00000000000E+00 0. -1.
</event>
<event>
 5    1  0.1094625E-009  0.9118800E+02  0.7818608E-02  0.1130116E+00
         25   -1    0    0    0    0  0.00000000000E+00  0.00000000000E+00  0.99999998245E-14  0.12500000000E+03  0.12500000000E+03 0.  0.
        -11    1    3    3    0    0 -0.23912151683E+02 -0.20082701092E+02 -0.28712718107E+02  0.42420821098E+02  0.51100000000E-03 0.  1.
         23    2    1    0    0    0 -0.20791854438E+02  0.65918186179E+01  0.18276438357E+02  0.96543340276E+02  0.92254187271E+02 0.  0.
         11    1    3    3    0    0  0.31202972455E+01  0.26674519710E+02  0.46989156464E+02  0.54122519178E+02  0.51100000000E-03 0. -1.
         22    1    1    0    0    0  0.20791854438E+02 -0.65918186179E+01 -0.18276438357E+02  0.28456659724E+02  0.00000000000E+00 0.  1.
</event>
<event>
 5    1  0.1094625E-009  0.9118800E+02  0.7818608E-02  0.1130116E+00
         25   -1    0    0    0    0  0.00000000000E+00  0.00000000000E+00  0.99999998245E-14  0.12500000000E+03  0.12500000000E+03 0.  0.
        -11    1    3    3    0    0  0.22775887683E+02 -0.21746872931E+02 -0.17957678617E+02  0.36251148445E+02  0.51100000000E-03 0.  1.
         23    2    1    0    0    0 -0.12618283924E+02 -0.25880960548E+00  0.25667148180E+02  0.96397717446E+02  0.92056663863E+02 0.  0.
         11    1    3    3    0    0 -0.35394171607E+02  0.21488063326E+02  0.43624826797E+02  0.60146569001E+02  0.51100000000E-03 0. -1.
         22    1    1    0    0    0  0.12618283924E+02  0.25880960548E+00 -0.25667148180E+02  0.28602282554E+02  0.00000000000E+00 0. -1.
</event>
<event>
 5    1  0.1094625E-009  0.9118800E+02  0.7818608E-02  0.1130116E+00
         25   -1    0    0    0    0  0.00000000000E+00  0.00000000000E+00  0.99999998245E-14  0.12500000000E+03  0.12500000000E+03 0.  0.
        -11    1    3    3    0    0 -0.82279181478E+01  0.57827357886E+02 -0.17911130180E+02  0.61094275850E+02  0.51100000000E-03 0.  1.
         23    2    1    0    0    0 -0.12875159057E+02  0.25074341035E+02 -0.66509947733E+01  0.96039198378E+02  0.91568551341E+02 0.  0.
         11    1    3    3    0    0 -0.46472409093E+01 -0.32753016850E+02  0.11260135407E+02  0.34944922528E+02  0.51100000000E-03 0. -1.
         22    1    1    0    0    0  0.12875159057E+02 -0.25074341035E+02  0.66509947733E+01  0.28960801622E+02  0.00000000000E+00 0.  1.
</event>
<event>
 5    1  0.1094625E-009  0.9118800E+02  0.7818608E-02  0.1130116E+00
         25   -1    0    0    0    0  0.00000000000E+00  0.00000000000E+00  0.99999998245E-14  0.12500000000E+03  0.12500000000E+03 0.  0.
        -11    1    3    3    0    0  0.30920053120E+02 -0.19079811331E+02 -0.40568647301E+02  0.54460114115E+02  0.51100000000E-03 0. -1.
         23    2    1    0    0    0  0.34805622977E+01  0.81553080157E+01 -0.28789755430E+02  0.94875701163E+02  0.89966245285E+02 0.  0.
         11    1    3    3    0    0 -0.27439490822E+02  0.27235119347E+02  0.11778891871E+02  0.40415587048E+02  0.51100000000E-03 0.  1.
         22    1    1    0    0    0 -0.34805622977E+01 -0.81553080157E+01  0.28789755430E+02  0.30124298837E+02  0.00000000000E+00 0. -1.
</event>
<event>
 5    1  0.1094625E-009  0.9118800E+02  0.7818608E-02  0.1130116E+00
         25   -1    0    0    0    0  0.00000000000E+00  0.00000000000E+00  0.99999998245E-14  0.12500000000E+03  0.12500000000E+03 0.  0.
        -11    1    3    3    0    0 -0.44881223842E+02  0.40576345694E+01  0.42538127098E+02  0.61970000073E+02  0.51100000000E-03 0.  1.
         23    2    1    0    0    0 -0.22412431429E+02 -0.31374141532E+01  0.17334044372E+02  0.96493342103E+02  0.92186417252E+02 0.  0.
         11    1    3    3    0    0  0.22468792413E+02 -0.71950487227E+01 -0.25204082726E+02  0.34523342030E+02  0.51100000000E-03 0. -1.
         22    1    1    0    0    0  0.22412431429E+02  0.31374141532E+01 -0.17334044372E+02  0.28506657897E+02  0.00000000000E+00 0.  1.
</event>
<event>
 5    1  0.1094625E-009  0.9118800E+02  0.7818608E-02  0.1130116E+00
         25   -1    0    0    0    0  0.00000000000E+00  0.00000000000E+00  0.99999998245E-14  0.12500000000E+03  0.12500000000E+03 0.  0.
        -11    1    3    3    0    0 -0.20971252118E+01 -0.14372610830E+02 -0.55006336054E+02  0.56891711897E+02  0.51100000000E-03 0. -1.
         23    2    1    0    0    0 -0.90776445332E+00  0.11946610646E+02 -0.27619842372E+02  0.94893501783E+02  0.89990974246E+02 0.  0.
         11    1    3    3    0    0  0.11893607585E+01  0.26319221475E+02  0.27386493682E+02  0.38001789886E+02  0.51100000000E-03 0.  1.
         22    1    1    0    0    0  0.90776445332E+00 -0.11946610646E+02  0.27619842372E+02  0.30106498217E+02  0.00000000000E+00 0. -1.
</event>
<event>
 5    1  0.1094625E-009  0.9118800E+02  0.7818608E-02  0.1130116E+00
         25   -1    0    0    0    0  0.00000000000E+00  0.00000000000E+00  0.99999998245E-14  0.12500000000E+03  0.12500000000E+03 0.  0.
        -11    1    3    3    0    0  0.11103102426E+02 -0.29594956612E+02  0.50296395577E+02  0.59404273825E+02  0.51100000000E-03 0. -1.
         23    2    1    0    0    0  0.15300692151E+02 -0.19078597847E+02  0.15382559990E+02  0.96108353665E+02  0.91662906436E+02 0.  0.
         11    1    3    3    0    0  0.41975897247E+01  0.10516358765E+02 -0.34913835588E+02  0.36704079840E+02  0.51100000000E-03 0.  1.
         22    1    1    0    0    0 -0.15300692151E+02  0.19078597847E+02 -0.15382559990E+02  0.28891646335E+02  0.00000000000E+00 0. -1.
</event>
<event>
 5    1  0.1094625E-009  0.9118800E+02  0.7818608E-02  0.1130116E+00
         25   -1    0    0    0    0  0.00000000000E+00  0.00000000000E+00  0.99999998245E-14  0.12500000000E+03  0.12500000000E+03 0.  0.
        -11    1    3    3    0    0 -0.11211076205E+02 -0.36030172467E+02  0.35065677025E+01  0.37896669709E+02  0.51100000000E-03 0. -1.
         23    2    1    0    0    0 -0.53615150281E+01  0.18229486210E+02  0.22379406689E+02  0.95641903082E+02  0.91024588824E+02 0.  0.
         11    1    3    3    0    0  0.58495611772E+01  0.54259658677E+02  0.18872838986E+02  0.57745233374E+02  0.51100000000E-03 0.  1.
         22    1    1    0    0    0  0.53615150281E+01 -0.18229486210E+02 -0.22379406689E+02  0.29358096918E+02  0.00000000000E+00 0.  1.
</event>
<event>
 5    1  0.1094625E-009  0.9118800E+02  0.7818608E-02  0.1130116E+00
         25   -1    0    0    0    0  0.00000000000E+00  0.00000000000E+00  0.99999998245E-14  0.12500000000E+03  0.12500000000E+03 0.  0.
        -11    1    3    3    0    0 -0.10427560489E+02  0.92951911213E+00  0.50407108340E+02  0.51482760173E+02  0.51100000000E-03 0. -1.
         23    2    1    0    0    0 -0.27910552874E+02 -0.49628672220E+00  0.10322018665E+02  0.95237786850E+02  0.90467931957E+02 0.  0.
         11    1    3    3    0    0 -0.17482992385E+02 -0.14258058343E+01 -0.40085089675E+02  0.43755026677E+02  0.51100000000E-03 0.  1.
         22    1    1    0    0    0  0.27910552874E+02  0.49628672220E+00 -0.10322018665E+02  0.29762213150E+02  0.00000000000E+00 0. -1.
</event>
<event>
 5    1  0.1094625E-009  0.9118800E+02  0.7818608E-02  0.1130116E+00
         25   -1    0    0    0    0  0.00000000000E+00  0.00000000000E+00  0.99999998245E-14  0.12500000000E+03  0.12500000000E+03 0.  0.
        -11    1    3    3    0    0 -0.25996897069E+01  0.23954462920E+02  0.55262921846E+02  0.60287355321E+02  0.51100000000E-03 0.  1.
         23    2    1    0    0    0  0.10185135135E+02  0.13725285549E+02  0.24643674878E+02  0.95009482288E+02  0.90151930496E+02 0.  0.
         11    1    3    3    0    0  0.12784824842E+02 -0.10229177371E+02 -0.30619246969E+02  0.34722126967E+02  0.51100000000E-03 0. -1.
         22    1    1    0    0    0 -0.10185135135E+02 -0.13725285549E+02 -0.24643674878E+02  0.29990517712E+02  0.00000000000E+00 0.  1.
</event>
<event>
 5    1  0.1094625E-009  0.9118800E+02  0.7818608E-02  0.1130116E+00
         25   -1    0    0    0    0  0.00000000000E+00  0.00000000000E+00  0.99999998245E-14  0.12500000000E+03  0.12500000000E+03 0.  0.
        -11    1    3    3    0    0  0.14806840462E+02  0.14142486214E+02  0.43517987890E+02  0.48094362570E+02  0.51100000000E-03 0.  1.
         23    2    1    0    0    0  0.17325918904E+01 -0.23310450041E+02  0.12220315604E+02  0.98623588773E+02  0.95031032790E+02 0.  0.
         11    1    3    3    0    0 -0.13074248571E+02 -0.37452936255E+02 -0.31297672286E+02  0.50529226202E+02  0.51100000000E-03 0. -1.
         22    1    1    0    0    0 -0.17325918904E+01  0.23310450041E+02 -0.12220315604E+02  0.26376411227E+02  0.00000000000E+00 0. -1.
</event>
<event>
 5    1  0.1094625E-009  0.9118800E+02  0.7818608E-02  0.1130116E+00
         25   -1    0    0    0    0  0.00000000000E+00  0.00000000000E+00  0.99999998245E-14  0.12500000000E+03  0.12500000000E+03 0.  0.
        -11    1    3    3    0    0  0.20284510746E+02 -0.49985710787E+02 -0.20964430850E+02  0.57875210758E+02  0.51100000000E-03 0. -1.
         23    2    1    0    0    0  0.21957132290E+02 -0.13273574860E+02 -0.15485537634E+02  0.95031594574E+02  0.90182585034E+02 0.  0.
         11    1    3    3    0    0  0.16726215442E+01  0.36712135927E+02  0.54788932164E+01  0.37156383816E+02  0.51100000000E-03 0.  1.
         22    1    1    0    0    0 -0.21957132290E+02  0.13273574860E+02  0.15485537634E+02  0.29968405426E+02  0.00000000000E+00 0. -1.
</event>
<event>
 5    1  0.1094625E-009  0.9118800E+02  0.7818608E-02  0.1130116E+00
         25   -1    0    0    0    0  0.00000000000E+00  0.00000000000E+00  0.99999998245E-14  0.12500000000E+03  0.12500000000E+03 0.  0.
        -11    1    3    3    0    0  0.19149357477E+02 -0.19184629316E+02 -0.19488578590E+02  0.33384915599E+02  0.51100000000E-03 0.  1.
         23    2    1    0    0    0 -0.10189123831E+01  0.27414975758E+02  0.13989762815E+02  0.94204991608E+02  0.89029477714E+02 0.  0.
         11    1    3    3    0    0 -0.20168269861E+02  0.46599605074E+02  0.33478341406E+02  0.60820076009E+02  0.51100000000E-03 0. -1.
         22    1    1    0    0    0  0.10189123831E+01 -0.27414975758E+02 -0.13989762815E+02  0.30795008392E+02  0.00000000000E+00 0. -1.
</event>
<event>
 5    1  0.1094625E-009  0.9118800E+02  0.7818608E-02  0.1130116E+00
         25   -1    0    0    0    0  0.00000000000E+00  0.00000000000E+00  0.99999998245E-14  0.12500000000E+03  0.12500000000E+03 0.  0.
        -11    1    3    3    0    0  0.83316749620E+01 -0.76327079805E+01 -0.38237124261E+02  0.39871703134E+02  0.51100000000E-03 0. -1.
         23    2    1    0    0    0  0.17486097874E+02  0.22115373264E+02  0.80769992514E+01  0.95672687297E+02  0.91066853598E+02 0.  0.
         11    1    3    3    0    0  0.91544229118E+01  0.29748081245E+02  0.46314123513E+02  0.55800984163E+02  0.51100000000E-03 0.  1.
         22    1    1    0    0    0 -0.17486097874E+02 -0.22115373264E+02 -0.80769992514E+01  0.29327312703E+02  0.00000000000E+00 0. -1.
</event>
<event>
 5    1  0.1094625E-009  0.9118800E+02  0.7818608E-02  0.1130116E+00
         25   -1    0    0    0    0  0.00000000000E+00  0.00000000000E+00  0.99999998245E-14  0.12500000000E+03  0.12500000000E+03 0.  0.
        -11    1    3    3    0    0 -0.44939094844E+02  0.28746481291E+02 -0.30869100346E+02  0.61634274462E+02  0.51100000000E-03 0. -1.
         23    2    1    0    0    0 -0.25283866010E+02  0.86861404692E+01 -0.10732630879E+02  0.96191801822E+02  0.91776633495E+02 0.  0.
         11    1    3    3    0    0  0.19655228834E+02 -0.20060340822E+02  0.20136469467E+02  0.34557527360E+02  0.51100000000E-03 0.  1.
         22    1    1    0    0    0  0.25283866010E+02 -0.86861404692E+01  0.10732630879E+02  0.28808198178E+02  0.00000000000E+00 0. -1.
</event>
<event>
 5    1  0.1094625E-009  0.9118800E+02  0.7818608E-02  0.1130116E+00
         25   -1    0    0    0    0  0.00000000000E+00  0.00000000000E+00  0.99999998245E-14  0.12500000000E+03  0.12500000000E+03 0.  0.
        -11    1    3    3    0    0  0.10399018228E+02  0.16851475653E+02 -0.35265081019E+02  0.40444254862E+02  0.51100000000E-03 0.  1.
         23    2    1    0    0    0 -0.26398258552E+02 -0.12054660487E+02 -0.68748683581E+01  0.95176406840E+02  0.90383083097E+02 0.  0.
         11    1    3    3    0    0 -0.36797276780E+02 -0.28906136140E+02  0.28390212661E+02  0.54732151978E+02  0.51100000000E-03 0. -1.
         22    1    1    0    0    0  0.26398258552E+02  0.12054660487E+02  0.68748683581E+01  0.29823593160E+02  0.00000000000E+00 0. -1.
</event>
<event>
 5    1  0.1094625E-009  0.9118800E+02  0.7818608E-02  0.1130116E+00
         25   -1    0    0    0    0  0.00000000000E+00  0.00000000000E+00  0.99999998245E-14  0.12500000000E+03  0.12500000000E+03 0.  0.
        -11    1    3    3    0    0 -0.22287991246E+02 -0.38653338333E+02 -0.14931999830E+01  0.44643753925E+02  0.51100000000E-03 0.  1.
         23    2    1    0    0    0  0.92815215688E+01 -0.39569993473E+01 -0.25671083524E+02  0.97417233355E+02  0.93430767624E+02 0.  0.
         11    1    3    3    0    0  0.31569512815E+02  0.34696338986E+02 -0.24177883541E+02  0.52773479430E+02  0.51100000000E-03 0. -1.
         22    1    1    0    0    0 -0.92815215688E+01  0.39569993473E+01  0.25671083524E+02  0.27582766645E+02  0.00000000000E+00 0. -1.
</event>
<event>
 5    1  0.1094625E-009  0.9118800E+02  0.7818608E-02  0.1130116E+00
         25   -1    0    0    0    0  0.00000000000E+00  0.00000000000E+00  0.99999998245E-14  0.12500000000E+03  0.12500000000E+03 0.  0.
        -11    1    3    3    0    0  0.41774137984E+02 -0.42514460585E+02  0.63121135984E+01  0.59936639391E+02  0.51100000000E-03 0.  1.
         23    2    1    0    0    0  0.16328696975E+02 -0.17374371253E+02  0.15109352630E+02  0.96772572590E+02  0.92564264959E+02 0.  0.
         11    1    3    3    0    0 -0.25445441009E+02  0.25140089333E+02  0.87972390311E+01  0.36835933199E+02  0.51100000000E-03 0. -1.
         22    1    1    0    0    0 -0.16328696975E+02  0.17374371253E+02 -0.15109352630E+02  0.28227427410E+02  0.00000000000E+00 0.  1.
</event>
<event>
 5    1  0.1094625E-009  0.9118800E+02  0.7818608E-02  0.1130116E+00
         25   -1    0    0    0    0  0.00000000000E+00  0.00000000000E+00  0.99999998245E-14  0.12500000000E+03  0.12500000000E+03 0.  0.
        -11    1    3    3    0    0 -0.25322045111E+02  0.20439690415E+02 -0.16404891351E+02  0.36443207506E+02  0.51100000000E-03 0. -1.
         23    2    1    0    0    0  0.12532957520E+02  0.24962978331E+01  0.25986183392E+02  0.96041611676E+02  0.91571845668E+02 0.  0.
         11    1    3    3    0    0  0.37855002631E+02 -0.17943392582E+02  0.42391074742E+02  0.59598404170E+02  0.51100000000E-03 0.  1.
         22    1    1    0    0    0 -0.12532957520E+02 -0.24962978331E+01 -0.25986183392E+02  0.28958388324E+02  0.00000000000E+00 0.  1.
</event>
<event>
 5    1  0.1094625E-009  0.9118800E+02  0.7818608E-02  0.1130116E+00
         25   -1    0    0    0    0  0.00000000000E+00  0.00000000000E+00  0.99999998245E-14  0.12500000000E+03  0.12500000000E+03 0.  0.
        -11    1    3    3    0    0 -0.33058320471E+02  0.35492386330E+02 -0.33031798047E+02  0.58682720815E+02  0.51100000000E-03 0.  1.
         23    2    1    0    0    0 -0.25177936022E+02  0.79583600744E+01 -0.63139901438E+01  0.97849853979E+02  0.94007784224E+02 0.  0.
         11    1    3    3    0    0  0.78803844483E+01 -0.27534026256E+02  0.26717807903E+02  0.39167133164E+02  0.51100000000E-03 0. -1.
         22    1    1    0    0    0  0.25177936022E+02 -0.79583600744E+01  0.63139901438E+01  0.27150146021E+02  0.00000000000E+00 0.  1.
</event>
<event>
 5    1  0.1094625E-009  0.9118800E+02  0.7818608E-02  0.1130116E+00
         25   -1    0    0    0    0  0.00000000000E+00  0.00000000000E+00  0.99999998245E-14  0.12500000000E+03  0.12500000000E+03 0.  0.
        -11    1    3    3    0    0  0.56876703823E+01 -0.73335315143E+01  0.27648908219E+02  0.29164917363E+02  0.51100000000E-03 0.  1.
         23    2    1    0    0    0 -0.57861571290E+01  0.81383081539E+01 -0.31806585350E+02  0.91662775377E+02  0.85385559928E+02 0.  0.
         11    1    3    3    0    0 -0.11473827511E+02  0.15471839668E+02 -0.59455493569E+02  0.62497858014E+02  0.51100000000E-03 0. -1.
         22    1    1    0    0    0  0.57861571290E+01 -0.81383081539E+01  0.31806585350E+02  0.33337224623E+02  0.00000000000E+00 0. -1.
</event>
<event>
 5    1  0.1094625E-009  0.9118800E+02  0.7818608E-02  0.1130116E+00
         25   -1    0    0    0    0  0.00000000000E+00  0.00000000000E+00  0.99999998245E-14  0.12500000000E+03  0.12500000000E+03 0.  0.
        -11    1    3    3    0    0  0.24073952969E+02 -0.40173375730E+02  0.85379958253E+01  0.47606225455E+02  0.51100000000E-03 0.  1.
         23    2    1    0    0    0  0.13677585852E+02 -0.91333667736E+01 -0.25388153115E+02  0.94750156001E+02  0.89791642152E+02 0.  0.
         11    1    3    3    0    0 -0.10396367117E+02  0.31040008956E+02 -0.33926148940E+02  0.47143930547E+02  0.51100000000E-03 0. -1.
         22    1    1    0    0    0 -0.13677585852E+02  0.91333667736E+01  0.25388153115E+02  0.30249843999E+02  0.00000000000E+00 0. -1.
</event>
<event>
 5    1  0.1094625E-009  0.9118800E+02  0.7818608E-02  0.1130116E+00
         25   -1    0    0    0    0  0.00000000000E+00  0.00000000000E+00  0.99999998245E-14  0.12500000000E+03  0.12500000000E+03 0.  0.
        -11    1    3    3    0    0 -0.35256893247E+02  0.12097019314E+02 -0.39558854402E+02  0.54353374868E+02  0.51100000000E-03 0. -1.
         23    2    1    0    0    0 -0.33945097350E+02  0.41350708647E+01 -0.42872157874E+01  0.90536270307E+02  0.83720174252E+02 0.  0.
         11    1    3    3    0    0  0.13117958968E+01 -0.79619484489E+01  0.35271638614E+02  0.36182895439E+02  0.51100000000E-03 0.  1.
         22    1    1    0    0    0  0.33945097350E+02 -0.41350708647E+01  0.42872157874E+01  0.34463729693E+02  0.00000000000E+00 0.  1.
</event>
<event>
 5    1  0.1094625E-009  0.9118800E+02  0.7818608E-02  0.1130116E+00
         25   -1    0    0    0    0  0.00000000000E+00  0.00000000000E+00  0.99999998245E-14  0.12500000000E+03  0.12500000000E+03 0.  0.
        -11    1    3    3    0    0  0.21591187033E+02  0.37320588930E+02 -0.14827221289E+02  0.45594431754E+02  0.51100000000E-03 0.  1.
         23    2    1    0    0    0 -0.19420221603E+02  0.64284011426E+01 -0.18964194171E+02  0.97105376702E+02  0.93012602241E+02 0.  0.
         11    1    3    3    0    0 -0.41011408636E+02 -0.30892187787E+02 -0.41369728820E+01  0.51510944948E+02  0.51100000000E-03 0. -1.
         22    1    1    0    0    0  0.19420221603E+02 -0.64284011426E+01  0.18964194171E+02  0.27894623298E+02  0.00000000000E+00 0. -1.
</event>
<event>
 5    1  0.1094625E-009  0.9118800E+02  0.7818608E-02  0.1130116E+00
         25   -1    0    0    0    0  0.00000000000E+00  0.00000000000E+00  0.99999998245E-14  0.12500000000E+03  0.12500000000E+03 0.  0.
        -11    1    3    3    0    0  0.12575003274E+01  0.52190964531E+02  0.39920697575E+01  0.52358520863E+02  0.51100000000E-03 0.  1.
         23    2    1    0    0    0 -0.21678586936E+02  0.16115624591E+02 -0.81253662600E+01  0.96791914911E+02  0.92590381400E+02 0.  0.
         11    1    3    3    0    0 -0.22936087263E+02 -0.36075339940E+02 -0.12117436018E+02  0.44433394048E+02  0.51100000000E-03 0. -1.
         22    1    1    0    0    0  0.21678586936E+02 -0.16115624591E+02  0.81253662600E+01  0.28208085089E+02  0.00000000000E+00 0.  1.
</event>
<event>
 5    1  0.1094625E-009  0.9118800E+02  0.7818608E-02  0.1130116E+00
         25   -1    0    0    0    0  0.00000000000E+00  0.00000000000E+00  0.99999998245E-14  0.12500000000E+03  0.12500000000E+03 0.  0.
        -11    1    3    3    0    0  0.42560361515E+02  0.37002002818E+02 -0.17528093872E+01  0.56423443052E+02  0.51100000000E-03 0.  1.
         23    2    1    0    0    0  0.16203224046E+02  0.17087545589E+02  0.18396001197E+02  0.95117872502E+02  0.90302093694E+02 0.  0.
         11    1    3    3    0    0 -0.26357137469E+02 -0.19914457229E+02  0.20148810584E+02  0.38694429450E+02  0.51100000000E-03 0. -1.
         22    1    1    0    0    0 -0.16203224046E+02 -0.17087545589E+02 -0.18396001197E+02  0.29882127498E+02  0.00000000000E+00 0.  1.
</event>
<event>
 5    1  0.1094625E-009  0.9118800E+02  0.7818608E-02  0.1130116E+00
         25   -1    0    0    0    0  0.00000000000E+00  0.00000000000E+00  0.99999998245E-14  0.12500000000E+03  0.12500000000E+03 0.  0.
        -11    1    3    3    0    0  0.45326882665E+02 -0.69662228745E+01 -0.36356127695E+02  0.58521983686E+02  0.51100000000E-03 0. -1.
         23    2    1    0    0    0  0.15460213432E+02  0.49086563391E+01 -0.29422910876E+02  0.91402071629E+02  0.85003046459E+02 0.  0.
         11    1    3    3    0    0 -0.29866669234E+02  0.11874879214E+02  0.69332168187E+01  0.32880087944E+02  0.51100000000E-03 0.  1.
         22    1    1    0    0    0 -0.15460213432E+02 -0.49086563391E+01  0.29422910876E+02  0.33597928371E+02  0.00000000000E+00 0. -1.
</event>
<event>
 5    1  0.1094625E-009  0.9118800E+02  0.7818608E-02  0.1130116E+00
         25   -1    0    0    0    0  0.00000000000E+00  0.00000000000E+00  0.99999998245E-14  0.12500000000E+03  0.12500000000E+03 0.  0.
        -11    1    3    3    0    0 -0.33358939030E+02  0.67958113773E+01  0.10699966313E+02  0.35686007690E+02  0.51100000000E-03 0.  1.
         23    2    1    0    0    0  0.11230407429E+02 -0.24573257081E+02 -0.12860689741E+02  0.95077360491E+02  0.90245997821E+02 0.  0.
         11    1    3    3    0    0  0.44589346458E+02 -0.31369068458E+02 -0.23560656055E+02  0.59391352801E+02  0.51100000000E-03 0. -1.
         22    1    1    0    0    0 -0.11230407429E+02  0.24573257081E+02  0.12860689741E+02  0.29922639509E+02  0.00000000000E+00 0. -1.
</event>
<event>
 5    1  0.1094625E-009  0.9118800E+02  0.7818608E-02  0.1130116E+00
         25   -1    0    0    0    0  0.00000000000E+00  0.00000000000E+00  0.99999998245E-14  0.12500000000E+03  0.12500000000E+03 0.  0.
        -11    1    3    3    0    0  0.20066279620E+02 -0.18960282811E+02 -0.28312529440E+02  0.39544243900E+02  0.51100000000E-03 0. -1.
         23    2    1    0    0    0  0.12795290248E+02  0.57319905442E+01  0.23634934564E+02  0.97519365000E+02  0.93567308661E+02 0.  0.
         11    1    3    3    0    0 -0.72709893713E+01  0.24692273356E+02  0.51947464004E+02  0.57975121100E+02  0.51100000000E-03 0.  1.
         22    1    1    0    0    0 -0.12795290248E+02 -0.57319905442E+01 -0.23634934564E+02  0.27480635000E+02  0.00000000000E+00 0.  1.
</event>
<event>
 5    1  0.1094625E-009  0.9118800E+02  0.7818608E-02  0.1130116E+00
         25   -1    0    0    0    0  0.00000000000E+00  0.00000000000E+00  0.99999998245E-14  0.12500000000E+03  0.12500000000E+03 0.  0.
        -11    1    3    3    0    0 -0.51608594575E+02  0.15613746065E+02 -0.27755687819E+02  0.60643336870E+02  0.51100000000E-03 0. -1.
         23    2    1    0    0    0 -0.19426203954E+02  0.56940122325E+01 -0.22510524667E+02  0.94725870844E+02  0.89757828132E+02 0.  0.
         11    1    3    3    0    0  0.32182390621E+02 -0.99197338322E+01  0.52451631516E+01  0.34082533974E+02  0.51100000000E-03 0.  1.
         22    1    1    0    0    0  0.19426203954E+02 -0.56940122325E+01  0.22510524667E+02  0.30274129156E+02  0.00000000000E+00 0. -1.
</event>
<event>
 5    1  0.1094625E-009  0.9118800E+02  0.7818608E-02  0.1130116E+00
         25   -1    0    0    0    0  0.00000000000E+00  0.00000000000E+00  0.99999998245E-14  0.12500000000E+03  0.12500000000E+03 0.  0.
        -11    1    3    3    0    0  0.96706499295E+01  0.24875141378E+02  0.52801296425E+02  0.59163088434E+02  0.51100000000E-03 0. -1.
         23    2    1    0    0    0  0.33595297049E+01  0.23563701435E+02  0.16485579183E+02  0.96046437419E+02  0.91578432803E+02 0.  0.
         11    1    3    3    0    0 -0.63111202246E+01 -0.13114399425E+01 -0.36315717243E+02  0.36883348985E+02  0.51100000000E-03 0.  1.
         22    1    1    0    0    0 -0.33595297049E+01 -0.23563701435E+02 -0.16485579183E+02  0.28953562581E+02  0.00000000000E+00 0. -1.
</event>
<event>
 5    1  0.1094625E-009  0.9118800E+02  0.7818608E-02  0.1130116E+00
         25   -1    0    0    0    0  0.00000000000E+00  0.00000000000E+00  0.99999998245E-14  0.12500000000E+03  0.12500000000E+03 0.  0.
        -11    1    3    3    0    0 -0.28302129500E+02 -0.30770086307E+02  0.56570475500E+01  0.42187805498E+02  0.51100000000E-03 0.  1.
         23    2    1    0    0    0 -0.80191992214E+01  0.73264235387E+01 -0.26729802230E+02  0.96147506776E+02  0.91716283690E+02 0.  0.
         11    1    3    3    0    0  0.20282930278E+02  0.38096509845E+02 -0.32386849780E+02  0.53959701278E+02  0.51100000000E-03 0. -1.
         22    1    1    0    0    0  0.80191992214E+01 -0.73264235387E+01  0.26729802230E+02  0.28852493224E+02  0.00000000000E+00 0. -1.
</event>
<event>
 5    1  0.1094625E-009  0.9118800E+02  0.7818608E-02  0.1130116E+00
         25   -1    0    0    0    0  0.00000000000E+00  0.00000000000E+00  0.99999998245E-14  0.12500000000E+03  0.12500000000E+03 0.  0.
        -11    1    3    3    0    0  0.29087367241E+02  0.35151118947E+02 -0.26237963408E+02  0.52631804266E+02  0.51100000000E-03 0.  1.
         23    2    1    0    0    0  0.24342104130E+02  0.17573916004E+02  0.10139550681E+02  0.93311026441E+02  0.87765349713E+02 0.  0.
         11    1    3    3    0    0 -0.47452631106E+01 -0.17577202942E+02  0.36377514089E+02  0.40679222176E+02  0.51100000000E-03 0. -1.
         22    1    1    0    0    0 -0.24342104130E+02 -0.17573916004E+02 -0.10139550681E+02  0.31688973559E+02  0.00000000000E+00 0.  1.
</event>
<event>
 4    1  0.1094625E-009  0.9118800E+02  0.7818608E-02  0.1130116E+00
         25   -1    0    0    0    0  0.00000000000E+00  0.00000000000E+00  0.99999998245E-14  0.12500000000E+03  0.12500000000E+03 0.  0.
        -11    1    1    0    0    0 -0.24950936765E+02  0.21930206784E+02  0.48903555535E+02  0.59118871431E+02  0.51100000000E-03 0. -1.
         11    1    1    0    0    0  0.24797976370E+01 -0.12545417399E+02 -0.18794123723E+01  0.12925520692E+02  0.51100000000E-03 0.  1.
         22    1    1    0    0    0  0.22471139128E+02 -0.93847893850E+01 -0.47024143163E+02  0.52955607878E+02  0.00000000000E+00 0. -1.
</event>
<event>
 5    1  0.1094625E-009  0.9118800E+02  0.7818608E-02  0.1130116E+00
         25   -1    0    0    0    0  0.00000000000E+00  0.00000000000E+00  0.99999998245E-14  0.12500000000E+03  0.12500000000E+03 0.  0.
        -11    1    3    3    0    0  0.46433733557E+00 -0.16808887921E+02 -0.54080240880E+02  0.56634148499E+02  0.51100000000E-03 0. -1.
         23    2    1    0    0    0  0.16608211450E+02  0.22603468780E+01 -0.23767355704E+02  0.95916859648E+02  0.91401394475E+02 0.  0.
         11    1    3    3    0    0  0.16143874114E+02  0.19069234799E+02  0.30312885176E+02  0.39282711149E+02  0.51100000000E-03 0.  1.
         22    1    1    0    0    0 -0.16608211450E+02 -0.22603468780E+01  0.23767355704E+02  0.29083140352E+02  0.00000000000E+00 0. -1.
</event>
<event>
 5    1  0.1094625E-009  0.9118800E+02  0.7818608E-02  0.1130116E+00
         25   -1    0    0    0    0  0.00000000000E+00  0.00000000000E+00  0.99999998245E-14  0.12500000000E+03  0.12500000000E+03 0.  0.
        -11    1    3    3    0    0 -0.51492531757E+02  0.14329202473E+02 -0.22085826546E+02  0.57832435577E+02  0.51100000000E-03 0. -1.
         23    2    1    0    0    0 -0.16075322881E+02 -0.32667278732E+00 -0.23888339802E+02  0.96204592392E+02  0.91794052628E+02 0.  0.
         11    1    3    3    0    0  0.35417208877E+02 -0.14655875261E+02 -0.18025132558E+01  0.38372156814E+02  0.51100000000E-03 0.  1.
         22    1    1    0    0    0  0.16075322881E+02  0.32667278732E+00  0.23888339802E+02  0.28795407608E+02  0.00000000000E+00 0. -1.
</event>
<event>
 5    1  0.1094625E-009  0.9118800E+02  0.7818608E-02  0.1130116E+00
         25   -1    0    0    0    0  0.00000000000E+00  0.00000000000E+00  0.99999998245E-14  0.12500000000E+03  0.12500000000E+03 0.  0.
        -11    1    3    3    0    0 -0.40719474079E+02 -0.85348314215E+01 -0.10245528875E+02  0.42847284381E+02  0.51100000000E-03 0.  1.
         23    2    1    0    0    0  0.66091993849E+00 -0.11052267273E+01 -0.33892313753E+02  0.91083230212E+02  0.84532878533E+02 0.  0.
         11    1    3    3    0    0  0.41380394017E+02  0.74296046942E+01 -0.23646784878E+02  0.48235945831E+02  0.51100000000E-03 0. -1.
         22    1    1    0    0    0 -0.66091993849E+00  0.11052267273E+01  0.33892313753E+02  0.33916769788E+02  0.00000000000E+00 0. -1.
</event>
<event>
 5    1  0.1094625E-009  0.9118800E+02  0.7818608E-02  0.1130116E+00
         25   -1    0    0    0    0  0.00000000000E+00  0.00000000000E+00  0.99999998245E-14  0.12500000000E+03  0.12500000000E+03 0.  0.
        -11    1    3    3    0    0  0.16315634764E+02 -0.30445682903E+02 -0.17848807588E+02  0.38880836897E+02  0.51100000000E-03 0.  1.
         23    2    1    0    0    0 -0.25836923499E+01 -0.43306474188E+01  0.28898156127E+02  0.95665150405E+02  0.91056507737E+02 0.  0.
         11    1    3    3    0    0 -0.18899327114E+02  0.26115035485E+02  0.46746963715E+02  0.56784313508E+02  0.51100000000E-03 0. -1.
         22    1    1    0    0    0  0.25836923499E+01  0.43306474188E+01 -0.28898156127E+02  0.29334849595E+02  0.00000000000E+00 0. -1.
</event>
<event>
 5    1  0.1094625E-009  0.9118800E+02  0.7818608E-02  0.1130116E+00
         25   -1    0    0    0    0  0.00000000000E+00  0.00000000000E+00  0.99999998245E-14  0.12500000000E+03  0.12500000000E+03 0.  0.
        -11    1    3    3    0    0  0.32294730030E+02  0.16963899427E+01  0.49789493793E+02  0.59370203124E+02  0.51100000000E-03 0.  1.
         23    2    1    0    0    0  0.25716084320E+02  0.18253312272E+01  0.14191275765E+02  0.95571423162E+02  0.90927750388E+02 0.  0.
         11    1    3    3    0    0 -0.65786457098E+01  0.12894128454E+00 -0.35598218028E+02  0.36201220038E+02  0.51100000000E-03 0. -1.
         22    1    1    0    0    0 -0.25716084320E+02 -0.18253312272E+01 -0.14191275765E+02  0.29428576838E+02  0.00000000000E+00 0.  1.
</event>
<event>
 5    1  0.1094625E-009  0.9118800E+02  0.7818608E-02  0.1130116E+00
         25   -1    0    0    0    0  0.00000000000E+00  0.00000000000E+00  0.99999998245E-14  0.12500000000E+03  0.12500000000E+03 0.  0.
        -11    1    3    3    0    0 -0.36719949422E+02 -0.13210699335E+02  0.41299782683E+01  0.39241992600E+02  0.51100000000E-03 0. -1.
         23    2    1    0    0    0  0.17756402205E+02 -0.18942846219E+02 -0.12074736797E+02  0.96365745847E+02  0.92013240688E+02 0.  0.
         11    1    3    3    0    0  0.54476351627E+02 -0.57321468848E+01 -0.16204715065E+02  0.57123753247E+02  0.51100000000E-03 0.  1.
         22    1    1    0    0    0 -0.17756402205E+02  0.18942846219E+02  0.12074736797E+02  0.28634254153E+02  0.00000000000E+00 0.  1.
</event>
<event>
 5    1  0.1094625E-009  0.9118800E+02  0.7818608E-02  0.1130116E+00
         25   -1    0    0    0    0  0.00000000000E+00  0.00000000000E+00  0.99999998245E-14  0.12500000000E+03  0.12500000000E+03 0.  0.
        -11    1    3    3    0    0 -0.25654276637E+02  0.14477858985E+02 -0.14117510585E+02  0.32665798872E+02  0.51100000000E-03 0. -1.
         23    2    1    0    0    0  0.10917467677E+02 -0.30781518283E+02 -0.94811684384E+00  0.92325975243E+02  0.86350991951E+02 0.  0.
         11    1    3    3    0    0  0.36571744314E+02 -0.45259377268E+02  0.13169393741E+02  0.59660176371E+02  0.51100000000E-03 0.  1.
         22    1    1    0    0    0 -0.10917467677E+02  0.30781518283E+02  0.94811684384E+00  0.32674024757E+02  0.00000000000E+00 0.  1.
</event>
<event>
 5    1  0.1094625E-009  0.9118800E+02  0.7818608E-02  0.1130116E+00
         25   -1    0    0    0    0  0.00000000000E+00  0.00000000000E+00  0.99999998245E-14  0.12500000000E+03  0.12500000000E+03 0.  0.
        -11    1    3    3    0    0  0.52406252283E+02  0.12728672205E+02 -0.15434704606E+02  0.56095137766E+02  0.51100000000E-03 0.  1.
         23    2    1    0    0    0  0.23368655706E+02  0.14467417085E+02  0.10994569983E+02  0.95397959602E+02  0.90688973423E+02 0.  0.
         11    1    3    3    0    0 -0.29037596577E+02  0.17387448792E+01  0.26429274590E+02  0.39302821836E+02  0.51100000000E-03 0. -1.
         22    1    1    0    0    0 -0.23368655706E+02 -0.14467417085E+02 -0.10994569983E+02  0.29602040398E+02  0.00000000000E+00 0.  1.
</event>
<event>
 5    1  0.1094625E-009  0.9118800E+02  0.7818608E-02  0.1130116E+00
         25   -1    0    0    0    0  0.00000000000E+00  0.00000000000E+00  0.99999998245E-14  0.12500000000E+03  0.12500000000E+03 0.  0.
        -11    1    3    3    0    0 -0.10446162933E+02  0.19213067857E+02  0.36038617254E+02  0.42155026158E+02  0.51100000000E-03 0.  1.
         23    2    1    0    0    0 -0.18578381875E+02  0.19465374258E+02 -0.15240385190E+02  0.94075472375E+02  0.88847442809E+02 0.  0.
         11    1    3    3    0    0 -0.81322189425E+01  0.25230640021E+00 -0.51279002444E+02  0.51920446217E+02  0.51100000000E-03 0. -1.
         22    1    1    0    0    0  0.18578381875E+02 -0.19465374258E+02  0.15240385190E+02  0.30924527625E+02  0.00000000000E+00 0. -1.
</event>
<event>
 5    1  0.1094625E-009  0.9118800E+02  0.7818608E-02  0.1130116E+00
         25   -1    0    0    0    0  0.00000000000E+00  0.00000000000E+00  0.99999998245E-14  0.12500000000E+03  0.12500000000E+03 0.  0.
        -11    1    3    3    0    0  0.51108266313E+02 -0.60650817066E+01 -0.17542440931E+02  0.54374418026E+02  0.51100000000E-03 0.  1.
         23    2    1    0    0    0  0.13263947240E+02  0.63871298742E+01 -0.26017535027E+02  0.95106190385E+02  0.90285921363E+02 0.  0.
         11    1    3    3    0    0 -0.37844319073E+02  0.12452211581E+02 -0.84750940955E+01  0.40731772359E+02  0.51100000000E-03 0. -1.
         22    1    1    0    0    0 -0.13263947240E+02 -0.63871298742E+01  0.26017535027E+02  0.29893809615E+02  0.00000000000E+00 0.  1.
</event>
<event>
 5    1  0.1094625E-009  0.9118800E+02  0.7818608E-02  0.1130116E+00
         25   -1    0    0    0    0  0.00000000000E+00  0.00000000000E+00  0.99999998245E-14  0.12500000000E+03  0.12500000000E+03 0.  0.
        -11    1    3    3    0    0  0.13145835452E+02 -0.19550147123E+02  0.41857182283E+02  0.48031707769E+02  0.51100000000E-03 0. -1.
         23    2    1    0    0    0 -0.24202858104E+02 -0.75879206680E+01  0.15788762945E+02  0.95122919891E+02  0.90309080235E+02 0.  0.
         11    1    3    3    0    0 -0.37348693556E+02  0.11962226455E+02 -0.26068419338E+02  0.47091212122E+02  0.51100000000E-03 0.  1.
         22    1    1    0    0    0  0.24202858104E+02  0.75879206680E+01 -0.15788762945E+02  0.29877080109E+02  0.00000000000E+00 0.  1.
</event>
<event>
 5    1  0.1094625E-009  0.9118800E+02  0.7818608E-02  0.1130116E+00
         25   -1    0    0    0    0  0.00000000000E+00  0.00000000000E+00  0.99999998245E-14  0.12500000000E+03  0.12500000000E+03 0.  0.
        -11    1    3    3    0    0  0.29796290701E+02 -0.41871177592E+02 -0.32659768354E+02  0.60890680089E+02  0.51100000000E-03 0.  1.
         23    2    1    0    0    0  0.83175117087E+01 -0.12948574421E+02 -0.21411227318E+02  0.98631700172E+02  0.95041701600E+02 0.  0.
         11    1    3    3    0    0 -0.21478778992E+02  0.28922603171E+02  0.11248541036E+02  0.37741020083E+02  0.51100000000E-03 0. -1.
         22    1    1    0    0    0 -0.83175117087E+01  0.12948574421E+02  0.21411227318E+02  0.26368299828E+02  0.00000000000E+00 0.  1.
</event>
<event>
 5    1  0.1094625E-009  0.9118800E+02  0.7818608E-02  0.1130116E+00
         25   -1    0    0    0    0  0.00000000000E+00  0.00000000000E+00  0.99999998245E-14  0.12500000000E+03  0.12500000000E+03 0.  0.
        -11    1    3    3    0    0 -0.25832462875E+02 -0.25865592016E+02  0.39479196341E+02  0.53804757527E+02  0.51100000000E-03 0. -1.
         23    2    1    0    0    0 -0.73493299137E+01  0.10421388361E+02  0.24837647818E+02  0.97079994006E+02  0.92978484079E+02 0.  0.
         11    1    3    3    0    0  0.18483132961E+02  0.36286980377E+02 -0.14641548522E+02  0.43275236480E+02  0.51100000000E-03 0.  1.
         22    1    1    0    0    0  0.73493299137E+01 -0.10421388361E+02 -0.24837647818E+02  0.27920005994E+02  0.00000000000E+00 0.  1.
</event>
<event>
 5    1  0.1094625E-009  0.9118800E+02  0.7818608E-02  0.1130116E+00
         25   -1    0    0    0    0  0.00000000000E+00  0.00000000000E+00  0.99999998245E-14  0.12500000000E+03  0.12500000000E+03 0.  0.
        -11    1    3    3    0    0 -0.18007507301E+01 -0.40482413626E+02 -0.23479054179E+02  0.46833049245E+02  0.51100000000E-03 0. -1.
         23    2    1    0    0    0 -0.10821869498E+02  0.75830250532E+01 -0.26033961192E+02  0.95804413626E+02  0.91247484384E+02 0.  0.
         11    1    3    3    0    0 -0.90211187683E+01  0.48065438679E+02 -0.25549070122E+01  0.48971364381E+02  0.51100000000E-03 0.  1.
         22    1    1    0    0    0  0.10821869498E+02 -0.75830250532E+01  0.26033961192E+02  0.29195586374E+02  0.00000000000E+00 0. -1.
</event>
<event>
 5    1  0.1094625E-009  0.9118800E+02  0.7818608E-02  0.1130116E+00
         25   -1    0    0    0    0  0.00000000000E+00  0.00000000000E+00  0.99999998245E-14  0.12500000000E+03  0.12500000000E+03 0.  0.
        -11    1    3    3    0    0 -0.52615136236E+02  0.64885617206E+01  0.89280478376E+00  0.53021232492E+02  0.51100000000E-03 0. -1.
         23    2    1    0    0    0 -0.14749600433E+02  0.24968111509E+02 -0.50236572537E+01  0.95568818620E+02  0.90924169806E+02 0.  0.
         11    1    3    3    0    0  0.37865535803E+02  0.18479549788E+02 -0.59164620375E+01  0.42547586128E+02  0.51100000000E-03 0.  1.
         22    1    1    0    0    0  0.14749600433E+02 -0.24968111509E+02  0.50236572537E+01  0.29431181380E+02  0.00000000000E+00 0.  1.
</event>
<event>
 5    1  0.1094625E-009  0.9118800E+02  0.7818608E-02  0.1130116E+00
         25   -1    0    0    0    0  0.00000000000E+00  0.00000000000E+00  0.99999998245E-14  0.12500000000E+03  0.12500000000E+03 0.  0.
        -11    1    3    3    0    0  0.25759653665E+02  0.22847746792E+02  0.29263388168E+02  0.45187666212E+02  0.51100000000E-03 0. -1.
         23    2    1    0    0    0  0.33342093179E+02 -0.34057174675E+01 -0.71658190400E+01  0.90726934022E+02  0.84004365991E+02 0.  0.
         11    1    3    3    0    0  0.75824395139E+01 -0.26253464260E+02 -0.36429207208E+02  0.45539267810E+02  0.51100000000E-03 0.  1.
         22    1    1    0    0    0 -0.33342093179E+02  0.34057174675E+01  0.71658190400E+01  0.34273065978E+02  0.00000000000E+00 0. -1.
</event>
<event>
 5    1  0.1094625E-009  0.9118800E+02  0.7818608E-02  0.1130116E+00
         25   -1    0    0    0    0  0.00000000000E+00  0.00000000000E+00  0.99999998245E-14  0.12500000000E+03  0.12500000000E+03 0.  0.
        -11    1    3    3    0    0  0.24407925639E+02  0.11657120590E+02 -0.17323148730E+02  0.32120503991E+02  0.51100000000E-03 0.  1.
         23    2    1    0    0    0 -0.32725013993E+00 -0.27401031358E+02  0.19618149443E+02  0.91298436242E+02  0.84850510078E+02 0.  0.
         11    1    3    3    0    0 -0.24735175779E+02 -0.39058151948E+02  0.36941298173E+02  0.59177932251E+02  0.51100000000E-03 0. -1.
         22    1    1    0    0    0  0.32725013993E+00  0.27401031358E+02 -0.19618149443E+02  0.33701563758E+02  0.00000000000E+00 0. -1.
</event>
<event>
 5    1  0.1094625E-009  0.9118800E+02  0.7818608E-02  0.1130116E+00
         25   -1    0    0    0    0  0.00000000000E+00  0.00000000000E+00  0.99999998245E-14  0.12500000000E+03  0.12500000000E+03 0.  0.
        -11    1    3    3    0    0 -0.11581822574E+02  0.30242977474E+02 -0.51285652663E+02  0.60654715150E+02  0.51100000000E-03 0.  1.
         23    2    1    0    0    0 -0.59835141480E+01  0.22672438850E+02 -0.17464152647E+02  0.95762377787E+02  0.91189881274E+02 0.  0.
         11    1    3    3    0    0  0.55983084255E+01 -0.75705386243E+01  0.33821500016E+02  0.35107662637E+02  0.51100000000E-03 0. -1.
         22    1    1    0    0    0  0.59835141480E+01 -0.22672438850E+02  0.17464152647E+02  0.29237622213E+02  0.00000000000E+00 0.  1.
</event>
<event>
 5    1  0.1094625E-009  0.9118800E+02  0.7818608E-02  0.1130116E+00
         25   -1    0    0    0    0  0.00000000000E+00  0.00000000000E+00  0.99999998245E-14  0.12500000000E+03  0.12500000000E+03 0.  0.
        -11    1    3    3    0    0 -0.12146922603E+02  0.31547058204E+02 -0.57816605468E+01  0.34295658748E+02  0.51100000000E-03 0.  1.
         23    2    1    0    0    0  0.30638256167E+01 -0.17283691171E+02  0.25346693433E+02  0.94168719198E+02  0.88978535611E+02 0.  0.
         11    1    3    3    0    0  0.15210748220E+02 -0.48830749375E+02  0.31128353980E+02  0.59873060450E+02  0.51100000000E-03 0. -1.
         22    1    1    0    0    0 -0.30638256167E+01  0.17283691171E+02 -0.25346693433E+02  0.30831280802E+02  0.00000000000E+00 0. -1.
</event>
<event>
 5    1  0.1094625E-009  0.9118800E+02  0.7818608E-02  0.1130116E+00
         25   -1    0    0    0    0  0.00000000000E+00  0.00000000000E+00  0.99999998245E-14  0.12500000000E+03  0.12500000000E+03 0.  0.
        -11    1    3    3    0    0  0.42098006803E+02 -0.27695725325E+02 -0.15770687951E+02  0.52801609604E+02  0.51100000000E-03 0. -1.
         23    2    1    0    0    0  0.23860044529E+02 -0.22108806721E+01  0.15007142515E+02  0.96726265816E+02  0.92501710546E+02 0.  0.
         11    1    3    3    0    0 -0.18237962274E+02  0.25484844652E+02  0.30777830466E+02  0.43924656212E+02  0.51100000000E-03 0.  1.
         22    1    1    0    0    0 -0.23860044529E+02  0.22108806721E+01 -0.15007142515E+02  0.28273734184E+02  0.00000000000E+00 0.  1.
</event>
<event>
 5    1  0.1094625E-009  0.9118800E+02  0.7818608E-02  0.1130116E+00
         25   -1    0    0    0    0  0.00000000000E+00  0.00000000000E+00  0.99999998245E-14  0.12500000000E+03  0.12500000000E+03 0.  0.
        -11    1    3    3    0    0 -0.12779598940E+02 -0.65085977303E+01 -0.45809485450E+02  0.48001968199E+02  0.51100000000E-03 0.  1.
         23    2    1    0    0    0  0.10711559960E+02 -0.26804794772E+02 -0.12474471875E+02  0.93554062455E+02  0.88110814398E+02 0.  0.
         11    1    3    3    0    0  0.23491158899E+02 -0.20296197041E+02  0.33335013576E+02  0.45552094256E+02  0.51100000000E-03 0. -1.
         22    1    1    0    0    0 -0.10711559960E+02  0.26804794772E+02  0.12474471875E+02  0.31445937545E+02  0.00000000000E+00 0.  1.
</event>
<event>
 5    1  0.1094625E-009  0.9118800E+02  0.7818608E-02  0.1130116E+00
         25   -1    0    0    0    0  0.00000000000E+00  0.00000000000E+00  0.99999998245E-14  0.12500000000E+03  0.12500000000E+03 0.  0.
        -11    1    3    3    0    0  0.32016457461E+02 -0.50627745637E+02  0.19302185463E+01  0.59932861775E+02  0.51100000000E-03 0.  1.
         23    2    1    0    0    0  0.69659626013E+01 -0.25624147424E+02 -0.89778573213E+01  0.96969240319E+02  0.92829467734E+02 0.  0.
         11    1    3    3    0    0 -0.25050494860E+02  0.25003598213E+02 -0.10908075868E+02  0.37036378544E+02  0.51100000000E-03 0. -1.
         22    1    1    0    0    0 -0.69659626013E+01  0.25624147424E+02  0.89778573213E+01  0.28030759681E+02  0.00000000000E+00 0.  1.
</event>
<event>
 5    1  0.1094625E-009  0.9118800E+02  0.7818608E-02  0.1130116E+00
         25   -1    0    0    0    0  0.00000000000E+00  0.00000000000E+00  0.99999998245E-14  0.12500000000E+03  0.12500000000E+03 0.  0.
        -11    1    3    3    0    0 -0.27106110896E+02  0.39905551943E+02 -0.36987291424E+02  0.60788601324E+02  0.51100000000E-03 0.  1.
         23    2    1    0    0    0 -0.17161985231E+02  0.10445804397E+02 -0.21669493385E+02  0.95449779864E+02  0.90760371121E+02 0.  0.
         11    1    3    3    0    0  0.99441256657E+01 -0.29459747546E+02  0.15317798039E+02  0.34661178540E+02  0.51100000000E-03 0. -1.
         22    1    1    0    0    0  0.17161985231E+02 -0.10445804397E+02  0.21669493385E+02  0.29550220136E+02  0.00000000000E+00 0.  1.
</event>
<event>
 5    1  0.1094625E-009  0.9118800E+02  0.7818608E-02  0.1130116E+00
         25   -1    0    0    0    0  0.00000000000E+00  0.00000000000E+00  0.99999998245E-14  0.12500000000E+03  0.12500000000E+03 0.  0.
        -11    1    3    3    0    0  0.36772127893E+02  0.14035828554E+02 -0.63356364190E+01  0.39866454095E+02  0.51100000000E-03 0.  1.
         23    2    1    0    0    0 -0.15892578004E+02  0.10978095652E+02 -0.22789247551E+02  0.95126225152E+02  0.90313655047E+02 0.  0.
         11    1    3    3    0    0 -0.52664705897E+02 -0.30577329021E+01 -0.16453611132E+02  0.55259771057E+02  0.51100000000E-03 0. -1.
         22    1    1    0    0    0  0.15892578004E+02 -0.10978095652E+02  0.22789247551E+02  0.29873774848E+02  0.00000000000E+00 0. -1.
</event>
<event>
 5    1  0.1094625E-009  0.9118800E+02  0.7818608E-02  0.1130116E+00
         25   -1    0    0    0    0  0.00000000000E+00  0.00000000000E+00  0.99999998245E-14  0.12500000000E+03  0.12500000000E+03 0.  0.
        -11    1    3    3    0    0 -0.15766175812E+02  0.59420728273E+02 -0.97317211059E+01  0.62242281804E+02  0.51100000000E-03 0. -1.
         23    2    1    0    0    0 -0.36560796042E+01  0.29332103875E+02 -0.42315670889E+01  0.95139568057E+02  0.90332120612E+02 0.  0.
         11    1    3    3    0    0  0.12110096208E+02 -0.30088624398E+02  0.55001540171E+01  0.32897286253E+02  0.51100000000E-03 0.  1.
         22    1    1    0    0    0  0.36560796042E+01 -0.29332103875E+02  0.42315670889E+01  0.29860431943E+02  0.00000000000E+00 0. -1.
</event>
<event>
 5    1  0.1094625E-009  0.9118800E+02  0.7818608E-02  0.1130116E+00
         25   -1    0    0    0    0  0.00000000000E+00  0.00000000000E+00  0.99999998245E-14  0.12500000000E+03  0.12500000000E+03 0.  0.
        -11    1    3    3    0    0  0.88434076742E+01  0.37746683353E+02 -0.13666570778E+02  0.41107093311E+02  0.51100000000E-03 0.  1.
         23    2    1    0    0    0 -0.38874584135E+01  0.17110936456E+01  0.27438725613E+02  0.97234484740E+02  0.93185949504E+02 0.  0.
         11    1    3    3    0    0 -0.12730866088E+02 -0.36035589707E+02  0.41105296391E+02  0.56127391428E+02  0.51100000000E-03 0. -1.
         22    1    1    0    0    0  0.38874584135E+01 -0.17110936456E+01 -0.27438725613E+02  0.27765515260E+02  0.00000000000E+00 0. -1.
</event>
<event>
 5    1  0.1094625E-009  0.9118800E+02  0.7818608E-02  0.1130116E+00
         25   -1    0    0    0    0  0.00000000000E+00  0.00000000000E+00  0.99999998245E-14  0.12500000000E+03  0.12500000000E+03 0.  0.
        -11    1    3    3    0    0  0.15996496926E+02  0.48548907538E+02 -0.18440651654E+02  0.54340978743E+02  0.51100000000E-03 0.  1.
         23    2    1    0    0    0  0.18319065993E+02  0.66204947744E+01 -0.20931178023E+02  0.96407460005E+02  0.92069891937E+02 0.  0.
         11    1    3    3    0    0  0.23225690677E+01 -0.41928412764E+02 -0.24905263687E+01  0.42066481263E+02  0.51100000000E-03 0. -1.
         22    1    1    0    0    0 -0.18319065993E+02 -0.66204947744E+01  0.20931178023E+02  0.28592539995E+02  0.00000000000E+00 0.  1.
</event>
<event>
 5    1  0.1094625E-009  0.9118800E+02  0.7818608E-02  0.1130116E+00
         25   -1    0    0    0    0  0.00000000000E+00  0.00000000000E+00  0.99999998245E-14  0.12500000000E+03  0.12500000000E+03 0.  0.
        -11    1    3    3    0    0 -0.98754415716E+01  0.59620524045E+02  0.13028795934E+02  0.61821361659E+02  0.51100000000E-03 0.  1.
         23    2    1    0    0    0 -0.11335556652E+02  0.28941986107E+02  0.74458687373E+01  0.93037923007E+02  0.87375515745E+02 0.  0.
         11    1    3    3    0    0 -0.14601150806E+01 -0.30678537938E+02 -0.55829271965E+01  0.31216561348E+02  0.51100000000E-03 0. -1.
         22    1    1    0    0    0  0.11335556652E+02 -0.28941986107E+02 -0.74458687373E+01  0.31962076993E+02  0.00000000000E+00 0.  1.
</event>
<event>
 5    1  0.1094625E-009  0.9118800E+02  0.7818608E-02  0.1130116E+00
         25   -1    0    0    0    0  0.00000000000E+00  0.00000000000E+00  0.99999998245E-14  0.12500000000E+03  0.12500000000E+03 0.  0.
        -11    1    3    3    0    0  0.49769718838E+02  0.12281806724E+02  0.34944967250E+02  0.62040457977E+02  0.51100000000E-03 0. -1.
         23    2    1    0    0    0  0.28180734619E+02  0.10502810279E+02  0.25068241549E+02  0.85847994154E+02  0.76400252214E+02 0.  0.
         11    1    3    3    0    0 -0.21588984219E+02 -0.17789964451E+01 -0.98767257012E+01  0.23807536176E+02  0.51100000000E-03 0.  1.
         22    1    1    0    0    0 -0.28180734619E+02 -0.10502810279E+02 -0.25068241549E+02  0.39152005846E+02  0.00000000000E+00 0. -1.
</event>
<event>
 5    1  0.1094625E-009  0.9118800E+02  0.7818608E-02  0.1130116E+00
         25   -1    0    0    0    0  0.00000000000E+00  0.00000000000E+00  0.99999998245E-14  0.12500000000E+03  0.12500000000E+03 0.  0.
        -11    1    3    3    0    0  0.91498827752E+01  0.31654962357E+02 -0.51247790223E+02  0.60926948058E+02  0.51100000000E-03 0.  1.
         23    2    1    0    0    0 -0.39760619966E+01  0.19808724698E+02 -0.21781763531E+02  0.95290744444E+02  0.90541074165E+02 0.  0.
         11    1    3    3    0    0 -0.13125944772E+02 -0.11846237660E+02  0.29466026691E+02  0.34363796386E+02  0.51100000000E-03 0. -1.
         22    1    1    0    0    0  0.39760619966E+01 -0.19808724698E+02  0.21781763531E+02  0.29709255556E+02  0.00000000000E+00 0.  1.
</event>
<event>
 5    1  0.1094625E-009  0.9118800E+02  0.7818608E-02  0.1130116E+00
         25   -1    0    0    0    0  0.00000000000E+00  0.00000000000E+00  0.99999998245E-14  0.12500000000E+03  0.12500000000E+03 0.  0.
        -11    1    3    3    0    0  0.12583871827E+02 -0.23233394506E+02 -0.33048993765E+01  0.26628308444E+02  0.51100000000E-03 0. -1.
         23    2    1    0    0    0 -0.57688369512E+00  0.32699509394E+02  0.17706509822E+02  0.87809796995E+02  0.79545265408E+02 0.  0.
         11    1    3    3    0    0 -0.13160755522E+02  0.55932903900E+02  0.21011409199E+02  0.61181488552E+02  0.51100000000E-03 0.  1.
         22    1    1    0    0    0  0.57688369512E+00 -0.32699509394E+02 -0.17706509822E+02  0.37190203005E+02  0.00000000000E+00 0.  1.
</event>
<event>
 5    1  0.1094625E-009  0.9118800E+02  0.7818608E-02  0.1130116E+00
         25   -1    0    0    0    0  0.00000000000E+00  0.00000000000E+00  0.99999998245E-14  0.12500000000E+03  0.12500000000E+03 0.  0.
        -11    1    3    3    0    0 -0.30505525354E+02 -0.32600350219E+02 -0.17607033359E+02  0.47993515557E+02  0.51100000000E-03 0.  1.
         23    2    1    0    0    0 -0.22897371136E+02 -0.10938954883E-01  0.17262868104E+02  0.96324290074E+02  0.91956905769E+02 0.  0.
         11    1    3    3    0    0  0.76081542183E+01  0.32589411264E+02  0.34869901463E+02  0.48330774517E+02  0.51100000000E-03 0. -1.
         22    1    1    0    0    0  0.22897371136E+02  0.10938954883E-01 -0.17262868104E+02  0.28675709926E+02  0.00000000000E+00 0.  1.
</event>
<event>
 5    1  0.1094625E-009  0.9118800E+02  0.7818608E-02  0.1130116E+00
         25   -1    0    0    0    0  0.00000000000E+00  0.00000000000E+00  0.99999998245E-14  0.12500000000E+03  0.12500000000E+03 0.  0.
        -11    1    3    3    0    0  0.32776057589E+02 -0.15359541843E+01  0.67744137895E+01  0.33504056303E+02  0.51100000000E-03 0. -1.
         23    2    1    0    0    0 -0.29112441900E+02  0.11295808395E+01 -0.39142574450E+00  0.95863022799E+02  0.91327737845E+02 0.  0.
         11    1    3    3    0    0 -0.61888499489E+02  0.26655350238E+01 -0.71658395340E+01  0.62358966496E+02  0.51100000000E-03 0.  1.
         22    1    1    0    0    0  0.29112441900E+02 -0.11295808395E+01  0.39142574450E+00  0.29136977201E+02  0.00000000000E+00 0.  1.
</event>
<event>
 5    1  0.1094625E-009  0.9118800E+02  0.7818608E-02  0.1130116E+00
         25   -1    0    0    0    0  0.00000000000E+00  0.00000000000E+00  0.99999998245E-14  0.12500000000E+03  0.12500000000E+03 0.  0.
        -11    1    3    3    0    0 -0.48658427788E+02  0.56572141652E+01  0.34647944147E+02  0.60001055831E+02  0.51100000000E-03 0.  1.
         23    2    1    0    0    0 -0.15026574173E+02  0.29959329235E+01  0.25987254333E+02  0.94831955098E+02  0.89905443520E+02 0.  0.
         11    1    3    3    0    0  0.33631853616E+02 -0.26612812417E+01 -0.86606898138E+01  0.34830899267E+02  0.51100000000E-03 0. -1.
         22    1    1    0    0    0  0.15026574173E+02 -0.29959329235E+01 -0.25987254333E+02  0.30168044902E+02  0.00000000000E+00 0.  1.
</event>
<event>
 5    1  0.1094625E-009  0.9118800E+02  0.7818608E-02  0.1130116E+00
         25   -1    0    0    0    0  0.00000000000E+00  0.00000000000E+00  0.99999998245E-14  0.12500000000E+03  0.12500000000E+03 0.  0.
        -11    1    3    3    0    0 -0.25169074978E+02  0.78583570267E+00 -0.25399427956E+02  0.35766336320E+02  0.51100000000E-03 0.  1.
         23    2    1    0    0    0  0.21874111675E+02 -0.14036772886E+02  0.10704560450E+02  0.96891364867E+02  0.92724544845E+02 0.  0.
         11    1    3    3    0    0  0.47043186653E+02 -0.14822608588E+02  0.36103988406E+02  0.61125028547E+02  0.51100000000E-03 0. -1.
         22    1    1    0    0    0 -0.21874111675E+02  0.14036772886E+02 -0.10704560450E+02  0.28108635133E+02  0.00000000000E+00 0. -1.
</event>
<event>
 5    1  0.1094625E-009  0.9118800E+02  0.7818608E-02  0.1130116E+00
         25   -1    0    0    0    0  0.00000000000E+00  0.00000000000E+00  0.99999998245E-14  0.12500000000E+03  0.12500000000E+03 0.  0.
        -11    1    3    3    0    0  0.22235453789E+02  0.51839140883E+02 -0.71543620535E+01  0.56858568654E+02  0.51100000000E-03 0.  1.
         23    2    1    0    0    0 -0.19173264630E+01  0.20576234244E+02 -0.17747040814E+02  0.97760047465E+02  0.93888294618E+02 0.  0.
         11    1    3    3    0    0 -0.24152780252E+02 -0.31262906638E+02 -0.10592678760E+02  0.40901478812E+02  0.51100000000E-03 0. -1.
         22    1    1    0    0    0  0.19173264630E+01 -0.20576234244E+02  0.17747040814E+02  0.27239952535E+02  0.00000000000E+00 0.  1.
</event>
<event>
 5    1  0.1094625E-009  0.9118800E+02  0.7818608E-02  0.1130116E+00
         25   -1    0    0    0    0  0.00000000000E+00  0.00000000000E+00  0.99999998245E-14  0.12500000000E+03  0.12500000000E+03 0.  0.
        -11    1    3    3    0    0  0.19834637646E+02  0.56118068758E+02  0.54756610455E+01  0.59771509566E+02  0.51100000000E-03 0. -1.
         23    2    1    0    0    0  0.20715776376E+02  0.20653955117E+02 -0.48104663725E+00  0.95743194660E+02  0.91163581901E+02 0.  0.
         11    1    3    3    0    0  0.88113873024E+00 -0.35464113641E+02 -0.59567076827E+01  0.35971685094E+02  0.51100000000E-03 0.  1.
         22    1    1    0    0    0 -0.20715776376E+02 -0.20653955117E+02  0.48104663725E+00  0.29256805340E+02  0.00000000000E+00 0. -1.
</event>
<event>
 5    1  0.1094625E-009  0.9118800E+02  0.7818608E-02  0.1130116E+00
         25   -1    0    0    0    0  0.00000000000E+00  0.00000000000E+00  0.99999998245E-14  0.12500000000E+03  0.12500000000E+03 0.  0.
        -11    1    3    3    0    0 -0.60088933066E+01  0.51493703961E+02  0.31164523150E+02  0.60489138280E+02  0.51100000000E-03 0.  1.
         23    2    1    0    0    0  0.42424851591E+01  0.27890212595E+02  0.66816991647E+01  0.96008488438E+02  0.91526619677E+02 0.  0.
         11    1    3    3    0    0  0.10251378466E+02 -0.23603491366E+02 -0.24482823986E+02  0.35519350159E+02  0.51100000000E-03 0. -1.
         22    1    1    0    0    0 -0.42424851591E+01 -0.27890212595E+02 -0.66816991647E+01  0.28991511562E+02  0.00000000000E+00 0.  1.
</event>
<event>
 5    1  0.1094625E-009  0.9118800E+02  0.7818608E-02  0.1130116E+00
         25   -1    0    0    0    0  0.00000000000E+00  0.00000000000E+00  0.99999998245E-14  0.12500000000E+03  0.12500000000E+03 0.  0.
        -11    1    3    3    0    0 -0.20699625807E+02  0.20969530098E+02  0.34934359538E+02  0.45701260133E+02  0.51100000000E-03 0.  1.
         23    2    1    0    0    0  0.14274521840E+02 -0.11731348897E+02  0.23818706200E+02  0.94855062021E+02  0.89937564484E+02 0.  0.
         11    1    3    3    0    0  0.34974147647E+02 -0.32700878996E+02 -0.11115653338E+02  0.49153801889E+02  0.51100000000E-03 0. -1.
         22    1    1    0    0    0 -0.14274521840E+02  0.11731348897E+02 -0.23818706200E+02  0.30144937979E+02  0.00000000000E+00 0.  1.
</event>
<event>
 5    1  0.1094625E-009  0.9118800E+02  0.7818608E-02  0.1130116E+00
         25   -1    0    0    0    0  0.00000000000E+00  0.00000000000E+00  0.99999998245E-14  0.12500000000E+03  0.12500000000E+03 0.  0.
        -11    1    3    3    0    0  0.33828668422E+01 -0.82557670126E+01 -0.28883550492E+02  0.30230133415E+02  0.51100000000E-03 0.  1.
         23    2    1    0    0    0 -0.16554733747E+02 -0.30588478859E+02  0.17985059147E+02  0.85844200929E+02  0.76394045790E+02 0.  0.
         11    1    3    3    0    0 -0.19937600590E+02 -0.22332711847E+02  0.46868609639E+02  0.55614067514E+02  0.51100000000E-03 0. -1.
         22    1    1    0    0    0  0.16554733747E+02  0.30588478859E+02 -0.17985059147E+02  0.39155799071E+02  0.00000000000E+00 0. -1.
</event>
<event>
 5    1  0.1094625E-009  0.9118800E+02  0.7818608E-02  0.1130116E+00
         25   -1    0    0    0    0  0.00000000000E+00  0.00000000000E+00  0.99999998245E-14  0.12500000000E+03  0.12500000000E+03 0.  0.
        -11    1    3    3    0    0  0.90719691576E+01 -0.86001576565E+01  0.41628245154E+02  0.43464630805E+02  0.51100000000E-03 0. -1.
         23    2    1    0    0    0 -0.16372778157E+00  0.28046933698E+02  0.42266888287E+01  0.96635899536E+02  0.92379515501E+02 0.  0.
         11    1    3    3    0    0 -0.92356969392E+01  0.36647091355E+02 -0.37401556326E+02  0.53171268732E+02  0.51100000000E-03 0.  1.
         22    1    1    0    0    0  0.16372778157E+00 -0.28046933698E+02 -0.42266888287E+01  0.28364100464E+02  0.00000000000E+00 0. -1.
</event>
<event>
 5    1  0.1094625E-009  0.9118800E+02  0.7818608E-02  0.1130116E+00
         25   -1    0    0    0    0  0.00000000000E+00  0.00000000000E+00  0.99999998245E-14  0.12500000000E+03  0.12500000000E+03 0.  0.
        -11    1    3    3    0    0  0.19380429138E+02  0.52127725013E+02 -0.37078113120E+01  0.55737317962E+02  0.51100000000E-03 0.  1.
         23    2    1    0    0    0 -0.11401683774E+02  0.26870666549E+02  0.72734221666E+00  0.95801367492E+02  0.91243311387E+02 0.  0.
         11    1    3    3    0    0 -0.30782112912E+02 -0.25257058464E+02  0.44351535286E+01  0.40064049530E+02  0.51100000000E-03 0. -1.
         22    1    1    0    0    0  0.11401683774E+02 -0.26870666549E+02 -0.72734221666E+00  0.29198632508E+02  0.00000000000E+00 0.  1.
</event>
<event>
 5    1  0.1094625E-009  0.9118800E+02  0.7818608E-02  0.1130116E+00
         25   -1    0    0    0    0  0.00000000000E+00  0.00000000000E+00  0.99999998245E-14  0.12500000000E+03  0.12500000000E+03 0.  0.
        -11    1    3    3    0    0  0.41844631966E+02 -0.43966896956E+01 -0.15181956165E+02  0.44730257074E+02  0.51100000000E-03 0. -1.
         23    2    1    0    0    0  0.81166812925E+01 -0.19420105181E+02  0.20169761282E+02  0.95847979991E+02  0.91307146477E+02 0.  0.
         11    1    3    3    0    0 -0.33727950673E+02 -0.15023415485E+02  0.35351717448E+02  0.51117722917E+02  0.51100000000E-03 0.  1.
         22    1    1    0    0    0 -0.81166812925E+01  0.19420105181E+02 -0.20169761282E+02  0.29152020009E+02  0.00000000000E+00 0.  1.
</event>
<event>
 5    1  0.1094625E-009  0.9118800E+02  0.7818608E-02  0.1130116E+00
         25   -1    0    0    0    0  0.00000000000E+00  0.00000000000E+00  0.99999998245E-14  0.12500000000E+03  0.12500000000E+03 0.  0.
        -11    1    3    3    0    0 -0.53223034002E+02 -0.36758455966E+01  0.27719817407E+02  0.60121472591E+02  0.51100000000E-03 0.  1.
         23    2    1    0    0    0 -0.27868059977E+02  0.56692426886E+01  0.36156126281E+01  0.96332217836E+02  0.91967681600E+02 0.  0.
         11    1    3    3    0    0  0.25354974025E+02  0.93450882852E+01 -0.24104204779E+02  0.36210745244E+02  0.51100000000E-03 0. -1.
         22    1    1    0    0    0  0.27868059977E+02 -0.56692426886E+01 -0.36156126281E+01  0.28667782164E+02  0.00000000000E+00 0.  1.
</event>
<event>
 5    1  0.1094625E-009  0.9118800E+02  0.7818608E-02  0.1130116E+00
         25   -1    0    0    0    0  0.00000000000E+00  0.00000000000E+00  0.99999998245E-14  0.12500000000E+03  0.12500000000E+03 0.  0.
        -11    1    3    3    0    0  0.36095848918E+01  0.20399656866E+02 -0.22269763313E+02  0.30415743648E+02  0.51100000000E-03 0. -1.
         23    2    1    0    0    0 -0.20432387887E+02 -0.22151076634E+02  0.14481932087E+02  0.91565302039E+02  0.85242744617E+02 0.  0.
         11    1    3    3    0    0 -0.24041972779E+02 -0.42550733500E+02  0.36751695400E+02  0.61149558391E+02  0.51100000000E-03 0.  1.
         22    1    1    0    0    0  0.20432387887E+02  0.22151076634E+02 -0.14481932087E+02  0.33434697961E+02  0.00000000000E+00 0.  1.
</event>
<event>
 5    1  0.1094625E-009  0.9118800E+02  0.7818608E-02  0.1130116E+00
         25   -1    0    0    0    0  0.00000000000E+00  0.00000000000E+00  0.99999998245E-14  0.12500000000E+03  0.12500000000E+03 0.  0.
        -11    1    3    3    0    0 -0.17986449041E+02 -0.11400525874E+02  0.34362111914E+02  0.40425722934E+02  0.51100000000E-03 0. -1.
         23    2    1    0    0    0  0.23958424775E+02  0.11018216378E+02  0.24514847098E+02  0.88994654034E+02  0.81385892565E+02 0.  0.
         11    1    3    3    0    0  0.41944873816E+02  0.22418742252E+02 -0.98472648157E+01  0.48568931100E+02  0.51100000000E-03 0.  1.
         22    1    1    0    0    0 -0.23958424775E+02 -0.11018216378E+02 -0.24514847098E+02  0.36005345966E+02  0.00000000000E+00 0. -1.
</event>
<event>
 5    1  0.1094625E-009  0.9118800E+02  0.7818608E-02  0.1130116E+00
         25   -1    0    0    0    0  0.00000000000E+00  0.00000000000E+00  0.99999998245E-14  0.12500000000E+03  0.12500000000E+03 0.  0.
        -11    1    3    3    0    0 -0.24351507717E+02  0.11283267345E+01  0.30069563227E+02  0.38709787938E+02  0.51100000000E-03 0.  1.
         23    2    1    0    0    0  0.22378261246E+02 -0.18137419882E+02  0.30234361455E+01  0.96036337550E+02  0.91564645948E+02 0.  0.
         11    1    3    3    0    0  0.46729768963E+02 -0.19265746616E+02 -0.27046127082E+02  0.57326549612E+02  0.51100000000E-03 0. -1.
         22    1    1    0    0    0 -0.22378261246E+02  0.18137419882E+02 -0.30234361455E+01  0.28963662450E+02  0.00000000000E+00 0. -1.
</event>
<event>
 5    1  0.1094625E-009  0.9118800E+02  0.7818608E-02  0.1130116E+00
         25   -1    0    0    0    0  0.00000000000E+00  0.00000000000E+00  0.99999998245E-14  0.12500000000E+03  0.12500000000E+03 0.  0.
        -11    1    3    3    0    0  0.34699969228E+02  0.23558998725E+02 -0.12032906333E+02  0.43633761245E+02  0.51100000000E-03 0.  1.
         23    2    1    0    0    0  0.11551910953E+02 -0.15738984644E+02  0.18164464863E+02  0.98333352891E+02  0.94648498259E+02 0.  0.
         11    1    3    3    0    0 -0.23148058275E+02 -0.39297983369E+02  0.30197371197E+02  0.54699591645E+02  0.51100000000E-03 0. -1.
         22    1    1    0    0    0 -0.11551910953E+02  0.15738984644E+02 -0.18164464863E+02  0.26666647109E+02  0.00000000000E+00 0. -1.
</event>
<event>
 5    1  0.1094625E-009  0.9118800E+02  0.7818608E-02  0.1130116E+00
         25   -1    0    0    0    0  0.00000000000E+00  0.00000000000E+00  0.99999998245E-14  0.12500000000E+03  0.12500000000E+03 0.  0.
        -11    1    3    3    0    0  0.33092203921E+02 -0.27750690156E+02 -0.29086623032E+02  0.52069438293E+02  0.51100000000E-03 0. -1.
         23    2    1    0    0    0  0.26497839588E+02 -0.85721967568E+01  0.94281746372E+01  0.95597473968E+02  0.90963555846E+02 0.  0.
         11    1    3    3    0    0 -0.65943643330E+01  0.19178493400E+02  0.38514797669E+02  0.43528035675E+02  0.51100000000E-03 0.  1.
         22    1    1    0    0    0 -0.26497839588E+02  0.85721967568E+01 -0.94281746372E+01  0.29402526032E+02  0.00000000000E+00 0. -1.
</event>
<event>
 5    1  0.1094625E-009  0.9118800E+02  0.7818608E-02  0.1130116E+00
         25   -1    0    0    0    0  0.00000000000E+00  0.00000000000E+00  0.99999998245E-14  0.12500000000E+03  0.12500000000E+03 0.  0.
        -11    1    3    3    0    0 -0.13542468818E+02  0.23506870772E+00  0.33182800622E+02  0.35840646986E+02  0.51100000000E-03 0.  1.
         23    2    1    0    0    0  0.15001355817E+01 -0.20002109441E+02 -0.21218318414E+02  0.95801509882E+02  0.91243506456E+02 0.  0.
         11    1    3    3    0    0  0.15042604400E+02 -0.20237178149E+02 -0.54401119036E+02  0.59960862896E+02  0.51100000000E-03 0. -1.
         22    1    1    0    0    0 -0.15001355817E+01  0.20002109441E+02  0.21218318414E+02  0.29198490118E+02  0.00000000000E+00 0. -1.
</event>
<event>
 5    1  0.1094625E-009  0.9118800E+02  0.7818608E-02  0.1130116E+00
         25   -1    0    0    0    0  0.00000000000E+00  0.00000000000E+00  0.99999998245E-14  0.12500000000E+03  0.12500000000E+03 0.  0.
        -11    1    3    3    0    0 -0.34518491953E+02  0.41151065987E+02  0.16353465592E+02  0.56145991448E+02  0.51100000000E-03 0.  1.
         23    2    1    0    0    0 -0.75495714224E+01  0.22519758750E+02 -0.10987071886E+02  0.98830336046E+02  0.95302591841E+02 0.  0.
         11    1    3    3    0    0  0.26968920531E+02 -0.18631307236E+02 -0.27340537478E+02  0.42684344598E+02  0.51100000000E-03 0. -1.
         22    1    1    0    0    0  0.75495714224E+01 -0.22519758750E+02  0.10987071886E+02  0.26169663954E+02  0.00000000000E+00 0.  1.
</event>
<event>
 5    1  0.1094625E-009  0.9118800E+02  0.7818608E-02  0.1130116E+00
         25   -1    0    0    0    0  0.00000000000E+00  0.00000000000E+00  0.99999998245E-14  0.12500000000E+03  0.12500000000E+03 0.  0.
        -11    1    3    3    0    0  0.41423042315E+02 -0.13670937381E+02  0.41407445227E+01  0.43816763105E+02  0.51100000000E-03 0.  1.
         23    2    1    0    0    0  0.39735422156E+01  0.21781755354E+02  0.17141008815E+02  0.96999141312E+02  0.92869722343E+02 0.  0.
         11    1    3    3    0    0 -0.37449500100E+02  0.35452692735E+02  0.13000264293E+02  0.53182378207E+02  0.51100000000E-03 0. -1.
         22    1    1    0    0    0 -0.39735422156E+01 -0.21781755354E+02 -0.17141008815E+02  0.28000858688E+02  0.00000000000E+00 0. -1.
</event>
<event>
 5    1  0.1094625E-009  0.9118800E+02  0.7818608E-02  0.1130116E+00
         25   -1    0    0    0    0  0.00000000000E+00  0.00000000000E+00  0.99999998245E-14  0.12500000000E+03  0.12500000000E+03 0.  0.
        -11    1    3    3    0    0 -0.18193701533E+02 -0.57943129823E+02  0.13299940602E+02  0.62171581043E+02  0.51100000000E-03 0.  1.
         23    2    1    0    0    0 -0.63227685907E+01 -0.29190178095E+02  0.28045681093E+01  0.95001508335E+02  0.90140873547E+02 0.  0.
         11    1    3    3    0    0  0.11870932943E+02  0.28752951728E+02 -0.10495372492E+02  0.32829927292E+02  0.51100000000E-03 0. -1.
         22    1    1    0    0    0  0.63227685907E+01  0.29190178095E+02 -0.28045681093E+01  0.29998491665E+02  0.00000000000E+00 0.  1.
</event>
<event>
 5    1  0.1094625E-009  0.9118800E+02  0.7818608E-02  0.1130116E+00
         25   -1    0    0    0    0  0.00000000000E+00  0.00000000000E+00  0.99999998245E-14  0.12500000000E+03  0.12500000000E+03 0.  0.
        -11    1    3    3    0    0 -0.87175228169E+01 -0.47088550505E+01 -0.48399608775E+02  0.49403346544E+02  0.51100000000E-03 0.  1.
         23    2    1    0    0    0 -0.28837975413E+02 -0.21124055194E+01 -0.73919615371E+01  0.95154863405E+02  0.90353283567E+02 0.  0.
         11    1    3    3    0    0 -0.20120452596E+02  0.25964495311E+01  0.41007647238E+02  0.45751516861E+02  0.51100000000E-03 0. -1.
         22    1    1    0    0    0  0.28837975413E+02  0.21124055194E+01  0.73919615371E+01  0.29845136595E+02  0.00000000000E+00 0.  1.
</event>
<event>
 5    1  0.1094625E-009  0.9118800E+02  0.7818608E-02  0.1130116E+00
         25   -1    0    0    0    0  0.00000000000E+00  0.00000000000E+00  0.99999998245E-14  0.12500000000E+03  0.12500000000E+03 0.  0.
        -11    1    3    3    0    0  0.27841434307E+02 -0.19728047746E+02  0.43960526399E+02  0.55649521235E+02  0.51100000000E-03 0.  1.
         23    2    1    0    0    0  0.14500721174E+02 -0.26309619112E+02  0.90057101911E+01  0.93638083789E+02  0.88229932264E+02 0.  0.
         11    1    3    3    0    0 -0.13340713133E+02 -0.65815713656E+01 -0.34954816208E+02  0.37988562554E+02  0.51100000000E-03 0. -1.
         22    1    1    0    0    0 -0.14500721174E+02  0.26309619112E+02 -0.90057101911E+01  0.31361916211E+02  0.00000000000E+00 0.  1.
</event>
<event>
 5    1  0.1094625E-009  0.9118800E+02  0.7818608E-02  0.1130116E+00
         25   -1    0    0    0    0  0.00000000000E+00  0.00000000000E+00  0.99999998245E-14  0.12500000000E+03  0.12500000000E+03 0.  0.
        -11    1    3    3    0    0  0.24915651270E+02  0.52084230931E+02  0.22603007974E+02  0.62003651180E+02  0.51100000000E-03 0.  1.
         23    2    1    0    0    0  0.16165329095E+02  0.23339126796E+02  0.74891841291E+01  0.95638110019E+02  0.91019379830E+02 0.  0.
         11    1    3    3    0    0 -0.87503221754E+01 -0.28745104135E+02 -0.15113823845E+02  0.33634458839E+02  0.51100000000E-03 0. -1.
         22    1    1    0    0    0 -0.16165329095E+02 -0.23339126796E+02 -0.74891841291E+01  0.29361889981E+02  0.00000000000E+00 0.  1.
</event>
<event>
 5    1  0.1094625E-009  0.9118800E+02  0.7818608E-02  0.1130116E+00
         25   -1    0    0    0    0  0.00000000000E+00  0.00000000000E+00  0.99999998245E-14  0.12500000000E+03  0.12500000000E+03 0.  0.
        -11    1    3    3    0    0  0.41590334145E+02  0.84089998729E+01  0.83340594781E+01  0.43242614639E+02  0.51100000000E-03 0.  1.
         23    2    1    0    0    0  0.15398488563E+02 -0.29891491687E+02 -0.36857427502E+01  0.91173983017E+02  0.84666969677E+02 0.  0.
         11    1    3    3    0    0 -0.26191845582E+02 -0.38300491560E+02 -0.12019802228E+02  0.47931368378E+02  0.51100000000E-03 0. -1.
         22    1    1    0    0    0 -0.15398488563E+02  0.29891491687E+02  0.36857427502E+01  0.33826016983E+02  0.00000000000E+00 0.  1.
</event>
<event>
 5    1  0.1094625E-009  0.9118800E+02  0.7818608E-02  0.1130116E+00
         25   -1    0    0    0    0  0.00000000000E+00  0.00000000000E+00  0.99999998245E-14  0.12500000000E+03  0.12500000000E+03 0.  0.
        -11    1    3    3    0    0 -0.30260523836E+01  0.47196922043E+02  0.26601380044E+02  0.54261771662E+02  0.51100000000E-03 0.  1.
         23    2    1    0    0    0 -0.58809201320E+01  0.24698772861E+02 -0.10321241446E+02  0.97593018637E+02  0.93665653573E+02 0.  0.
         11    1    3    3    0    0 -0.28548677483E+01 -0.22498149182E+02 -0.36922621490E+02  0.43331246975E+02  0.51100000000E-03 0. -1.
         22    1    1    0    0    0  0.58809201320E+01 -0.24698772861E+02  0.10321241446E+02  0.27406981363E+02  0.00000000000E+00 0. -1.
</event>
<event>
 5    1  0.1094625E-009  0.9118800E+02  0.7818608E-02  0.1130116E+00
         25   -1    0    0    0    0  0.00000000000E+00  0.00000000000E+00  0.99999998245E-14  0.12500000000E+03  0.12500000000E+03 0.  0.
        -11    1    3    3    0    0 -0.67882458910E+01  0.31921024829E+02 -0.90256290319E+01  0.33859918607E+02  0.51100000000E-03 0. -1.
         23    2    1    0    0    0 -0.15139404350E+01 -0.27477531257E+02  0.88144788033E+01  0.96103602712E+02  0.91656427369E+02 0.  0.
         11    1    3    3    0    0  0.52743054559E+01 -0.59398556086E+02  0.17840107835E+02  0.62243684105E+02  0.51100000000E-03 0.  1.
         22    1    1    0    0    0  0.15139404350E+01  0.27477531257E+02 -0.88144788033E+01  0.28896397288E+02  0.00000000000E+00 0.  1.
</event>
<event>
 5    1  0.1094625E-009  0.9118800E+02  0.7818608E-02  0.1130116E+00
         25   -1    0    0    0    0  0.00000000000E+00  0.00000000000E+00  0.99999998245E-14  0.12500000000E+03  0.12500000000E+03 0.  0.
        -11    1    3    3    0    0 -0.10510858642E+02  0.25811926644E+02 -0.26490124489E+02  0.38450752947E+02  0.51100000000E-03 0. -1.
         23    2    1    0    0    0  0.28365808993E+02  0.23831409915E+01  0.79692083493E+01  0.95439777360E+02  0.90746594095E+02 0.  0.
         11    1    3    3    0    0  0.38876667635E+02 -0.23428785653E+02  0.34459332838E+02  0.56989024413E+02  0.51100000000E-03 0.  1.
         22    1    1    0    0    0 -0.28365808993E+02 -0.23831409915E+01 -0.79692083493E+01  0.29560222640E+02  0.00000000000E+00 0.  1.
</event>
<event>
 5    1  0.1094625E-009  0.9118800E+02  0.7818608E-02  0.1130116E+00
         25   -1    0    0    0    0  0.00000000000E+00  0.00000000000E+00  0.99999998245E-14  0.12500000000E+03  0.12500000000E+03 0.  0.
        -11    1    3    3    0    0 -0.24019043319E+02  0.17961382869E+02 -0.22115492357E+02  0.37264201574E+02  0.51100000000E-03 0.  1.
         23    2    1    0    0    0  0.57577592014E+01  0.13564065810E+02  0.26636359979E+02  0.94559380012E+02  0.89525666727E+02 0.  0.
         11    1    3    3    0    0  0.29776802521E+02 -0.43973170589E+01  0.48751852337E+02  0.57295178437E+02  0.51100000000E-03 0. -1.
         22    1    1    0    0    0 -0.57577592014E+01 -0.13564065810E+02 -0.26636359979E+02  0.30440619988E+02  0.00000000000E+00 0. -1.
</event>
<event>
 5    1  0.1094625E-009  0.9118800E+02  0.7818608E-02  0.1130116E+00
         25   -1    0    0    0    0  0.00000000000E+00  0.00000000000E+00  0.99999998245E-14  0.12500000000E+03  0.12500000000E+03 0.  0.
        -11    1    3    3    0    0 -0.11420494254E+02  0.31676715353E+02 -0.19001513857E+01  0.33726140605E+02  0.51100000000E-03 0.  1.
         23    2    1    0    0    0  0.31554236426E+02 -0.78232481211E+01  0.32782424294E+01  0.92325546355E+02  0.86350371097E+02 0.  0.
         11    1    3    3    0    0  0.42974730680E+02 -0.39499963474E+02  0.51783938151E+01  0.58599405750E+02  0.51100000000E-03 0. -1.
         22    1    1    0    0    0 -0.31554236426E+02  0.78232481211E+01 -0.32782424294E+01  0.32674453645E+02  0.00000000000E+00 0. -1.
</event>
<event>
 5    1  0.1094625E-009  0.9118800E+02  0.7818608E-02  0.1130116E+00
         25   -1    0    0    0    0  0.00000000000E+00  0.00000000000E+00  0.99999998245E-14  0.12500000000E+03  0.12500000000E+03 0.  0.
        -11    1    3    3    0    0  0.57337528751E+02  0.20827969465E+02  0.52819867579E+01  0.61231494344E+02  0.51100000000E-03 0.  1.
         23    2    1    0    0    0  0.23674845418E+02  0.13370643711E+02 -0.53021849036E+01  0.97298274718E+02  0.93271478382E+02 0.  0.
         11    1    3    3    0    0 -0.33662683332E+02 -0.74573257541E+01 -0.10584171661E+02  0.36066780374E+02  0.51100000000E-03 0. -1.
         22    1    1    0    0    0 -0.23674845418E+02 -0.13370643711E+02  0.53021849036E+01  0.27701725282E+02  0.00000000000E+00 0.  1.
</event>
<event>
 5    1  0.1094625E-009  0.9118800E+02  0.7818608E-02  0.1130116E+00
         25   -1    0    0    0    0  0.00000000000E+00  0.00000000000E+00  0.99999998245E-14  0.12500000000E+03  0.12500000000E+03 0.  0.
        -11    1    3    3    0    0  0.56392293583E+01  0.17898941437E+02  0.29299642225E+02  0.34794281816E+02  0.51100000000E-03 0.  1.
         23    2    1    0    0    0 -0.20443417370E+02 -0.63412656115E+00 -0.21814216345E+02  0.95096898739E+02  0.90273056251E+02 0.  0.
         11    1    3    3    0    0 -0.26082646728E+02 -0.18533067998E+02 -0.51113858569E+02  0.60302616924E+02  0.51100000000E-03 0. -1.
         22    1    1    0    0    0  0.20443417370E+02  0.63412656115E+00  0.21814216345E+02  0.29903101261E+02  0.00000000000E+00 0. -1.
</event>
<event>
 5    1  0.1094625E-009  0.9118800E+02  0.7818608E-02  0.1130116E+00
         25   -1    0    0    0    0  0.00000000000E+00  0.00000000000E+00  0.99999998245E-14  0.12500000000E+03  0.12500000000E+03 0.  0.
        -11    1    3    3    0    0  0.19144037883E+02  0.31903398637E+02  0.23229373895E+02  0.43862567672E+02  0.51100000000E-03 0. -1.
         23    2    1    0    0    0  0.26155475609E+02 -0.13878557478E+02  0.66363835774E+00  0.95383050835E+02  0.90668421783E+02 0.  0.
         11    1    3    3    0    0  0.70114377260E+01 -0.45781956115E+02 -0.22565735537E+02  0.51520483162E+02  0.51100000000E-03 0.  1.
         22    1    1    0    0    0 -0.26155475609E+02  0.13878557478E+02 -0.66363835774E+00  0.29616949165E+02  0.00000000000E+00 0. -1.
</event>
<event>
 5    1  0.1094625E-009  0.9118800E+02  0.7818608E-02  0.1130116E+00
         25   -1    0    0    0    0  0.00000000000E+00  0.00000000000E+00  0.99999998245E-14  0.12500000000E+03  0.12500000000E+03 0.  0.
        -11    1    3    3    0    0  0.55053205985E+01  0.25415533655E+02  0.41890656627E+02  0.49306034303E+02  0.51100000000E-03 0. -1.
         23    2    1    0    0    0 -0.22972286761E+02  0.17530367823E+02  0.65545992281E+01  0.95368892594E+02  0.90648900426E+02 0.  0.
         11    1    3    3    0    0 -0.28477607360E+02 -0.78851658313E+01 -0.35336057399E+02  0.46062858290E+02  0.51100000000E-03 0.  1.
         22    1    1    0    0    0  0.22972286761E+02 -0.17530367823E+02 -0.65545992281E+01  0.29631107406E+02  0.00000000000E+00 0. -1.
</event>
<event>
 5    1  0.1094625E-009  0.9118800E+02  0.7818608E-02  0.1130116E+00
         25   -1    0    0    0    0  0.00000000000E+00  0.00000000000E+00  0.99999998245E-14  0.12500000000E+03  0.12500000000E+03 0.  0.
        -11    1    3    3    0    0 -0.17450815114E+02 -0.21769932698E+02  0.28511437071E+02  0.39891890930E+02  0.51100000000E-03 0.  1.
         23    2    1    0    0    0  0.73105009485E+01  0.25395849206E+02  0.50742243799E+01  0.98090144295E+02  0.94326751633E+02 0.  0.
         11    1    3    3    0    0  0.24761316062E+02  0.47165781904E+02 -0.23437212691E+02  0.58198253365E+02  0.51100000000E-03 0. -1.
         22    1    1    0    0    0 -0.73105009485E+01 -0.25395849206E+02 -0.50742243799E+01  0.26909855705E+02  0.00000000000E+00 0. -1.
</event>
<event>
 5    1  0.1094625E-009  0.9118800E+02  0.7818608E-02  0.1130116E+00
         25   -1    0    0    0    0  0.00000000000E+00  0.00000000000E+00  0.99999998245E-14  0.12500000000E+03  0.12500000000E+03 0.  0.
        -11    1    3    3    0    0  0.23736632221E+02  0.49761381814E+02  0.13218466295E+02  0.56695243899E+02  0.51100000000E-03 0.  1.
         23    2    1    0    0    0 -0.66011588392E+01  0.25166164824E+02  0.13364549506E+02  0.95750686616E+02  0.91173854004E+02 0.  0.
         11    1    3    3    0    0 -0.30337791061E+02 -0.24595216990E+02  0.14608321103E+00  0.39055442717E+02  0.51100000000E-03 0. -1.
         22    1    1    0    0    0  0.66011588392E+01 -0.25166164824E+02 -0.13364549506E+02  0.29249313384E+02  0.00000000000E+00 0.  1.
</event>
<event>
 5    1  0.1094625E-009  0.9118800E+02  0.7818608E-02  0.1130116E+00
         25   -1    0    0    0    0  0.00000000000E+00  0.00000000000E+00  0.99999998245E-14  0.12500000000E+03  0.12500000000E+03 0.  0.
        -11    1    3    3    0    0 -0.37857479473E+02  0.22955048133E+01  0.46758829794E+02  0.60206696126E+02  0.51100000000E-03 0.  1.
         23    2    1    0    0    0 -0.80956536027E+01 -0.20505994075E+01  0.28292655098E+02  0.95500527163E+02  0.90830236104E+02 0.  0.
         11    1    3    3    0    0  0.29761825871E+02 -0.43461042209E+01 -0.18466174696E+02  0.35293831037E+02  0.51100000000E-03 0. -1.
         22    1    1    0    0    0  0.80956536027E+01  0.20505994075E+01 -0.28292655098E+02  0.29499472837E+02  0.00000000000E+00 0.  1.
</event>
<event>
 5    1  0.1094625E-009  0.9118800E+02  0.7818608E-02  0.1130116E+00
         25   -1    0    0    0    0  0.00000000000E+00  0.00000000000E+00  0.99999998245E-14  0.12500000000E+03  0.12500000000E+03 0.  0.
        -11    1    3    3    0    0 -0.14916095270E+02  0.16700928008E+00 -0.39131307594E+02  0.41878121072E+02  0.51100000000E-03 0. -1.
         23    2    1    0    0    0 -0.25061361819E+02  0.73940014916E+01  0.13238112206E+02  0.95708521221E+02  0.91116026611E+02 0.  0.
         11    1    3    3    0    0 -0.10145266549E+02  0.72269922116E+01  0.52369419800E+02  0.53830400149E+02  0.51100000000E-03 0.  1.
         22    1    1    0    0    0  0.25061361819E+02 -0.73940014916E+01 -0.13238112206E+02  0.29291478779E+02  0.00000000000E+00 0.  1.
</event>
<event>
 5    1  0.1094625E-009  0.9118800E+02  0.7818608E-02  0.1130116E+00
         25   -1    0    0    0    0  0.00000000000E+00  0.00000000000E+00  0.99999998245E-14  0.12500000000E+03  0.12500000000E+03 0.  0.
        -11    1    3    3    0    0  0.39910290198E+02  0.44864451463E+02  0.11770988358E+02  0.61189921032E+02  0.51100000000E-03 0. -1.
         23    2    1    0    0    0  0.18882689513E+02  0.16886322655E+02  0.13621826836E+02  0.96237906502E+02  0.91839406713E+02 0.  0.
         11    1    3    3    0    0 -0.21027600685E+02 -0.27978128808E+02  0.18508384771E+01  0.35047985470E+02  0.51100000000E-03 0.  1.
         22    1    1    0    0    0 -0.18882689513E+02 -0.16886322655E+02 -0.13621826836E+02  0.28762093498E+02  0.00000000000E+00 0. -1.
</event>
<event>
 5    1  0.1094625E-009  0.9118800E+02  0.7818608E-02  0.1130116E+00
         25   -1    0    0    0    0  0.00000000000E+00  0.00000000000E+00  0.99999998245E-14  0.12500000000E+03  0.12500000000E+03 0.  0.
        -11    1    3    3    0    0  0.38134303592E+02 -0.15620864809E+02  0.33739067415E+02  0.53259376621E+02  0.51100000000E-03 0. -1.
         23    2    1    0    0    0  0.30405325061E+02 -0.27708311453E+01 -0.43186505446E+01  0.94164759774E+02  0.88972973107E+02 0.  0.
         11    1    3    3    0    0 -0.77289785310E+01  0.12850033664E+02 -0.38057717960E+02  0.40905383152E+02  0.51100000000E-03 0.  1.
         22    1    1    0    0    0 -0.30405325061E+02  0.27708311453E+01  0.43186505446E+01  0.30835240226E+02  0.00000000000E+00 0.  1.
</event>
<event>
 5    1  0.1094625E-009  0.9118800E+02  0.7818608E-02  0.1130116E+00
         25   -1    0    0    0    0  0.00000000000E+00  0.00000000000E+00  0.99999998245E-14  0.12500000000E+03  0.12500000000E+03 0.  0.
        -11    1    3    3    0    0 -0.22776387756E+01 -0.45184755642E+02  0.86593862323E+01  0.46063377547E+02  0.51100000000E-03 0.  1.
         23    2    1    0    0    0  0.27418167537E+02 -0.53306907345E+01  0.86342486215E+01  0.95764363799E+02  0.91192603591E+02 0.  0.
         11    1    3    3    0    0  0.29695806313E+02  0.39854064908E+02 -0.25137610784E-01  0.49700986252E+02  0.51100000000E-03 0. -1.
         22    1    1    0    0    0 -0.27418167537E+02  0.53306907345E+01 -0.86342486215E+01  0.29235636201E+02  0.00000000000E+00 0.  1.
</event>
<event>
 5    1  0.1094625E-009  0.9118800E+02  0.7818608E-02  0.1130116E+00
         25   -1    0    0    0    0  0.00000000000E+00  0.00000000000E+00  0.99999998245E-14  0.12500000000E+03  0.12500000000E+03 0.  0.
        -11    1    3    3    0    0 -0.35947228561E+02  0.50622213362E+02  0.30862611148E+01  0.62163789579E+02  0.51100000000E-03 0.  1.
         23    2    1    0    0    0 -0.12065573592E+02  0.24687351767E+02  0.44071953915E+00  0.97518412763E+02  0.93566036523E+02 0.  0.
         11    1    3    3    0    0  0.23881654969E+02 -0.25934861595E+02 -0.26455415757E+01  0.35354623184E+02  0.51100000000E-03 0. -1.
         22    1    1    0    0    0  0.12065573592E+02 -0.24687351767E+02 -0.44071953915E+00  0.27481587237E+02  0.00000000000E+00 0.  1.
</event>
<event>
 5    1  0.1094625E-009  0.9118800E+02  0.7818608E-02  0.1130116E+00
         25   -1    0    0    0    0  0.00000000000E+00  0.00000000000E+00  0.99999998245E-14  0.12500000000E+03  0.12500000000E+03 0.  0.
        -11    1    3    3    0    0 -0.36989998470E+02  0.57284564976E+01 -0.21554564733E+02  0.43193453922E+02  0.51100000000E-03 0. -1.
         23    2    1    0    0    0  0.14004439014E+02  0.18656668212E+02 -0.17269386024E+02  0.95975402250E+02  0.91481421953E+02 0.  0.
         11    1    3    3    0    0  0.50994437484E+02  0.12928211715E+02  0.42851787092E+01  0.52781948328E+02  0.51100000000E-03 0.  1.
         22    1    1    0    0    0 -0.14004439014E+02 -0.18656668212E+02  0.17269386024E+02  0.29024597750E+02  0.00000000000E+00 0.  1.
</event>
<event>
 5    1  0.1094625E-009  0.9118800E+02  0.7818608E-02  0.1130116E+00
         25   -1    0    0    0    0  0.00000000000E+00  0.00000000000E+00  0.99999998245E-14  0.12500000000E+03  0.12500000000E+03 0.  0.
        -11    1    3    3    0    0 -0.15589158869E+02  0.14560449316E+02  0.50627803558E+02  0.54938174814E+02  0.51100000000E-03 0.  1.
         23    2    1    0    0    0 -0.97937468692E+01 -0.15127613987E+02  0.21702284254E+02  0.96790935419E+02  0.92589059045E+02 0.  0.
         11    1    3    3    0    0  0.57954119997E+01 -0.29688063304E+02 -0.28925519304E+02  0.41852760605E+02  0.51100000000E-03 0. -1.
         22    1    1    0    0    0  0.97937468692E+01  0.15127613987E+02 -0.21702284254E+02  0.28209064581E+02  0.00000000000E+00 0.  1.
</event>
<event>
 5    1  0.1094625E-009  0.9118800E+02  0.7818608E-02  0.1130116E+00
         25   -1    0    0    0    0  0.00000000000E+00  0.00000000000E+00  0.99999998245E-14  0.12500000000E+03  0.12500000000E+03 0.  0.
        -11    1    3    3    0    0 -0.40577422034E+01  0.34370025559E+02 -0.20588731627E+02  0.40269837335E+02  0.51100000000E-03 0.  1.
         23    2    1    0    0    0 -0.98443604905E+01  0.24520608475E+02  0.25815429333E+02  0.88059398149E+02  0.79936534434E+02 0.  0.
         11    1    3    3    0    0 -0.57866182871E+01 -0.98494170844E+01  0.46404160960E+02  0.47789560814E+02  0.51100000000E-03 0. -1.
         22    1    1    0    0    0  0.98443604905E+01 -0.24520608475E+02 -0.25815429333E+02  0.36940601851E+02  0.00000000000E+00 0.  1.
</event>
<event>
 5    1  0.1094625E-009  0.9118800E+02  0.7818608E-02  0.1130116E+00
         25   -1    0    0    0    0  0.00000000000E+00  0.00000000000E+00  0.99999998245E-14  0.12500000000E+03  0.12500000000E+03 0.  0.
        -11    1    3    3    0    0  0.30687311756E+02  0.30488593904E+02  0.30350285085E+01  0.43364465399E+02  0.51100000000E-03 0.  1.
         23    2    1    0    0    0  0.37018942435E+01 -0.11074926805E+02  0.24876067399E+02  0.97519520492E+02  0.93567516388E+02 0.  0.
         11    1    3    3    0    0 -0.26985417513E+02 -0.41563520709E+02  0.21841038891E+02  0.54155055093E+02  0.51100000000E-03 0. -1.
         22    1    1    0    0    0 -0.37018942435E+01  0.11074926805E+02 -0.24876067399E+02  0.27480479508E+02  0.00000000000E+00 0. -1.
</event>
<event>
 5    1  0.1094625E-009  0.9118800E+02  0.7818608E-02  0.1130116E+00
         25   -1    0    0    0    0  0.00000000000E+00  0.00000000000E+00  0.99999998245E-14  0.12500000000E+03  0.12500000000E+03 0.  0.
        -11    1    3    3    0    0  0.39187264275E+02 -0.87784604985E+01 -0.22383282556E+02  0.45975149682E+02  0.51100000000E-03 0. -1.
         23    2    1    0    0    0  0.25590721850E+02  0.53879924558E+01  0.19596866661E+02  0.92320454556E+02  0.86342999942E+02 0.  0.
         11    1    3    3    0    0 -0.13596542425E+02  0.14166452954E+02  0.41980149217E+02  0.46345304873E+02  0.51100000000E-03 0.  1.
         22    1    1    0    0    0 -0.25590721850E+02 -0.53879924558E+01 -0.19596866661E+02  0.32679545444E+02  0.00000000000E+00 0.  1.
</event>
<event>
 5    1  0.1094625E-009  0.9118800E+02  0.7818608E-02  0.1130116E+00
         25   -1    0    0    0    0  0.00000000000E+00  0.00000000000E+00  0.99999998245E-14  0.12500000000E+03  0.12500000000E+03 0.  0.
        -11    1    3    3    0    0  0.35892691151E+02 -0.10086400598E+01 -0.18358509023E+02  0.40327874809E+02  0.51100000000E-03 0.  1.
         23    2    1    0    0    0 -0.66976446249E+01 -0.24046873437E+02  0.11816256405E+02  0.97382352000E+02  0.93384088580E+02 0.  0.
         11    1    3    3    0    0 -0.42590335776E+02 -0.23038233377E+02  0.30174765428E+02  0.57054477191E+02  0.51100000000E-03 0. -1.
         22    1    1    0    0    0  0.66976446249E+01  0.24046873437E+02 -0.11816256405E+02  0.27617648000E+02  0.00000000000E+00 0. -1.
</event>
<event>
 5    1  0.1094625E-009  0.9118800E+02  0.7818608E-02  0.1130116E+00
         25   -1    0    0    0    0  0.00000000000E+00  0.00000000000E+00  0.99999998245E-14  0.12500000000E+03  0.12500000000E+03 0.  0.
        -11    1    3    3    0    0 -0.39578342108E+02  0.68579211854E+01 -0.10492812051E+02  0.41515965026E+02  0.51100000000E-03 0. -1.
         23    2    1    0    0    0  0.96314014682E+01 -0.99507887472E+01 -0.25795590645E+02  0.95722114358E+02  0.91134672817E+02 0.  0.
         11    1    3    3    0    0  0.49209743576E+02 -0.16808709933E+02 -0.15302778595E+02  0.54206149332E+02  0.51100000000E-03 0.  1.
         22    1    1    0    0    0 -0.96314014682E+01  0.99507887472E+01  0.25795590645E+02  0.29277885642E+02  0.00000000000E+00 0.  1.
</event>
<event>
 5    1  0.1094625E-009  0.9118800E+02  0.7818608E-02  0.1130116E+00
         25   -1    0    0    0    0  0.00000000000E+00  0.00000000000E+00  0.99999998245E-14  0.12500000000E+03  0.12500000000E+03 0.  0.
        -11    1    3    3    0    0 -0.20832019167E+02  0.32659378634E+02 -0.32274203163E+02  0.50420553600E+02  0.51100000000E-03 0. -1.
         23    2    1    0    0    0 -0.16715201087E+02  0.20722632828E+02  0.11514163475E+02  0.95993079804E+02  0.91505573333E+02 0.  0.
         11    1    3    3    0    0  0.41168180795E+01 -0.11936745806E+02  0.43788366638E+02  0.45572526204E+02  0.51100000000E-03 0.  1.
         22    1    1    0    0    0  0.16715201087E+02 -0.20722632828E+02 -0.11514163475E+02  0.29006920196E+02  0.00000000000E+00 0.  1.
</event>
<event>
 5    1  0.1094625E-009  0.9118800E+02  0.7818608E-02  0.1130116E+00
         25   -1    0    0    0    0  0.00000000000E+00  0.00000000000E+00  0.99999998245E-14  0.12500000000E+03  0.12500000000E+03 0.  0.
        -11    1    3    3    0    0  0.21490815051E+02 -0.13977676308E+02 -0.27958104068E+02  0.37932652819E+02  0.51100000000E-03 0. -1.
         23    2    1    0    0    0  0.40362991725E+01  0.27968023745E+02  0.77279107322E+01  0.95704562344E+02  0.91110595355E+02 0.  0.
         11    1    3    3    0    0 -0.17454515879E+02  0.41945700053E+02  0.35686014800E+02  0.57771909524E+02  0.51100000000E-03 0.  1.
         22    1    1    0    0    0 -0.40362991725E+01 -0.27968023745E+02 -0.77279107322E+01  0.29295437656E+02  0.00000000000E+00 0.  1.
</event>
<event>
 5    1  0.1094625E-009  0.9118800E+02  0.7818608E-02  0.1130116E+00
         25   -1    0    0    0    0  0.00000000000E+00  0.00000000000E+00  0.99999998245E-14  0.12500000000E+03  0.12500000000E+03 0.  0.
        -11    1    3    3    0    0 -0.18439580096E+02  0.57813709685E+02 -0.26887878556E+01  0.60742676283E+02  0.51100000000E-03 0.  1.
         23    2    1    0    0    0 -0.94769180213E+01  0.25295003889E+02  0.91334098882E+01  0.96485646191E+02  0.92175981404E+02 0.  0.
         11    1    3    3    0    0  0.89626620752E+01 -0.32518705795E+02  0.11822197744E+02  0.35742969908E+02  0.51100000000E-03 0. -1.
         22    1    1    0    0    0  0.94769180213E+01 -0.25295003889E+02 -0.91334098882E+01  0.28514353809E+02  0.00000000000E+00 0.  1.
</event>
<event>
 5    1  0.1094625E-009  0.9118800E+02  0.7818608E-02  0.1130116E+00
         25   -1    0    0    0    0  0.00000000000E+00  0.00000000000E+00  0.99999998245E-14  0.12500000000E+03  0.12500000000E+03 0.  0.
        -11    1    3    3    0    0  0.41777140000E+02  0.18683949949E+01 -0.22628433103E+02  0.47548567921E+02  0.51100000000E-03 0.  1.
         23    2    1    0    0    0  0.23902936978E+02  0.52572490880E+01  0.19674894272E+02  0.93597921585E+02  0.88173013992E+02 0.  0.
         11    1    3    3    0    0 -0.17874203021E+02  0.33888540932E+01  0.42303327374E+02  0.46049353664E+02  0.51100000000E-03 0. -1.
         22    1    1    0    0    0 -0.23902936978E+02 -0.52572490880E+01 -0.19674894272E+02  0.31402078415E+02  0.00000000000E+00 0.  1.
</event>
<event>
 5    1  0.1094625E-009  0.9118800E+02  0.7818608E-02  0.1130116E+00
         25   -1    0    0    0    0  0.00000000000E+00  0.00000000000E+00  0.99999998245E-14  0.12500000000E+03  0.12500000000E+03 0.  0.
        -11    1    3    3    0    0 -0.29276178602E+02  0.39661062590E+02  0.13248888365E+02  0.51045348098E+02  0.51100000000E-03 0. -1.
         23    2    1    0    0    0  0.53642138952E+01  0.13763995441E+02  0.25086977288E+02  0.95886793535E+02  0.91360266986E+02 0.  0.
         11    1    3    3    0    0  0.34640392497E+02 -0.25897067149E+02  0.11838088923E+02  0.44841445437E+02  0.51100000000E-03 0.  1.
         22    1    1    0    0    0 -0.53642138952E+01 -0.13763995441E+02 -0.25086977288E+02  0.29113206465E+02  0.00000000000E+00 0.  1.
</event>
<event>
 5    1  0.1094625E-009  0.9118800E+02  0.7818608E-02  0.1130116E+00
         25   -1    0    0    0    0  0.00000000000E+00  0.00000000000E+00  0.99999998245E-14  0.12500000000E+03  0.12500000000E+03 0.  0.
        -11    1    3    3    0    0  0.30005115038E+02 -0.95166033695E+01  0.36032198116E+01  0.31683684467E+02  0.51100000000E-03 0.  1.
         23    2    1    0    0    0 -0.15171385909E+02  0.81737672751E+01  0.32542827023E+02  0.88175863723E+02  0.80118449378E+02 0.  0.
         11    1    3    3    0    0 -0.45176500946E+02  0.17690370645E+02  0.28939607212E+02  0.56492179256E+02  0.51100000000E-03 0. -1.
         22    1    1    0    0    0  0.15171385909E+02 -0.81737672751E+01 -0.32542827023E+02  0.36824136277E+02  0.00000000000E+00 0. -1.
</event>
<event>
 5    1  0.1094625E-009  0.9118800E+02  0.7818608E-02  0.1130116E+00
         25   -1    0    0    0    0  0.00000000000E+00  0.00000000000E+00  0.99999998245E-14  0.12500000000E+03  0.12500000000E+03 0.  0.
        -11    1    3    3    0    0  0.15816389600E+02 -0.32637489809E+02  0.19467145651E+02  0.41162284692E+02  0.51100000000E-03 0.  1.
         23    2    1    0    0    0 -0.16372771686E+02  0.11383110446E+02  0.21424496274E+02  0.95731383758E+02  0.91147385807E+02 0.  0.
         11    1    3    3    0    0 -0.32189161286E+02  0.44020600256E+02  0.19573506239E+01  0.54569099066E+02  0.51100000000E-03 0. -1.
         22    1    1    0    0    0  0.16372771686E+02 -0.11383110446E+02 -0.21424496274E+02  0.29268616242E+02  0.00000000000E+00 0. -1.
</event>
<event>
 5    1  0.1094625E-009  0.9118800E+02  0.7818608E-02  0.1130116E+00
         25   -1    0    0    0    0  0.00000000000E+00  0.00000000000E+00  0.99999998245E-14  0.12500000000E+03  0.12500000000E+03 0.  0.
        -11    1    3    3    0    0  0.33001673001E+02 -0.40728631934E+01  0.15824039889E+02  0.36825247781E+02  0.51100000000E-03 0.  1.
         23    2    1    0    0    0 -0.26658631971E+02 -0.42466817326E+01  0.30972849182E+01  0.97828137013E+02  0.93978903235E+02 0.  0.
         11    1    3    3    0    0 -0.59660304972E+02 -0.17381853923E+00 -0.12726754971E+02  0.61002889232E+02  0.51100000000E-03 0. -1.
         22    1    1    0    0    0  0.26658631971E+02  0.42466817326E+01 -0.30972849182E+01  0.27171862987E+02  0.00000000000E+00 0. -1.
</event>
<event>
 5    1  0.1094625E-009  0.9118800E+02  0.7818608E-02  0.1130116E+00
         25   -1    0    0    0    0  0.00000000000E+00  0.00000000000E+00  0.99999998245E-14  0.12500000000E+03  0.12500000000E+03 0.  0.
        -11    1    3    3    0    0 -0.34865217087E+02  0.35792500439E+01  0.18707108825E+02  0.39728457235E+02  0.51100000000E-03 0. -1.
         23    2    1    0    0    0  0.11007381101E+02  0.27839158681E+02 -0.49446328556E+00  0.95059631119E+02  0.90221437473E+02 0.  0.
         11    1    3    3    0    0  0.45872598188E+02  0.24259908638E+02 -0.19201572110E+02  0.55331173884E+02  0.51100000000E-03 0.  1.
         22    1    1    0    0    0 -0.11007381101E+02 -0.27839158681E+02  0.49446328556E+00  0.29940368881E+02  0.00000000000E+00 0.  1.
</event>
<event>
 5    1  0.1094625E-009  0.9118800E+02  0.7818608E-02  0.1130116E+00
         25   -1    0    0    0    0  0.00000000000E+00  0.00000000000E+00  0.99999998245E-14  0.12500000000E+03  0.12500000000E+03 0.  0.
        -11    1    3    3    0    0  0.34806224835E+02 -0.23991866175E+02  0.19078502065E+02  0.46379652556E+02  0.51100000000E-03 0.  1.
         23    2    1    0    0    0  0.23724568609E+02  0.16797637030E+02 -0.57030148852E+01  0.95376695927E+02  0.90659660167E+02 0.  0.
         11    1    3    3    0    0 -0.11081656227E+02  0.40789503205E+02 -0.24781516950E+02  0.48997043371E+02  0.51100000000E-03 0. -1.
         22    1    1    0    0    0 -0.23724568609E+02 -0.16797637030E+02  0.57030148852E+01  0.29623304073E+02  0.00000000000E+00 0. -1.
</event>
<event>
 5    1  0.1094625E-009  0.9118800E+02  0.7818608E-02  0.1130116E+00
         25   -1    0    0    0    0  0.00000000000E+00  0.00000000000E+00  0.99999998245E-14  0.12500000000E+03  0.12500000000E+03 0.  0.
        -11    1    3    3    0    0  0.52269658708E+02 -0.13385639865E+02  0.12860783273E+02  0.55467939593E+02  0.51100000000E-03 0. -1.
         23    2    1    0    0    0  0.17760956400E+02  0.33463562732E+01  0.23581285514E+02  0.95289283095E+02  0.90539056621E+02 0.  0.
         11    1    3    3    0    0 -0.34508702308E+02  0.16731996138E+02  0.10720502241E+02  0.39821343502E+02  0.51100000000E-03 0.  1.
         22    1    1    0    0    0 -0.17760956400E+02 -0.33463562732E+01 -0.23581285514E+02  0.29710716905E+02  0.00000000000E+00 0. -1.
</event>
<event>
 5    1  0.1094625E-009  0.9118800E+02  0.7818608E-02  0.1130116E+00
         25   -1    0    0    0    0  0.00000000000E+00  0.00000000000E+00  0.99999998245E-14  0.12500000000E+03  0.12500000000E+03 0.  0.
        -11    1    3    3    0    0  0.13964806626E+02 -0.38650658375E+02 -0.57079458718E+01  0.41490599697E+02  0.51100000000E-03 0. -1.
         23    2    1    0    0    0  0.14962644443E+02  0.80989463780E+01  0.23023257363E+02  0.96372320374E+02  0.92022171749E+02 0.  0.
         11    1    3    3    0    0  0.99783781648E+00  0.46749604753E+02  0.28731203235E+02  0.54881720677E+02  0.51100000000E-03 0.  1.
         22    1    1    0    0    0 -0.14962644443E+02 -0.80989463780E+01 -0.23023257363E+02  0.28627679626E+02  0.00000000000E+00 0. -1.
</event>
<event>
 5    1  0.1094625E-009  0.9118800E+02  0.7818608E-02  0.1130116E+00
         25   -1    0    0    0    0  0.00000000000E+00  0.00000000000E+00  0.99999998245E-14  0.12500000000E+03  0.12500000000E+03 0.  0.
        -11    1    3    3    0    0 -0.27549232848E+02 -0.55278290442E+01 -0.45481111109E+02  0.53460720089E+02  0.51100000000E-03 0.  1.
         23    2    1    0    0    0 -0.10306375085E+01  0.17297602779E+02 -0.26694754167E+02  0.93174237235E+02  0.87570310658E+02 0.  0.
         11    1    3    3    0    0  0.26518595339E+02  0.22825431823E+02  0.18786356943E+02  0.39713517146E+02  0.51100000000E-03 0. -1.
         22    1    1    0    0    0  0.10306375085E+01 -0.17297602779E+02  0.26694754167E+02  0.31825762765E+02  0.00000000000E+00 0.  1.
</event>
<event>
 5    1  0.1094625E-009  0.9118800E+02  0.7818608E-02  0.1130116E+00
         25   -1    0    0    0    0  0.00000000000E+00  0.00000000000E+00  0.99999998245E-14  0.12500000000E+03  0.12500000000E+03 0.  0.
        -11    1    3    3    0    0 -0.11533767556E+02 -0.18384088759E+02 -0.30350718670E+02  0.37311776125E+02  0.51100000000E-03 0.  1.
         23    2    1    0    0    0 -0.21637196829E+02  0.15553540553E+02  0.14663841730E+02  0.94584392746E+02  0.89560583888E+02 0.  0.
         11    1    3    3    0    0 -0.10103429273E+02  0.33937629312E+02  0.45014560399E+02  0.57272616621E+02  0.51100000000E-03 0. -1.
         22    1    1    0    0    0  0.21637196829E+02 -0.15553540553E+02 -0.14663841730E+02  0.30415607254E+02  0.00000000000E+00 0. -1.
</event>
<event>
 5    1  0.1094625E-009  0.9118800E+02  0.7818608E-02  0.1130116E+00
         25   -1    0    0    0    0  0.00000000000E+00  0.00000000000E+00  0.99999998245E-14  0.12500000000E+03  0.12500000000E+03 0.  0.
        -11    1    3    3    0    0 -0.39362652723E+02  0.40670855397E+01  0.35156339775E+02  0.52933239471E+02  0.51100000000E-03 0.  1.
         23    2    1    0    0    0  0.71166768798E+00 -0.82569088325E+01  0.28418541299E+02  0.95397694280E+02  0.90688607719E+02 0.  0.
         11    1    3    3    0    0  0.40074320411E+02 -0.12323994372E+02 -0.67377984760E+01  0.42464454810E+02  0.51100000000E-03 0. -1.
         22    1    1    0    0    0 -0.71166768798E+00  0.82569088325E+01 -0.28418541299E+02  0.29602305720E+02  0.00000000000E+00 0.  1.
</event>
<event>
 5    1  0.1094625E-009  0.9118800E+02  0.7818608E-02  0.1130116E+00
         25   -1    0    0    0    0  0.00000000000E+00  0.00000000000E+00  0.99999998245E-14  0.12500000000E+03  0.12500000000E+03 0.  0.
        -11    1    3    3    0    0 -0.44348325277E+02  0.18652718475E+02 -0.28899250021E+02  0.56123653778E+02  0.51100000000E-03 0.  1.
         23    2    1    0    0    0 -0.17905953910E+02  0.22216012127E+02  0.13194606998E+01  0.96435767877E+02  0.92108316504E+02 0.  0.
         11    1    3    3    0    0  0.26442371367E+02  0.35632936519E+01  0.30218710721E+02  0.40312114098E+02  0.51100000000E-03 0. -1.
         22    1    1    0    0    0  0.17905953910E+02 -0.22216012127E+02 -0.13194606998E+01  0.28564232123E+02  0.00000000000E+00 0.  1.
</event>
<event>
 5    1  0.1094625E-009  0.9118800E+02  0.7818608E-02  0.1130116E+00
         25   -1    0    0    0    0  0.00000000000E+00  0.00000000000E+00  0.99999998245E-14  0.12500000000E+03  0.12500000000E+03 0.  0.
        -11    1    3    3    0    0  0.45489905203E+02  0.24064431918E+02 -0.33492876558E+02  0.61401963644E+02  0.51100000000E-03 0. -1.
         23    2    1    0    0    0  0.15527882888E+02  0.17468117111E+02 -0.13801630439E+02  0.97857132333E+02  0.94017461587E+02 0.  0.
         11    1    3    3    0    0 -0.29962022315E+02 -0.65963148066E+01  0.19691246119E+02  0.36455168690E+02  0.51100000000E-03 0.  1.
         22    1    1    0    0    0 -0.15527882888E+02 -0.17468117111E+02  0.13801630439E+02  0.27142867667E+02  0.00000000000E+00 0. -1.
</event>
<event>
 5    1  0.1094625E-009  0.9118800E+02  0.7818608E-02  0.1130116E+00
         25   -1    0    0    0    0  0.00000000000E+00  0.00000000000E+00  0.99999998245E-14  0.12500000000E+03  0.12500000000E+03 0.  0.
        -11    1    3    3    0    0 -0.97562115432E+01  0.20539756124E+02 -0.26947984441E+02  0.35259879623E+02  0.51100000000E-03 0.  1.
         23    2    1    0    0    0  0.94741695184E+01  0.70440871800E+01  0.27778960503E+02  0.94816400167E+02  0.89883814125E+02 0.  0.
         11    1    3    3    0    0  0.19230381062E+02 -0.13495668944E+02  0.54726944945E+02  0.59556520544E+02  0.51100000000E-03 0. -1.
         22    1    1    0    0    0 -0.94741695184E+01 -0.70440871800E+01 -0.27778960503E+02  0.30183599833E+02  0.00000000000E+00 0. -1.
</event>
<event>
 5    1  0.1094625E-009  0.9118800E+02  0.7818608E-02  0.1130116E+00
         25   -1    0    0    0    0  0.00000000000E+00  0.00000000000E+00  0.99999998245E-14  0.12500000000E+03  0.12500000000E+03 0.  0.
        -11    1    3    3    0    0 -0.54995194345E+01 -0.44113594177E+02  0.38752400824E+02  0.58974591776E+02  0.51100000000E-03 0.  1.
         23    2    1    0    0    0 -0.16714446232E+02 -0.17860878698E+02  0.22154671774E+02  0.91996770126E+02  0.85873118795E+02 0.  0.
         11    1    3    3    0    0 -0.11214926797E+02  0.26252715480E+02 -0.16597729050E+02  0.33022178350E+02  0.51100000000E-03 0. -1.
         22    1    1    0    0    0  0.16714446232E+02  0.17860878698E+02 -0.22154671774E+02  0.33003229874E+02  0.00000000000E+00 0.  1.
</event>
<event>
 5    1  0.1094625E-009  0.9118800E+02  0.7818608E-02  0.1130116E+00
         25   -1    0    0    0    0  0.00000000000E+00  0.00000000000E+00  0.99999998245E-14  0.12500000000E+03  0.12500000000E+03 0.  0.
        -11    1    3    3    0    0 -0.13999522945E+02 -0.88624836124E+01 -0.47344886511E+02  0.50160428004E+02  0.51100000000E-03 0.  1.
         23    2    1    0    0    0  0.21726669424E+01  0.22530487747E+02 -0.19232442222E+02  0.95297639932E+02  0.90550593500E+02 0.  0.
         11    1    3    3    0    0  0.16172189888E+02  0.31392971359E+02  0.28112444289E+02  0.45137211929E+02  0.51100000000E-03 0. -1.
         22    1    1    0    0    0 -0.21726669424E+01 -0.22530487747E+02  0.19232442222E+02  0.29702360068E+02  0.00000000000E+00 0. -1.
</event>
<event>
 5    1  0.1094625E-009  0.9118800E+02  0.7818608E-02  0.1130116E+00
         25   -1    0    0    0    0  0.00000000000E+00  0.00000000000E+00  0.99999998245E-14  0.12500000000E+03  0.12500000000E+03 0.  0.
        -11    1    3    3    0    0  0.88122113485E+01 -0.27667157627E+01 -0.42927171516E+02  0.43909587104E+02  0.51100000000E-03 0. -1.
         23    2    1    0    0    0 -0.10340769295E+02 -0.25226900995E+02  0.19964146081E+01  0.97662960754E+02  0.93758947245E+02 0.  0.
         11    1    3    3    0    0 -0.19152980644E+02 -0.22460185233E+02  0.44923586125E+02  0.53753373650E+02  0.51100000000E-03 0.  1.
         22    1    1    0    0    0  0.10340769295E+02  0.25226900995E+02 -0.19964146081E+01  0.27337039246E+02  0.00000000000E+00 0.  1.
</event>
<event>
 5    1  0.1094625E-009  0.9118800E+02  0.7818608E-02  0.1130116E+00
         25   -1    0    0    0    0  0.00000000000E+00  0.00000000000E+00  0.99999998245E-14  0.12500000000E+03  0.12500000000E+03 0.  0.
        -11    1    3    3    0    0  0.49693642698E+02 -0.15268864952E+02  0.30165128068E+02  0.60104336892E+02  0.51100000000E-03 0.  1.
         23    2    1    0    0    0  0.19867481818E+02  0.29915972774E+01  0.20294041664E+02  0.96442783485E+02  0.92117836878E+02 0.  0.
         11    1    3    3    0    0 -0.29826160881E+02  0.18260462230E+02 -0.98710864036E+01  0.36338446593E+02  0.51100000000E-03 0. -1.
         22    1    1    0    0    0 -0.19867481818E+02 -0.29915972774E+01 -0.20294041664E+02  0.28557216515E+02  0.00000000000E+00 0.  1.
</event>
<event>
 5    1  0.1094625E-009  0.9118800E+02  0.7818608E-02  0.1130116E+00
         25   -1    0    0    0    0  0.00000000000E+00  0.00000000000E+00  0.99999998245E-14  0.12500000000E+03  0.12500000000E+03 0.  0.
        -11    1    3    3    0    0  0.30477166849E+02  0.50492104111E+02  0.89194543024E+01  0.59647857816E+02  0.51100000000E-03 0. -1.
         23    2    1    0    0    0  0.46524501280E+01  0.26244716059E+02  0.13069969565E+02  0.95314068692E+02  0.90573269639E+02 0.  0.
         11    1    3    3    0    0 -0.25824716721E+02 -0.24247388052E+02  0.41505152626E+01  0.35666210877E+02  0.51100000000E-03 0.  1.
         22    1    1    0    0    0 -0.46524501280E+01 -0.26244716059E+02 -0.13069969565E+02  0.29685931308E+02  0.00000000000E+00 0. -1.
</event>
<event>
 5    1  0.1094625E-009  0.9118800E+02  0.7818608E-02  0.1130116E+00
         25   -1    0    0    0    0  0.00000000000E+00  0.00000000000E+00  0.99999998245E-14  0.12500000000E+03  0.12500000000E+03 0.  0.
        -11    1    3    3    0    0  0.28838436903E+02 -0.27904561148E+02  0.94603096949E+01  0.41228842279E+02  0.51100000000E-03 0. -1.
         23    2    1    0    0    0  0.71841716717E+00  0.11996326681E+02 -0.22441631804E+02  0.99543079230E+02  0.96232893584E+02 0.  0.
         11    1    3    3    0    0 -0.28120019736E+02  0.39900887829E+02 -0.31901941499E+02  0.58314236951E+02  0.51100000000E-03 0.  1.
         22    1    1    0    0    0 -0.71841716717E+00 -0.11996326681E+02  0.22441631804E+02  0.25456920770E+02  0.00000000000E+00 0.  1.
</event>
<event>
 5    1  0.1094625E-009  0.9118800E+02  0.7818608E-02  0.1130116E+00
         25   -1    0    0    0    0  0.00000000000E+00  0.00000000000E+00  0.99999998245E-14  0.12500000000E+03  0.12500000000E+03 0.  0.
        -11    1    3    3    0    0 -0.30004233240E+01 -0.50084507327E+02  0.15303934662E+02  0.52456370736E+02  0.51100000000E-03 0. -1.
         23    2    1    0    0    0 -0.52401308783E+01 -0.90167563304E+01  0.27691202381E+02  0.95410076789E+02  0.90705673456E+02 0.  0.
         11    1    3    3    0    0 -0.22397075544E+01  0.41067750997E+02  0.12387267719E+02  0.42953706053E+02  0.51100000000E-03 0.  1.
         22    1    1    0    0    0  0.52401308783E+01  0.90167563304E+01 -0.27691202381E+02  0.29589923211E+02  0.00000000000E+00 0. -1.
</event>
<event>
 5    1  0.1094625E-009  0.9118800E+02  0.7818608E-02  0.1130116E+00
         25   -1    0    0    0    0  0.00000000000E+00  0.00000000000E+00  0.99999998245E-14  0.12500000000E+03  0.12500000000E+03 0.  0.
        -11    1    3    3    0    0  0.37185445643E+02  0.41141988340E+02  0.21490543269E+02  0.59474902459E+02  0.51100000000E-03 0.  1.
         23    2    1    0    0    0  0.23509004640E+02  0.99907161587E+01  0.18159903447E+02  0.93658816204E+02  0.88259300082E+02 0.  0.
         11    1    3    3    0    0 -0.13676441003E+02 -0.31151272182E+02 -0.33306398219E+01  0.34183913745E+02  0.51100000000E-03 0. -1.
         22    1    1    0    0    0 -0.23509004640E+02 -0.99907161587E+01 -0.18159903447E+02  0.31341183796E+02  0.00000000000E+00 0.  1.
</event>
<event>
 5    1  0.1094625E-009  0.9118800E+02  0.7818608E-02  0.1130116E+00
         25   -1    0    0    0    0  0.00000000000E+00  0.00000000000E+00  0.99999998245E-14  0.12500000000E+03  0.12500000000E+03 0.  0.
        -11    1    3    3    0    0 -0.36773981952E+02 -0.37541795088E+02 -0.69282743442E+01  0.53006727051E+02  0.51100000000E-03 0. -1.
         23    2    1    0    0    0 -0.27191438055E+02  0.80818934132E+00 -0.15830333778E+02  0.93525773384E+02  0.88070672452E+02 0.  0.
         11    1    3    3    0    0  0.95825438965E+01  0.38349984430E+02 -0.89020594340E+01  0.40519046333E+02  0.51100000000E-03 0.  1.
         22    1    1    0    0    0  0.27191438055E+02 -0.80818934132E+00  0.15830333778E+02  0.31474226616E+02  0.00000000000E+00 0. -1.
</event>
<event>
 5    1  0.1094625E-009  0.9118800E+02  0.7818608E-02  0.1130116E+00
         25   -1    0    0    0    0  0.00000000000E+00  0.00000000000E+00  0.99999998245E-14  0.12500000000E+03  0.12500000000E+03 0.  0.
        -11    1    3    3    0    0 -0.57416049776E+02  0.67852099159E+01 -0.17134348503E+02  0.60301142148E+02  0.51100000000E-03 0.  1.
         23    2    1    0    0    0 -0.22390408883E+02  0.49128413248E+00 -0.18555298502E+02  0.95916140687E+02  0.91400411222E+02 0.  0.
         11    1    3    3    0    0  0.35025640893E+02 -0.62939257834E+01 -0.14209499993E+01  0.35614998538E+02  0.51100000000E-03 0. -1.
         22    1    1    0    0    0  0.22390408883E+02 -0.49128413248E+00  0.18555298502E+02  0.29083859313E+02  0.00000000000E+00 0.  1.
</event>
<event>
 5    1  0.1094625E-009  0.9118800E+02  0.7818608E-02  0.1130116E+00
         25   -1    0    0    0    0  0.00000000000E+00  0.00000000000E+00  0.99999998245E-14  0.12500000000E+03  0.12500000000E+03 0.  0.
        -11    1    3    3    0    0 -0.14239573513E+02  0.28414714341E+02 -0.53591288964E+02  0.62307204222E+02  0.51100000000E-03 0.  1.
         23    2    1    0    0    0 -0.89497456128E+01  0.15638357273E+02 -0.23823663977E+02  0.95129895715E+02  0.90318735203E+02 0.  0.
         11    1    3    3    0    0  0.52898278997E+01 -0.12776357068E+02  0.29767624988E+02  0.32822691492E+02  0.51100000000E-03 0. -1.
         22    1    1    0    0    0  0.89497456128E+01 -0.15638357273E+02  0.23823663977E+02  0.29870104285E+02  0.00000000000E+00 0.  1.
</event>
<event>
 5    1  0.1094625E-009  0.9118800E+02  0.7818608E-02  0.1130116E+00
         25   -1    0    0    0    0  0.00000000000E+00  0.00000000000E+00  0.99999998245E-14  0.12500000000E+03  0.12500000000E+03 0.  0.
        -11    1    3    3    0    0 -0.27729882204E+02 -0.23626632346E+02 -0.15436857942E+02  0.39565903332E+02  0.51100000000E-03 0. -1.
         23    2    1    0    0    0  0.85535980032E+01 -0.13399939718E+02  0.25332427581E+02  0.95092570983E+02  0.90267063460E+02 0.  0.
         11    1    3    3    0    0  0.36283480207E+02  0.10226692628E+02  0.40769285524E+02  0.55526667651E+02  0.51100000000E-03 0.  1.
         22    1    1    0    0    0 -0.85535980032E+01  0.13399939718E+02 -0.25332427581E+02  0.29907429017E+02  0.00000000000E+00 0.  1.
</event>
<event>
 5    1  0.1094625E-009  0.9118800E+02  0.7818608E-02  0.1130116E+00
         25   -1    0    0    0    0  0.00000000000E+00  0.00000000000E+00  0.99999998245E-14  0.12500000000E+03  0.12500000000E+03 0.  0.
        -11    1    3    3    0    0 -0.85260845794E+01  0.39936177325E+02 -0.80028676790E+01  0.41612957945E+02  0.51100000000E-03 0.  1.
         23    2    1    0    0    0 -0.27953228209E+02 -0.89271144606E+01  0.35237364847E+01  0.95445084018E+02  0.90753903521E+02 0.  0.
         11    1    3    3    0    0 -0.19427143630E+02 -0.48863291785E+02  0.11526604164E+02  0.53832126073E+02  0.51100000000E-03 0. -1.
         22    1    1    0    0    0  0.27953228209E+02  0.89271144606E+01 -0.35237364847E+01  0.29554915982E+02  0.00000000000E+00 0.  1.
</event>
<event>
 5    1  0.1094625E-009  0.9118800E+02  0.7818608E-02  0.1130116E+00
         25   -1    0    0    0    0  0.00000000000E+00  0.00000000000E+00  0.99999998245E-14  0.12500000000E+03  0.12500000000E+03 0.  0.
        -11    1    3    3    0    0  0.88813872367E+01  0.36487852125E+02 -0.38431233269E+02  0.53732691006E+02  0.51100000000E-03 0.  1.
         23    2    1    0    0    0 -0.19298473061E+02  0.14731696979E+02 -0.17966431597E+02  0.94796579288E+02  0.89856245314E+02 0.  0.
         11    1    3    3    0    0 -0.28179860298E+02 -0.21756155145E+02  0.20464801672E+02  0.41063888282E+02  0.51100000000E-03 0. -1.
         22    1    1    0    0    0  0.19298473061E+02 -0.14731696979E+02  0.17966431597E+02  0.30203420712E+02  0.00000000000E+00 0.  1.
</event>
<event>
 5    1  0.1094625E-009  0.9118800E+02  0.7818608E-02  0.1130116E+00
         25   -1    0    0    0    0  0.00000000000E+00  0.00000000000E+00  0.99999998245E-14  0.12500000000E+03  0.12500000000E+03 0.  0.
        -11    1    3    3    0    0  0.42092338925E+02  0.27828751390E+02 -0.33382672775E+02  0.60502952341E+02  0.51100000000E-03 0.  1.
         23    2    1    0    0    0  0.24291185554E+02  0.16255974528E+02 -0.59849608662E+01  0.95164816742E+02  0.90367052544E+02 0.  0.
         11    1    3    3    0    0 -0.17801153371E+02 -0.11572776862E+02  0.27397711908E+02  0.34661864401E+02  0.51100000000E-03 0. -1.
         22    1    1    0    0    0 -0.24291185554E+02 -0.16255974528E+02  0.59849608662E+01  0.29835183258E+02  0.00000000000E+00 0.  1.
</event>
<event>
 5    1  0.1094625E-009  0.9118800E+02  0.7818608E-02  0.1130116E+00
         25   -1    0    0    0    0  0.00000000000E+00  0.00000000000E+00  0.99999998245E-14  0.12500000000E+03  0.12500000000E+03 0.  0.
        -11    1    3    3    0    0 -0.32690104428E+02  0.98736098102E+01 -0.12829515520E+02  0.36479138791E+02  0.51100000000E-03 0. -1.
         23    2    1    0    0    0  0.19298131711E+02 -0.90367443179E+01  0.15517384240E+02  0.98639615916E+02  0.95052111912E+02 0.  0.
         11    1    3    3    0    0  0.51988236139E+02 -0.18910354128E+02  0.28346899761E+02  0.62160477125E+02  0.51100000000E-03 0.  1.
         22    1    1    0    0    0 -0.19298131711E+02  0.90367443179E+01 -0.15517384240E+02  0.26360384084E+02  0.00000000000E+00 0.  1.
</event>
<event>
 5    1  0.1094625E-009  0.9118800E+02  0.7818608E-02  0.1130116E+00
         25   -1    0    0    0    0  0.00000000000E+00  0.00000000000E+00  0.99999998245E-14  0.12500000000E+03  0.12500000000E+03 0.  0.
        -11    1    3    3    0    0  0.28132202524E+02  0.41716884111E+02  0.24072906928E+02  0.55778347833E+02  0.51100000000E-03 0.  1.
         23    2    1    0    0    0  0.20106103184E+02  0.42116241870E+01  0.23019540482E+02  0.94147246354E+02  0.88948364732E+02 0.  0.
         11    1    3    3    0    0 -0.80260993393E+01 -0.37505259924E+02 -0.10533664466E+01  0.38368898521E+02  0.51100000000E-03 0. -1.
         22    1    1    0    0    0 -0.20106103184E+02 -0.42116241870E+01 -0.23019540482E+02  0.30852753646E+02  0.00000000000E+00 0.  1.
</event>
<event>
 5    1  0.1094625E-009  0.9118800E+02  0.7818608E-02  0.1130116E+00
         25   -1    0    0    0    0  0.00000000000E+00  0.00000000000E+00  0.99999998245E-14  0.12500000000E+03  0.12500000000E+03 0.  0.
        -11    1    3    3    0    0 -0.61580031822E+02 -0.23457457298E+01  0.51660111282E+01  0.61840848259E+02  0.51100000000E-03 0. -1.
         23    2    1    0    0    0 -0.28174992939E+02 -0.98596820943E+00  0.87895984084E+01  0.95469348118E+02  0.90787317558E+02 0.  0.
         11    1    3    3    0    0  0.33405038883E+02  0.13597775204E+01  0.36235872801E+01  0.33628499858E+02  0.51100000000E-03 0.  1.
         22    1    1    0    0    0  0.28174992939E+02  0.98596820943E+00 -0.87895984084E+01  0.29530651882E+02  0.00000000000E+00 0. -1.
</event>
<event>
 5    1  0.1094625E-009  0.9118800E+02  0.7818608E-02  0.1130116E+00
         25   -1    0    0    0    0  0.00000000000E+00  0.00000000000E+00  0.99999998245E-14  0.12500000000E+03  0.12500000000E+03 0.  0.
        -11    1    3    3    0    0  0.29872858923E+02 -0.10977624813E+02  0.13566989529E+02  0.34597097449E+02  0.51100000000E-03 0. -1.
         23    2    1    0    0    0 -0.25354223407E+02 -0.14366505672E+02 -0.92171700301E+01  0.94435488665E+02  0.89352516283E+02 0.  0.
         11    1    3    3    0    0 -0.55227082330E+02 -0.33888808589E+01 -0.22784159560E+02  0.59838391215E+02  0.51100000000E-03 0.  1.
         22    1    1    0    0    0  0.25354223407E+02  0.14366505672E+02  0.92171700301E+01  0.30564511335E+02  0.00000000000E+00 0.  1.
</event>
<event>
 5    1  0.1094625E-009  0.9118800E+02  0.7818608E-02  0.1130116E+00
         25   -1    0    0    0    0  0.00000000000E+00  0.00000000000E+00  0.99999998245E-14  0.12500000000E+03  0.12500000000E+03 0.  0.
        -11    1    3    3    0    0 -0.23240749704E+02  0.34378064127E+02  0.34593974683E+02  0.54025242475E+02  0.51100000000E-03 0. -1.
         23    2    1    0    0    0  0.54959931132E+01  0.26024571992E+02  0.19210499610E+01  0.98332140682E+02  0.94646897310E+02 0.  0.
         11    1    3    3    0    0  0.28736742817E+02 -0.83534921350E+01 -0.32672924722E+02  0.44306898207E+02  0.51100000000E-03 0.  1.
         22    1    1    0    0    0 -0.54959931132E+01 -0.26024571992E+02 -0.19210499610E+01  0.26667859318E+02  0.00000000000E+00 0. -1.
</event>
<event>
 5    1  0.1094625E-009  0.9118800E+02  0.7818608E-02  0.1130116E+00
         25   -1    0    0    0    0  0.00000000000E+00  0.00000000000E+00  0.99999998245E-14  0.12500000000E+03  0.12500000000E+03 0.  0.
        -11    1    3    3    0    0 -0.24517378549E+02  0.45416210217E+02  0.30210103929E+02  0.59802879370E+02  0.51100000000E-03 0.  1.
         23    2    1    0    0    0 -0.22420951671E+02  0.15979567505E+02  0.94256365366E+01  0.95898655090E+02  0.91376494638E+02 0.  0.
         11    1    3    3    0    0  0.20964268781E+01 -0.29436642711E+02 -0.20784467392E+02  0.36095775719E+02  0.51100000000E-03 0. -1.
         22    1    1    0    0    0  0.22420951671E+02 -0.15979567505E+02 -0.94256365366E+01  0.29101344910E+02  0.00000000000E+00 0.  1.
</event>
<event>
 5    1  0.1094625E-009  0.9118800E+02  0.7818608E-02  0.1130116E+00
         25   -1    0    0    0    0  0.00000000000E+00  0.00000000000E+00  0.99999998245E-14  0.12500000000E+03  0.12500000000E+03 0.  0.
        -11    1    3    3    0    0  0.15875999295E+02 -0.27228599140E+02 -0.22929692458E+02  0.38977105604E+02  0.51100000000E-03 0.  1.
         23    2    1    0    0    0 -0.54582615601E+01 -0.11218523321E+02  0.26816660742E+02  0.95423300081E+02  0.90723894428E+02 0.  0.
         11    1    3    3    0    0 -0.21334260855E+02  0.16010075819E+02  0.49746353200E+02  0.56446194477E+02  0.51100000000E-03 0. -1.
         22    1    1    0    0    0  0.54582615601E+01  0.11218523321E+02 -0.26816660742E+02  0.29576699919E+02  0.00000000000E+00 0. -1.
</event>
<event>
 5    1  0.1094625E-009  0.9118800E+02  0.7818608E-02  0.1130116E+00
         25   -1    0    0    0    0  0.00000000000E+00  0.00000000000E+00  0.99999998245E-14  0.12500000000E+03  0.12500000000E+03 0.  0.
        -11    1    3    3    0    0  0.19411421611E+01 -0.35670864946E+01  0.57173837728E+02  0.57317884292E+02  0.51100000000E-03 0. -1.
         23    2    1    0    0    0  0.16716143336E+02  0.58344643132E+01  0.20821661096E+02  0.97668479870E+02  0.93766305075E+02 0.  0.
         11    1    3    3    0    0  0.14775001175E+02  0.94015508078E+01 -0.36352176632E+02  0.40350595577E+02  0.51100000000E-03 0.  1.
         22    1    1    0    0    0 -0.16716143336E+02 -0.58344643132E+01 -0.20821661096E+02  0.27331520130E+02  0.00000000000E+00 0. -1.
</event>
<event>
 5    1  0.1094625E-009  0.9118800E+02  0.7818608E-02  0.1130116E+00
         25   -1    0    0    0    0  0.00000000000E+00  0.00000000000E+00  0.99999998245E-14  0.12500000000E+03  0.12500000000E+03 0.  0.
        -11    1    3    3    0    0  0.18090489950E+02 -0.15751545309E+02  0.43652559747E+02  0.49808864462E+02  0.51100000000E-03 0.  1.
         23    2    1    0    0    0 -0.14937401688E+02  0.94392189684E+01  0.22404384855E+02  0.96466137930E+02  0.92149522421E+02 0.  0.
         11    1    3    3    0    0 -0.33027891638E+02  0.25190764278E+02 -0.21248174892E+02  0.46657273468E+02  0.51100000000E-03 0. -1.
         22    1    1    0    0    0  0.14937401688E+02 -0.94392189684E+01 -0.22404384855E+02  0.28533862070E+02  0.00000000000E+00 0. -1.
</event>
<event>
 5    1  0.1094625E-009  0.9118800E+02  0.7818608E-02  0.1130116E+00
         25   -1    0    0    0    0  0.00000000000E+00  0.00000000000E+00  0.99999998245E-14  0.12500000000E+03  0.12500000000E+03 0.  0.
        -11    1    3    3    0    0 -0.16470918735E+01 -0.10169061426E+02 -0.33095677682E+02  0.34661889785E+02  0.51100000000E-03 0.  1.
         23    2    1    0    0    0 -0.12947490690E+02 -0.34302585782E+00  0.26175397544E+02  0.95795434972E+02  0.91235183690E+02 0.  0.
         11    1    3    3    0    0 -0.11300398817E+02  0.98260355684E+01  0.59271075226E+02  0.61133545187E+02  0.51100000000E-03 0. -1.
         22    1    1    0    0    0  0.12947490690E+02  0.34302585782E+00 -0.26175397544E+02  0.29204565028E+02  0.00000000000E+00 0. -1.
</event>
<event>
 5    1  0.1094625E-009  0.9118800E+02  0.7818608E-02  0.1130116E+00
         25   -1    0    0    0    0  0.00000000000E+00  0.00000000000E+00  0.99999998245E-14  0.12500000000E+03  0.12500000000E+03 0.  0.
        -11    1    3    3    0    0 -0.98025937012E+01 -0.44936101132E+02 -0.43818073537E+01  0.46201128386E+02  0.51100000000E-03 0.  1.
         23    2    1    0    0    0 -0.17288146369E+02 -0.50027179171E+01  0.23443433772E+02  0.95444936501E+02  0.90753700339E+02 0.  0.
         11    1    3    3    0    0 -0.74855526673E+01  0.39933383215E+02  0.27825241125E+02  0.49243808115E+02  0.51100000000E-03 0. -1.
         22    1    1    0    0    0  0.17288146369E+02  0.50027179171E+01 -0.23443433772E+02  0.29555063499E+02  0.00000000000E+00 0.  1.
</event>
<event>
 5    1  0.1094625E-009  0.9118800E+02  0.7818608E-02  0.1130116E+00
         25   -1    0    0    0    0  0.00000000000E+00  0.00000000000E+00  0.99999998245E-14  0.12500000000E+03  0.12500000000E+03 0.  0.
        -11    1    3    3    0    0 -0.15235707034E+02  0.93462612075E+01  0.40778929840E+02  0.44524156214E+02  0.51100000000E-03 0. -1.
         23    2    1    0    0    0 -0.23373612477E+02  0.33970754529E+02  0.14917192035E+02  0.81149566231E+02  0.68281707343E+02 0.  0.
         11    1    3    3    0    0 -0.81379054431E+01  0.24624493322E+02 -0.25861737805E+02  0.36625410017E+02  0.51100000000E-03 0.  1.
         22    1    1    0    0    0  0.23373612477E+02 -0.33970754529E+02 -0.14917192035E+02  0.43850433769E+02  0.00000000000E+00 0. -1.
</event>
<event>
 5    1  0.1094625E-009  0.9118800E+02  0.7818608E-02  0.1130116E+00
         25   -1    0    0    0    0  0.00000000000E+00  0.00000000000E+00  0.99999998245E-14  0.12500000000E+03  0.12500000000E+03 0.  0.
        -11    1    3    3    0    0  0.30013324762E+02 -0.14259373958E+02 -0.26429880064E+02  0.42457837550E+02  0.51100000000E-03 0. -1.
         23    2    1    0    0    0 -0.66011981581E+01 -0.26121536542E+02  0.10769392591E+02  0.95984653971E+02  0.91494062609E+02 0.  0.
         11    1    3    3    0    0 -0.36614522920E+02 -0.11862162584E+02  0.37199272655E+02  0.53526816421E+02  0.51100000000E-03 0.  1.
         22    1    1    0    0    0  0.66011981581E+01  0.26121536542E+02 -0.10769392591E+02  0.29015346029E+02  0.00000000000E+00 0.  1.
</event>
<event>
 5    1  0.1094625E-009  0.9118800E+02  0.7818608E-02  0.1130116E+00
         25   -1    0    0    0    0  0.00000000000E+00  0.00000000000E+00  0.99999998245E-14  0.12500000000E+03  0.12500000000E+03 0.  0.
        -11    1    3    3    0    0  0.21473544192E+02 -0.31419473782E+02  0.33436896111E+01  0.38203097955E+02  0.51100000000E-03 0.  1.
         23    2    1    0    0    0 -0.29167708572E+02 -0.50650321861E+01  0.23889489152E+01  0.95299547962E+02  0.90553227388E+02 0.  0.
         11    1    3    3    0    0 -0.50641252764E+02  0.26354441596E+02 -0.95474069595E+00  0.57096450007E+02  0.51100000000E-03 0. -1.
         22    1    1    0    0    0  0.29167708572E+02  0.50650321861E+01 -0.23889489152E+01  0.29700452038E+02  0.00000000000E+00 0. -1.
</event>
<event>
 5    1  0.1094625E-009  0.9118800E+02  0.7818608E-02  0.1130116E+00
         25   -1    0    0    0    0  0.00000000000E+00  0.00000000000E+00  0.99999998245E-14  0.12500000000E+03  0.12500000000E+03 0.  0.
        -11    1    3    3    0    0 -0.73542193736E+01 -0.57226029028E+02  0.10685608156E+02  0.58677808095E+02  0.51100000000E-03 0. -1.
         23    2    1    0    0    0  0.11891288036E+02 -0.26916504201E+02  0.27679430748E+01  0.95443910299E+02  0.90752286884E+02 0.  0.
         11    1    3    3    0    0  0.19245507409E+02  0.30309524827E+02 -0.79176650811E+01  0.36766102204E+02  0.51100000000E-03 0.  1.
         22    1    1    0    0    0 -0.11891288036E+02  0.26916504201E+02 -0.27679430748E+01  0.29556089701E+02  0.00000000000E+00 0. -1.
</event>
<event>
 5    1  0.1094625E-009  0.9118800E+02  0.7818608E-02  0.1130116E+00
         25   -1    0    0    0    0  0.00000000000E+00  0.00000000000E+00  0.99999998245E-14  0.12500000000E+03  0.12500000000E+03 0.  0.
        -11    1    3    3    0    0  0.60003943845E+01  0.75180531604E+01  0.58251935379E+02  0.59040781090E+02  0.51100000000E-03 0.  1.
         23    2    1    0    0    0 -0.59322136124E+01 -0.82198910140E+01  0.28495536416E+02  0.94755110146E+02  0.89798538611E+02 0.  0.
         11    1    3    3    0    0 -0.11932607997E+02 -0.15737944174E+02 -0.29756398963E+02  0.35714329056E+02  0.51100000000E-03 0. -1.
         22    1    1    0    0    0  0.59322136124E+01  0.82198910140E+01 -0.28495536416E+02  0.30244889854E+02  0.00000000000E+00 0.  1.
</event>
<event>
 5    1  0.1094625E-009  0.9118800E+02  0.7818608E-02  0.1130116E+00
         25   -1    0    0    0    0  0.00000000000E+00  0.00000000000E+00  0.99999998245E-14  0.12500000000E+03  0.12500000000E+03 0.  0.
        -11    1    3    3    0    0  0.85990594438E+01  0.17000506772E+02 -0.25859197371E+02  0.32119451159E+02  0.51100000000E-03 0. -1.
         23    2    1    0    0    0 -0.28765033364E+02 -0.17334848306E+02  0.42867813536E+01  0.91142938630E+02  0.84621124180E+02 0.  0.
         11    1    3    3    0    0 -0.37364092808E+02 -0.34335355078E+02  0.30145978725E+02  0.59023487471E+02  0.51100000000E-03 0.  1.
         22    1    1    0    0    0  0.28765033364E+02  0.17334848306E+02 -0.42867813536E+01  0.33857061370E+02  0.00000000000E+00 0.  1.
</event>
<event>
 5    1  0.1094625E-009  0.9118800E+02  0.7818608E-02  0.1130116E+00
         25   -1    0    0    0    0  0.00000000000E+00  0.00000000000E+00  0.99999998245E-14  0.12500000000E+03  0.12500000000E+03 0.  0.
        -11    1    3    3    0    0 -0.35255289074E+02 -0.28136140140E+02  0.32764643692E+00  0.45107484325E+02  0.51100000000E-03 0.  1.
         23    2    1    0    0    0 -0.74696806428E+01  0.30230732320E+01 -0.28199559237E+02  0.95671681912E+02  0.91065473579E+02 0.  0.
         11    1    3    3    0    0  0.27785608431E+02  0.31159213372E+02 -0.28527205674E+02  0.50564197588E+02  0.51100000000E-03 0. -1.
         22    1    1    0    0    0  0.74696806428E+01 -0.30230732320E+01  0.28199559237E+02  0.29328318088E+02  0.00000000000E+00 0. -1.
</event>
<event>
 5    1  0.1094625E-009  0.9118800E+02  0.7818608E-02  0.1130116E+00
         25   -1    0    0    0    0  0.00000000000E+00  0.00000000000E+00  0.99999998245E-14  0.12500000000E+03  0.12500000000E+03 0.  0.
        -11    1    3    3    0    0 -0.13475615658E+02 -0.13132273857E+02  0.25923473379E+02  0.32032410249E+02  0.51100000000E-03 0. -1.
         23    2    1    0    0    0 -0.15172624001E+02 -0.23028146584E+02 -0.27300477895E+02  0.86195101502E+02  0.76966066390E+02 0.  0.
         11    1    3    3    0    0 -0.16970083425E+01 -0.98958727268E+01 -0.53223951274E+02  0.54162691254E+02  0.51100000000E-03 0.  1.
         22    1    1    0    0    0  0.15172624001E+02  0.23028146584E+02  0.27300477895E+02  0.38804898498E+02  0.00000000000E+00 0.  1.
</event>
<event>
 5    1  0.1094625E-009  0.9118800E+02  0.7818608E-02  0.1130116E+00
         25   -1    0    0    0    0  0.00000000000E+00  0.00000000000E+00  0.99999998245E-14  0.12500000000E+03  0.12500000000E+03 0.  0.
        -11    1    3    3    0    0  0.50326152281E+02  0.13203091837E+02 -0.31769592001E+02  0.60961875083E+02  0.51100000000E-03 0.  1.
         23    2    1    0    0    0  0.24426912471E+02  0.12460824547E+02 -0.72460721999E+01  0.96637141125E+02  0.92381195495E+02 0.  0.
         11    1    3    3    0    0 -0.25899239810E+02 -0.74226729046E+00  0.24523519801E+02  0.35675266042E+02  0.51100000000E-03 0. -1.
         22    1    1    0    0    0 -0.24426912471E+02 -0.12460824547E+02  0.72460721999E+01  0.28362858875E+02  0.00000000000E+00 0.  1.
</event>
<event>
 5    1  0.1094625E-009  0.9118800E+02  0.7818608E-02  0.1130116E+00
         25   -1    0    0    0    0  0.00000000000E+00  0.00000000000E+00  0.99999998245E-14  0.12500000000E+03  0.12500000000E+03 0.  0.
        -11    1    3    3    0    0 -0.53221790386E+00  0.33794692311E+02  0.46803039866E+02  0.57731178969E+02  0.51100000000E-03 0. -1.
         23    2    1    0    0    0 -0.73535250723E+01  0.13557929335E+00  0.26215002451E+02  0.97772824857E+02  0.93905304506E+02 0.  0.
         11    1    3    3    0    0 -0.68213071685E+01 -0.33659113017E+02 -0.20588037414E+02  0.40041645888E+02  0.51100000000E-03 0.  1.
         22    1    1    0    0    0  0.73535250723E+01 -0.13557929335E+00 -0.26215002451E+02  0.27227175143E+02  0.00000000000E+00 0. -1.
</event>
<event>
 5    1  0.1094625E-009  0.9118800E+02  0.7818608E-02  0.1130116E+00
         25   -1    0    0    0    0  0.00000000000E+00  0.00000000000E+00  0.99999998245E-14  0.12500000000E+03  0.12500000000E+03 0.  0.
        -11    1    3    3    0    0  0.20469497260E+02 -0.17908099226E+02  0.26930504558E+02  0.38274696758E+02  0.51100000000E-03 0.  1.
         23    2    1    0    0    0 -0.15695525644E+02 -0.82854022730E+01  0.42603521769E+02  0.78847454207E+02  0.63928581650E+02 0.  0.
         11    1    3    3    0    0 -0.36165022903E+02  0.96226969535E+01  0.15673017211E+02  0.40572757449E+02  0.51100000000E-03 0. -1.
         22    1    1    0    0    0  0.15695525644E+02  0.82854022730E+01 -0.42603521769E+02  0.46152545793E+02  0.00000000000E+00 0.  1.
</event>
<event>
 5    1  0.1094625E-009  0.9118800E+02  0.7818608E-02  0.1130116E+00
         25   -1    0    0    0    0  0.00000000000E+00  0.00000000000E+00  0.99999998245E-14  0.12500000000E+03  0.12500000000E+03 0.  0.
        -11    1    3    3    0    0 -0.10690853955E+02  0.11416975549E+02 -0.57844612629E+02  0.59921956739E+02  0.51100000000E-03 0.  1.
         23    2    1    0    0    0 -0.72623612984E+01 -0.75750004832E+01 -0.21681687705E+02  0.10091228309E+03  0.97995258935E+02 0.  0.
         11    1    3    3    0    0  0.34284926568E+01 -0.18991976032E+02  0.36162924923E+02  0.40990326356E+02  0.51100000000E-03 0. -1.
         22    1    1    0    0    0  0.72623612984E+01  0.75750004832E+01  0.21681687705E+02  0.24087716905E+02  0.00000000000E+00 0.  1.
</event>
<event>
 5    1  0.1094625E-009  0.9118800E+02  0.7818608E-02  0.1130116E+00
         25   -1    0    0    0    0  0.00000000000E+00  0.00000000000E+00  0.99999998245E-14  0.12500000000E+03  0.12500000000E+03 0.  0.
        -11    1    3    3    0    0  0.23347304788E+02  0.35233978568E+02 -0.64423249393E+00  0.42272271318E+02  0.51100000000E-03 0.  1.
         23    2    1    0    0    0  0.13530656149E+02 -0.12906211944E+02  0.21793312399E+02  0.96284195503E+02  0.91902387759E+02 0.  0.
         11    1    3    3    0    0 -0.98166486389E+01 -0.48140190512E+02  0.22437544893E+02  0.54011924185E+02  0.51100000000E-03 0. -1.
         22    1    1    0    0    0 -0.13530656149E+02  0.12906211944E+02 -0.21793312399E+02  0.28715804497E+02  0.00000000000E+00 0. -1.
</event>
<event>
 5    1  0.1094625E-009  0.9118800E+02  0.7818608E-02  0.1130116E+00
         25   -1    0    0    0    0  0.00000000000E+00  0.00000000000E+00  0.99999998245E-14  0.12500000000E+03  0.12500000000E+03 0.  0.
        -11    1    3    3    0    0  0.14699177358E+02  0.20694071577E+02 -0.26049049906E+02  0.36371189350E+02  0.51100000000E-03 0. -1.
         23    2    1    0    0    0 -0.24655742782E+02 -0.63300085261E+01  0.11459991502E+02  0.97083946101E+02  0.92983797111E+02 0.  0.
         11    1    3    3    0    0 -0.39354920140E+02 -0.27024080103E+02  0.37509041408E+02  0.60712756751E+02  0.51100000000E-03 0.  1.
         22    1    1    0    0    0  0.24655742782E+02  0.63300085261E+01 -0.11459991502E+02  0.27916053899E+02  0.00000000000E+00 0.  1.
</event>
<event>
 5    1  0.1094625E-009  0.9118800E+02  0.7818608E-02  0.1130116E+00
         25   -1    0    0    0    0  0.00000000000E+00  0.00000000000E+00  0.99999998245E-14  0.12500000000E+03  0.12500000000E+03 0.  0.
        -11    1    3    3    0    0 -0.37910614953E+02  0.32833275566E+02  0.35382442855E+02  0.61377161658E+02  0.51100000000E-03 0. -1.
         23    2    1    0    0    0 -0.13284027732E+02  0.14092557013E+02  0.23552346219E+02  0.94507729367E+02  0.89453520566E+02 0.  0.
         11    1    3    3    0    0  0.24626587221E+02 -0.18740718553E+02 -0.11830096636E+02  0.33130567709E+02  0.51100000000E-03 0.  1.
         22    1    1    0    0    0  0.13284027732E+02 -0.14092557013E+02 -0.23552346219E+02  0.30492270633E+02  0.00000000000E+00 0. -1.
</event>
<event>
 5    1  0.1094625E-009  0.9118800E+02  0.7818608E-02  0.1130116E+00
         25   -1    0    0    0    0  0.00000000000E+00  0.00000000000E+00  0.99999998245E-14  0.12500000000E+03  0.12500000000E+03 0.  0.
        -11    1    3    3    0    0 -0.40605143204E+02 -0.23359918831E+02  0.36151031347E+02  0.59172295292E+02  0.51100000000E-03 0.  1.
         23    2    1    0    0    0 -0.22869996212E+02  0.30897776165E+01  0.17053030515E+02  0.96305239116E+02  0.91931005536E+02 0.  0.
         11    1    3    3    0    0  0.17735146992E+02  0.26449696447E+02 -0.19098000832E+02  0.37132943824E+02  0.51100000000E-03 0. -1.
         22    1    1    0    0    0  0.22869996212E+02 -0.30897776165E+01 -0.17053030515E+02  0.28694760884E+02  0.00000000000E+00 0. -1.
</event>
<event>
 5    1  0.1094625E-009  0.9118800E+02  0.7818608E-02  0.1130116E+00
         25   -1    0    0    0    0  0.00000000000E+00  0.00000000000E+00  0.99999998245E-14  0.12500000000E+03  0.12500000000E+03 0.  0.
        -11    1    3    3    0    0  0.15926861144E+02 -0.11631433592E+02  0.30641565625E+02  0.36439822962E+02  0.51100000000E-03 0. -1.
         23    2    1    0    0    0 -0.15723373096E+02  0.24196168706E+02 -0.45311172122E+01  0.95790240248E+02  0.91228066197E+02 0.  0.
         11    1    3    3    0    0 -0.31650234240E+02  0.35827602298E+02 -0.35172682837E+02  0.59350417286E+02  0.51100000000E-03 0.  1.
         22    1    1    0    0    0  0.15723373096E+02 -0.24196168706E+02  0.45311172122E+01  0.29209759752E+02  0.00000000000E+00 0.  1.
</event>
<event>
 5    1  0.1094625E-009  0.9118800E+02  0.7818608E-02  0.1130116E+00
         25   -1    0    0    0    0  0.00000000000E+00  0.00000000000E+00  0.99999998245E-14  0.12500000000E+03  0.12500000000E+03 0.  0.
        -11    1    3    3    0    0  0.11231060960E+02 -0.10651313550E+02  0.56073403664E+02  0.58170557926E+02  0.51100000000E-03 0.  1.
         23    2    1    0    0    0 -0.10901885935E+02 -0.84346525463E+01  0.25948201313E+02  0.95617970937E+02  0.90991717943E+02 0.  0.
         11    1    3    3    0    0 -0.22132946894E+02  0.22166610038E+01 -0.30125202352E+02  0.37447413011E+02  0.51100000000E-03 0. -1.
         22    1    1    0    0    0  0.10901885935E+02  0.84346525463E+01 -0.25948201313E+02  0.29382029063E+02  0.00000000000E+00 0.  1.
</event>
<event>
 5    1  0.1094625E-009  0.9118800E+02  0.7818608E-02  0.1130116E+00
         25   -1    0    0    0    0  0.00000000000E+00  0.00000000000E+00  0.99999998245E-14  0.12500000000E+03  0.12500000000E+03 0.  0.
        -11    1    3    3    0    0 -0.26313835484E+02 -0.17803089645E+02  0.16661866422E+02  0.35874583366E+02  0.51100000000E-03 0. -1.
         23    2    1    0    0    0  0.21106062039E+02  0.61798258756E+01 -0.15596201710E+02  0.98038961251E+02  0.94258900443E+02 0.  0.
         11    1    3    3    0    0  0.47419897523E+02  0.23982915521E+02 -0.32258068132E+02  0.62164377885E+02  0.51100000000E-03 0.  1.
         22    1    1    0    0    0 -0.21106062039E+02 -0.61798258756E+01  0.15596201710E+02  0.26961038749E+02  0.00000000000E+00 0.  1.
</event>
<event>
 5    1  0.1094625E-009  0.9118800E+02  0.7818608E-02  0.1130116E+00
         25   -1    0    0    0    0  0.00000000000E+00  0.00000000000E+00  0.99999998245E-14  0.12500000000E+03  0.12500000000E+03 0.  0.
        -11    1    3    3    0    0 -0.35614824466E+02 -0.39393478672E+01 -0.26875486401E+02  0.44790913731E+02  0.51100000000E-03 0. -1.
         23    2    1    0    0    0 -0.17850063852E+02 -0.17195730087E+02  0.17679664994E+02  0.94555156971E+02  0.89519770123E+02 0.  0.
         11    1    3    3    0    0  0.17764760614E+02 -0.13256382220E+02  0.44555151394E+02  0.49764243240E+02  0.51100000000E-03 0.  1.
         22    1    1    0    0    0  0.17850063852E+02  0.17195730087E+02 -0.17679664994E+02  0.30444843029E+02  0.00000000000E+00 0.  1.
</event>
<event>
 5    1  0.1094625E-009  0.9118800E+02  0.7818608E-02  0.1130116E+00
         25   -1    0    0    0    0  0.00000000000E+00  0.00000000000E+00  0.99999998245E-14  0.12500000000E+03  0.12500000000E+03 0.  0.
        -11    1    3    3    0    0  0.65787010595E+01 -0.54488804692E+02  0.78776283922E+01  0.55446967218E+02  0.51100000000E-03 0.  1.
         23    2    1    0    0    0 -0.66291155072E+01 -0.24328529683E+02 -0.15110621260E+02  0.95603513750E+02  0.90971855195E+02 0.  0.
         11    1    3    3    0    0 -0.13207816567E+02  0.30160275009E+02 -0.22988249652E+02  0.40156546532E+02  0.51100000000E-03 0. -1.
         22    1    1    0    0    0  0.66291155072E+01  0.24328529683E+02  0.15110621260E+02  0.29396486250E+02  0.00000000000E+00 0.  1.
</event>
<event>
 5    1  0.1094625E-009  0.9118800E+02  0.7818608E-02  0.1130116E+00
         25   -1    0    0    0    0  0.00000000000E+00  0.00000000000E+00  0.99999998245E-14  0.12500000000E+03  0.12500000000E+03 0.  0.
        -11    1    3    3    0    0 -0.14674639806E+01 -0.29333535419E+02  0.20000603590E+02  0.35533560122E+02  0.51100000000E-03 0.  1.
         23    2    1    0    0    0  0.18272896914E+02  0.87563338258E+01 -0.21663866300E+02  0.95336971720E+02  0.90604872551E+02 0.  0.
         11    1    3    3    0    0  0.19740360895E+02  0.38089869245E+02 -0.41664469890E+02  0.59803411598E+02  0.51100000000E-03 0. -1.
         22    1    1    0    0    0 -0.18272896914E+02 -0.87563338258E+01  0.21663866300E+02  0.29663028280E+02  0.00000000000E+00 0. -1.
</event>
<event>
 5    1  0.1094625E-009  0.9118800E+02  0.7818608E-02  0.1130116E+00
         25   -1    0    0    0    0  0.00000000000E+00  0.00000000000E+00  0.99999998245E-14  0.12500000000E+03  0.12500000000E+03 0.  0.
        -11    1    3    3    0    0  0.47214656430E+02  0.34391600206E+02 -0.19279303406E+01  0.58444185871E+02  0.51100000000E-03 0.  1.
         23    2    1    0    0    0  0.23274645132E+02  0.10716059798E+02  0.14121170726E+02  0.95743368166E+02  0.91163819805E+02 0.  0.
         11    1    3    3    0    0 -0.23940011298E+02 -0.23675540408E+02  0.16049101066E+02  0.37299182295E+02  0.51100000000E-03 0. -1.
         22    1    1    0    0    0 -0.23274645132E+02 -0.10716059798E+02 -0.14121170726E+02  0.29256631834E+02  0.00000000000E+00 0.  1.
</event>
<event>
 5    1  0.1094625E-009  0.9118800E+02  0.7818608E-02  0.1130116E+00
         25   -1    0    0    0    0  0.00000000000E+00  0.00000000000E+00  0.99999998245E-14  0.12500000000E+03  0.12500000000E+03 0.  0.
        -11    1    3    3    0    0 -0.51573464669E+02 -0.99054484242E+01 -0.25258135713E+02  0.58274467705E+02  0.51100000000E-03 0. -1.
         23    2    1    0    0    0 -0.36793615796E+02  0.76367945632E+01 -0.22034694894E+02  0.81438335964E+02  0.68808313385E+02 0.  0.
         11    1    3    3    0    0  0.14779848873E+02  0.17542242987E+02  0.32234408189E+01  0.23163868258E+02  0.51100000000E-03 0.  1.
         22    1    1    0    0    0  0.36793615796E+02 -0.76367945632E+01  0.22034694894E+02  0.43561664036E+02  0.00000000000E+00 0. -1.
</event>
<event>
 5    1  0.1094625E-009  0.9118800E+02  0.7818608E-02  0.1130116E+00
         25   -1    0    0    0    0  0.00000000000E+00  0.00000000000E+00  0.99999998245E-14  0.12500000000E+03  0.12500000000E+03 0.  0.
        -11    1    3    3    0    0  0.46985918678E+02  0.84692935518E+01  0.24513491691E+02  0.53668582638E+02  0.51100000000E-03 0. -1.
         23    2    1    0    0    0  0.84207181395E+01 -0.70153260895E+01  0.27562777816E+02  0.95338071285E+02  0.90606389517E+02 0.  0.
         11    1    3    3    0    0 -0.38565200538E+02 -0.15484619641E+02  0.30492861257E+01  0.41669488647E+02  0.51100000000E-03 0.  1.
         22    1    1    0    0    0 -0.84207181395E+01  0.70153260895E+01 -0.27562777816E+02  0.29661928715E+02  0.00000000000E+00 0. -1.
</event>
<event>
 5    1  0.1094625E-009  0.9118800E+02  0.7818608E-02  0.1130116E+00
         25   -1    0    0    0    0  0.00000000000E+00  0.00000000000E+00  0.99999998245E-14  0.12500000000E+03  0.12500000000E+03 0.  0.
        -11    1    3    3    0    0 -0.38680785964E+01  0.33711599984E+02  0.38524543138E+02  0.51337845979E+02  0.51100000000E-03 0. -1.
         23    2    1    0    0    0 -0.24150182939E+02  0.74708698620E+01  0.36602769498E+01  0.99457038938E+02  0.96121068109E+02 0.  0.
         11    1    3    3    0    0 -0.20282104343E+02 -0.26240730122E+02 -0.34864266188E+02  0.48119192959E+02  0.51100000000E-03 0.  1.
         22    1    1    0    0    0  0.24150182939E+02 -0.74708698620E+01 -0.36602769498E+01  0.25542961062E+02  0.00000000000E+00 0. -1.
</event>
<event>
 5    1  0.1094625E-009  0.9118800E+02  0.7818608E-02  0.1130116E+00
         25   -1    0    0    0    0  0.00000000000E+00  0.00000000000E+00  0.99999998245E-14  0.12500000000E+03  0.12500000000E+03 0.  0.
        -11    1    3    3    0    0  0.27477181570E+00 -0.36004624626E+02 -0.20029235456E+01  0.36061339368E+02  0.51100000000E-03 0.  1.
         23    2    1    0    0    0 -0.20232619991E+01  0.25600867115E+02 -0.82531496010E+01  0.98025707340E+02  0.94241322333E+02 0.  0.
         11    1    3    3    0    0 -0.22980338148E+01  0.61605491742E+02 -0.62502260554E+01  0.61964367972E+02  0.51100000000E-03 0. -1.
         22    1    1    0    0    0  0.20232619991E+01 -0.25600867115E+02  0.82531496010E+01  0.26974292660E+02  0.00000000000E+00 0. -1.
</event>
<event>
 5    1  0.1094625E-009  0.9118800E+02  0.7818608E-02  0.1130116E+00
         25   -1    0    0    0    0  0.00000000000E+00  0.00000000000E+00  0.99999998245E-14  0.12500000000E+03  0.12500000000E+03 0.  0.
        -11    1    3    3    0    0  0.37444434576E+01 -0.50268540085E+02 -0.36469510529E+02  0.62217137330E+02  0.51100000000E-03 0. -1.
         23    2    1    0    0    0  0.52588117245E+01 -0.22256552454E+02 -0.19026124974E+02  0.95251005741E+02  0.90486194722E+02 0.  0.
         11    1    3    3    0    0  0.15143682669E+01  0.28011987631E+02  0.17443385555E+02  0.33033868411E+02  0.51100000000E-03 0.  1.
         22    1    1    0    0    0 -0.52588117245E+01  0.22256552454E+02  0.19026124974E+02  0.29748994259E+02  0.00000000000E+00 0. -1.
</event>
<event>
 5    1  0.1094625E-009  0.9118800E+02  0.7818608E-02  0.1130116E+00
         25   -1    0    0    0    0  0.00000000000E+00  0.00000000000E+00  0.99999998245E-14  0.12500000000E+03  0.12500000000E+03 0.  0.
        -11    1    3    3    0    0  0.53589796285E+02 -0.20111211635E+02  0.55107238960E+01  0.57503870978E+02  0.51100000000E-03 0. -1.
         23    2    1    0    0    0  0.16119182288E+02 -0.20858168198E+02  0.12818580541E+02  0.95687763216E+02  0.91087544724E+02 0.  0.
         11    1    3    3    0    0 -0.37470613997E+02 -0.74695656331E+00  0.73078566452E+01  0.38183892238E+02  0.51100000000E-03 0.  1.
         22    1    1    0    0    0 -0.16119182288E+02  0.20858168198E+02 -0.12818580541E+02  0.29312236784E+02  0.00000000000E+00 0. -1.
</event>
<event>
 5    1  0.1094625E-009  0.9118800E+02  0.7818608E-02  0.1130116E+00
         25   -1    0    0    0    0  0.00000000000E+00  0.00000000000E+00  0.99999998245E-14  0.12500000000E+03  0.12500000000E+03 0.  0.
        -11    1    3    3    0    0 -0.47483787857E+02 -0.21801103724E+02  0.31628786913E+01  0.52345028749E+02  0.51100000000E-03 0.  1.
         23    2    1    0    0    0 -0.91998417628E+01 -0.30014710063E+02  0.99158375817E+01  0.92078217794E+02  0.85991595220E+02 0.  0.
         11    1    3    3    0    0  0.38283946094E+02 -0.82136063397E+01  0.67529588905E+01  0.39733189045E+02  0.51100000000E-03 0. -1.
         22    1    1    0    0    0  0.91998417628E+01  0.30014710063E+02 -0.99158375817E+01  0.32921782206E+02  0.00000000000E+00 0.  1.
</event>
<event>
 5    1  0.1094625E-009  0.9118800E+02  0.7818608E-02  0.1130116E+00
         25   -1    0    0    0    0  0.00000000000E+00  0.00000000000E+00  0.99999998245E-14  0.12500000000E+03  0.12500000000E+03 0.  0.
        -11    1    3    3    0    0  0.30817902202E+02 -0.18509403068E+02  0.34409248960E+02  0.49762812545E+02  0.51100000000E-03 0. -1.
         23    2    1    0    0    0 -0.14129948172E+01 -0.28718981039E+02  0.26922066212E+01  0.96120519347E+02  0.91679495182E+02 0.  0.
         11    1    3    3    0    0 -0.32230897019E+02 -0.10209577971E+02 -0.31717042339E+02  0.46357706803E+02  0.51100000000E-03 0.  1.
         22    1    1    0    0    0  0.14129948172E+01  0.28718981039E+02 -0.26922066212E+01  0.28879480653E+02  0.00000000000E+00 0. -1.
</event>
<event>
 5    1  0.1094625E-009  0.9118800E+02  0.7818608E-02  0.1130116E+00
         25   -1    0    0    0    0  0.00000000000E+00  0.00000000000E+00  0.99999998245E-14  0.12500000000E+03  0.12500000000E+03 0.  0.
        -11    1    3    3    0    0 -0.20238413205E+02 -0.49191748840E+02  0.19749692919E+02  0.56740390319E+02  0.51100000000E-03 0.  1.
         23    2    1    0    0    0 -0.38706200796E+01 -0.29437623797E+02 -0.77152055882E+01  0.94322976157E+02  0.89194977657E+02 0.  0.
         11    1    3    3    0    0  0.16367793125E+02  0.19754125043E+02 -0.27464898507E+02  0.37582585838E+02  0.51100000000E-03 0. -1.
         22    1    1    0    0    0  0.38706200796E+01  0.29437623797E+02  0.77152055882E+01  0.30677023843E+02  0.00000000000E+00 0.  1.
</event>
<event>
 5    1  0.1094625E-009  0.9118800E+02  0.7818608E-02  0.1130116E+00
         25   -1    0    0    0    0  0.00000000000E+00  0.00000000000E+00  0.99999998245E-14  0.12500000000E+03  0.12500000000E+03 0.  0.
        -11    1    3    3    0    0 -0.93946014291E+01 -0.29519311655E+02 -0.26620406213E+02  0.40844758829E+02  0.51100000000E-03 0. -1.
         23    2    1    0    0    0 -0.16593169312E+02 -0.45617182270E+01  0.22656755723E+02  0.96548794034E+02  0.92261576556E+02 0.  0.
         11    1    3    3    0    0 -0.71985678828E+01  0.24957593428E+02  0.49277161937E+02  0.55704035205E+02  0.51100000000E-03 0.  1.
         22    1    1    0    0    0  0.16593169312E+02  0.45617182270E+01 -0.22656755723E+02  0.28451205966E+02  0.00000000000E+00 0.  1.
</event>
<event>
 5    1  0.1094625E-009  0.9118800E+02  0.7818608E-02  0.1130116E+00
         25   -1    0    0    0    0  0.00000000000E+00  0.00000000000E+00  0.99999998245E-14  0.12500000000E+03  0.12500000000E+03 0.  0.
        -11    1    3    3    0    0  0.41856893854E+02 -0.10579991248E+02 -0.27049136273E+02  0.50946948400E+02  0.51100000000E-03 0.  1.
         23    2    1    0    0    0  0.27498903552E+02 -0.24057043765E+02  0.45512654579E+01  0.88180914344E+02  0.80126328918E+02 0.  0.
         11    1    3    3    0    0 -0.14357990301E+02 -0.13477052517E+02  0.31600401731E+02  0.37233965944E+02  0.51100000000E-03 0. -1.
         22    1    1    0    0    0 -0.27498903552E+02  0.24057043765E+02 -0.45512654579E+01  0.36819085656E+02  0.00000000000E+00 0.  1.
</event>
<event>
 5    1  0.1094625E-009  0.9118800E+02  0.7818608E-02  0.1130116E+00
         25   -1    0    0    0    0  0.00000000000E+00  0.00000000000E+00  0.99999998245E-14  0.12500000000E+03  0.12500000000E+03 0.  0.
        -11    1    3    3    0    0  0.26015585212E+02 -0.54766673114E+02 -0.46548766321E+01  0.60810089908E+02  0.51100000000E-03 0. -1.
         23    2    1    0    0    0  0.17320121698E+02 -0.18571757354E+02 -0.84701533391E+01  0.98229862077E+02  0.94511721597E+02 0.  0.
         11    1    3    3    0    0 -0.86954635139E+01  0.36194915760E+02 -0.38152767070E+01  0.37419772169E+02  0.51100000000E-03 0.  1.
         22    1    1    0    0    0 -0.17320121698E+02  0.18571757354E+02  0.84701533391E+01  0.26770137923E+02  0.00000000000E+00 0. -1.
</event>
<event>
 5    1  0.1094625E-009  0.9118800E+02  0.7818608E-02  0.1130116E+00
         25   -1    0    0    0    0  0.00000000000E+00  0.00000000000E+00  0.99999998245E-14  0.12500000000E+03  0.12500000000E+03 0.  0.
        -11    1    3    3    0    0 -0.35831433106E+02  0.30545365256E+02 -0.12676769560E+02  0.48760757006E+02  0.51100000000E-03 0.  1.
         23    2    1    0    0    0 -0.41258690670E+01  0.20345940087E+02  0.20537679870E+02  0.95797665025E+02  0.91238239002E+02 0.  0.
         11    1    3    3    0    0  0.31705564039E+02 -0.10199425169E+02  0.33214449430E+02  0.47036908019E+02  0.51100000000E-03 0. -1.
         22    1    1    0    0    0  0.41258690670E+01 -0.20345940087E+02 -0.20537679870E+02  0.29202334975E+02  0.00000000000E+00 0. -1.
</event>
<event>
 5    1  0.1094625E-009  0.9118800E+02  0.7818608E-02  0.1130116E+00
         25   -1    0    0    0    0  0.00000000000E+00  0.00000000000E+00  0.99999998245E-14  0.12500000000E+03  0.12500000000E+03 0.  0.
        -11    1    3    3    0    0 -0.66986780736E+01  0.39560927379E+02 -0.36544802158E+02  0.54272109117E+02  0.51100000000E-03 0. -1.
         23    2    1    0    0    0  0.20946064192E+01 -0.74827025901E+00 -0.28632633122E+02  0.96281104410E+02  0.91898183347E+02 0.  0.
         11    1    3    3    0    0  0.87932844928E+01 -0.40309197638E+02  0.79121690369E+01  0.42008995293E+02  0.51100000000E-03 0.  1.
         22    1    1    0    0    0 -0.20946064192E+01  0.74827025901E+00  0.28632633122E+02  0.28718895590E+02  0.00000000000E+00 0. -1.
</event>
<event>
 5    1  0.1094625E-009  0.9118800E+02  0.7818608E-02  0.1130116E+00
         25   -1    0    0    0    0  0.00000000000E+00  0.00000000000E+00  0.99999998245E-14  0.12500000000E+03  0.12500000000E+03 0.  0.
        -11    1    3    3    0    0 -0.10678013457E+01 -0.21085309265E+02  0.33070280284E+02  0.39234855739E+02  0.51100000000E-03 0.  1.
         23    2    1    0    0    0  0.21172995144E+02  0.11553202870E+02 -0.11066001163E+02  0.98462694152E+02  0.94819162293E+02 0.  0.
         11    1    3    3    0    0  0.22240796490E+02  0.32638512135E+02 -0.44136281447E+02  0.59227838413E+02  0.51100000000E-03 0. -1.
         22    1    1    0    0    0 -0.21172995144E+02 -0.11553202870E+02  0.11066001163E+02  0.26537305848E+02  0.00000000000E+00 0. -1.
</event>
<event>
 5    1  0.1094625E-009  0.9118800E+02  0.7818608E-02  0.1130116E+00
         25   -1    0    0    0    0  0.00000000000E+00  0.00000000000E+00  0.99999998245E-14  0.12500000000E+03  0.12500000000E+03 0.  0.
        -11    1    3    3    0    0  0.24154817897E+02  0.15308080549E+02  0.22273661495E+02  0.36247876550E+02  0.51100000000E-03 0. -1.
         23    2    1    0    0    0 -0.24298313862E+02 -0.15189976152E+02  0.70406937776E+01  0.95492123070E+02  0.90818669707E+02 0.  0.
         11    1    3    3    0    0 -0.48453131760E+02 -0.30498056702E+02 -0.15232967718E+02  0.59244246519E+02  0.51100000000E-03 0.  1.
         22    1    1    0    0    0  0.24298313862E+02  0.15189976152E+02 -0.70406937776E+01  0.29507876930E+02  0.00000000000E+00 0.  1.
</event>
<event>
 5    1  0.1094625E-009  0.9118800E+02  0.7818608E-02  0.1130116E+00
         25   -1    0    0    0    0  0.00000000000E+00  0.00000000000E+00  0.99999998245E-14  0.12500000000E+03  0.12500000000E+03 0.  0.
        -11    1    3    3    0    0 -0.46798834917E+02  0.22524684181E+02 -0.25527830287E+02  0.57871948874E+02  0.51100000000E-03 0. -1.
         23    2    1    0    0    0 -0.10721723533E+02  0.22007522800E+02 -0.17697278149E+02  0.94792714965E+02  0.89850869452E+02 0.  0.
         11    1    3    3    0    0  0.36077111384E+02 -0.51716138124E+00  0.78305521373E+01  0.36920766091E+02  0.51100000000E-03 0.  1.
         22    1    1    0    0    0  0.10721723533E+02 -0.22007522800E+02  0.17697278149E+02  0.30207285035E+02  0.00000000000E+00 0.  1.
</event>
<event>
 5    1  0.1094625E-009  0.9118800E+02  0.7818608E-02  0.1130116E+00
         25   -1    0    0    0    0  0.00000000000E+00  0.00000000000E+00  0.99999998245E-14  0.12500000000E+03  0.12500000000E+03 0.  0.
        -11    1    3    3    0    0 -0.32853738556E+02 -0.34296116963E+02  0.22868915176E+02  0.52712228728E+02  0.51100000000E-03 0.  1.
         23    2    1    0    0    0 -0.19913006277E+02 -0.18054265464E+02 -0.13748769666E+02  0.94808726629E+02  0.89873142024E+02 0.  0.
         11    1    3    3    0    0  0.12940732279E+02  0.16241851499E+02 -0.36617684843E+02  0.42096497901E+02  0.51100000000E-03 0. -1.
         22    1    1    0    0    0  0.19913006277E+02  0.18054265464E+02  0.13748769666E+02  0.30191273371E+02  0.00000000000E+00 0.  1.
</event>
<event>
 5    1  0.1094625E-009  0.9118800E+02  0.7818608E-02  0.1130116E+00
         25   -1    0    0    0    0  0.00000000000E+00  0.00000000000E+00  0.99999998245E-14  0.12500000000E+03  0.12500000000E+03 0.  0.
        -11    1    3    3    0    0  0.34810559120E+02 -0.40915650281E+02  0.14914681290E+02  0.55752248228E+02  0.51100000000E-03 0.  1.
         23    2    1    0    0    0  0.27459330920E+02 -0.17044607502E+01  0.88145992324E+01  0.96110257865E+02  0.91665503142E+02 0.  0.
         11    1    3    3    0    0 -0.73512282006E+01  0.39211189531E+02 -0.61000820578E+01  0.40358009637E+02  0.51100000000E-03 0. -1.
         22    1    1    0    0    0 -0.27459330920E+02  0.17044607502E+01 -0.88145992324E+01  0.28889742135E+02  0.00000000000E+00 0.  1.
</event>
<event>
 5    1  0.1094625E-009  0.9118800E+02  0.7818608E-02  0.1130116E+00
         25   -1    0    0    0    0  0.00000000000E+00  0.00000000000E+00  0.99999998245E-14  0.12500000000E+03  0.12500000000E+03 0.  0.
        -11    1    3    3    0    0 -0.17123355465E+02  0.22915853849E+02  0.27146468283E+02  0.39436992793E+02  0.51100000000E-03 0. -1.
         23    2    1    0    0    0  0.25810619256E+01  0.14776765471E+02 -0.25040281221E+02  0.95810440872E+02  0.91255740740E+02 0.  0.
         11    1    3    3    0    0  0.19704417391E+02 -0.81390883774E+01 -0.52186749504E+02  0.56373448080E+02  0.51100000000E-03 0.  1.
         22    1    1    0    0    0 -0.25810619256E+01 -0.14776765471E+02  0.25040281221E+02  0.29189559128E+02  0.00000000000E+00 0.  1.
</event>
<event>
 5    1  0.1094625E-009  0.9118800E+02  0.7818608E-02  0.1130116E+00
         25   -1    0    0    0    0  0.00000000000E+00  0.00000000000E+00  0.99999998245E-14  0.12500000000E+03  0.12500000000E+03 0.  0.
        -11    1    3    3    0    0 -0.23164780715E+02 -0.36401180289E+01  0.51440603049E+02  0.56533115669E+02  0.51100000000E-03 0.  1.
         23    2    1    0    0    0 -0.49977706002E+01  0.31052308523E+01  0.48512558356E+02  0.76131927725E+02  0.58377923321E+02 0.  0.
         11    1    3    3    0    0  0.18167010115E+02  0.67453488812E+01 -0.29280446935E+01  0.19598812057E+02  0.51100000000E-03 0. -1.
         22    1    1    0    0    0  0.49977706002E+01 -0.31052308523E+01 -0.48512558356E+02  0.48868072275E+02  0.00000000000E+00 0.  1.
</event>
<event>
 5    1  0.1094625E-009  0.9118800E+02  0.7818608E-02  0.1130116E+00
         25   -1    0    0    0    0  0.00000000000E+00  0.00000000000E+00  0.99999998245E-14  0.12500000000E+03  0.12500000000E+03 0.  0.
        -11    1    3    3    0    0  0.48973688618E+02 -0.21876188477E+02 -0.24876722407E+02  0.59125638408E+02  0.51100000000E-03 0.  1.
         23    2    1    0    0    0  0.26678739986E+02  0.38431278797E+01 -0.10575797678E+02  0.96045340692E+02  0.91576935813E+02 0.  0.
         11    1    3    3    0    0 -0.22294948633E+02  0.25719316356E+02  0.14300924729E+02  0.36919702284E+02  0.51100000000E-03 0. -1.
         22    1    1    0    0    0 -0.26678739986E+02 -0.38431278797E+01  0.10575797678E+02  0.28954659308E+02  0.00000000000E+00 0.  1.
</event>
<event>
 4    1  0.1094625E-009  0.9118800E+02  0.7818608E-02  0.1130116E+00
         25   -1    0    0    0    0  0.00000000000E+00  0.00000000000E+00  0.99999998245E-14  0.12500000000E+03  0.12500000000E+03 0.  0.
        -11    1    1    0    0    0  0.11988666045E+02  0.42166955569E+01 -0.16084028768E+01  0.12809980290E+02  0.51100000000E-03 0. -1.
         11    1    1    0    0    0 -0.55950788402E+02  0.15964075519E+02  0.18339289177E+02  0.61005507602E+02  0.51100000000E-03 0.  1.
         22    1    1    0    0    0  0.43962122357E+02 -0.20180771076E+02 -0.16730886301E+02  0.51184512108E+02  0.00000000000E+00 0.  1.
</event>
<event>
 5    1  0.1094625E-009  0.9118800E+02  0.7818608E-02  0.1130116E+00
         25   -1    0    0    0    0  0.00000000000E+00  0.00000000000E+00  0.99999998245E-14  0.12500000000E+03  0.12500000000E+03 0.  0.
        -11    1    3    3    0    0 -0.18842578579E+01  0.17966692989E+02 -0.21607686241E+02  0.28164598161E+02  0.51100000000E-03 0.  1.
         23    2    1    0    0    0 -0.97328961062E+01  0.25366105271E+02  0.32100431082E+02  0.82945199574E+02  0.71493355590E+02 0.  0.
         11    1    3    3    0    0 -0.78486382483E+01  0.73994122814E+01  0.53708117323E+02  0.54780601412E+02  0.51100000000E-03 0. -1.
         22    1    1    0    0    0  0.97328961062E+01 -0.25366105271E+02 -0.32100431082E+02  0.42054800426E+02  0.00000000000E+00 0. -1.
</event>
<event>
 5    1  0.1094625E-009  0.9118800E+02  0.7818608E-02  0.1130116E+00
         25   -1    0    0    0    0  0.00000000000E+00  0.00000000000E+00  0.99999998245E-14  0.12500000000E+03  0.12500000000E+03 0.  0.
        -11    1    3    3    0    0  0.66591125156E+01  0.14502948865E+02 -0.57168780025E+02  0.59354432986E+02  0.51100000000E-03 0.  1.
         23    2    1    0    0    0  0.15045793260E+02  0.12301162417E+02 -0.21691935686E+02  0.95875533216E+02  0.91344859210E+02 0.  0.
         11    1    3    3    0    0  0.83866807447E+01 -0.22017864485E+01  0.35476844339E+02  0.36521100230E+02  0.51100000000E-03 0. -1.
         22    1    1    0    0    0 -0.15045793260E+02 -0.12301162417E+02  0.21691935686E+02  0.29124466784E+02  0.00000000000E+00 0.  1.
</event>
<event>
 5    1  0.1094625E-009  0.9118800E+02  0.7818608E-02  0.1130116E+00
         25   -1    0    0    0    0  0.00000000000E+00  0.00000000000E+00  0.99999998245E-14  0.12500000000E+03  0.12500000000E+03 0.  0.
        -11    1    3    3    0    0  0.45682309018E+02 -0.69043329249E+01 -0.22722261269E+02  0.51486350888E+02  0.51100000000E-03 0. -1.
         23    2    1    0    0    0  0.21722871151E+02  0.19991332131E+02  0.23679455401E+01  0.95383388825E+02  0.90668887753E+02 0.  0.
         11    1    3    3    0    0 -0.23959437867E+02  0.26895665055E+02  0.25090206809E+02  0.43897037937E+02  0.51100000000E-03 0.  1.
         22    1    1    0    0    0 -0.21722871151E+02 -0.19991332131E+02 -0.23679455401E+01  0.29616611175E+02  0.00000000000E+00 0.  1.
</event>
<event>
 5    1  0.1094625E-009  0.9118800E+02  0.7818608E-02  0.1130116E+00
         25   -1    0    0    0    0  0.00000000000E+00  0.00000000000E+00  0.99999998245E-14  0.12500000000E+03  0.12500000000E+03 0.  0.
        -11    1    3    3    0    0 -0.43426973101E+02 -0.12382616258E+02 -0.42392334232E+01  0.45356391814E+02  0.51100000000E-03 0.  1.
         23    2    1    0    0    0 -0.25730776138E+02  0.25153208800E+02  0.69848140759E+01  0.88345608977E+02  0.80382847948E+02 0.  0.
         11    1    3    3    0    0  0.17696196963E+02  0.37535825058E+02  0.11224047499E+02  0.42989217163E+02  0.51100000000E-03 0. -1.
         22    1    1    0    0    0  0.25730776138E+02 -0.25153208800E+02 -0.69848140759E+01  0.36654391023E+02  0.00000000000E+00 0.  1.
</event>
<event>
 5    1  0.1094625E-009  0.9118800E+02  0.7818608E-02  0.1130116E+00
         25   -1    0    0    0    0  0.00000000000E+00  0.00000000000E+00  0.99999998245E-14  0.12500000000E+03  0.12500000000E+03 0.  0.
        -11    1    3    3    0    0 -0.54264081454E+02 -0.31314850642E+01  0.95710020237E+01  0.55190586287E+02  0.51100000000E-03 0. -1.
         23    2    1    0    0    0 -0.16868994402E+02 -0.24481820824E+01  0.24240829624E+02  0.95365992702E+02  0.90644901542E+02 0.  0.
         11    1    3    3    0    0  0.37395087051E+02  0.68330298182E+00  0.14669827600E+02  0.40175406415E+02  0.51100000000E-03 0.  1.
         22    1    1    0    0    0  0.16868994402E+02  0.24481820824E+01 -0.24240829624E+02  0.29634007298E+02  0.00000000000E+00 0. -1.
</event>
<event>
 5    1  0.1094625E-009  0.9118800E+02  0.7818608E-02  0.1130116E+00
         25   -1    0    0    0    0  0.00000000000E+00  0.00000000000E+00  0.99999998245E-14  0.12500000000E+03  0.12500000000E+03 0.  0.
        -11    1    3    3    0    0 -0.45106495520E+02 -0.53113287482E+01  0.31319089079E+02  0.55169660976E+02  0.51100000000E-03 0.  1.
         23    2    1    0    0    0 -0.33973445679E+02  0.37944194508E+01 -0.12703514977E+01  0.90791719962E+02  0.84100713376E+02 0.  0.
         11    1    3    3    0    0  0.11133049841E+02  0.91057481990E+01 -0.32589440577E+02  0.35622058986E+02  0.51100000000E-03 0. -1.
         22    1    1    0    0    0  0.33973445679E+02 -0.37944194508E+01  0.12703514977E+01  0.34208280038E+02  0.00000000000E+00 0.  1.
</event>
<event>
 5    1  0.1094625E-009  0.9118800E+02  0.7818608E-02  0.1130116E+00
         25   -1    0    0    0    0  0.00000000000E+00  0.00000000000E+00  0.99999998245E-14  0.12500000000E+03  0.12500000000E+03 0.  0.
        -11    1    3    3    0    0  0.36312870876E+02 -0.81270262416E+01  0.32659302048E+02  0.49510636810E+02  0.51100000000E-03 0.  1.
         23    2    1    0    0    0 -0.39114795652E+01  0.13868608084E+02  0.25217118646E+02  0.95956222089E+02  0.91455210470E+02 0.  0.
         11    1    3    3    0    0 -0.40224350441E+02  0.21995634326E+02 -0.74421834028E+01  0.46445585279E+02  0.51100000000E-03 0. -1.
         22    1    1    0    0    0  0.39114795652E+01 -0.13868608084E+02 -0.25217118646E+02  0.29043777911E+02  0.00000000000E+00 0.  1.
</event>
<event>
 5    1  0.1094625E-009  0.9118800E+02  0.7818608E-02  0.1130116E+00
         25   -1    0    0    0    0  0.00000000000E+00  0.00000000000E+00  0.99999998245E-14  0.12500000000E+03  0.12500000000E+03 0.  0.
        -11    1    3    3    0    0 -0.40242336128E+02 -0.12920265978E+02  0.76063021792E+01  0.42944554057E+02  0.51100000000E-03 0.  1.
         23    2    1    0    0    0 -0.10689170883E+02 -0.18445592935E+02 -0.28167388871E+02  0.89674370937E+02  0.82423253601E+02 0.  0.
         11    1    3    3    0    0  0.29553165246E+02 -0.55253269572E+01 -0.35773691050E+02  0.46729816880E+02  0.51100000000E-03 0. -1.
         22    1    1    0    0    0  0.10689170883E+02  0.18445592935E+02  0.28167388871E+02  0.35325629063E+02  0.00000000000E+00 0.  1.
</event>
<event>
 5    1  0.1094625E-009  0.9118800E+02  0.7818608E-02  0.1130116E+00
         25   -1    0    0    0    0  0.00000000000E+00  0.00000000000E+00  0.99999998245E-14  0.12500000000E+03  0.12500000000E+03 0.  0.
        -11    1    3    3    0    0 -0.99378637035E+01 -0.14188944699E+02  0.33381793962E+02  0.37608927863E+02  0.51100000000E-03 0. -1.
         23    2    1    0    0    0 -0.18660237109E+02  0.60835355018E+01 -0.20974559478E+02  0.96274645373E+02  0.91889397338E+02 0.  0.
         11    1    3    3    0    0 -0.87223734055E+01  0.20272480200E+02 -0.54356353440E+02  0.58665717509E+02  0.51100000000E-03 0.  1.
         22    1    1    0    0    0  0.18660237109E+02 -0.60835355018E+01  0.20974559478E+02  0.28725354627E+02  0.00000000000E+00 0.  1.
</event>
<event>
 5    1  0.1094625E-009  0.9118800E+02  0.7818608E-02  0.1130116E+00
         25   -1    0    0    0    0  0.00000000000E+00  0.00000000000E+00  0.99999998245E-14  0.12500000000E+03  0.12500000000E+03 0.  0.
        -11    1    3    3    0    0  0.25390837181E+02  0.18756756600E+02  0.18231209617E+02  0.36453909738E+02  0.51100000000E-03 0.  1.
         23    2    1    0    0    0 -0.14095427457E+02  0.12346167134E+02 -0.23952263007E+02  0.94589149613E+02  0.89567222817E+02 0.  0.
         11    1    3    3    0    0 -0.39486264638E+02 -0.64105894659E+01 -0.42183472624E+02  0.58135239874E+02  0.51100000000E-03 0. -1.
         22    1    1    0    0    0  0.14095427457E+02 -0.12346167134E+02  0.23952263007E+02  0.30410850387E+02  0.00000000000E+00 0. -1.
</event>
<event>
 5    1  0.1094625E-009  0.9118800E+02  0.7818608E-02  0.1130116E+00
         25   -1    0    0    0    0  0.00000000000E+00  0.00000000000E+00  0.99999998245E-14  0.12500000000E+03  0.12500000000E+03 0.  0.
        -11    1    3    3    0    0 -0.93360977344E+01  0.46701684376E+02 -0.16529838059E+02  0.50412752266E+02  0.51100000000E-03 0.  1.
         23    2    1    0    0    0  0.19098897670E+02  0.23237993305E+02  0.69595154464E+01  0.94125948107E+02  0.88918429061E+02 0.  0.
         11    1    3    3    0    0  0.28434995404E+02 -0.23463691071E+02  0.23489353505E+02  0.43713195841E+02  0.51100000000E-03 0. -1.
         22    1    1    0    0    0 -0.19098897670E+02 -0.23237993305E+02 -0.69595154464E+01  0.30874051893E+02  0.00000000000E+00 0.  1.
</event>
<event>
 5    1  0.1094625E-009  0.9118800E+02  0.7818608E-02  0.1130116E+00
         25   -1    0    0    0    0  0.00000000000E+00  0.00000000000E+00  0.99999998245E-14  0.12500000000E+03  0.12500000000E+03 0.  0.
        -11    1    3    3    0    0  0.28599341649E+02 -0.49127519189E+02  0.24815705037E+01  0.56899856562E+02  0.51100000000E-03 0. -1.
         23    2    1    0    0    0  0.72831979419E+01 -0.22424039277E+02 -0.16722196240E+02  0.96094734790E+02  0.91644332599E+02 0.  0.
         11    1    3    3    0    0 -0.21316143707E+02  0.26703479911E+02 -0.19203766743E+02  0.39194878228E+02  0.51100000000E-03 0.  1.
         22    1    1    0    0    0 -0.72831979419E+01  0.22424039277E+02  0.16722196240E+02  0.28905265210E+02  0.00000000000E+00 0. -1.
</event>
<event>
 5    1  0.1094625E-009  0.9118800E+02  0.7818608E-02  0.1130116E+00
         25   -1    0    0    0    0  0.00000000000E+00  0.00000000000E+00  0.99999998245E-14  0.12500000000E+03  0.12500000000E+03 0.  0.
        -11    1    3    3    0    0 -0.35911747408E+02 -0.66832426865E+01 -0.42880738268E+02  0.56330072336E+02  0.51100000000E-03 0. -1.
         23    2    1    0    0    0 -0.33388537044E+02 -0.14293638977E+02 -0.14379520117E+02  0.85937574065E+02  0.76546675409E+02 0.  0.
         11    1    3    3    0    0  0.25232103640E+01 -0.76103962903E+01  0.28501218151E+02  0.29607501728E+02  0.51100000000E-03 0.  1.
         22    1    1    0    0    0  0.33388537044E+02  0.14293638977E+02  0.14379520117E+02  0.39062425935E+02  0.00000000000E+00 0. -1.
</event>
<event>
 5    1  0.1094625E-009  0.9118800E+02  0.7818608E-02  0.1130116E+00
         25   -1    0    0    0    0  0.00000000000E+00  0.00000000000E+00  0.99999998245E-14  0.12500000000E+03  0.12500000000E+03 0.  0.
        -11    1    3    3    0    0 -0.24772469120E+02 -0.26422513739E+02 -0.17970672080E+02  0.40432283065E+02  0.51100000000E-03 0. -1.
         23    2    1    0    0    0 -0.21430204488E+02  0.18118774134E+02  0.12268637707E+02  0.94372184020E+02  0.89263912109E+02 0.  0.
         11    1    3    3    0    0  0.33422646322E+01  0.44541287874E+02  0.30239309787E+02  0.53939900954E+02  0.51100000000E-03 0.  1.
         22    1    1    0    0    0  0.21430204488E+02 -0.18118774134E+02 -0.12268637707E+02  0.30627815980E+02  0.00000000000E+00 0.  1.
</event>
<event>
 5    1  0.1094625E-009  0.9118800E+02  0.7818608E-02  0.1130116E+00
         25   -1    0    0    0    0  0.00000000000E+00  0.00000000000E+00  0.99999998245E-14  0.12500000000E+03  0.12500000000E+03 0.  0.
        -11    1    3    3    0    0 -0.24844667777E+01  0.32765631004E+02  0.15228015824E+02  0.36216731168E+02  0.51100000000E-03 0.  1.
         23    2    1    0    0    0  0.23964908641E+01 -0.61338269339E+01 -0.28966594660E+02  0.95294266420E+02  0.90545936435E+02 0.  0.
         11    1    3    3    0    0  0.48809576418E+01 -0.38899457938E+02 -0.44194610484E+02  0.59077535252E+02  0.51100000000E-03 0. -1.
         22    1    1    0    0    0 -0.23964908641E+01  0.61338269339E+01  0.28966594660E+02  0.29705733580E+02  0.00000000000E+00 0. -1.
</event>
<event>
 5    1  0.1094625E-009  0.9118800E+02  0.7818608E-02  0.1130116E+00
         25   -1    0    0    0    0  0.00000000000E+00  0.00000000000E+00  0.99999998245E-14  0.12500000000E+03  0.12500000000E+03 0.  0.
        -11    1    3    3    0    0  0.70107294715E+00 -0.32103098805E+02  0.20464581786E+02  0.38077546718E+02  0.51100000000E-03 0. -1.
         23    2    1    0    0    0  0.26030878476E+02  0.97464307686E+01 -0.97142013537E+01  0.95555726280E+02  0.90906169043E+02 0.  0.
         11    1    3    3    0    0  0.25329805529E+02  0.41849529574E+02 -0.30178783139E+02  0.57478179562E+02  0.51100000000E-03 0.  1.
         22    1    1    0    0    0 -0.26030878476E+02 -0.97464307686E+01  0.97142013537E+01  0.29444273720E+02  0.00000000000E+00 0.  1.
</event>
<event>
 5    1  0.1094625E-009  0.9118800E+02  0.7818608E-02  0.1130116E+00
         25   -1    0    0    0    0  0.00000000000E+00  0.00000000000E+00  0.99999998245E-14  0.12500000000E+03  0.12500000000E+03 0.  0.
        -11    1    3    3    0    0  0.48826215434E+02  0.58784471800E+00 -0.14596761531E+02  0.50964794932E+02  0.51100000000E-03 0. -1.
         23    2    1    0    0    0  0.85650428565E+01  0.20836652317E+02 -0.18006204758E+02  0.96159933275E+02  0.91733218186E+02 0.  0.
         11    1    3    3    0    0 -0.40261172577E+02  0.20248807599E+02 -0.34094432272E+01  0.45195138343E+02  0.51100000000E-03 0.  1.
         22    1    1    0    0    0 -0.85650428565E+01 -0.20836652317E+02  0.18006204758E+02  0.28840066725E+02  0.00000000000E+00 0.  1.
</event>
<event>
 5    1  0.1094625E-009  0.9118800E+02  0.7818608E-02  0.1130116E+00
         25   -1    0    0    0    0  0.00000000000E+00  0.00000000000E+00  0.99999998245E-14  0.12500000000E+03  0.12500000000E+03 0.  0.
        -11    1    3    3    0    0 -0.90055380392E+01  0.27008198919E+02 -0.44985655771E+02  0.53237691062E+02  0.51100000000E-03 0. -1.
         23    2    1    0    0    0  0.14292688326E+02 -0.21368123125E+01 -0.26354414431E+02  0.94943352375E+02  0.90060191504E+02 0.  0.
         11    1    3    3    0    0  0.23298226365E+02 -0.29145011232E+02  0.18631241340E+02  0.41705661313E+02  0.51100000000E-03 0.  1.
         22    1    1    0    0    0 -0.14292688326E+02  0.21368123125E+01  0.26354414431E+02  0.30056647625E+02  0.00000000000E+00 0. -1.
</event>
<event>
 5    1  0.1094625E-009  0.9118800E+02  0.7818608E-02  0.1130116E+00
         25   -1    0    0    0    0  0.00000000000E+00  0.00000000000E+00  0.99999998245E-14  0.12500000000E+03  0.12500000000E+03 0.  0.
        -11    1    3    3    0    0  0.35694221248E+02  0.43547765908E+02  0.16815397621E+02  0.58764299907E+02  0.51100000000E-03 0.  1.
         23    2    1    0    0    0  0.37140495595E+01  0.28065150117E+02  0.10218641870E+02  0.94902367919E+02  0.90003288717E+02 0.  0.
         11    1    3    3    0    0 -0.31980171689E+02 -0.15482615791E+02 -0.65967557509E+01  0.36138068013E+02  0.51100000000E-03 0. -1.
         22    1    1    0    0    0 -0.37140495595E+01 -0.28065150117E+02 -0.10218641870E+02  0.30097632081E+02  0.00000000000E+00 0.  1.
</event>
<event>
 5    1  0.1094625E-009  0.9118800E+02  0.7818608E-02  0.1130116E+00
         25   -1    0    0    0    0  0.00000000000E+00  0.00000000000E+00  0.99999998245E-14  0.12500000000E+03  0.12500000000E+03 0.  0.
        -11    1    3    3    0    0 -0.37196877793E+02  0.17031003875E+02  0.23257161206E+02  0.47059094319E+02  0.51100000000E-03 0.  1.
         23    2    1    0    0    0  0.92849414911E+01  0.15399576720E+01  0.27204852282E+02  0.96213100274E+02  0.91805637455E+02 0.  0.
         11    1    3    3    0    0  0.46481819284E+02 -0.15491046203E+02  0.39476910760E+01  0.49154005955E+02  0.51100000000E-03 0. -1.
         22    1    1    0    0    0 -0.92849414911E+01 -0.15399576720E+01 -0.27204852282E+02  0.28786899726E+02  0.00000000000E+00 0.  1.
</event>
<event>
 5    1  0.1094625E-009  0.9118800E+02  0.7818608E-02  0.1130116E+00
         25   -1    0    0    0    0  0.00000000000E+00  0.00000000000E+00  0.99999998245E-14  0.12500000000E+03  0.12500000000E+03 0.  0.
        -11    1    3    3    0    0 -0.32419409037E+02  0.13449129378E+02 -0.95898588676E+00  0.35111491247E+02  0.51100000000E-03 0.  1.
         23    2    1    0    0    0  0.13833764352E+02 -0.22682896757E+02  0.12969899967E+02  0.95434730737E+02  0.90739642298E+02 0.  0.
         11    1    3    3    0    0  0.46253173389E+02 -0.36132026135E+02  0.13928885854E+02  0.60323239490E+02  0.51100000000E-03 0. -1.
         22    1    1    0    0    0 -0.13833764352E+02  0.22682896757E+02 -0.12969899967E+02  0.29565269263E+02  0.00000000000E+00 0. -1.
</event>
<event>
 5    1  0.1094625E-009  0.9118800E+02  0.7818608E-02  0.1130116E+00
         25   -1    0    0    0    0  0.00000000000E+00  0.00000000000E+00  0.99999998245E-14  0.12500000000E+03  0.12500000000E+03 0.  0.
        -11    1    3    3    0    0 -0.12533814986E+02 -0.17861664156E+02 -0.51553669256E+02  0.55981393146E+02  0.51100000000E-03 0. -1.
         23    2    1    0    0    0  0.14053133557E+02 -0.12300742228E+02 -0.22604536969E+02  0.95678268917E+02  0.91074514707E+02 0.  0.
         11    1    3    3    0    0  0.26586948543E+02  0.55609219280E+01  0.28949132287E+02  0.39696875771E+02  0.51100000000E-03 0.  1.
         22    1    1    0    0    0 -0.14053133557E+02  0.12300742228E+02  0.22604536969E+02  0.29321731083E+02  0.00000000000E+00 0. -1.
</event>
<event>
 5    1  0.1094625E-009  0.9118800E+02  0.7818608E-02  0.1130116E+00
         25   -1    0    0    0    0  0.00000000000E+00  0.00000000000E+00  0.99999998245E-14  0.12500000000E+03  0.12500000000E+03 0.  0.
        -11    1    3    3    0    0  0.36618969531E+02  0.79729375532E+01  0.19372374795E+01  0.37526917700E+02  0.51100000000E-03 0.  1.
         23    2    1    0    0    0 -0.62555863337E+01 -0.20622952611E+02 -0.21869937803E+02  0.94296047253E+02  0.89157230852E+02 0.  0.
         11    1    3    3    0    0 -0.42874555865E+02 -0.28595890165E+02 -0.23807175283E+02  0.56769129552E+02  0.51100000000E-03 0. -1.
         22    1    1    0    0    0  0.62555863337E+01  0.20622952611E+02  0.21869937803E+02  0.30703952747E+02  0.00000000000E+00 0. -1.
</event>
<event>
 5    1  0.1094625E-009  0.9118800E+02  0.7818608E-02  0.1130116E+00
         25   -1    0    0    0    0  0.00000000000E+00  0.00000000000E+00  0.99999998245E-14  0.12500000000E+03  0.12500000000E+03 0.  0.
        -11    1    3    3    0    0 -0.22321773901E+02  0.30837732275E+02 -0.17552354846E+02  0.41920311101E+02  0.51100000000E-03 0. -1.
         23    2    1    0    0    0  0.23237557331E+02  0.85879864343E+01  0.83516193239E+01  0.98856413271E+02  0.95336788900E+02 0.  0.
         11    1    3    3    0    0  0.45559331232E+02 -0.22249745841E+02  0.25903974170E+02  0.56936102170E+02  0.51100000000E-03 0.  1.
         22    1    1    0    0    0 -0.23237557331E+02 -0.85879864343E+01 -0.83516193239E+01  0.26143586729E+02  0.00000000000E+00 0. -1.
</event>
<event>
 5    1  0.1094625E-009  0.9118800E+02  0.7818608E-02  0.1130116E+00
         25   -1    0    0    0    0  0.00000000000E+00  0.00000000000E+00  0.99999998245E-14  0.12500000000E+03  0.12500000000E+03 0.  0.
        -11    1    3    3    0    0 -0.60182596471E+01  0.46498117913E+02 -0.39297334123E+02  0.61176587745E+02  0.51100000000E-03 0.  1.
         23    2    1    0    0    0 -0.65497029840E+01  0.15994847745E+02 -0.24323188941E+02  0.95161245270E+02  0.90362112179E+02 0.  0.
         11    1    3    3    0    0 -0.53144333695E+00 -0.30503270167E+02  0.14974145182E+02  0.33984657526E+02  0.51100000000E-03 0. -1.
         22    1    1    0    0    0  0.65497029840E+01 -0.15994847745E+02  0.24323188941E+02  0.29838754730E+02  0.00000000000E+00 0.  1.
</event>
<event>
 5    1  0.1094625E-009  0.9118800E+02  0.7818608E-02  0.1130116E+00
         25   -1    0    0    0    0  0.00000000000E+00  0.00000000000E+00  0.99999998245E-14  0.12500000000E+03  0.12500000000E+03 0.  0.
        -11    1    3    3    0    0 -0.75975315984E+01  0.55683277783E+02 -0.21777738151E+02  0.60271218590E+02  0.51100000000E-03 0. -1.
         23    2    1    0    0    0 -0.14802904393E+02  0.22056328433E+02 -0.92475288962E+01  0.96873066411E+02  0.92699873802E+02 0.  0.
         11    1    3    3    0    0 -0.72053727948E+01 -0.33626949350E+02  0.12530209255E+02  0.36601847822E+02  0.51100000000E-03 0.  1.
         22    1    1    0    0    0  0.14802904393E+02 -0.22056328433E+02  0.92475288962E+01  0.28126933589E+02  0.00000000000E+00 0. -1.
</event>
<event>
 5    1  0.1094625E-009  0.9118800E+02  0.7818608E-02  0.1130116E+00
         25   -1    0    0    0    0  0.00000000000E+00  0.00000000000E+00  0.99999998245E-14  0.12500000000E+03  0.12500000000E+03 0.  0.
        -11    1    3    3    0    0  0.31140324248E+02 -0.21298233113E+02  0.46125568343E+02  0.59589450268E+02  0.51100000000E-03 0. -1.
         23    2    1    0    0    0  0.34479702983E+01 -0.12098730962E+02  0.28913966705E+02  0.93467710824E+02  0.87988224815E+02 0.  0.
         11    1    3    3    0    0 -0.27692353950E+02  0.91995021513E+01 -0.17211601638E+02  0.33878260556E+02  0.51100000000E-03 0.  1.
         22    1    1    0    0    0 -0.34479702983E+01  0.12098730962E+02 -0.28913966705E+02  0.31532289176E+02  0.00000000000E+00 0. -1.
</event>
<event>
 5    1  0.1094625E-009  0.9118800E+02  0.7818608E-02  0.1130116E+00
         25   -1    0    0    0    0  0.00000000000E+00  0.00000000000E+00  0.99999998245E-14  0.12500000000E+03  0.12500000000E+03 0.  0.
        -11    1    3    3    0    0  0.42174899142E+02  0.25084509851E+02 -0.83666773138E+01  0.49779072326E+02  0.51100000000E-03 0.  1.
         23    2    1    0    0    0  0.16692556354E+02 -0.12998227450E+02 -0.18713729687E+02  0.96754663513E+02  0.92540077146E+02 0.  0.
         11    1    3    3    0    0 -0.25482342788E+02 -0.38082737301E+02 -0.10347052373E+02  0.46975591187E+02  0.51100000000E-03 0. -1.
         22    1    1    0    0    0 -0.16692556354E+02  0.12998227450E+02  0.18713729687E+02  0.28245336487E+02  0.00000000000E+00 0. -1.
</event>
<event>
 5    1  0.1094625E-009  0.9118800E+02  0.7818608E-02  0.1130116E+00
         25   -1    0    0    0    0  0.00000000000E+00  0.00000000000E+00  0.99999998245E-14  0.12500000000E+03  0.12500000000E+03 0.  0.
        -11    1    3    3    0    0  0.22812704433E+02  0.56365594511E+01 -0.33194148282E+02  0.40669912300E+02  0.51100000000E-03 0. -1.
         23    2    1    0    0    0  0.13705799887E+02 -0.18882421530E+02  0.16222970488E+02  0.96582055584E+02  0.92306629751E+02 0.  0.
         11    1    3    3    0    0 -0.91069045462E+01 -0.24518980981E+02  0.49417118770E+02  0.55912143284E+02  0.51100000000E-03 0.  1.
         22    1    1    0    0    0 -0.13705799887E+02  0.18882421530E+02 -0.16222970488E+02  0.28417944416E+02  0.00000000000E+00 0.  1.
</event>
<event>
 5    1  0.1094625E-009  0.9118800E+02  0.7818608E-02  0.1130116E+00
         25   -1    0    0    0    0  0.00000000000E+00  0.00000000000E+00  0.99999998245E-14  0.12500000000E+03  0.12500000000E+03 0.  0.
        -11    1    3    3    0    0 -0.26858981796E+02  0.14351783258E+02 -0.14548764167E+02  0.33749742589E+02  0.51100000000E-03 0.  1.
         23    2    1    0    0    0  0.29520294392E+02 -0.46716064545E+01 -0.10236298751E+02  0.93408015258E+02  0.87903377719E+02 0.  0.
         11    1    3    3    0    0  0.56379276188E+02 -0.19023389712E+02  0.43124654167E+01  0.59658272669E+02  0.51100000000E-03 0. -1.
         22    1    1    0    0    0 -0.29520294392E+02  0.46716064545E+01  0.10236298751E+02  0.31591984742E+02  0.00000000000E+00 0. -1.
</event>
<event>
 5    1  0.1094625E-009  0.9118800E+02  0.7818608E-02  0.1130116E+00
         25   -1    0    0    0    0  0.00000000000E+00  0.00000000000E+00  0.99999998245E-14  0.12500000000E+03  0.12500000000E+03 0.  0.
        -11    1    3    3    0    0 -0.34733219934E+02  0.90117225405E+01  0.29422149908E+02  0.46403347030E+02  0.51100000000E-03 0.  1.
         23    2    1    0    0    0  0.14571424164E+02  0.15157942389E+02  0.17849002334E+02  0.97419635536E+02  0.93433981420E+02 0.  0.
         11    1    3    3    0    0  0.49304644097E+02  0.61462198484E+01 -0.11573147573E+02  0.51016288507E+02  0.51100000000E-03 0. -1.
         22    1    1    0    0    0 -0.14571424164E+02 -0.15157942389E+02 -0.17849002334E+02  0.27580364464E+02  0.00000000000E+00 0. -1.
</event>
<event>
 5    1  0.1094625E-009  0.9118800E+02  0.7818608E-02  0.1130116E+00
         25   -1    0    0    0    0  0.00000000000E+00  0.00000000000E+00  0.99999998245E-14  0.12500000000E+03  0.12500000000E+03 0.  0.
        -11    1    3    3    0    0 -0.47786277350E+02  0.11662093106E+02  0.18570305814E+02  0.52577456927E+02  0.51100000000E-03 0. -1.
         23    2    1    0    0    0 -0.24001635688E+02 -0.14210871695E+02 -0.72415424863E+01  0.96182169970E+02  0.91763513950E+02 0.  0.
         11    1    3    3    0    0  0.23784641662E+02 -0.25872964802E+02 -0.25811848300E+02  0.43604713043E+02  0.51100000000E-03 0.  1.
         22    1    1    0    0    0  0.24001635688E+02  0.14210871695E+02  0.72415424863E+01  0.28817830030E+02  0.00000000000E+00 0. -1.
</event>
<event>
 5    1  0.1094625E-009  0.9118800E+02  0.7818608E-02  0.1130116E+00
         25   -1    0    0    0    0  0.00000000000E+00  0.00000000000E+00  0.99999998245E-14  0.12500000000E+03  0.12500000000E+03 0.  0.
        -11    1    3    3    0    0  0.42929867182E+02  0.26406116522E+01  0.14087083468E+02  0.45259167547E+02  0.51100000000E-03 0. -1.
         23    2    1    0    0    0  0.64476083135E+01  0.26547559769E+02 -0.10968481409E+02  0.95561043376E+02  0.90913479991E+02 0.  0.
         11    1    3    3    0    0 -0.36482258868E+02  0.23906948117E+02 -0.25055564877E+02  0.50301875829E+02  0.51100000000E-03 0.  1.
         22    1    1    0    0    0 -0.64476083135E+01 -0.26547559769E+02  0.10968481409E+02  0.29438956624E+02  0.00000000000E+00 0.  1.
</event>
<event>
 5    1  0.1094625E-009  0.9118800E+02  0.7818608E-02  0.1130116E+00
         25   -1    0    0    0    0  0.00000000000E+00  0.00000000000E+00  0.99999998245E-14  0.12500000000E+03  0.12500000000E+03 0.  0.
        -11    1    3    3    0    0 -0.17391571533E+02  0.50692836712E+02  0.13330999254E+02  0.55226316152E+02  0.51100000000E-03 0. -1.
         23    2    1    0    0    0  0.11266490290E+02  0.26765330154E+02 -0.26556432660E+01  0.95838910465E+02  0.91294729400E+02 0.  0.
         11    1    3    3    0    0  0.28658061823E+02 -0.23927506558E+02 -0.15986642520E+02  0.40612594313E+02  0.51100000000E-03 0.  1.
         22    1    1    0    0    0 -0.11266490290E+02 -0.26765330154E+02  0.26556432660E+01  0.29161089535E+02  0.00000000000E+00 0. -1.
</event>
<event>
 5    1  0.1094625E-009  0.9118800E+02  0.7818608E-02  0.1130116E+00
         25   -1    0    0    0    0  0.00000000000E+00  0.00000000000E+00  0.99999998245E-14  0.12500000000E+03  0.12500000000E+03 0.  0.
        -11    1    3    3    0    0  0.14542638255E+02 -0.12273975188E+02 -0.51694015459E+02  0.55085479292E+02  0.51100000000E-03 0.  1.
         23    2    1    0    0    0  0.17530901484E+02 -0.22047315274E+02 -0.15180848516E+02  0.93001956633E+02  0.87324046851E+02 0.  0.
         11    1    3    3    0    0  0.29882632286E+01 -0.97733400853E+01  0.36513166942E+02  0.37916477341E+02  0.51100000000E-03 0. -1.
         22    1    1    0    0    0 -0.17530901484E+02  0.22047315274E+02  0.15180848516E+02  0.31998043367E+02  0.00000000000E+00 0.  1.
</event>
<event>
 5    1  0.1094625E-009  0.9118800E+02  0.7818608E-02  0.1130116E+00
         25   -1    0    0    0    0  0.00000000000E+00  0.00000000000E+00  0.99999998245E-14  0.12500000000E+03  0.12500000000E+03 0.  0.
        -11    1    3    3    0    0  0.18141135523E+02 -0.46424842409E+02 -0.31826564608E+01  0.49944930606E+02  0.51100000000E-03 0.  1.
         23    2    1    0    0    0  0.17887512050E+02 -0.21206409956E+02  0.24922517422E+02  0.87706477973E+02  0.79382740524E+02 0.  0.
         11    1    3    3    0    0 -0.25362347335E+00  0.25218432454E+02  0.28105173883E+02  0.37761547367E+02  0.51100000000E-03 0. -1.
         22    1    1    0    0    0 -0.17887512050E+02  0.21206409956E+02 -0.24922517422E+02  0.37293522027E+02  0.00000000000E+00 0.  1.
</event>
<event>
 5    1  0.1094625E-009  0.9118800E+02  0.7818608E-02  0.1130116E+00
         25   -1    0    0    0    0  0.00000000000E+00  0.00000000000E+00  0.99999998245E-14  0.12500000000E+03  0.12500000000E+03 0.  0.
        -11    1    3    3    0    0  0.11564049910E+02  0.55064940105E+02  0.16235169235E+02  0.58561553937E+02  0.51100000000E-03 0. -1.
         23    2    1    0    0    0  0.89239792655E+01  0.16841894885E+02  0.20376213564E+02  0.97098800950E+02  0.93003764641E+02 0.  0.
         11    1    3    3    0    0 -0.26400706449E+01 -0.38223045221E+02  0.41410443292E+01  0.38537247013E+02  0.51100000000E-03 0.  1.
         22    1    1    0    0    0 -0.89239792655E+01 -0.16841894885E+02 -0.20376213564E+02  0.27901199050E+02  0.00000000000E+00 0. -1.
</event>
<event>
 5    1  0.1094625E-009  0.9118800E+02  0.7818608E-02  0.1130116E+00
         25   -1    0    0    0    0  0.00000000000E+00  0.00000000000E+00  0.99999998245E-14  0.12500000000E+03  0.12500000000E+03 0.  0.
        -11    1    3    3    0    0 -0.10326773606E+02 -0.15393851920E+02  0.50695689883E+02  0.53978383664E+02  0.51100000000E-03 0.  1.
         23    2    1    0    0    0 -0.78292437409E+01 -0.25652381288E+02  0.94353264818E+01  0.96568202500E+02  0.92287868244E+02 0.  0.
         11    1    3    3    0    0  0.24975298656E+01 -0.10258529367E+02 -0.41260363401E+02  0.42589818835E+02  0.51100000000E-03 0. -1.
         22    1    1    0    0    0  0.78292437409E+01  0.25652381288E+02 -0.94353264818E+01  0.28431797500E+02  0.00000000000E+00 0.  1.
</event>
<event>
 5    1  0.1094625E-009  0.9118800E+02  0.7818608E-02  0.1130116E+00
         25   -1    0    0    0    0  0.00000000000E+00  0.00000000000E+00  0.99999998245E-14  0.12500000000E+03  0.12500000000E+03 0.  0.
        -11    1    3    3    0    0  0.28069824537E+02 -0.29184052760E+02 -0.15624134242E+02  0.43402045529E+02  0.51100000000E-03 0. -1.
         23    2    1    0    0    0  0.13763018025E+02  0.12126184132E+02  0.18565597589E+02  0.98901218024E+02  0.95395516174E+02 0.  0.
         11    1    3    3    0    0 -0.14306806512E+02  0.41310236892E+02  0.34189731831E+02  0.55499172495E+02  0.51100000000E-03 0.  1.
         22    1    1    0    0    0 -0.13763018025E+02 -0.12126184132E+02 -0.18565597589E+02  0.26098781976E+02  0.00000000000E+00 0.  1.
</event>
<event>
 5    1  0.1094625E-009  0.9118800E+02  0.7818608E-02  0.1130116E+00
         25   -1    0    0    0    0  0.00000000000E+00  0.00000000000E+00  0.99999998245E-14  0.12500000000E+03  0.12500000000E+03 0.  0.
        -11    1    3    3    0    0  0.44582798877E+02  0.26133319214E+02  0.27762100675E+01  0.51752136878E+02  0.51100000000E-03 0.  1.
         23    2    1    0    0    0  0.26154270441E+02 -0.69569860683E+01 -0.15505456787E+02  0.93809220792E+02  0.88472058854E+02 0.  0.
         11    1    3    3    0    0 -0.18428528436E+02 -0.33090305283E+02 -0.18281666855E+02  0.42057083913E+02  0.51100000000E-03 0. -1.
         22    1    1    0    0    0 -0.26154270441E+02  0.69569860683E+01  0.15505456787E+02  0.31190779208E+02  0.00000000000E+00 0. -1.
</event>
<event>
 5    1  0.1094625E-009  0.9118800E+02  0.7818608E-02  0.1130116E+00
         25   -1    0    0    0    0  0.00000000000E+00  0.00000000000E+00  0.99999998245E-14  0.12500000000E+03  0.12500000000E+03 0.  0.
        -11    1    3    3    0    0  0.25935203074E+02 -0.57862076007E+01  0.43669227159E+02  0.51118649804E+02  0.51100000000E-03 0.  1.
         23    2    1    0    0    0 -0.10246081657E+02  0.10744232369E+02  0.26874190103E+02  0.94297511303E+02  0.89159283452E+02 0.  0.
         11    1    3    3    0    0 -0.36181284731E+02  0.16530439970E+02 -0.16795037056E+02  0.43178861499E+02  0.51100000000E-03 0. -1.
         22    1    1    0    0    0  0.10246081657E+02 -0.10744232369E+02 -0.26874190103E+02  0.30702488697E+02  0.00000000000E+00 0.  1.
</event>
<event>
 5    1  0.1094625E-009  0.9118800E+02  0.7818608E-02  0.1130116E+00
         25   -1    0    0    0    0  0.00000000000E+00  0.00000000000E+00  0.99999998245E-14  0.12500000000E+03  0.12500000000E+03 0.  0.
        -11    1    3    3    0    0  0.50079234137E+02  0.15115821735E+02  0.30512580056E+02  0.60559353533E+02  0.51100000000E-03 0. -1.
         23    2    1    0    0    0  0.23544703236E+02  0.17588047467E+02  0.10870345411E+02  0.93665404526E+02  0.88268630506E+02 0.  0.
         11    1    3    3    0    0 -0.26534530901E+02  0.24722257325E+01 -0.19642234645E+02  0.33106050993E+02  0.51100000000E-03 0.  1.
         22    1    1    0    0    0 -0.23544703236E+02 -0.17588047467E+02 -0.10870345411E+02  0.31334595474E+02  0.00000000000E+00 0. -1.
</event>
<event>
 5    1  0.1094625E-009  0.9118800E+02  0.7818608E-02  0.1130116E+00
         25   -1    0    0    0    0  0.00000000000E+00  0.00000000000E+00  0.99999998245E-14  0.12500000000E+03  0.12500000000E+03 0.  0.
        -11    1    3    3    0    0  0.27841543644E+02  0.96664263589E+01 -0.45788074331E+02  0.54453090841E+02  0.51100000000E-03 0.  1.
         23    2    1    0    0    0 -0.29425705329E+01 -0.66312661603E+01 -0.32445609423E+02  0.91753195897E+02  0.85517828400E+02 0.  0.
         11    1    3    3    0    0 -0.30784114177E+02 -0.16297692519E+02  0.13342464908E+02  0.37300105056E+02  0.51100000000E-03 0. -1.
         22    1    1    0    0    0  0.29425705329E+01  0.66312661603E+01  0.32445609423E+02  0.33246804103E+02  0.00000000000E+00 0.  1.
</event>
<event>
 5    1  0.1094625E-009  0.9118800E+02  0.7818608E-02  0.1130116E+00
         25   -1    0    0    0    0  0.00000000000E+00  0.00000000000E+00  0.99999998245E-14  0.12500000000E+03  0.12500000000E+03 0.  0.
        -11    1    3    3    0    0  0.71522891314E+01 -0.24230801425E+02 -0.28546776154E+02  0.38120931344E+02  0.51100000000E-03 0.  1.
         23    2    1    0    0    0 -0.32188809644E+02  0.31157822627E+01 -0.27301482418E+01  0.92545704833E+02  0.86668484515E+02 0.  0.
         11    1    3    3    0    0 -0.39341098775E+02  0.27346583688E+02  0.25816627912E+02  0.54424773488E+02  0.51100000000E-03 0. -1.
         22    1    1    0    0    0  0.32188809644E+02 -0.31157822627E+01  0.27301482418E+01  0.32454295167E+02  0.00000000000E+00 0. -1.
</event>
<event>
 5    1  0.1094625E-009  0.9118800E+02  0.7818608E-02  0.1130116E+00
         25   -1    0    0    0    0  0.00000000000E+00  0.00000000000E+00  0.99999998245E-14  0.12500000000E+03  0.12500000000E+03 0.  0.
        -11    1    3    3    0    0  0.44074916094E+02  0.18790195964E+01  0.22986758328E+02  0.49744547460E+02  0.51100000000E-03 0.  1.
         23    2    1    0    0    0  0.23768090781E+02 -0.65519784944E+01 -0.16774275986E+02  0.95180092280E+02  0.90388179925E+02 0.  0.
         11    1    3    3    0    0 -0.20306825313E+02 -0.84309980908E+01 -0.39761034314E+02  0.45435544820E+02  0.51100000000E-03 0. -1.
         22    1    1    0    0    0 -0.23768090781E+02  0.65519784944E+01  0.16774275986E+02  0.29819907720E+02  0.00000000000E+00 0.  1.
</event>
<event>
 5    1  0.1094625E-009  0.9118800E+02  0.7818608E-02  0.1130116E+00
         25   -1    0    0    0    0  0.00000000000E+00  0.00000000000E+00  0.99999998245E-14  0.12500000000E+03  0.12500000000E+03 0.  0.
        -11    1    3    3    0    0  0.13214533843E+02  0.57383203113E+02  0.11131729326E+02  0.59928051047E+02  0.51100000000E-03 0.  1.
         23    2    1    0    0    0 -0.34088179890E+01  0.29696641722E+02 -0.25486525359E+01  0.94999896677E+02  0.90138638604E+02 0.  0.
         11    1    3    3    0    0 -0.16623351832E+02 -0.27686561392E+02 -0.13680381862E+02  0.35071845631E+02  0.51100000000E-03 0. -1.
         22    1    1    0    0    0  0.34088179890E+01 -0.29696641722E+02  0.25486525359E+01  0.30000103323E+02  0.00000000000E+00 0.  1.
</event>
<event>
 5    1  0.1094625E-009  0.9118800E+02  0.7818608E-02  0.1130116E+00
         25   -1    0    0    0    0  0.00000000000E+00  0.00000000000E+00  0.99999998245E-14  0.12500000000E+03  0.12500000000E+03 0.  0.
        -11    1    3    3    0    0  0.43085478447E+02 -0.95845667543E+01 -0.33593594747E+02  0.55468477364E+02  0.51100000000E-03 0. -1.
         23    2    1    0    0    0  0.59803236815E+01  0.15776101427E+01 -0.29984878016E+02  0.94383892561E+02  0.89280306564E+02 0.  0.
         11    1    3    3    0    0 -0.37105154765E+02  0.11162176897E+02  0.36087167308E+01  0.38915415197E+02  0.51100000000E-03 0.  1.
         22    1    1    0    0    0 -0.59803236815E+01 -0.15776101427E+01  0.29984878016E+02  0.30616107439E+02  0.00000000000E+00 0. -1.
</event>
<event>
 5    1  0.1094625E-009  0.9118800E+02  0.7818608E-02  0.1130116E+00
         25   -1    0    0    0    0  0.00000000000E+00  0.00000000000E+00  0.99999998245E-14  0.12500000000E+03  0.12500000000E+03 0.  0.
        -11    1    3    3    0    0 -0.54747519060E+02  0.99007954054E+01  0.64541978959E+01  0.56008689180E+02  0.51100000000E-03 0.  1.
         23    2    1    0    0    0 -0.21584689773E+02  0.15550582819E+02 -0.13547197371E+02  0.95146256261E+02  0.90341375157E+02 0.  0.
         11    1    3    3    0    0  0.33162829287E+02  0.56497874138E+01 -0.20001395267E+02  0.39137567081E+02  0.51100000000E-03 0. -1.
         22    1    1    0    0    0  0.21584689773E+02 -0.15550582819E+02  0.13547197371E+02  0.29853743739E+02  0.00000000000E+00 0.  1.
</event>
<event>
 5    1  0.1094625E-009  0.9118800E+02  0.7818608E-02  0.1130116E+00
         25   -1    0    0    0    0  0.00000000000E+00  0.00000000000E+00  0.99999998245E-14  0.12500000000E+03  0.12500000000E+03 0.  0.
        -11    1    3    3    0    0 -0.13212676471E+02  0.41243026615E+02  0.26940355157E+02  0.51003380282E+02  0.51100000000E-03 0.  1.
         23    2    1    0    0    0 -0.73454430005E+01 -0.34835123233E+01  0.27712458268E+02  0.96119717207E+02  0.91678401500E+02 0.  0.
         11    1    3    3    0    0  0.58672334705E+01 -0.44726538939E+02  0.77210311068E+00  0.45116336925E+02  0.51100000000E-03 0. -1.
         22    1    1    0    0    0  0.73454430005E+01  0.34835123233E+01 -0.27712458268E+02  0.28880282793E+02  0.00000000000E+00 0.  1.
</event>
<event>
 5    1  0.1094625E-009  0.9118800E+02  0.7818608E-02  0.1130116E+00
         25   -1    0    0    0    0  0.00000000000E+00  0.00000000000E+00  0.99999998245E-14  0.12500000000E+03  0.12500000000E+03 0.  0.
        -11    1    3    3    0    0  0.17179309361E+02  0.47501378966E+02  0.10359234179E+02  0.51563779990E+02  0.51100000000E-03 0. -1.
         23    2    1    0    0    0 -0.16896379933E+02  0.18158007898E+02  0.13714775933E+02  0.96657523317E+02  0.92408770305E+02 0.  0.
         11    1    3    3    0    0 -0.34075689294E+02 -0.29343371068E+02  0.33555417536E+01  0.45093743327E+02  0.51100000000E-03 0.  1.
         22    1    1    0    0    0  0.16896379933E+02 -0.18158007898E+02 -0.13714775933E+02  0.28342476683E+02  0.00000000000E+00 0. -1.
</event>
<event>
 5    1  0.1094625E-009  0.9118800E+02  0.7818608E-02  0.1130116E+00
         25   -1    0    0    0    0  0.00000000000E+00  0.00000000000E+00  0.99999998245E-14  0.12500000000E+03  0.12500000000E+03 0.  0.
        -11    1    3    3    0    0 -0.10295108420E+02 -0.57346560380E+02 -0.22606812320E+02  0.62495481503E+02  0.51100000000E-03 0.  1.
         23    2    1    0    0    0 -0.55854136642E+01 -0.28338558210E+02 -0.11425897607E+02  0.93938418209E+02  0.88654410789E+02 0.  0.
         11    1    3    3    0    0  0.47096947556E+01  0.29008002170E+02  0.11180914714E+02  0.31442936706E+02  0.51100000000E-03 0. -1.
         22    1    1    0    0    0  0.55854136642E+01  0.28338558210E+02  0.11425897607E+02  0.31061581791E+02  0.00000000000E+00 0.  1.
</event>
<event>
 5    1  0.1094625E-009  0.9118800E+02  0.7818608E-02  0.1130116E+00
         25   -1    0    0    0    0  0.00000000000E+00  0.00000000000E+00  0.99999998245E-14  0.12500000000E+03  0.12500000000E+03 0.  0.
        -11    1    3    3    0    0 -0.43341611397E+02 -0.22787380243E+02  0.30338464392E+02  0.57603666540E+02  0.51100000000E-03 0.  1.
         23    2    1    0    0    0 -0.23951303477E+02  0.61954638862E+01  0.17205053738E+02  0.94865923190E+02  0.89952658646E+02 0.  0.
         11    1    3    3    0    0  0.19390307920E+02  0.28982844129E+02 -0.13133410654E+02  0.37262256651E+02  0.51100000000E-03 0. -1.
         22    1    1    0    0    0  0.23951303477E+02 -0.61954638862E+01 -0.17205053738E+02  0.30134076810E+02  0.00000000000E+00 0. -1.
</event>
<event>
 5    1  0.1094625E-009  0.9118800E+02  0.7818608E-02  0.1130116E+00
         25   -1    0    0    0    0  0.00000000000E+00  0.00000000000E+00  0.99999998245E-14  0.12500000000E+03  0.12500000000E+03 0.  0.
        -11    1    3    3    0    0  0.16968006021E+02  0.67264392770E+01 -0.32072655443E+02  0.36902756552E+02  0.51100000000E-03 0. -1.
         23    2    1    0    0    0 -0.26054843702E+02 -0.14419533814E+02  0.11018087744E+01  0.95200808428E+02  0.90416824248E+02 0.  0.
         11    1    3    3    0    0 -0.43022849722E+02 -0.21145973091E+02  0.33174464218E+02  0.58298051877E+02  0.51100000000E-03 0.  1.
         22    1    1    0    0    0  0.26054843702E+02  0.14419533814E+02 -0.11018087744E+01  0.29799191572E+02  0.00000000000E+00 0.  1.
</event>
<event>
 5    1  0.1094625E-009  0.9118800E+02  0.7818608E-02  0.1130116E+00
         25   -1    0    0    0    0  0.00000000000E+00  0.00000000000E+00  0.99999998245E-14  0.12500000000E+03  0.12500000000E+03 0.  0.
        -11    1    3    3    0    0 -0.31944466355E+02 -0.36810087330E+02  0.27844650194E+02  0.56131595422E+02  0.51100000000E-03 0.  1.
         23    2    1    0    0    0 -0.28977109450E+01 -0.11396309829E+02  0.27896312949E+02  0.94726630802E+02  0.89758886471E+02 0.  0.
         11    1    3    3    0    0  0.29046755410E+02  0.25413777501E+02  0.51662755280E-01  0.38595035380E+02  0.51100000000E-03 0. -1.
         22    1    1    0    0    0  0.28977109450E+01  0.11396309829E+02 -0.27896312949E+02  0.30273369198E+02  0.00000000000E+00 0.  1.
</event>
<event>
 5    1  0.1094625E-009  0.9118800E+02  0.7818608E-02  0.1130116E+00
         25   -1    0    0    0    0  0.00000000000E+00  0.00000000000E+00  0.99999998245E-14  0.12500000000E+03  0.12500000000E+03 0.  0.
        -11    1    3    3    0    0  0.16556184139E+02  0.34965713631E+02  0.92764565087E+01  0.39783929024E+02  0.51100000000E-03 0. -1.
         23    2    1    0    0    0  0.15901691963E+02 -0.86025347357E+01 -0.24242692376E+02  0.94758049917E+02  0.89802630693E+02 0.  0.
         11    1    3    3    0    0 -0.65449217651E+00 -0.43568248367E+02 -0.33519148885E+02  0.54974120893E+02  0.51100000000E-03 0.  1.
         22    1    1    0    0    0 -0.15901691963E+02  0.86025347357E+01  0.24242692376E+02  0.30241950083E+02  0.00000000000E+00 0.  1.
</event>
<event>
 5    1  0.1094625E-009  0.9118800E+02  0.7818608E-02  0.1130116E+00
         25   -1    0    0    0    0  0.00000000000E+00  0.00000000000E+00  0.99999998245E-14  0.12500000000E+03  0.12500000000E+03 0.  0.
        -11    1    3    3    0    0  0.39400052622E+02  0.29736572970E+02 -0.33355587309E+02  0.59575356681E+02  0.51100000000E-03 0. -1.
         23    2    1    0    0    0  0.21061495755E+02  0.20001427196E+02 -0.37822718433E+01  0.95709228866E+02  0.91116997407E+02 0.  0.
         11    1    3    3    0    0 -0.18338556867E+02 -0.97351457738E+01  0.29573315466E+02  0.36133872185E+02  0.51100000000E-03 0.  1.
         22    1    1    0    0    0 -0.21061495755E+02 -0.20001427196E+02  0.37822718433E+01  0.29290771134E+02  0.00000000000E+00 0. -1.
</event>
<event>
 5    1  0.1094625E-009  0.9118800E+02  0.7818608E-02  0.1130116E+00
         25   -1    0    0    0    0  0.00000000000E+00  0.00000000000E+00  0.99999998245E-14  0.12500000000E+03  0.12500000000E+03 0.  0.
        -11    1    3    3    0    0  0.36965087612E+02  0.33611076804E+02 -0.30996988999E+02  0.58795709991E+02  0.51100000000E-03 0.  1.
         23    2    1    0    0    0  0.53051133624E+01  0.25181120719E+02 -0.13944784877E+02  0.95730731240E+02  0.91146490937E+02 0.  0.
         11    1    3    3    0    0 -0.31659974249E+02 -0.84299560845E+01  0.17052204121E+02  0.36935021250E+02  0.51100000000E-03 0. -1.
         22    1    1    0    0    0 -0.53051133624E+01 -0.25181120719E+02  0.13944784877E+02  0.29269268760E+02  0.00000000000E+00 0.  1.
</event>
<event>
 5    1  0.1094625E-009  0.9118800E+02  0.7818608E-02  0.1130116E+00
         25   -1    0    0    0    0  0.00000000000E+00  0.00000000000E+00  0.99999998245E-14  0.12500000000E+03  0.12500000000E+03 0.  0.
        -11    1    3    3    0    0  0.21967977346E+02  0.42052090922E+02  0.26385969279E+02  0.54288025886E+02  0.51100000000E-03 0. -1.
         23    2    1    0    0    0  0.39489408516E+01  0.28754591298E+02 -0.76074980235E+01  0.94995089056E+02  0.90131971376E+02 0.  0.
         11    1    3    3    0    0 -0.18019036494E+02 -0.13297499624E+02 -0.33993467302E+02  0.40707063170E+02  0.51100000000E-03 0.  1.
         22    1    1    0    0    0 -0.39489408516E+01 -0.28754591298E+02  0.76074980235E+01  0.30004910944E+02  0.00000000000E+00 0. -1.
</event>
<event>
 5    1  0.1094625E-009  0.9118800E+02  0.7818608E-02  0.1130116E+00
         25   -1    0    0    0    0  0.00000000000E+00  0.00000000000E+00  0.99999998245E-14  0.12500000000E+03  0.12500000000E+03 0.  0.
        -11    1    3    3    0    0  0.58058116945E+01  0.12215701098E+02 -0.34128211292E+02  0.36710565360E+02  0.51100000000E-03 0. -1.
         23    2    1    0    0    0 -0.17920886018E+02 -0.17921959563E+02  0.12212686875E+02  0.96866310037E+02  0.92690762804E+02 0.  0.
         11    1    3    3    0    0 -0.23726697712E+02 -0.30137660661E+02  0.46340898167E+02  0.60155744677E+02  0.51100000000E-03 0.  1.
         22    1    1    0    0    0  0.17920886018E+02  0.17921959563E+02 -0.12212686875E+02  0.28133689963E+02  0.00000000000E+00 0.  1.
</event>
<event>
 5    1  0.1094625E-009  0.9118800E+02  0.7818608E-02  0.1130116E+00
         25   -1    0    0    0    0  0.00000000000E+00  0.00000000000E+00  0.99999998245E-14  0.12500000000E+03  0.12500000000E+03 0.  0.
        -11    1    3    3    0    0  0.59459502494E+01  0.22771396781E+02  0.31256827311E+02  0.39126462778E+02  0.51100000000E-03 0.  1.
         23    2    1    0    0    0 -0.25265474227E+02  0.51583247931E+01 -0.13038767081E+02  0.96104291848E+02  0.91657367200E+02 0.  0.
         11    1    3    3    0    0 -0.31211424477E+02 -0.17613071988E+02 -0.44295594392E+02  0.56977829070E+02  0.51100000000E-03 0. -1.
         22    1    1    0    0    0  0.25265474227E+02 -0.51583247931E+01  0.13038767081E+02  0.28895708152E+02  0.00000000000E+00 0. -1.
</event>
<event>
 5    1  0.1094625E-009  0.9118800E+02  0.7818608E-02  0.1130116E+00
         25   -1    0    0    0    0  0.00000000000E+00  0.00000000000E+00  0.99999998245E-14  0.12500000000E+03  0.12500000000E+03 0.  0.
        -11    1    3    3    0    0 -0.19932824345E+02 -0.30341677766E+02 -0.41483412602E+02  0.55125388138E+02  0.51100000000E-03 0.  1.
         23    2    1    0    0    0 -0.27273622233E+02 -0.24650833507E+01 -0.19369668168E+02  0.91457323443E+02  0.85084257421E+02 0.  0.
         11    1    3    3    0    0 -0.73407978884E+01  0.27876594415E+02  0.22113744435E+02  0.36331935305E+02  0.51100000000E-03 0. -1.
         22    1    1    0    0    0  0.27273622233E+02  0.24650833507E+01  0.19369668168E+02  0.33542676557E+02  0.00000000000E+00 0.  1.
</event>
<event>
 5    1  0.1094625E-009  0.9118800E+02  0.7818608E-02  0.1130116E+00
         25   -1    0    0    0    0  0.00000000000E+00  0.00000000000E+00  0.99999998245E-14  0.12500000000E+03  0.12500000000E+03 0.  0.
        -11    1    3    3    0    0  0.92142865959E+01  0.50068070139E+02  0.21991230833E+02  0.55455648574E+02  0.51100000000E-03 0. -1.
         23    2    1    0    0    0  0.16053268421E+02  0.23390642167E+02 -0.73467782840E+01  0.95694629859E+02  0.91096967373E+02 0.  0.
         11    1    3    3    0    0  0.68389818253E+01 -0.26677427972E+02 -0.29338009117E+02  0.40238981285E+02  0.51100000000E-03 0.  1.
         22    1    1    0    0    0 -0.16053268421E+02 -0.23390642167E+02  0.73467782840E+01  0.29305370141E+02  0.00000000000E+00 0. -1.
</event>
<event>
 5    1  0.1094625E-009  0.9118800E+02  0.7818608E-02  0.1130116E+00
         25   -1    0    0    0    0  0.00000000000E+00  0.00000000000E+00  0.99999998245E-14  0.12500000000E+03  0.12500000000E+03 0.  0.
        -11    1    3    3    0    0 -0.31681883960E+02  0.53374781076E+02 -0.63163881699E+01  0.62389949399E+02  0.51100000000E-03 0. -1.
         23    2    1    0    0    0 -0.13468056671E+02  0.24902296119E+02 -0.52484840143E+01  0.96206606887E+02  0.91796795815E+02 0.  0.
         11    1    3    3    0    0  0.18213827289E+02 -0.28472484957E+02  0.10679041556E+01  0.33816657489E+02  0.51100000000E-03 0.  1.
         22    1    1    0    0    0  0.13468056671E+02 -0.24902296119E+02  0.52484840143E+01  0.28793393113E+02  0.00000000000E+00 0. -1.
</event>
<event>
 5    1  0.1094625E-009  0.9118800E+02  0.7818608E-02  0.1130116E+00
         25   -1    0    0    0    0  0.00000000000E+00  0.00000000000E+00  0.99999998245E-14  0.12500000000E+03  0.12500000000E+03 0.  0.
        -11    1    3    3    0    0  0.33236894481E+02  0.23725044012E+02 -0.84739553334E+01  0.41705836371E+02  0.51100000000E-03 0. -1.
         23    2    1    0    0    0  0.22174798076E+02 -0.18710493748E+02  0.15938422303E+02  0.91896562844E+02  0.85727129376E+02 0.  0.
         11    1    3    3    0    0 -0.11062096405E+02 -0.42435537760E+02  0.24412377636E+02  0.50190726474E+02  0.51100000000E-03 0.  1.
         22    1    1    0    0    0 -0.22174798076E+02  0.18710493748E+02 -0.15938422303E+02  0.33103437156E+02  0.00000000000E+00 0.  1.
</event>
<event>
 5    1  0.1094625E-009  0.9118800E+02  0.7818608E-02  0.1130116E+00
         25   -1    0    0    0    0  0.00000000000E+00  0.00000000000E+00  0.99999998245E-14  0.12500000000E+03  0.12500000000E+03 0.  0.
        -11    1    3    3    0    0 -0.29899063103E+02  0.39497521147E+02  0.10173639677E+02  0.50571840937E+02  0.51100000000E-03 0.  1.
         23    2    1    0    0    0 -0.89682164473E+01  0.88233658306E+00  0.26173763892E+02  0.97318357340E+02  0.93298388705E+02 0.  0.
         11    1    3    3    0    0  0.20930846656E+02 -0.38615184564E+02  0.16000124216E+02  0.46746516403E+02  0.51100000000E-03 0. -1.
         22    1    1    0    0    0  0.89682164473E+01 -0.88233658306E+00 -0.26173763892E+02  0.27681642660E+02  0.00000000000E+00 0. -1.
</event>
<event>
 4    1  0.1094625E-009  0.9118800E+02  0.7818608E-02  0.1130116E+00
         25   -1    0    0    0    0  0.00000000000E+00  0.00000000000E+00  0.99999998245E-14  0.12500000000E+03  0.12500000000E+03 0.  0.
        -11    1    1    0    0    0  0.34012432591E+02 -0.61415235494E+01  0.88841767314E+01  0.35686026379E+02  0.51100000000E-03 0. -1.
         11    1    1    0    0    0  0.15551400403E+02 -0.12404257570E+01 -0.30873319740E+02  0.34591134451E+02  0.51100000000E-03 0.  1.
         22    1    1    0    0    0 -0.49563832994E+02  0.73819493064E+01  0.21989143009E+02  0.54722839170E+02  0.00000000000E+00 0.  1.
</event>
<event>
 5    1  0.1094625E-009  0.9118800E+02  0.7818608E-02  0.1130116E+00
         25   -1    0    0    0    0  0.00000000000E+00  0.00000000000E+00  0.99999998245E-14  0.12500000000E+03  0.12500000000E+03 0.  0.
        -11    1    3    3    0    0  0.78353687094E+01 -0.39899746456E+01 -0.41625726393E+02  0.42544259289E+02  0.51100000000E-03 0.  1.
         23    2    1    0    0    0 -0.58357773232E+01  0.31946484116E+02 -0.15608746202E+02  0.88968526226E+02  0.81345753156E+02 0.  0.
         11    1    3    3    0    0 -0.13671146033E+02  0.35936458761E+02  0.26016980191E+02  0.46424266937E+02  0.51100000000E-03 0. -1.
         22    1    1    0    0    0  0.58357773232E+01 -0.31946484116E+02  0.15608746202E+02  0.36031473774E+02  0.00000000000E+00 0. -1.
</event>
<event>
 5    1  0.1094625E-009  0.9118800E+02  0.7818608E-02  0.1130116E+00
         25   -1    0    0    0    0  0.00000000000E+00  0.00000000000E+00  0.99999998245E-14  0.12500000000E+03  0.12500000000E+03 0.  0.
        -11    1    3    3    0    0 -0.27977902281E+02 -0.40097861995E+02 -0.30250250007E+02  0.57495036119E+02  0.51100000000E-03 0.  1.
         23    2    1    0    0    0 -0.10475990362E+02 -0.62963934365E+01 -0.26591108019E+02  0.95734355123E+02  0.91151460662E+02 0.  0.
         11    1    3    3    0    0  0.17501911919E+02  0.33801468558E+02  0.36591419873E+01  0.38239319004E+02  0.51100000000E-03 0. -1.
         22    1    1    0    0    0  0.10475990362E+02  0.62963934365E+01  0.26591108019E+02  0.29265644877E+02  0.00000000000E+00 0.  1.
</event>
<event>
 5    1  0.1094625E-009  0.9118800E+02  0.7818608E-02  0.1130116E+00
         25   -1    0    0    0    0  0.00000000000E+00  0.00000000000E+00  0.99999998245E-14  0.12500000000E+03  0.12500000000E+03 0.  0.
        -11    1    3    3    0    0  0.40316022825E+02  0.38665330212E+02  0.78470556700E+01  0.56408915428E+02  0.51100000000E-03 0.  1.
         23    2    1    0    0    0  0.51194180454E+01  0.18147358675E+01 -0.12571007781E+02  0.11130576968E+03  0.11046013951E+03 0.  0.
         11    1    3    3    0    0 -0.35196604779E+02 -0.36850594345E+02 -0.20418063451E+02  0.54896854253E+02  0.51100000000E-03 0. -1.
         22    1    1    0    0    0 -0.51194180454E+01 -0.18147358675E+01  0.12571007781E+02  0.13694230318E+02  0.00000000000E+00 0.  1.
</event>
<event>
 5    1  0.1094625E-009  0.9118800E+02  0.7818608E-02  0.1130116E+00
         25   -1    0    0    0    0  0.00000000000E+00  0.00000000000E+00  0.99999998245E-14  0.12500000000E+03  0.12500000000E+03 0.  0.
        -11    1    3    3    0    0  0.55962649336E+02  0.37512517156E+01 -0.17748122288E+02  0.58829294192E+02  0.51100000000E-03 0. -1.
         23    2    1    0    0    0  0.18612109075E+02  0.99649854078E+01 -0.18833090141E+02  0.96708714722E+02  0.92477990250E+02 0.  0.
         11    1    3    3    0    0 -0.37350540261E+02  0.62137336922E+01 -0.10849678533E+01  0.37879420530E+02  0.51100000000E-03 0.  1.
         22    1    1    0    0    0 -0.18612109075E+02 -0.99649854078E+01  0.18833090141E+02  0.28291285278E+02  0.00000000000E+00 0. -1.
</event>
<event>
 5    1  0.1094625E-009  0.9118800E+02  0.7818608E-02  0.1130116E+00
         25   -1    0    0    0    0  0.00000000000E+00  0.00000000000E+00  0.99999998245E-14  0.12500000000E+03  0.12500000000E+03 0.  0.
        -11    1    3    3    0    0 -0.39738191311E+02 -0.19673810892E+02  0.14172908321E+01  0.44364303187E+02  0.51100000000E-03 0.  1.
         23    2    1    0    0    0 -0.18122668783E+02  0.24361910958E+02 -0.62087276343E+01  0.94008353897E+02  0.88752963185E+02 0.  0.
         11    1    3    3    0    0  0.21615522528E+02  0.44035721850E+02 -0.76260184664E+01  0.49644050710E+02  0.51100000000E-03 0. -1.
         22    1    1    0    0    0  0.18122668783E+02 -0.24361910958E+02  0.62087276343E+01  0.30991646103E+02  0.00000000000E+00 0.  1.
</event>
<event>
 5    1  0.1094625E-009  0.9118800E+02  0.7818608E-02  0.1130116E+00
         25   -1    0    0    0    0  0.00000000000E+00  0.00000000000E+00  0.99999998245E-14  0.12500000000E+03  0.12500000000E+03 0.  0.
        -11    1    3    3    0    0  0.46175796106E+02 -0.10234407795E+02  0.35932194728E+02  0.59397557754E+02  0.51100000000E-03 0.  1.
         23    2    1    0    0    0  0.12852019746E+02  0.97801106545E+00  0.26075922337E+02  0.95912465850E+02  0.91395385345E+02 0.  0.
         11    1    3    3    0    0 -0.33323776359E+02  0.11212418860E+02 -0.98562723907E+01  0.36514908096E+02  0.51100000000E-03 0. -1.
         22    1    1    0    0    0 -0.12852019746E+02 -0.97801106545E+00 -0.26075922337E+02  0.29087534150E+02  0.00000000000E+00 0.  1.
</event>
<event>
 5    1  0.1094625E-009  0.9118800E+02  0.7818608E-02  0.1130116E+00
         25   -1    0    0    0    0  0.00000000000E+00  0.00000000000E+00  0.99999998245E-14  0.12500000000E+03  0.12500000000E+03 0.  0.
        -11    1    3    3    0    0  0.28192103951E+02 -0.30598983190E+02 -0.35980176612E+02  0.55006050637E+02  0.51100000000E-03 0.  1.
         23    2    1    0    0    0  0.27052813900E+02 -0.72450656373E+01 -0.11326836188E+01  0.96970931372E+02  0.92831744801E+02 0.  0.
         11    1    3    3    0    0 -0.11392900513E+01  0.23353917552E+02  0.34847492993E+02  0.41964880734E+02  0.51100000000E-03 0. -1.
         22    1    1    0    0    0 -0.27052813900E+02  0.72450656373E+01  0.11326836188E+01  0.28029068628E+02  0.00000000000E+00 0. -1.
</event>
<event>
 5    1  0.1094625E-009  0.9118800E+02  0.7818608E-02  0.1130116E+00
         25   -1    0    0    0    0  0.00000000000E+00  0.00000000000E+00  0.99999998245E-14  0.12500000000E+03  0.12500000000E+03 0.  0.
        -11    1    3    3    0    0 -0.32793693558E+02  0.26917159426E+02 -0.33259499598E+02  0.53908757383E+02  0.51100000000E-03 0. -1.
         23    2    1    0    0    0 -0.28359199762E+02 -0.40335842660E+01 -0.52673163933E+01  0.95875119997E+02  0.91344293743E+02 0.  0.
         11    1    3    3    0    0  0.44344937963E+01 -0.30950743692E+02  0.27992183205E+02  0.41966362615E+02  0.51100000000E-03 0.  1.
         22    1    1    0    0    0  0.28359199762E+02  0.40335842660E+01  0.52673163933E+01  0.29124880003E+02  0.00000000000E+00 0. -1.
</event>
<event>
 5    1  0.1094625E-009  0.9118800E+02  0.7818608E-02  0.1130116E+00
         25   -1    0    0    0    0  0.00000000000E+00  0.00000000000E+00  0.99999998245E-14  0.12500000000E+03  0.12500000000E+03 0.  0.
        -11    1    3    3    0    0  0.22578913682E+02 -0.56893844203E+01  0.26656483814E+02  0.35394131826E+02  0.51100000000E-03 0.  1.
         23    2    1    0    0    0 -0.29188281848E+01  0.17278929102E+02 -0.23203621391E+02  0.95922706547E+02  0.91409390309E+02 0.  0.
         11    1    3    3    0    0 -0.25497741867E+02  0.22968313523E+02 -0.49860105205E+02  0.60528574721E+02  0.51100000000E-03 0. -1.
         22    1    1    0    0    0  0.29188281848E+01 -0.17278929102E+02  0.23203621391E+02  0.29077293453E+02  0.00000000000E+00 0. -1.
</event>
<event>
 5    1  0.1094625E-009  0.9118800E+02  0.7818608E-02  0.1130116E+00
         25   -1    0    0    0    0  0.00000000000E+00  0.00000000000E+00  0.99999998245E-14  0.12500000000E+03  0.12500000000E+03 0.  0.
        -11    1    3    3    0    0 -0.19145256030E+02 -0.54643196970E+02  0.19001403841E+02  0.60938273291E+02  0.51100000000E-03 0.  1.
         23    2    1    0    0    0 -0.33473718949E+01 -0.31060049492E+02  0.27683145821E+01  0.93637679635E+02  0.88229359676E+02 0.  0.
         11    1    3    3    0    0  0.15797884135E+02  0.23583147478E+02 -0.16233089259E+02  0.32699406344E+02  0.51100000000E-03 0. -1.
         22    1    1    0    0    0  0.33473718949E+01  0.31060049492E+02 -0.27683145821E+01  0.31362320365E+02  0.00000000000E+00 0.  1.
</event>
<event>
 5    1  0.1094625E-009  0.9118800E+02  0.7818608E-02  0.1130116E+00
         25   -1    0    0    0    0  0.00000000000E+00  0.00000000000E+00  0.99999998245E-14  0.12500000000E+03  0.12500000000E+03 0.  0.
        -11    1    3    3    0    0  0.39483204754E+02 -0.30871611415E+01  0.14742783637E+00  0.39603986627E+02  0.51100000000E-03 0.  1.
         23    2    1    0    0    0 -0.12365090633E+02 -0.69132538633E+01  0.24255208315E+02  0.96910790760E+02  0.92750728784E+02 0.  0.
         11    1    3    3    0    0 -0.51848295387E+02 -0.38260927218E+01  0.24107780478E+02  0.57306804133E+02  0.51100000000E-03 0. -1.
         22    1    1    0    0    0  0.12365090633E+02  0.69132538633E+01 -0.24255208315E+02  0.28089209240E+02  0.00000000000E+00 0. -1.
</event>
<event>
 5    1  0.1094625E-009  0.9118800E+02  0.7818608E-02  0.1130116E+00
         25   -1    0    0    0    0  0.00000000000E+00  0.00000000000E+00  0.99999998245E-14  0.12500000000E+03  0.12500000000E+03 0.  0.
        -11    1    3    3    0    0  0.22085619423E+02 -0.25169507130E+02  0.25883069362E+02  0.42322712039E+02  0.51100000000E-03 0. -1.
         23    2    1    0    0    0 -0.23206409695E+02 -0.16277498360E+02 -0.25588722393E+01  0.96538759146E+02  0.92247979850E+02 0.  0.
         11    1    3    3    0    0 -0.45292029118E+02  0.88920087699E+01 -0.28441941601E+02  0.54216047107E+02  0.51100000000E-03 0.  1.
         22    1    1    0    0    0  0.23206409695E+02  0.16277498360E+02  0.25588722393E+01  0.28461240854E+02  0.00000000000E+00 0.  1.
</event>
<event>
 5    1  0.1094625E-009  0.9118800E+02  0.7818608E-02  0.1130116E+00
         25   -1    0    0    0    0  0.00000000000E+00  0.00000000000E+00  0.99999998245E-14  0.12500000000E+03  0.12500000000E+03 0.  0.
        -11    1    3    3    0    0  0.94927828313E+01  0.36751878335E+02  0.82552934118E+01  0.38845377545E+02  0.51100000000E-03 0.  1.
         23    2    1    0    0    0  0.45306926362E+01 -0.21246117722E+02  0.16612665114E+02  0.97652142018E+02  0.93744522531E+02 0.  0.
         11    1    3    3    0    0 -0.49620901951E+01 -0.57997996057E+02  0.83573717018E+01  0.58806764473E+02  0.51100000000E-03 0. -1.
         22    1    1    0    0    0 -0.45306926362E+01  0.21246117722E+02 -0.16612665114E+02  0.27347857982E+02  0.00000000000E+00 0. -1.
</event>
<event>
 5    1  0.1094625E-009  0.9118800E+02  0.7818608E-02  0.1130116E+00
         25   -1    0    0    0    0  0.00000000000E+00  0.00000000000E+00  0.99999998245E-14  0.12500000000E+03  0.12500000000E+03 0.  0.
        -11    1    3    3    0    0  0.15570514217E+02  0.30197135391E+02 -0.93810745866E+01  0.35246453147E+02  0.51100000000E-03 0.  1.
         23    2    1    0    0    0 -0.18998495610E+02 -0.62177355283E+01  0.22639705537E+02  0.94798024281E+02  0.89858255437E+02 0.  0.
         11    1    3    3    0    0 -0.34569009827E+02 -0.36414870919E+02  0.32020780124E+02  0.59551571133E+02  0.51100000000E-03 0. -1.
         22    1    1    0    0    0  0.18998495610E+02  0.62177355283E+01 -0.22639705537E+02  0.30201975719E+02  0.00000000000E+00 0. -1.
</event>
<event>
 5    1  0.1094625E-009  0.9118800E+02  0.7818608E-02  0.1130116E+00
         25   -1    0    0    0    0  0.00000000000E+00  0.00000000000E+00  0.99999998245E-14  0.12500000000E+03  0.12500000000E+03 0.  0.
        -11    1    3    3    0    0 -0.21531093083E+02 -0.28266243778E+02 -0.12374263231E+02  0.37625668066E+02  0.51100000000E-03 0.  1.
         23    2    1    0    0    0  0.11021990092E+02  0.19746159324E+02 -0.18264057137E+02  0.95931617577E+02  0.91421575102E+02 0.  0.
         11    1    3    3    0    0  0.32553083175E+02  0.48012403102E+02 -0.58897939056E+01  0.58305949510E+02  0.51100000000E-03 0. -1.
         22    1    1    0    0    0 -0.11021990092E+02 -0.19746159324E+02  0.18264057137E+02  0.29068382423E+02  0.00000000000E+00 0. -1.
</event>
<event>
 5    1  0.1094625E-009  0.9118800E+02  0.7818608E-02  0.1130116E+00
         25   -1    0    0    0    0  0.00000000000E+00  0.00000000000E+00  0.99999998245E-14  0.12500000000E+03  0.12500000000E+03 0.  0.
        -11    1    3    3    0    0 -0.34961436662E+02  0.13689785095E+02 -0.21175795157E+02  0.43105992278E+02  0.51100000000E-03 0. -1.
         23    2    1    0    0    0 -0.18401160020E+02 -0.19731665489E+02  0.14198213937E+02  0.94511795854E+02  0.89459202788E+02 0.  0.
         11    1    3    3    0    0  0.16560276643E+02 -0.33421450584E+02  0.35374009095E+02  0.51405803576E+02  0.51100000000E-03 0.  1.
         22    1    1    0    0    0  0.18401160020E+02  0.19731665489E+02 -0.14198213937E+02  0.30488204146E+02  0.00000000000E+00 0.  1.
</event>
<event>
 5    1  0.1094625E-009  0.9118800E+02  0.7818608E-02  0.1130116E+00
         25   -1    0    0    0    0  0.00000000000E+00  0.00000000000E+00  0.99999998245E-14  0.12500000000E+03  0.12500000000E+03 0.  0.
        -11    1    3    3    0    0  0.23824930962E+02  0.40104518555E+02  0.22651348129E+02  0.51856371992E+02  0.51100000000E-03 0. -1.
         23    2    1    0    0    0  0.30219520239E+02  0.14460251470E+01  0.78348975256E+01  0.93747863890E+02  0.88385326680E+02 0.  0.
         11    1    3    3    0    0  0.63945892775E+01 -0.38658493408E+02 -0.14816450603E+02  0.41891491897E+02  0.51100000000E-03 0.  1.
         22    1    1    0    0    0 -0.30219520239E+02 -0.14460251470E+01 -0.78348975256E+01  0.31252136110E+02  0.00000000000E+00 0. -1.
</event>
<event>
 5    1  0.1094625E-009  0.9118800E+02  0.7818608E-02  0.1130116E+00
         25   -1    0    0    0    0  0.00000000000E+00  0.00000000000E+00  0.99999998245E-14  0.12500000000E+03  0.12500000000E+03 0.  0.
        -11    1    3    3    0    0  0.21047018930E+01 -0.43860886603E+02  0.34431857808E+02  0.55801075043E+02  0.51100000000E-03 0.  1.
         23    2    1    0    0    0 -0.76573887836E+01 -0.77642798638E+01  0.29537961650E+02  0.93513323084E+02  0.88052999784E+02 0.  0.
         11    1    3    3    0    0 -0.97620906765E+01  0.36096606739E+02 -0.48938961578E+01  0.37712248041E+02  0.51100000000E-03 0. -1.
         22    1    1    0    0    0  0.76573887836E+01  0.77642798638E+01 -0.29537961650E+02  0.31486676916E+02  0.00000000000E+00 0.  1.
</event>
<event>
 5    1  0.1094625E-009  0.9118800E+02  0.7818608E-02  0.1130116E+00
         25   -1    0    0    0    0  0.00000000000E+00  0.00000000000E+00  0.99999998245E-14  0.12500000000E+03  0.12500000000E+03 0.  0.
        -11    1    3    3    0    0  0.72206355413E+01 -0.23432024824E+02  0.47429874314E+02  0.53392792984E+02  0.51100000000E-03 0.  1.
         23    2    1    0    0    0  0.90181339995E+00  0.13542326617E+02  0.23426581103E+02  0.97925794937E+02  0.94108707006E+02 0.  0.
         11    1    3    3    0    0 -0.63188221413E+01  0.36974351441E+02 -0.24003293211E+02  0.44533001953E+02  0.51100000000E-03 0. -1.
         22    1    1    0    0    0 -0.90181339995E+00 -0.13542326617E+02 -0.23426581103E+02  0.27074205063E+02  0.00000000000E+00 0. -1.
</event>
<event>
 5    1  0.1094625E-009  0.9118800E+02  0.7818608E-02  0.1130116E+00
         25   -1    0    0    0    0  0.00000000000E+00  0.00000000000E+00  0.99999998245E-14  0.12500000000E+03  0.12500000000E+03 0.  0.
        -11    1    3    3    0    0  0.13051926088E+02 -0.37334131440E+02  0.19574792485E+02  0.44128932075E+02  0.51100000000E-03 0. -1.
         23    2    1    0    0    0  0.28875367429E+02  0.81893216733E+01  0.43460270167E+01  0.94672788053E+02  0.89683872649E+02 0.  0.
         11    1    3    3    0    0  0.15823441341E+02  0.45523453113E+02 -0.15228765469E+02  0.50543855979E+02  0.51100000000E-03 0.  1.
         22    1    1    0    0    0 -0.28875367429E+02 -0.81893216733E+01 -0.43460270167E+01  0.30327211947E+02  0.00000000000E+00 0.  1.
</event>
<event>
 5    1  0.1094625E-009  0.9118800E+02  0.7818608E-02  0.1130116E+00
         25   -1    0    0    0    0  0.00000000000E+00  0.00000000000E+00  0.99999998245E-14  0.12500000000E+03  0.12500000000E+03 0.  0.
        -11    1    3    3    0    0  0.34555217114E+02  0.21598353834E+02 -0.17127374034E+02  0.44202928180E+02  0.51100000000E-03 0. -1.
         23    2    1    0    0    0  0.19788580927E+00 -0.17701832268E+02 -0.22149933291E+02  0.96644866968E+02  0.92391648660E+02 0.  0.
         11    1    3    3    0    0 -0.34357331305E+02 -0.39300186102E+02 -0.50225592567E+01  0.52441938788E+02  0.51100000000E-03 0.  1.
         22    1    1    0    0    0 -0.19788580927E+00  0.17701832268E+02  0.22149933291E+02  0.28355133032E+02  0.00000000000E+00 0.  1.
</event>
<event>
 5    1  0.1094625E-009  0.9118800E+02  0.7818608E-02  0.1130116E+00
         25   -1    0    0    0    0  0.00000000000E+00  0.00000000000E+00  0.99999998245E-14  0.12500000000E+03  0.12500000000E+03 0.  0.
        -11    1    3    3    0    0 -0.38122964783E+01  0.34685062321E+02 -0.57952254562E+01  0.35371906804E+02  0.51100000000E-03 0. -1.
         23    2    1    0    0    0  0.21827902957E+02 -0.19438702161E+02  0.16604471559E+01  0.95724112755E+02  0.91137413770E+02 0.  0.
         11    1    3    3    0    0  0.25640199436E+02 -0.54123764482E+02  0.74556726122E+01  0.60352205951E+02  0.51100000000E-03 0.  1.
         22    1    1    0    0    0 -0.21827902957E+02  0.19438702161E+02 -0.16604471559E+01  0.29275887245E+02  0.00000000000E+00 0.  1.
</event>
<event>
 5    1  0.1094625E-009  0.9118800E+02  0.7818608E-02  0.1130116E+00
         25   -1    0    0    0    0  0.00000000000E+00  0.00000000000E+00  0.99999998245E-14  0.12500000000E+03  0.12500000000E+03 0.  0.
        -11    1    3    3    0    0  0.53552095111E+02 -0.10888477075E+02 -0.21005602044E+02  0.58545889192E+02  0.51100000000E-03 0. -1.
         23    2    1    0    0    0  0.15438121140E+02 -0.16129782564E+02 -0.16407572573E+02  0.97292349294E+02  0.93263536945E+02 0.  0.
         11    1    3    3    0    0 -0.38113973971E+02 -0.52413054892E+01  0.45980294706E+01  0.38746460102E+02  0.51100000000E-03 0.  1.
         22    1    1    0    0    0 -0.15438121140E+02  0.16129782564E+02  0.16407572573E+02  0.27707650706E+02  0.00000000000E+00 0. -1.
</event>
<event>
 5    1  0.1094625E-009  0.9118800E+02  0.7818608E-02  0.1130116E+00
         25   -1    0    0    0    0  0.00000000000E+00  0.00000000000E+00  0.99999998245E-14  0.12500000000E+03  0.12500000000E+03 0.  0.
        -11    1    3    3    0    0  0.25695015697E+02 -0.45290248050E+02 -0.15847556234E+02  0.54429637505E+02  0.51100000000E-03 0. -1.
         23    2    1    0    0    0  0.13196398706E+02 -0.75163099045E+01 -0.25452909378E+02  0.95360660446E+02  0.90637548022E+02 0.  0.
         11    1    3    3    0    0 -0.12498616992E+02  0.37773938145E+02 -0.96053531444E+01  0.40931022941E+02  0.51100000000E-03 0.  1.
         22    1    1    0    0    0 -0.13196398706E+02  0.75163099045E+01  0.25452909378E+02  0.29639339554E+02  0.00000000000E+00 0. -1.
</event>
<event>
 5    1  0.1094625E-009  0.9118800E+02  0.7818608E-02  0.1130116E+00
         25   -1    0    0    0    0  0.00000000000E+00  0.00000000000E+00  0.99999998245E-14  0.12500000000E+03  0.12500000000E+03 0.  0.
        -11    1    3    3    0    0 -0.32223223340E+02 -0.99217053028E+01 -0.35274065933E+00  0.33717959380E+02  0.51100000000E-03 0.  1.
         23    2    1    0    0    0  0.56709567130E+01 -0.30763266814E+02 -0.26282292989E+02  0.84142965601E+02  0.73557741946E+02 0.  0.
         11    1    3    3    0    0  0.37894180053E+02 -0.20841561511E+02 -0.25929552330E+02  0.50425006221E+02  0.51100000000E-03 0. -1.
         22    1    1    0    0    0 -0.56709567130E+01  0.30763266814E+02  0.26282292989E+02  0.40857034399E+02  0.00000000000E+00 0. -1.
</event>
<event>
 5    1  0.1094625E-009  0.9118800E+02  0.7818608E-02  0.1130116E+00
         25   -1    0    0    0    0  0.00000000000E+00  0.00000000000E+00  0.99999998245E-14  0.12500000000E+03  0.12500000000E+03 0.  0.
        -11    1    3    3    0    0 -0.19171268269E+02 -0.16477535952E+02 -0.16622891003E+02  0.30255036335E+02  0.51100000000E-03 0.  1.
         23    2    1    0    0    0  0.17538217863E+02  0.16961347329E+02  0.21201910272E+02  0.92676674240E+02  0.86857173337E+02 0.  0.
         11    1    3    3    0    0  0.36709486131E+02  0.33438883281E+02  0.37824801275E+02  0.62421637905E+02  0.51100000000E-03 0. -1.
         22    1    1    0    0    0 -0.17538217863E+02 -0.16961347329E+02 -0.21201910272E+02  0.32323325760E+02  0.00000000000E+00 0. -1.
</event>
<event>
 5    1  0.1094625E-009  0.9118800E+02  0.7818608E-02  0.1130116E+00
         25   -1    0    0    0    0  0.00000000000E+00  0.00000000000E+00  0.99999998245E-14  0.12500000000E+03  0.12500000000E+03 0.  0.
        -11    1    3    3    0    0 -0.17676458341E+02 -0.18151173409E+02 -0.10925580861E+02  0.27591494940E+02  0.51100000000E-03 0.  1.
         23    2    1    0    0    0  0.34313039800E+02  0.48936408764E+01  0.11144730625E+02  0.88592068968E+02  0.80765198210E+02 0.  0.
         11    1    3    3    0    0  0.51989498141E+02  0.23044814285E+02  0.22070311486E+02  0.61000574028E+02  0.51100000000E-03 0. -1.
         22    1    1    0    0    0 -0.34313039800E+02 -0.48936408764E+01 -0.11144730625E+02  0.36407931032E+02  0.00000000000E+00 0. -1.
</event>
<event>
 5    1  0.1094625E-009  0.9118800E+02  0.7818608E-02  0.1130116E+00
         25   -1    0    0    0    0  0.00000000000E+00  0.00000000000E+00  0.99999998245E-14  0.12500000000E+03  0.12500000000E+03 0.  0.
        -11    1    3    3    0    0 -0.31225872167E+02  0.30445139125E+02 -0.38710411046E+02  0.58313441955E+02  0.51100000000E-03 0. -1.
         23    2    1    0    0    0  0.58491216499E+00  0.19365587927E+02 -0.21209628906E+02  0.96273418645E+02  0.91887728567E+02 0.  0.
         11    1    3    3    0    0  0.31810784332E+02 -0.11079551198E+02  0.17500782140E+02  0.37959976690E+02  0.51100000000E-03 0.  1.
         22    1    1    0    0    0 -0.58491216499E+00 -0.19365587927E+02  0.21209628906E+02  0.28726581355E+02  0.00000000000E+00 0. -1.
</event>
<event>
 5    1  0.1094625E-009  0.9118800E+02  0.7818608E-02  0.1130116E+00
         25   -1    0    0    0    0  0.00000000000E+00  0.00000000000E+00  0.99999998245E-14  0.12500000000E+03  0.12500000000E+03 0.  0.
        -11    1    3    3    0    0  0.22888568298E+02  0.20855431322E+02 -0.27509515257E+02  0.41419910723E+02  0.51100000000E-03 0. -1.
         23    2    1    0    0    0 -0.71858731258E+01  0.19909405875E+02  0.18829111083E+02  0.96670569384E+02  0.92426415845E+02 0.  0.
         11    1    3    3    0    0 -0.30074441423E+02 -0.94602544757E+00  0.46338626340E+02  0.55250658661E+02  0.51100000000E-03 0.  1.
         22    1    1    0    0    0  0.71858731258E+01 -0.19909405875E+02 -0.18829111083E+02  0.28329430616E+02  0.00000000000E+00 0.  1.
</event>
<event>
 5    1  0.1094625E-009  0.9118800E+02  0.7818608E-02  0.1130116E+00
         25   -1    0    0    0    0  0.00000000000E+00  0.00000000000E+00  0.99999998245E-14  0.12500000000E+03  0.12500000000E+03 0.  0.
        -11    1    3    3    0    0 -0.67047675117E+00  0.10309478986E+01 -0.34921325907E+02  0.34942973485E+02  0.51100000000E-03 0.  1.
         23    2    1    0    0    0 -0.37799781601E+01  0.13453253129E+02  0.25076795328E+02  0.96292441439E+02  0.91913602691E+02 0.  0.
         11    1    3    3    0    0 -0.31095014089E+01  0.12422305231E+02  0.59998121234E+02  0.61349467953E+02  0.51100000000E-03 0. -1.
         22    1    1    0    0    0  0.37799781601E+01 -0.13453253129E+02 -0.25076795328E+02  0.28707558561E+02  0.00000000000E+00 0. -1.
</event>
<event>
 5    1  0.1094625E-009  0.9118800E+02  0.7818608E-02  0.1130116E+00
         25   -1    0    0    0    0  0.00000000000E+00  0.00000000000E+00  0.99999998245E-14  0.12500000000E+03  0.12500000000E+03 0.  0.
        -11    1    3    3    0    0  0.38485418041E+02 -0.29071869692E+01  0.45891468519E+02  0.59963372328E+02  0.51100000000E-03 0.  1.
         23    2    1    0    0    0  0.10390551857E+02  0.65498994303E+01  0.27584490431E+02  0.94804489361E+02  0.89867248429E+02 0.  0.
         11    1    3    3    0    0 -0.28094866184E+02  0.94570863995E+01 -0.18306978089E+02  0.34841117032E+02  0.51100000000E-03 0. -1.
         22    1    1    0    0    0 -0.10390551857E+02 -0.65498994303E+01 -0.27584490431E+02  0.30195510639E+02  0.00000000000E+00 0.  1.
</event>
<event>
 5    1  0.1094625E-009  0.9118800E+02  0.7818608E-02  0.1130116E+00
         25   -1    0    0    0    0  0.00000000000E+00  0.00000000000E+00  0.99999998245E-14  0.12500000000E+03  0.12500000000E+03 0.  0.
        -11    1    3    3    0    0  0.13564358823E+01  0.55245291040E+02 -0.28013219992E+00  0.55262650811E+02  0.51100000000E-03 0.  1.
         23    2    1    0    0    0  0.12024570838E+02  0.19464652258E+02 -0.17319922531E+02  0.96304308549E+02  0.91929740222E+02 0.  0.
         11    1    3    3    0    0  0.10668134956E+02 -0.35780638782E+02 -0.17039790331E+02  0.41041657738E+02  0.51100000000E-03 0. -1.
         22    1    1    0    0    0 -0.12024570838E+02 -0.19464652258E+02  0.17319922531E+02  0.28695691451E+02  0.00000000000E+00 0.  1.
</event>
<event>
 5    1  0.1094625E-009  0.9118800E+02  0.7818608E-02  0.1130116E+00
         25   -1    0    0    0    0  0.00000000000E+00  0.00000000000E+00  0.99999998245E-14  0.12500000000E+03  0.12500000000E+03 0.  0.
        -11    1    3    3    0    0  0.61649066820E+01  0.50065217105E+02 -0.15156655404E+02  0.52671208848E+02  0.51100000000E-03 0.  1.
         23    2    1    0    0    0 -0.66001109567E+01  0.25623159373E+02  0.15842785084E+02  0.94160064849E+02  0.88966376864E+02 0.  0.
         11    1    3    3    0    0 -0.12765017639E+02 -0.24442057732E+02  0.30999440488E+02  0.41488856002E+02  0.51100000000E-03 0. -1.
         22    1    1    0    0    0  0.66001109567E+01 -0.25623159373E+02 -0.15842785084E+02  0.30839935151E+02  0.00000000000E+00 0. -1.
</event>
<event>
 5    1  0.1094625E-009  0.9118800E+02  0.7818608E-02  0.1130116E+00
         25   -1    0    0    0    0  0.00000000000E+00  0.00000000000E+00  0.99999998245E-14  0.12500000000E+03  0.12500000000E+03 0.  0.
        -11    1    3    3    0    0  0.25734532743E+02  0.10104374334E+02 -0.33561133474E+02  0.43482343963E+02  0.51100000000E-03 0.  1.
         23    2    1    0    0    0 -0.22226686096E+02  0.13828541670E+02 -0.11352494293E+02  0.96466979371E+02  0.92150663822E+02 0.  0.
         11    1    3    3    0    0 -0.47961218839E+02  0.37241673360E+01  0.22208639181E+02  0.52984635408E+02  0.51100000000E-03 0. -1.
         22    1    1    0    0    0  0.22226686096E+02 -0.13828541670E+02  0.11352494293E+02  0.28533020629E+02  0.00000000000E+00 0. -1.
</event>
<event>
 5    1  0.1094625E-009  0.9118800E+02  0.7818608E-02  0.1130116E+00
         25   -1    0    0    0    0  0.00000000000E+00  0.00000000000E+00  0.99999998245E-14  0.12500000000E+03  0.12500000000E+03 0.  0.
        -11    1    3    3    0    0  0.18663548198E+02 -0.49930705715E+02 -0.21640292652E+02  0.57530041464E+02  0.51100000000E-03 0.  1.
         23    2    1    0    0    0  0.23350186123E+00 -0.15143690020E+02 -0.23613251354E+02  0.96946987505E+02  0.92799498254E+02 0.  0.
         11    1    3    3    0    0 -0.18430046337E+02  0.34787015695E+02 -0.19729587017E+01  0.39416946041E+02  0.51100000000E-03 0. -1.
         22    1    1    0    0    0 -0.23350186123E+00  0.15143690020E+02  0.23613251354E+02  0.28053012495E+02  0.00000000000E+00 0.  1.
</event>
<event>
 5    1  0.1094625E-009  0.9118800E+02  0.7818608E-02  0.1130116E+00
         25   -1    0    0    0    0  0.00000000000E+00  0.00000000000E+00  0.99999998245E-14  0.12500000000E+03  0.12500000000E+03 0.  0.
        -11    1    3    3    0    0 -0.37744534619E+02  0.15051284916E+02  0.12848079384E+02  0.42617651453E+02  0.51100000000E-03 0.  1.
         23    2    1    0    0    0 -0.70196974362E+01 -0.27432569574E+02  0.94131277397E+01  0.95159943040E+02  0.90360310757E+02 0.  0.
         11    1    3    3    0    0  0.30724837183E+02 -0.42483854490E+02 -0.34349516448E+01  0.52542291588E+02  0.51100000000E-03 0. -1.
         22    1    1    0    0    0  0.70196974362E+01  0.27432569574E+02 -0.94131277397E+01  0.29840056960E+02  0.00000000000E+00 0. -1.
</event>
<event>
 5    1  0.1094625E-009  0.9118800E+02  0.7818608E-02  0.1130116E+00
         25   -1    0    0    0    0  0.00000000000E+00  0.00000000000E+00  0.99999998245E-14  0.12500000000E+03  0.12500000000E+03 0.  0.
        -11    1    3    3    0    0  0.29487401886E+02  0.24830796498E+02  0.11481300087E+02  0.40223072690E+02  0.51100000000E-03 0. -1.
         23    2    1    0    0    0  0.52252870287E+01 -0.19707627583E+01 -0.29560390598E+02  0.94916711904E+02  0.90023207985E+02 0.  0.
         11    1    3    3    0    0 -0.24262114857E+02 -0.26801559256E+02 -0.41041690685E+02  0.54693639214E+02  0.51100000000E-03 0.  1.
         22    1    1    0    0    0 -0.52252870287E+01  0.19707627583E+01  0.29560390598E+02  0.30083288096E+02  0.00000000000E+00 0.  1.
</event>
<event>
 5    1  0.1094625E-009  0.9118800E+02  0.7818608E-02  0.1130116E+00
         25   -1    0    0    0    0  0.00000000000E+00  0.00000000000E+00  0.99999998245E-14  0.12500000000E+03  0.12500000000E+03 0.  0.
        -11    1    3    3    0    0 -0.29684279010E+02  0.40248176366E+02  0.37038916573E+02  0.62233057633E+02  0.51100000000E-03 0.  1.
         23    2    1    0    0    0 -0.11108053630E+02  0.21914532471E+02  0.18390082332E+02  0.94310739386E+02  0.89177827101E+02 0.  0.
         11    1    3    3    0    0  0.18576225380E+02 -0.18333643894E+02 -0.18648834242E+02  0.32077681753E+02  0.51100000000E-03 0. -1.
         22    1    1    0    0    0  0.11108053630E+02 -0.21914532471E+02 -0.18390082332E+02  0.30689260614E+02  0.00000000000E+00 0.  1.
</event>
<event>
 5    1  0.1094625E-009  0.9118800E+02  0.7818608E-02  0.1130116E+00
         25   -1    0    0    0    0  0.00000000000E+00  0.00000000000E+00  0.99999998245E-14  0.12500000000E+03  0.12500000000E+03 0.  0.
        -11    1    3    3    0    0  0.35965033444E+02  0.11258830361E+02  0.49287708312E+02  0.62044525001E+02  0.51100000000E-03 0.  1.
         23    2    1    0    0    0  0.15094519846E+02  0.54848599663E+00  0.24853480563E+02  0.95916656616E+02  0.91401116809E+02 0.  0.
         11    1    3    3    0    0 -0.20870513598E+02 -0.10710344364E+02 -0.24434227748E+02  0.33872131615E+02  0.51100000000E-03 0. -1.
         22    1    1    0    0    0 -0.15094519846E+02 -0.54848599663E+00 -0.24853480563E+02  0.29083343384E+02  0.00000000000E+00 0.  1.
</event>
<event>
 5    1  0.1094625E-009  0.9118800E+02  0.7818608E-02  0.1130116E+00
         25   -1    0    0    0    0  0.00000000000E+00  0.00000000000E+00  0.99999998245E-14  0.12500000000E+03  0.12500000000E+03 0.  0.
        -11    1    3    3    0    0 -0.58952065415E+02  0.16492713115E+02  0.54504039332E+01  0.61457810780E+02  0.51100000000E-03 0. -1.
         23    2    1    0    0    0 -0.30060705862E+02  0.13319335365E+00  0.13882518529E+01  0.94906960596E+02  0.90009666975E+02 0.  0.
         11    1    3    3    0    0  0.28891359553E+02 -0.16359519761E+02 -0.40621520803E+01  0.33449149816E+02  0.51100000000E-03 0.  1.
         22    1    1    0    0    0  0.30060705862E+02 -0.13319335365E+00 -0.13882518529E+01  0.30093039404E+02  0.00000000000E+00 0. -1.
</event>
<event>
 5    1  0.1094625E-009  0.9118800E+02  0.7818608E-02  0.1130116E+00
         25   -1    0    0    0    0  0.00000000000E+00  0.00000000000E+00  0.99999998245E-14  0.12500000000E+03  0.12500000000E+03 0.  0.
        -11    1    3    3    0    0 -0.21875446503E+02 -0.26636515919E+02  0.80111084576E+01  0.35386678270E+02  0.51100000000E-03 0.  1.
         23    2    1    0    0    0 -0.80975648811E+01  0.26889022363E+02 -0.12395717359E+02  0.94304008577E+02  0.89168392069E+02 0.  0.
         11    1    3    3    0    0  0.13777881622E+02  0.53525538282E+02 -0.20406825817E+02  0.58917330307E+02  0.51100000000E-03 0. -1.
         22    1    1    0    0    0  0.80975648811E+01 -0.26889022363E+02  0.12395717359E+02  0.30695991423E+02  0.00000000000E+00 0. -1.
</event>
<event>
 5    1  0.1094625E-009  0.9118800E+02  0.7818608E-02  0.1130116E+00
         25   -1    0    0    0    0  0.00000000000E+00  0.00000000000E+00  0.99999998245E-14  0.12500000000E+03  0.12500000000E+03 0.  0.
        -11    1    3    3    0    0 -0.15734230996E+02 -0.54120740307E+01 -0.53472634983E+02  0.56001600536E+02  0.51100000000E-03 0. -1.
         23    2    1    0    0    0 -0.16410466571E+01  0.16971503366E+02 -0.23314958354E+02  0.96115536292E+02  0.91672700806E+02 0.  0.
         11    1    3    3    0    0  0.14093184339E+02  0.22383577397E+02  0.30157676629E+02  0.40113935756E+02  0.51100000000E-03 0.  1.
         22    1    1    0    0    0  0.16410466571E+01 -0.16971503366E+02  0.23314958354E+02  0.28884463708E+02  0.00000000000E+00 0. -1.
</event>
<event>
 5    1  0.1094625E-009  0.9118800E+02  0.7818608E-02  0.1130116E+00
         25   -1    0    0    0    0  0.00000000000E+00  0.00000000000E+00  0.99999998245E-14  0.12500000000E+03  0.12500000000E+03 0.  0.
        -11    1    3    3    0    0 -0.20960347337E+02  0.35693838629E+02 -0.12269046530E+02  0.43173090920E+02  0.51100000000E-03 0. -1.
         23    2    1    0    0    0 -0.22873322455E+02 -0.90403067580E-01  0.22364869641E+02  0.93009619463E+02  0.87335015119E+02 0.  0.
         11    1    3    3    0    0 -0.19129751179E+01 -0.35784241697E+02  0.34633916171E+02  0.49836528543E+02  0.51100000000E-03 0.  1.
         22    1    1    0    0    0  0.22873322455E+02  0.90403067580E-01 -0.22364869641E+02  0.31990380537E+02  0.00000000000E+00 0. -1.
</event>
<event>
 5    1  0.1094625E-009  0.9118800E+02  0.7818608E-02  0.1130116E+00
         25   -1    0    0    0    0  0.00000000000E+00  0.00000000000E+00  0.99999998245E-14  0.12500000000E+03  0.12500000000E+03 0.  0.
        -11    1    3    3    0    0 -0.32188049546E+02 -0.37312340850E+02 -0.30240687302E+02  0.57816783740E+02  0.51100000000E-03 0.  1.
         23    2    1    0    0    0  0.77372374867E+00 -0.16111945287E+02 -0.21757276655E+02  0.97915456127E+02  0.94094973467E+02 0.  0.
         11    1    3    3    0    0  0.32961773294E+02  0.21200395563E+02  0.84834106472E+01  0.40098672387E+02  0.51100000000E-03 0. -1.
         22    1    1    0    0    0 -0.77372374867E+00  0.16111945287E+02  0.21757276655E+02  0.27084543873E+02  0.00000000000E+00 0.  1.
</event>
<event>
 5    1  0.1094625E-009  0.9118800E+02  0.7818608E-02  0.1130116E+00
         25   -1    0    0    0    0  0.00000000000E+00  0.00000000000E+00  0.99999998245E-14  0.12500000000E+03  0.12500000000E+03 0.  0.
        -11    1    3    3    0    0  0.30754252960E+01  0.51007120314E+02  0.30751533848E+00  0.51100676409E+02  0.51100000000E-03 0. -1.
         23    2    1    0    0    0  0.69304050272E+01  0.15087352749E+02 -0.24843274514E+02  0.95119454232E+02  0.90304283166E+02 0.  0.
         11    1    3    3    0    0  0.38549797312E+01 -0.35919767565E+02 -0.25150789852E+02  0.44018777824E+02  0.51100000000E-03 0.  1.
         22    1    1    0    0    0 -0.69304050272E+01 -0.15087352749E+02  0.24843274514E+02  0.29880545768E+02  0.00000000000E+00 0. -1.
</event>
<event>
 5    1  0.1094625E-009  0.9118800E+02  0.7818608E-02  0.1130116E+00
         25   -1    0    0    0    0  0.00000000000E+00  0.00000000000E+00  0.99999998245E-14  0.12500000000E+03  0.12500000000E+03 0.  0.
        -11    1    3    3    0    0  0.19156825668E+02  0.33156504949E+02 -0.43323436568E+02  0.57820912709E+02  0.51100000000E-03 0. -1.
         23    2    1    0    0    0  0.78910969666E+01  0.15446340797E+02  0.17745251599E+01  0.10756418069E+03  0.10614162790E+03 0.  0.
         11    1    3    3    0    0 -0.11265728702E+02 -0.17710164152E+02  0.45097961728E+02  0.49743267985E+02  0.51100000000E-03 0.  1.
         22    1    1    0    0    0 -0.78910969666E+01 -0.15446340797E+02 -0.17745251599E+01  0.17435819306E+02  0.00000000000E+00 0. -1.
</event>
<event>
 5    1  0.1094625E-009  0.9118800E+02  0.7818608E-02  0.1130116E+00
         25   -1    0    0    0    0  0.00000000000E+00  0.00000000000E+00  0.99999998245E-14  0.12500000000E+03  0.12500000000E+03 0.  0.
        -11    1    3    3    0    0 -0.78064588548E+01 -0.88826321838E+01  0.33421031454E+02  0.35451478080E+02  0.51100000000E-03 0.  1.
         23    2    1    0    0    0 -0.10604902532E+02  0.35199224668E+01 -0.26254613925E+02  0.96466536063E+02  0.92150062483E+02 0.  0.
         11    1    3    3    0    0 -0.27984436775E+01  0.12402554651E+02 -0.59675645379E+02  0.61015057982E+02  0.51100000000E-03 0. -1.
         22    1    1    0    0    0  0.10604902532E+02 -0.35199224668E+01  0.26254613925E+02  0.28533463937E+02  0.00000000000E+00 0. -1.
</event>
<event>
 5    1  0.1094625E-009  0.9118800E+02  0.7818608E-02  0.1130116E+00
         25   -1    0    0    0    0  0.00000000000E+00  0.00000000000E+00  0.99999998245E-14  0.12500000000E+03  0.12500000000E+03 0.  0.
        -11    1    3    3    0    0  0.23881639127E+02  0.14948010350E+02  0.20590294472E+02  0.34896073240E+02  0.51100000000E-03 0. -1.
         23    2    1    0    0    0  0.34737383120E+01 -0.24052931384E+02 -0.19041352869E+02  0.94126330230E+02  0.88918966241E+02 0.  0.
         11    1    3    3    0    0 -0.20407900815E+02 -0.39000941734E+02 -0.39631647341E+02  0.59230256990E+02  0.51100000000E-03 0.  1.
         22    1    1    0    0    0 -0.34737383120E+01  0.24052931384E+02  0.19041352869E+02  0.30873669770E+02  0.00000000000E+00 0.  1.
</event>
<event>
 5    1  0.1094625E-009  0.9118800E+02  0.7818608E-02  0.1130116E+00
         25   -1    0    0    0    0  0.00000000000E+00  0.00000000000E+00  0.99999998245E-14  0.12500000000E+03  0.12500000000E+03 0.  0.
        -11    1    3    3    0    0 -0.18380082670E+02 -0.44418153783E+02 -0.26991432105E+02  0.55130184399E+02  0.51100000000E-03 0.  1.
         23    2    1    0    0    0 -0.25169350737E+02 -0.66134111147E+01 -0.10227427024E+02  0.97038710927E+02  0.92922966654E+02 0.  0.
         11    1    3    3    0    0 -0.67892680671E+01  0.37804742669E+02  0.16764005082E+02  0.41908526528E+02  0.51100000000E-03 0. -1.
         22    1    1    0    0    0  0.25169350737E+02  0.66134111147E+01  0.10227427024E+02  0.27961289073E+02  0.00000000000E+00 0.  1.
</event>
<event>
 5    1  0.1094625E-009  0.9118800E+02  0.7818608E-02  0.1130116E+00
         25   -1    0    0    0    0  0.00000000000E+00  0.00000000000E+00  0.99999998245E-14  0.12500000000E+03  0.12500000000E+03 0.  0.
        -11    1    3    3    0    0 -0.58184066686E+01  0.33258201706E+02 -0.38307482612E+02  0.51062951944E+02  0.51100000000E-03 0.  1.
         23    2    1    0    0    0 -0.93750025191E+01  0.22867433983E+02  0.82860733543E+01  0.98933369592E+02  0.95437636171E+02 0.  0.
         11    1    3    3    0    0 -0.35565958505E+01 -0.10390767723E+02  0.46593555966E+02  0.47870417648E+02  0.51100000000E-03 0. -1.
         22    1    1    0    0    0  0.93750025191E+01 -0.22867433983E+02 -0.82860733543E+01  0.26066630408E+02  0.00000000000E+00 0. -1.
</event>
<event>
 5    1  0.1094625E-009  0.9118800E+02  0.7818608E-02  0.1130116E+00
         25   -1    0    0    0    0  0.00000000000E+00  0.00000000000E+00  0.99999998245E-14  0.12500000000E+03  0.12500000000E+03 0.  0.
        -11    1    3    3    0    0  0.87115197688E+01 -0.24593837934E+02  0.37202317724E+02  0.45439629018E+02  0.51100000000E-03 0.  1.
         23    2    1    0    0    0  0.22785455300E+02 -0.18281266130E+02 -0.92274958248E+01  0.94364590035E+02  0.89253277299E+02 0.  0.
         11    1    3    3    0    0  0.14073935531E+02  0.63125718036E+01 -0.46429813549E+02  0.48924961017E+02  0.51100000000E-03 0. -1.
         22    1    1    0    0    0 -0.22785455300E+02  0.18281266130E+02  0.92274958248E+01  0.30635409965E+02  0.00000000000E+00 0.  1.
</event>
<event>
 5    1  0.1094625E-009  0.9118800E+02  0.7818608E-02  0.1130116E+00
         25   -1    0    0    0    0  0.00000000000E+00  0.00000000000E+00  0.99999998245E-14  0.12500000000E+03  0.12500000000E+03 0.  0.
        -11    1    3    3    0    0 -0.38286048715E+02  0.11950430244E+02  0.57088750043E+01  0.40512042201E+02  0.51100000000E-03 0. -1.
         23    2    1    0    0    0  0.87870044703E+01  0.18579956391E+02 -0.21476102777E+02  0.95273762136E+02  0.90517625544E+02 0.  0.
         11    1    3    3    0    0  0.47073053185E+02  0.66295261474E+01 -0.27184977781E+02  0.54761719936E+02  0.51100000000E-03 0.  1.
         22    1    1    0    0    0 -0.87870044703E+01 -0.18579956391E+02  0.21476102777E+02  0.29726237864E+02  0.00000000000E+00 0.  1.
</event>
<event>
 5    1  0.1094625E-009  0.9118800E+02  0.7818608E-02  0.1130116E+00
         25   -1    0    0    0    0  0.00000000000E+00  0.00000000000E+00  0.99999998245E-14  0.12500000000E+03  0.12500000000E+03 0.  0.
        -11    1    3    3    0    0 -0.35369827540E+02 -0.18451152127E+02 -0.37437304959E+02  0.54708514126E+02  0.51100000000E-03 0. -1.
         23    2    1    0    0    0 -0.99114934988E+01 -0.29778488839E+02 -0.16653080141E+02  0.89470840439E+02  0.82114006782E+02 0.  0.
         11    1    3    3    0    0  0.25458334042E+02 -0.11327336712E+02  0.20784224817E+02  0.34762326313E+02  0.51100000000E-03 0.  1.
         22    1    1    0    0    0  0.99114934988E+01  0.29778488839E+02  0.16653080141E+02  0.35529159561E+02  0.00000000000E+00 0. -1.
</event>
<event>
 5    1  0.1094625E-009  0.9118800E+02  0.7818608E-02  0.1130116E+00
         25   -1    0    0    0    0  0.00000000000E+00  0.00000000000E+00  0.99999998245E-14  0.12500000000E+03  0.12500000000E+03 0.  0.
        -11    1    3    3    0    0 -0.34159268827E+02 -0.80556059667E+01 -0.14232411083E+02  0.37872284851E+02  0.51100000000E-03 0. -1.
         23    2    1    0    0    0  0.75465521429E+01 -0.94616880503E+01  0.26301574472E+02  0.96047507711E+02  0.91579893688E+02 0.  0.
         11    1    3    3    0    0  0.41705820970E+02 -0.14060820835E+01  0.40533985555E+02  0.58175222861E+02  0.51100000000E-03 0.  1.
         22    1    1    0    0    0 -0.75465521429E+01  0.94616880503E+01 -0.26301574472E+02  0.28952492289E+02  0.00000000000E+00 0.  1.
</event>
<event>
 5    1  0.1094625E-009  0.9118800E+02  0.7818608E-02  0.1130116E+00
         25   -1    0    0    0    0  0.00000000000E+00  0.00000000000E+00  0.99999998245E-14  0.12500000000E+03  0.12500000000E+03 0.  0.
        -11    1    3    3    0    0  0.65952837930E+00 -0.13207143491E+02 -0.53177983126E+02  0.54797458942E+02  0.51100000000E-03 0.  1.
         23    2    1    0    0    0  0.62131465732E+01 -0.25777314166E+02 -0.16986740036E+02  0.93509962639E+02  0.88048229168E+02 0.  0.
         11    1    3    3    0    0  0.55536181939E+01 -0.12570170675E+02  0.36191243090E+02  0.38712503697E+02  0.51100000000E-03 0. -1.
         22    1    1    0    0    0 -0.62131465732E+01  0.25777314166E+02  0.16986740036E+02  0.31490037361E+02  0.00000000000E+00 0.  1.
</event>
<event>
 5    1  0.1094625E-009  0.9118800E+02  0.7818608E-02  0.1130116E+00
         25   -1    0    0    0    0  0.00000000000E+00  0.00000000000E+00  0.99999998245E-14  0.12500000000E+03  0.12500000000E+03 0.  0.
        -11    1    3    3    0    0 -0.97381738237E+01 -0.10992957595E+01  0.36823843315E+02  0.38105589056E+02  0.51100000000E-03 0. -1.
         23    2    1    0    0    0 -0.45966185551E+01  0.25028837429E+02 -0.14344219716E+02  0.95788217369E+02  0.91225294422E+02 0.  0.
         11    1    3    3    0    0  0.51415552686E+01  0.26128133189E+02 -0.51168063031E+02  0.57682628313E+02  0.51100000000E-03 0.  1.
         22    1    1    0    0    0  0.45966185551E+01 -0.25028837429E+02  0.14344219716E+02  0.29211782631E+02  0.00000000000E+00 0.  1.
</event>
<event>
 5    1  0.1094625E-009  0.9118800E+02  0.7818608E-02  0.1130116E+00
         25   -1    0    0    0    0  0.00000000000E+00  0.00000000000E+00  0.99999998245E-14  0.12500000000E+03  0.12500000000E+03 0.  0.
        -11    1    3    3    0    0  0.42949797094E+02 -0.87682813641E+01  0.56670523037E+01  0.44200489936E+02  0.51100000000E-03 0.  1.
         23    2    1    0    0    0  0.50611247916E+01  0.26875816096E+02 -0.47209828289E+01  0.97247303665E+02  0.93203143275E+02 0.  0.
         11    1    3    3    0    0 -0.37888672303E+02  0.35644097460E+02 -0.10388035133E+02  0.53046813729E+02  0.51100000000E-03 0. -1.
         22    1    1    0    0    0 -0.50611247916E+01 -0.26875816096E+02  0.47209828289E+01  0.27752696335E+02  0.00000000000E+00 0.  1.
</event>
<event>
 5    1  0.1094625E-009  0.9118800E+02  0.7818608E-02  0.1130116E+00
         25   -1    0    0    0    0  0.00000000000E+00  0.00000000000E+00  0.99999998245E-14  0.12500000000E+03  0.12500000000E+03 0.  0.
        -11    1    3    3    0    0 -0.34001606157E+02  0.11391075986E+02 -0.13134664409E+02  0.38188810439E+02  0.51100000000E-03 0.  1.
         23    2    1    0    0    0  0.23458665951E+01 -0.13449382599E+02  0.25053262673E+02  0.96468351731E+02  0.92152525374E+02 0.  0.
         11    1    3    3    0    0  0.36347472752E+02 -0.24840458585E+02  0.38187927082E+02  0.58279541292E+02  0.51100000000E-03 0. -1.
         22    1    1    0    0    0 -0.23458665951E+01  0.13449382599E+02 -0.25053262673E+02  0.28531648269E+02  0.00000000000E+00 0. -1.
</event>
<event>
 5    1  0.1094625E-009  0.9118800E+02  0.7818608E-02  0.1130116E+00
         25   -1    0    0    0    0  0.00000000000E+00  0.00000000000E+00  0.99999998245E-14  0.12500000000E+03  0.12500000000E+03 0.  0.
        -11    1    3    3    0    0  0.66191154715E+01  0.11897278916E+02  0.44425443693E+02  0.46464803699E+02  0.51100000000E-03 0. -1.
         23    2    1    0    0    0 -0.24969570261E+01 -0.25810921348E+02  0.16512822968E+02  0.94257329693E+02  0.89102931620E+02 0.  0.
         11    1    3    3    0    0 -0.91160724976E+01 -0.37708200264E+02 -0.27912620724E+02  0.47792525994E+02  0.51100000000E-03 0.  1.
         22    1    1    0    0    0  0.24969570261E+01  0.25810921348E+02 -0.16512822968E+02  0.30742670307E+02  0.00000000000E+00 0.  1.
</event>
<event>
 5    1  0.1094625E-009  0.9118800E+02  0.7818608E-02  0.1130116E+00
         25   -1    0    0    0    0  0.00000000000E+00  0.00000000000E+00  0.99999998245E-14  0.12500000000E+03  0.12500000000E+03 0.  0.
        -11    1    3    3    0    0 -0.14000959945E+02  0.16168606587E+01 -0.27150076528E+02  0.30590321566E+02  0.51100000000E-03 0.  1.
         23    2    1    0    0    0  0.31109648347E+02  0.17094946999E+02  0.64390536378E+01  0.88923569399E+02  0.81276640862E+02 0.  0.
         11    1    3    3    0    0  0.45110608292E+02  0.15478086341E+02  0.33589130165E+02  0.58333247833E+02  0.51100000000E-03 0. -1.
         22    1    1    0    0    0 -0.31109648347E+02 -0.17094946999E+02 -0.64390536378E+01  0.36076430601E+02  0.00000000000E+00 0. -1.
</event>
<event>
 5    1  0.1094625E-009  0.9118800E+02  0.7818608E-02  0.1130116E+00
         25   -1    0    0    0    0  0.00000000000E+00  0.00000000000E+00  0.99999998245E-14  0.12500000000E+03  0.12500000000E+03 0.  0.
        -11    1    3    3    0    0 -0.11940254752E+02 -0.38535386970E+02  0.54159758785E+01  0.40704772785E+02  0.51100000000E-03 0. -1.
         23    2    1    0    0    0  0.24595872404E+02 -0.52905003662E+01 -0.16675303137E+02  0.94817023538E+02  0.89884681033E+02 0.  0.
         11    1    3    3    0    0  0.36536127155E+02  0.33244886604E+02 -0.22091279015E+02  0.54112250753E+02  0.51100000000E-03 0.  1.
         22    1    1    0    0    0 -0.24595872404E+02  0.52905003662E+01  0.16675303137E+02  0.30182976462E+02  0.00000000000E+00 0.  1.
</event>
<event>
 5    1  0.1094625E-009  0.9118800E+02  0.7818608E-02  0.1130116E+00
         25   -1    0    0    0    0  0.00000000000E+00  0.00000000000E+00  0.99999998245E-14  0.12500000000E+03  0.12500000000E+03 0.  0.
        -11    1    3    3    0    0  0.77548209844E+01  0.30596033893E+02  0.13173364725E+02  0.34202223274E+02  0.51100000000E-03 0.  1.
         23    2    1    0    0    0  0.13656356618E+02 -0.26297150976E+02 -0.64523341611E+01  0.94673957699E+02  0.89685502869E+02 0.  0.
         11    1    3    3    0    0  0.59015356335E+01 -0.56893184868E+02 -0.19625698886E+02  0.60471734425E+02  0.51100000000E-03 0. -1.
         22    1    1    0    0    0 -0.13656356618E+02  0.26297150976E+02  0.64523341611E+01  0.30326042301E+02  0.00000000000E+00 0. -1.
</event>
<event>
 5    1  0.1094625E-009  0.9118800E+02  0.7818608E-02  0.1130116E+00
         25   -1    0    0    0    0  0.00000000000E+00  0.00000000000E+00  0.99999998245E-14  0.12500000000E+03  0.12500000000E+03 0.  0.
        -11    1    3    3    0    0  0.16043610551E+02 -0.15123411098E+02  0.28222472954E+02  0.35813726177E+02  0.51100000000E-03 0. -1.
         23    2    1    0    0    0  0.54225893046E+01  0.43706970366E+01 -0.27940253787E+02  0.96204770377E+02  0.91794294998E+02 0.  0.
         11    1    3    3    0    0 -0.10621021247E+02  0.19494108135E+02 -0.56162726741E+02  0.60391044200E+02  0.51100000000E-03 0.  1.
         22    1    1    0    0    0 -0.54225893046E+01 -0.43706970366E+01  0.27940253787E+02  0.28795229623E+02  0.00000000000E+00 0.  1.
</event>
<event>
 5    1  0.1094625E-009  0.9118800E+02  0.7818608E-02  0.1130116E+00
         25   -1    0    0    0    0  0.00000000000E+00  0.00000000000E+00  0.99999998245E-14  0.12500000000E+03  0.12500000000E+03 0.  0.
        -11    1    3    3    0    0  0.13269616783E+02 -0.37583687053E+02  0.14705683458E+02  0.42483801481E+02  0.51100000000E-03 0.  1.
         23    2    1    0    0    0  0.11584299223E+01 -0.12950914019E+02 -0.28501399108E+02  0.93672729373E+02  0.88279002845E+02 0.  0.
         11    1    3    3    0    0 -0.12111186860E+02  0.24632773035E+02 -0.43207082566E+02  0.51188927892E+02  0.51100000000E-03 0. -1.
         22    1    1    0    0    0 -0.11584299223E+01  0.12950914019E+02  0.28501399108E+02  0.31327270627E+02  0.00000000000E+00 0. -1.
</event>
<event>
 5    1  0.1094625E-009  0.9118800E+02  0.7818608E-02  0.1130116E+00
         25   -1    0    0    0    0  0.00000000000E+00  0.00000000000E+00  0.99999998245E-14  0.12500000000E+03  0.12500000000E+03 0.  0.
        -11    1    3    3    0    0 -0.53517145642E+02 -0.59873954113E+01 -0.30770297881E+02  0.62022133254E+02  0.51100000000E-03 0.  1.
         23    2    1    0    0    0 -0.28495425909E+02 -0.58155681850E+01 -0.11021975856E+02  0.93898648216E+02  0.88598318573E+02 0.  0.
         11    1    3    3    0    0  0.25021719733E+02  0.17182722624E+00  0.19748322025E+02  0.31876514961E+02  0.51100000000E-03 0. -1.
         22    1    1    0    0    0  0.28495425909E+02  0.58155681850E+01  0.11021975856E+02  0.31101351784E+02  0.00000000000E+00 0.  1.
</event>
<event>
 5    1  0.1094625E-009  0.9118800E+02  0.7818608E-02  0.1130116E+00
         25   -1    0    0    0    0  0.00000000000E+00  0.00000000000E+00  0.99999998245E-14  0.12500000000E+03  0.12500000000E+03 0.  0.
        -11    1    3    3    0    0 -0.30906038331E+02  0.33963165705E+02 -0.33590951780E+02  0.56894919560E+02  0.51100000000E-03 0. -1.
         23    2    1    0    0    0 -0.21691552648E+02  0.22019271125E+02  0.40581684113E+00  0.94088247470E+02  0.88865414350E+02 0.  0.
         11    1    3    3    0    0  0.92144856830E+01 -0.11943894580E+02  0.33996768621E+02  0.37193327911E+02  0.51100000000E-03 0.  1.
         22    1    1    0    0    0  0.21691552648E+02 -0.22019271125E+02 -0.40581684113E+00  0.30911752530E+02  0.00000000000E+00 0. -1.
</event>
<event>
 5    1  0.1094625E-009  0.9118800E+02  0.7818608E-02  0.1130116E+00
         25   -1    0    0    0    0  0.00000000000E+00  0.00000000000E+00  0.99999998245E-14  0.12500000000E+03  0.12500000000E+03 0.  0.
        -11    1    3    3    0    0  0.95634298036E+01  0.34158280878E+02 -0.13838931449E+02  0.38075758247E+02  0.51100000000E-03 0. -1.
         23    2    1    0    0    0  0.98095059003E+01 -0.24662395507E+02 -0.84613007928E+01  0.97142258360E+02  0.93062154446E+02 0.  0.
         11    1    3    3    0    0  0.24607609676E+00 -0.58820676385E+02  0.53776306564E+01  0.59066500113E+02  0.51100000000E-03 0.  1.
         22    1    1    0    0    0 -0.98095059003E+01  0.24662395507E+02  0.84613007928E+01  0.27857741640E+02  0.00000000000E+00 0.  1.
</event>
<event>
 5    1  0.1094625E-009  0.9118800E+02  0.7818608E-02  0.1130116E+00
         25   -1    0    0    0    0  0.00000000000E+00  0.00000000000E+00  0.99999998245E-14  0.12500000000E+03  0.12500000000E+03 0.  0.
        -11    1    3    3    0    0  0.22786125566E+02  0.10845167413E+02 -0.41343649766E+02  0.48436789229E+02  0.51100000000E-03 0. -1.
         23    2    1    0    0    0  0.27456863254E+02  0.99121581578E+01  0.53072416966E+01  0.95330199975E+02  0.90595529656E+02 0.  0.
         11    1    3    3    0    0  0.46707376882E+01 -0.93300925560E+00  0.46650891463E+02  0.46893410746E+02  0.51100000000E-03 0.  1.
         22    1    1    0    0    0 -0.27456863254E+02 -0.99121581578E+01 -0.53072416966E+01  0.29669800025E+02  0.00000000000E+00 0.  1.
</event>
<event>
 5    1  0.1094625E-009  0.9118800E+02  0.7818608E-02  0.1130116E+00
         25   -1    0    0    0    0  0.00000000000E+00  0.00000000000E+00  0.99999998245E-14  0.12500000000E+03  0.12500000000E+03 0.  0.
        -11    1    3    3    0    0 -0.33198346012E+02 -0.23982607359E+02 -0.45598777198E+02  0.61290652761E+02  0.51100000000E-03 0. -1.
         23    2    1    0    0    0 -0.98234085185E+01 -0.17472487719E+02 -0.23525804201E+02  0.94092870640E+02  0.88871917161E+02 0.  0.
         11    1    3    3    0    0  0.23374937494E+02  0.65101196403E+01  0.22072972997E+02  0.32802217879E+02  0.51100000000E-03 0.  1.
         22    1    1    0    0    0  0.98234085185E+01  0.17472487719E+02  0.23525804201E+02  0.30907129360E+02  0.00000000000E+00 0. -1.
</event>
<event>
 5    1  0.1094625E-009  0.9118800E+02  0.7818608E-02  0.1130116E+00
         25   -1    0    0    0    0  0.00000000000E+00  0.00000000000E+00  0.99999998245E-14  0.12500000000E+03  0.12500000000E+03 0.  0.
        -11    1    3    3    0    0  0.51870300961E+01 -0.25123653665E+02  0.33409335339E+02  0.42122285584E+02  0.51100000000E-03 0.  1.
         23    2    1    0    0    0 -0.11510546022E+02 -0.30171187394E+02 -0.11830610663E+02  0.90608771944E+02  0.83828354308E+02 0.  0.
         11    1    3    3    0    0 -0.16697576119E+02 -0.50475337289E+01 -0.45239946003E+02  0.48486486360E+02  0.51100000000E-03 0. -1.
         22    1    1    0    0    0  0.11510546022E+02  0.30171187394E+02  0.11830610663E+02  0.34391228056E+02  0.00000000000E+00 0. -1.
</event>
<event>
 5    1  0.1094625E-009  0.9118800E+02  0.7818608E-02  0.1130116E+00
         25   -1    0    0    0    0  0.00000000000E+00  0.00000000000E+00  0.99999998245E-14  0.12500000000E+03  0.12500000000E+03 0.  0.
        -11    1    3    3    0    0  0.31979788508E+02  0.36603040890E+02  0.31437108470E+02  0.57885933219E+02  0.51100000000E-03 0.  1.
         23    2    1    0    0    0  0.25785308606E+02  0.41019383915E+01  0.11935498899E+02  0.96291740345E+02  0.91912649218E+02 0.  0.
         11    1    3    3    0    0 -0.61944799024E+01 -0.32501102498E+02 -0.19501609571E+02  0.38405807126E+02  0.51100000000E-03 0. -1.
         22    1    1    0    0    0 -0.25785308606E+02 -0.41019383915E+01 -0.11935498899E+02  0.28708259655E+02  0.00000000000E+00 0.  1.
</event>
<event>
 5    1  0.1094625E-009  0.9118800E+02  0.7818608E-02  0.1130116E+00
         25   -1    0    0    0    0  0.00000000000E+00  0.00000000000E+00  0.99999998245E-14  0.12500000000E+03  0.12500000000E+03 0.  0.
        -11    1    3    3    0    0  0.38443172654E+02 -0.29079390367E+00  0.24074658988E+02  0.45360239092E+02  0.51100000000E-03 0. -1.
         23    2    1    0    0    0 -0.57269194038E+01 -0.23800532814E+02  0.15219329306E+02  0.96174820858E+02  0.91753502464E+02 0.  0.
         11    1    3    3    0    0 -0.44170092058E+02 -0.23509738910E+02 -0.88553296825E+01  0.50814581766E+02  0.51100000000E-03 0.  1.
         22    1    1    0    0    0  0.57269194038E+01  0.23800532814E+02 -0.15219329306E+02  0.28825179142E+02  0.00000000000E+00 0.  1.
</event>
<event>
 5    1  0.1094625E-009  0.9118800E+02  0.7818608E-02  0.1130116E+00
         25   -1    0    0    0    0  0.00000000000E+00  0.00000000000E+00  0.99999998245E-14  0.12500000000E+03  0.12500000000E+03 0.  0.
        -11    1    3    3    0    0  0.53639915368E+02  0.18088660445E+02 -0.11126243042E+02  0.57690843657E+02  0.51100000000E-03 0. -1.
         23    2    1    0    0    0  0.25046542367E+02  0.84419397416E+01  0.12255405951E+02  0.95865988841E+02  0.91331797367E+02 0.  0.
         11    1    3    3    0    0 -0.28593373001E+02 -0.96467207035E+01  0.23381648993E+02  0.38175145184E+02  0.51100000000E-03 0.  1.
         22    1    1    0    0    0 -0.25046542367E+02 -0.84419397416E+01 -0.12255405951E+02  0.29134011159E+02  0.00000000000E+00 0. -1.
</event>
<event>
 5    1  0.1094625E-009  0.9118800E+02  0.7818608E-02  0.1130116E+00
         25   -1    0    0    0    0  0.00000000000E+00  0.00000000000E+00  0.99999998245E-14  0.12500000000E+03  0.12500000000E+03 0.  0.
        -11    1    3    3    0    0  0.52138785919E+02 -0.75416018886E+01 -0.33619597056E+02  0.62494848288E+02  0.51100000000E-03 0. -1.
         23    2    1    0    0    0  0.25479960990E+02 -0.32907585729E+01 -0.16881674997E+02  0.94258359596E+02  0.89104376430E+02 0.  0.
         11    1    3    3    0    0 -0.26658824929E+02  0.42508433157E+01  0.16737922059E+02  0.31763511308E+02  0.51100000000E-03 0.  1.
         22    1    1    0    0    0 -0.25479960990E+02  0.32907585729E+01  0.16881674997E+02  0.30741640404E+02  0.00000000000E+00 0. -1.
</event>
<event>
 5    1  0.1094625E-009  0.9118800E+02  0.7818608E-02  0.1130116E+00
         25   -1    0    0    0    0  0.00000000000E+00  0.00000000000E+00  0.99999998245E-14  0.12500000000E+03  0.12500000000E+03 0.  0.
        -11    1    3    3    0    0  0.30406504264E+02  0.18145631870E+01 -0.52978447947E+02  0.61111079914E+02  0.51100000000E-03 0. -1.
         23    2    1    0    0    0  0.66260861853E+01  0.56445941305E+01 -0.27422323069E+02  0.96229350659E+02  0.91827760861E+02 0.  0.
         11    1    3    3    0    0 -0.23780418079E+02  0.38300309435E+01  0.25556124879E+02  0.35118270745E+02  0.51100000000E-03 0.  1.
         22    1    1    0    0    0 -0.66260861853E+01 -0.56445941305E+01  0.27422323069E+02  0.28770649341E+02  0.00000000000E+00 0. -1.
</event>
<event>
 5    1  0.1094625E-009  0.9118800E+02  0.7818608E-02  0.1130116E+00
         25   -1    0    0    0    0  0.00000000000E+00  0.00000000000E+00  0.99999998245E-14  0.12500000000E+03  0.12500000000E+03 0.  0.
        -11    1    3    3    0    0 -0.31058124423E+02  0.13414051510E+02 -0.38906273747E+02  0.51558142011E+02  0.51100000000E-03 0. -1.
         23    2    1    0    0    0 -0.14735287811E+02  0.23410224905E+02  0.25513190323E+01  0.97220932957E+02  0.93167769315E+02 0.  0.
         11    1    3    3    0    0  0.16322836611E+02  0.99961733956E+01  0.41457592779E+02  0.45662790945E+02  0.51100000000E-03 0.  1.
         22    1    1    0    0    0  0.14735287811E+02 -0.23410224905E+02 -0.25513190323E+01  0.27779067043E+02  0.00000000000E+00 0. -1.
</event>
<event>
 5    1  0.1094625E-009  0.9118800E+02  0.7818608E-02  0.1130116E+00
         25   -1    0    0    0    0  0.00000000000E+00  0.00000000000E+00  0.99999998245E-14  0.12500000000E+03  0.12500000000E+03 0.  0.
        -11    1    3    3    0    0  0.36522751436E+02 -0.26682294372E+02 -0.31547465598E+02  0.55146158445E+02  0.51100000000E-03 0. -1.
         23    2    1    0    0    0  0.16568714464E+01 -0.27398075841E+02 -0.14230864426E+02  0.94082087957E+02  0.88856749824E+02 0.  0.
         11    1    3    3    0    0 -0.34865879989E+02 -0.71578146931E+00  0.17316601172E+02  0.38935929512E+02  0.51100000000E-03 0.  1.
         22    1    1    0    0    0 -0.16568714464E+01  0.27398075841E+02  0.14230864426E+02  0.30917912043E+02  0.00000000000E+00 0. -1.
</event>
<event>
 5    1  0.1094625E-009  0.9118800E+02  0.7818608E-02  0.1130116E+00
         25   -1    0    0    0    0  0.00000000000E+00  0.00000000000E+00  0.99999998245E-14  0.12500000000E+03  0.12500000000E+03 0.  0.
        -11    1    3    3    0    0  0.37889397544E+02 -0.13685816891E+02 -0.17772775177E+01  0.40324517924E+02  0.51100000000E-03 0.  1.
         23    2    1    0    0    0 -0.10708740367E+02 -0.95053599075E+01  0.25163644858E+02  0.96047659685E+02  0.91580101120E+02 0.  0.
         11    1    3    3    0    0 -0.48598137911E+02  0.41804569834E+01  0.26940922375E+02  0.55723141760E+02  0.51100000000E-03 0. -1.
         22    1    1    0    0    0  0.10708740367E+02  0.95053599075E+01 -0.25163644858E+02  0.28952340315E+02  0.00000000000E+00 0. -1.
</event>
<event>
 5    1  0.1094625E-009  0.9118800E+02  0.7818608E-02  0.1130116E+00
         25   -1    0    0    0    0  0.00000000000E+00  0.00000000000E+00  0.99999998245E-14  0.12500000000E+03  0.12500000000E+03 0.  0.
        -11    1    3    3    0    0 -0.25804437667E+02  0.17298043806E+02 -0.27890278773E+02  0.41748760139E+02  0.51100000000E-03 0. -1.
         23    2    1    0    0    0  0.55479298317E+01  0.25509710179E+02  0.14522014372E+02  0.95126705233E+02  0.90314319508E+02 0.  0.
         11    1    3    3    0    0  0.31352367499E+02  0.82116663723E+01  0.42412293145E+02  0.53377945094E+02  0.51100000000E-03 0.  1.
         22    1    1    0    0    0 -0.55479298317E+01 -0.25509710179E+02 -0.14522014372E+02  0.29873294767E+02  0.00000000000E+00 0.  1.
</event>
<event>
 5    1  0.1094625E-009  0.9118800E+02  0.7818608E-02  0.1130116E+00
         25   -1    0    0    0    0  0.00000000000E+00  0.00000000000E+00  0.99999998245E-14  0.12500000000E+03  0.12500000000E+03 0.  0.
        -11    1    3    3    0    0 -0.12237695126E+02  0.31076417693E+02 -0.35306829087E+02  0.48601204708E+02  0.51100000000E-03 0.  1.
         23    2    1    0    0    0 -0.14200802131E+02  0.23697066222E+02  0.10801180420E+02  0.95337241747E+02  0.90605245084E+02 0.  0.
         11    1    3    3    0    0 -0.19631070058E+01 -0.73793514704E+01  0.46108009506E+02  0.46736037039E+02  0.51100000000E-03 0. -1.
         22    1    1    0    0    0  0.14200802131E+02 -0.23697066222E+02 -0.10801180420E+02  0.29662758253E+02  0.00000000000E+00 0.  1.
</event>
<event>
 5    1  0.1094625E-009  0.9118800E+02  0.7818608E-02  0.1130116E+00
         25   -1    0    0    0    0  0.00000000000E+00  0.00000000000E+00  0.99999998245E-14  0.12500000000E+03  0.12500000000E+03 0.  0.
        -11    1    3    3    0    0 -0.61671497839E+01 -0.22438339339E+02  0.11237295675E+02  0.25841625783E+02  0.51100000000E-03 0.  1.
         23    2    1    0    0    0 -0.37561659769E+01  0.37737891495E+02  0.85370253736E+01  0.86126641005E+02  0.76854799793E+02 0.  0.
         11    1    3    3    0    0  0.24109838069E+01  0.60176230834E+02 -0.27002703011E+01  0.60285015222E+02  0.51100000000E-03 0. -1.
         22    1    1    0    0    0  0.37561659769E+01 -0.37737891495E+02 -0.85370253736E+01  0.38873358995E+02  0.00000000000E+00 0. -1.
</event>
<event>
 5    1  0.1094625E-009  0.9118800E+02  0.7818608E-02  0.1130116E+00
         25   -1    0    0    0    0  0.00000000000E+00  0.00000000000E+00  0.99999998245E-14  0.12500000000E+03  0.12500000000E+03 0.  0.
        -11    1    3    3    0    0 -0.72297308579E+01 -0.16066226521E+02 -0.44793987654E+02  0.48134124829E+02  0.51100000000E-03 0.  1.
         23    2    1    0    0    0 -0.27989245340E+02  0.65523658909E+01 -0.99341723138E+01  0.94585872805E+02  0.89562649588E+02 0.  0.
         11    1    3    3    0    0 -0.20759514482E+02  0.22618592412E+02  0.34859815340E+02  0.46451747976E+02  0.51100000000E-03 0. -1.
         22    1    1    0    0    0  0.27989245340E+02 -0.65523658909E+01  0.99341723138E+01  0.30414127195E+02  0.00000000000E+00 0. -1.
</event>
<event>
 5    1  0.1094625E-009  0.9118800E+02  0.7818608E-02  0.1130116E+00
         25   -1    0    0    0    0  0.00000000000E+00  0.00000000000E+00  0.99999998245E-14  0.12500000000E+03  0.12500000000E+03 0.  0.
        -11    1    3    3    0    0 -0.18253289861E+02  0.56519165839E+01  0.35377242601E+02  0.40207910243E+02  0.51100000000E-03 0.  1.
         23    2    1    0    0    0  0.69170348690E+01  0.28873982772E+02 -0.68025878155E+01  0.94539739766E+02  0.89498239880E+02 0.  0.
         11    1    3    3    0    0  0.25170324730E+02  0.23222066188E+02 -0.42179830417E+02  0.54331829523E+02  0.51100000000E-03 0. -1.
         22    1    1    0    0    0 -0.69170348690E+01 -0.28873982772E+02  0.68025878155E+01  0.30460260234E+02  0.00000000000E+00 0. -1.
</event>
<event>
 5    1  0.1094625E-009  0.9118800E+02  0.7818608E-02  0.1130116E+00
         25   -1    0    0    0    0  0.00000000000E+00  0.00000000000E+00  0.99999998245E-14  0.12500000000E+03  0.12500000000E+03 0.  0.
        -11    1    3    3    0    0 -0.80926998736E+01 -0.53896146564E+02 -0.17899668724E+02  0.57364488548E+02  0.51100000000E-03 0. -1.
         23    2    1    0    0    0  0.77630001092E+01 -0.28699853486E+02  0.49070789324E+01  0.94866543768E+02  0.89953521010E+02 0.  0.
         11    1    3    3    0    0  0.15855699983E+02  0.25196293078E+02  0.22806747656E+02  0.37502055220E+02  0.51100000000E-03 0.  1.
         22    1    1    0    0    0 -0.77630001092E+01  0.28699853486E+02 -0.49070789324E+01  0.30133456232E+02  0.00000000000E+00 0. -1.
</event>
<event>
 5    1  0.1094625E-009  0.9118800E+02  0.7818608E-02  0.1130116E+00
         25   -1    0    0    0    0  0.00000000000E+00  0.00000000000E+00  0.99999998245E-14  0.12500000000E+03  0.12500000000E+03 0.  0.
        -11    1    3    3    0    0 -0.36486572870E+02 -0.44069478821E+02  0.47859408304E+01  0.57413362497E+02  0.51100000000E-03 0. -1.
         23    2    1    0    0    0 -0.14939638780E+01 -0.27921455989E+02  0.75078339680E+01  0.96048191706E+02  0.91580827287E+02 0.  0.
         11    1    3    3    0    0  0.34992608993E+02  0.16148022832E+02  0.27218931376E+01  0.38634829209E+02  0.51100000000E-03 0.  1.
         22    1    1    0    0    0  0.14939638780E+01  0.27921455989E+02 -0.75078339680E+01  0.28951808294E+02  0.00000000000E+00 0. -1.
</event>
<event>
 5    1  0.1094625E-009  0.9118800E+02  0.7818608E-02  0.1130116E+00
         25   -1    0    0    0    0  0.00000000000E+00  0.00000000000E+00  0.99999998245E-14  0.12500000000E+03  0.12500000000E+03 0.  0.
        -11    1    3    3    0    0  0.11450861955E+01  0.36620989920E+02  0.90868077251E+01  0.37748883428E+02  0.51100000000E-03 0.  1.
         23    2    1    0    0    0  0.10207404515E+02 -0.21938615939E+02  0.13715701350E+02  0.97186074715E+02  0.93120989464E+02 0.  0.
         11    1    3    3    0    0  0.90623183193E+01 -0.58559605859E+02  0.46288936246E+01  0.59437191287E+02  0.51100000000E-03 0. -1.
         22    1    1    0    0    0 -0.10207404515E+02  0.21938615939E+02 -0.13715701350E+02  0.27813925285E+02  0.00000000000E+00 0. -1.
</event>
<event>
 5    1  0.1094625E-009  0.9118800E+02  0.7818608E-02  0.1130116E+00
         25   -1    0    0    0    0  0.00000000000E+00  0.00000000000E+00  0.99999998245E-14  0.12500000000E+03  0.12500000000E+03 0.  0.
        -11    1    3    3    0    0  0.10178866205E+02 -0.33375823349E+02  0.46505877026E+02  0.58140790325E+02  0.51100000000E-03 0. -1.
         23    2    1    0    0    0 -0.16093734941E+01 -0.27078453018E+02  0.11637406870E+02  0.95482853465E+02  0.90805910415E+02 0.  0.
         11    1    3    3    0    0 -0.11788239699E+02  0.62973703307E+01 -0.34868470156E+02  0.37342063140E+02  0.51100000000E-03 0.  1.
         22    1    1    0    0    0  0.16093734941E+01  0.27078453018E+02 -0.11637406870E+02  0.29517146535E+02  0.00000000000E+00 0. -1.
</event>
<event>
 5    1  0.1094625E-009  0.9118800E+02  0.7818608E-02  0.1130116E+00
         25   -1    0    0    0    0  0.00000000000E+00  0.00000000000E+00  0.99999998245E-14  0.12500000000E+03  0.12500000000E+03 0.  0.
        -11    1    3    3    0    0 -0.46620382449E+01 -0.23742048865E+02 -0.51650073308E+02  0.57036388015E+02  0.51100000000E-03 0. -1.
         23    2    1    0    0    0  0.10489766398E+02 -0.25717382124E+02 -0.25653567109E+02  0.87190947541E+02  0.78566767054E+02 0.  0.
         11    1    3    3    0    0  0.15151804643E+02 -0.19753332591E+01  0.25996506199E+02  0.30154559526E+02  0.51100000000E-03 0.  1.
         22    1    1    0    0    0 -0.10489766398E+02  0.25717382124E+02  0.25653567109E+02  0.37809052459E+02  0.00000000000E+00 0. -1.
</event>
<event>
 5    1  0.1094625E-009  0.9118800E+02  0.7818608E-02  0.1130116E+00
         25   -1    0    0    0    0  0.00000000000E+00  0.00000000000E+00  0.99999998245E-14  0.12500000000E+03  0.12500000000E+03 0.  0.
        -11    1    3    3    0    0 -0.31206504188E+02  0.10866952344E+02 -0.90410057038E+00  0.33056829173E+02  0.51100000000E-03 0. -1.
         23    2    1    0    0    0  0.16541674931E+02  0.38432309432E+01  0.30114383961E+02  0.90427271514E+02  0.83557273044E+02 0.  0.
         11    1    3    3    0    0  0.47748179119E+02 -0.70237214009E+01  0.31018484531E+02  0.57370442341E+02  0.51100000000E-03 0.  1.
         22    1    1    0    0    0 -0.16541674931E+02 -0.38432309432E+01 -0.30114383961E+02  0.34572728486E+02  0.00000000000E+00 0.  1.
</event>
<event>
 5    1  0.1094625E-009  0.9118800E+02  0.7818608E-02  0.1130116E+00
         25   -1    0    0    0    0  0.00000000000E+00  0.00000000000E+00  0.99999998245E-14  0.12500000000E+03  0.12500000000E+03 0.  0.
        -11    1    3    3    0    0  0.13132207607E+02  0.50746578108E+02 -0.60856645734E+00  0.52421755214E+02  0.51100000000E-03 0.  1.
         23    2    1    0    0    0  0.16717962873E+02  0.10842066076E+02  0.19386510804E+02  0.97199325897E+02  0.93138775353E+02 0.  0.
         11    1    3    3    0    0  0.35857552664E+01 -0.39904512032E+02  0.19995077261E+02  0.44777570683E+02  0.51100000000E-03 0. -1.
         22    1    1    0    0    0 -0.16717962873E+02 -0.10842066076E+02 -0.19386510804E+02  0.27800674103E+02  0.00000000000E+00 0.  1.
</event>
<event>
 5    1  0.1094625E-009  0.9118800E+02  0.7818608E-02  0.1130116E+00
         25   -1    0    0    0    0  0.00000000000E+00  0.00000000000E+00  0.99999998245E-14  0.12500000000E+03  0.12500000000E+03 0.  0.
        -11    1    3    3    0    0 -0.67781903626E+01 -0.59600759821E+02 -0.35515920882E+01  0.60090001186E+02  0.51100000000E-03 0. -1.
         23    2    1    0    0    0 -0.13599893671E+01 -0.26349232965E+02  0.10513442989E+02  0.96598166742E+02  0.92328444618E+02 0.  0.
         11    1    3    3    0    0  0.54182009954E+01  0.33251526857E+02  0.14065035077E+02  0.36508165556E+02  0.51100000000E-03 0.  1.
         22    1    1    0    0    0  0.13599893671E+01  0.26349232965E+02 -0.10513442989E+02  0.28401833258E+02  0.00000000000E+00 0. -1.
</event>
<event>
 5    1  0.1094625E-009  0.9118800E+02  0.7818608E-02  0.1130116E+00
         25   -1    0    0    0    0  0.00000000000E+00  0.00000000000E+00  0.99999998245E-14  0.12500000000E+03  0.12500000000E+03 0.  0.
        -11    1    3    3    0    0  0.26264751895E+01  0.42963981881E+02  0.12526646250E+02  0.44829889332E+02  0.51100000000E-03 0. -1.
         23    2    1    0    0    0 -0.20695176261E+02  0.84947522524E+01  0.27937841865E+02  0.89209300867E+02  0.81714902048E+02 0.  0.
         11    1    3    3    0    0 -0.23321651451E+02 -0.34469229629E+02  0.15411195615E+02  0.44379411535E+02  0.51100000000E-03 0.  1.
         22    1    1    0    0    0  0.20695176261E+02 -0.84947522524E+01 -0.27937841865E+02  0.35790699133E+02  0.00000000000E+00 0.  1.
</event>
<event>
 5    1  0.1094625E-009  0.9118800E+02  0.7818608E-02  0.1130116E+00
         25   -1    0    0    0    0  0.00000000000E+00  0.00000000000E+00  0.99999998245E-14  0.12500000000E+03  0.12500000000E+03 0.  0.
        -11    1    3    3    0    0  0.11376319639E+02  0.31527233314E+02 -0.21654281175E+02  0.39903571048E+02  0.51100000000E-03 0.  1.
         23    2    1    0    0    0  0.12473604243E+01 -0.23868227843E+02 -0.15408786347E+02  0.96562719801E+02  0.92280441863E+02 0.  0.
         11    1    3    3    0    0 -0.10128959214E+02 -0.55395461157E+02  0.62454948278E+01  0.56659148753E+02  0.51100000000E-03 0. -1.
         22    1    1    0    0    0 -0.12473604243E+01  0.23868227843E+02  0.15408786347E+02  0.28437280199E+02  0.00000000000E+00 0. -1.
</event>
<event>
 5    1  0.1094625E-009  0.9118800E+02  0.7818608E-02  0.1130116E+00
         25   -1    0    0    0    0  0.00000000000E+00  0.00000000000E+00  0.99999998245E-14  0.12500000000E+03  0.12500000000E+03 0.  0.
        -11    1    3    3    0    0  0.18518218238E+02 -0.46699199958E+02 -0.80536087373E+01  0.50878289057E+02  0.51100000000E-03 0. -1.
         23    2    1    0    0    0 -0.17784255794E+02 -0.21526293014E+02  0.42977648852E+01  0.96748772981E+02  0.92532120073E+02 0.  0.
         11    1    3    3    0    0 -0.36302474031E+02  0.25172906944E+02  0.12351373623E+02  0.45870483924E+02  0.51100000000E-03 0.  1.
         22    1    1    0    0    0  0.17784255794E+02  0.21526293014E+02 -0.42977648852E+01  0.28251227019E+02  0.00000000000E+00 0. -1.
</event>
<event>
 5    1  0.1094625E-009  0.9118800E+02  0.7818608E-02  0.1130116E+00
         25   -1    0    0    0    0  0.00000000000E+00  0.00000000000E+00  0.99999998245E-14  0.12500000000E+03  0.12500000000E+03 0.  0.
        -11    1    3    3    0    0  0.40148070943E+02 -0.18935906545E+02  0.11138105466E+02  0.45765637227E+02  0.51100000000E-03 0. -1.
         23    2    1    0    0    0  0.30676674719E+01 -0.93032928672E+01 -0.24825266722E+02  0.98311880739E+02  0.94620136254E+02 0.  0.
         11    1    3    3    0    0 -0.37080403471E+02  0.96326136781E+01 -0.35963372187E+02  0.52546243512E+02  0.51100000000E-03 0.  1.
         22    1    1    0    0    0 -0.30676674719E+01  0.93032928672E+01  0.24825266722E+02  0.26688119261E+02  0.00000000000E+00 0.  1.
</event>
<event>
 5    1  0.1094625E-009  0.9118800E+02  0.7818608E-02  0.1130116E+00
         25   -1    0    0    0    0  0.00000000000E+00  0.00000000000E+00  0.99999998245E-14  0.12500000000E+03  0.12500000000E+03 0.  0.
        -11    1    3    3    0    0  0.42669629137E+02  0.20116112413E+02  0.19637217865E+02  0.51097705967E+02  0.51100000000E-03 0.  1.
         23    2    1    0    0    0 -0.34116053989E-01  0.65744221875E+01  0.27624805044E+02  0.96603626205E+02  0.92335835683E+02 0.  0.
         11    1    3    3    0    0 -0.42703745191E+02 -0.13541690226E+02  0.79875871787E+01  0.45505920238E+02  0.51100000000E-03 0. -1.
         22    1    1    0    0    0  0.34116053989E-01 -0.65744221875E+01 -0.27624805044E+02  0.28396373795E+02  0.00000000000E+00 0.  1.
</event>
<event>
 5    1  0.1094625E-009  0.9118800E+02  0.7818608E-02  0.1130116E+00
         25   -1    0    0    0    0  0.00000000000E+00  0.00000000000E+00  0.99999998245E-14  0.12500000000E+03  0.12500000000E+03 0.  0.
        -11    1    3    3    0    0 -0.17446425721E+02  0.22925785173E+02  0.36839939910E+02  0.46766981612E+02  0.51100000000E-03 0.  1.
         23    2    1    0    0    0 -0.69424356454E+01  0.24711373867E+02 -0.11935554133E+02  0.96692635878E+02  0.92456254356E+02 0.  0.
         11    1    3    3    0    0  0.10503990076E+02  0.17855886940E+01 -0.48775494043E+02  0.49925654266E+02  0.51100000000E-03 0. -1.
         22    1    1    0    0    0  0.69424356454E+01 -0.24711373867E+02  0.11935554133E+02  0.28307364122E+02  0.00000000000E+00 0. -1.
</event>
<event>
 5    1  0.1094625E-009  0.9118800E+02  0.7818608E-02  0.1130116E+00
         25   -1    0    0    0    0  0.00000000000E+00  0.00000000000E+00  0.99999998245E-14  0.12500000000E+03  0.12500000000E+03 0.  0.
        -11    1    3    3    0    0 -0.17441976044E+01  0.38321770699E+02  0.26052372771E+02  0.46371612675E+02  0.51100000000E-03 0. -1.
         23    2    1    0    0    0 -0.22969332095E+02 -0.24060483418E+01  0.23009707023E+02  0.92398989236E+02  0.86456620967E+02 0.  0.
         11    1    3    3    0    0 -0.21225134491E+02 -0.40727819041E+02 -0.30426657473E+01  0.46027376561E+02  0.51100000000E-03 0.  1.
         22    1    1    0    0    0  0.22969332095E+02  0.24060483418E+01 -0.23009707023E+02  0.32601010764E+02  0.00000000000E+00 0.  1.
</event>
<event>
 5    1  0.1094625E-009  0.9118800E+02  0.7818608E-02  0.1130116E+00
         25   -1    0    0    0    0  0.00000000000E+00  0.00000000000E+00  0.99999998245E-14  0.12500000000E+03  0.12500000000E+03 0.  0.
        -11    1    3    3    0    0  0.32900516781E+02  0.30631192663E+02 -0.40543148502E+02  0.60534790485E+02  0.51100000000E-03 0.  1.
         23    2    1    0    0    0  0.12174108281E+02  0.86464754383E+01 -0.28035737882E+02  0.93235663890E+02  0.87657948712E+02 0.  0.
         11    1    3    3    0    0 -0.20726408499E+02 -0.21984717225E+02  0.12507410620E+02  0.32700873404E+02  0.51100000000E-03 0. -1.
         22    1    1    0    0    0 -0.12174108281E+02 -0.86464754383E+01  0.28035737882E+02  0.31764336110E+02  0.00000000000E+00 0.  1.
</event>
<event>
 5    1  0.1094625E-009  0.9118800E+02  0.7818608E-02  0.1130116E+00
         25   -1    0    0    0    0  0.00000000000E+00  0.00000000000E+00  0.99999998245E-14  0.12500000000E+03  0.12500000000E+03 0.  0.
        -11    1    3    3    0    0 -0.13431383779E+02 -0.21708116624E+02  0.38119951211E+02  0.45877827740E+02  0.51100000000E-03 0.  1.
         23    2    1    0    0    0  0.25761418937E+02 -0.11967234693E+02  0.10923770892E+02  0.94566561444E+02  0.89535693224E+02 0.  0.
         11    1    3    3    0    0  0.39192802715E+02  0.97408819307E+01 -0.27196180319E+02  0.48688733704E+02  0.51100000000E-03 0. -1.
         22    1    1    0    0    0 -0.25761418937E+02  0.11967234693E+02 -0.10923770892E+02  0.30433438556E+02  0.00000000000E+00 0.  1.
</event>
<event>
 5    1  0.1094625E-009  0.9118800E+02  0.7818608E-02  0.1130116E+00
         25   -1    0    0    0    0  0.00000000000E+00  0.00000000000E+00  0.99999998245E-14  0.12500000000E+03  0.12500000000E+03 0.  0.
        -11    1    3    3    0    0 -0.20526188351E+02 -0.15006167370E+02  0.76611175815E+01  0.26555643284E+02  0.51100000000E-03 0. -1.
         23    2    1    0    0    0  0.23820495655E+02  0.15480352218E+02 -0.22960393482E+02  0.88472791143E+02  0.80580380898E+02 0.  0.
         11    1    3    3    0    0  0.44346684006E+02  0.30486519588E+02 -0.30621511064E+02  0.61917147859E+02  0.51100000000E-03 0.  1.
         22    1    1    0    0    0 -0.23820495655E+02 -0.15480352218E+02  0.22960393482E+02  0.36527208857E+02  0.00000000000E+00 0.  1.
</event>
<event>
 5    1  0.1094625E-009  0.9118800E+02  0.7818608E-02  0.1130116E+00
         25   -1    0    0    0    0  0.00000000000E+00  0.00000000000E+00  0.99999998245E-14  0.12500000000E+03  0.12500000000E+03 0.  0.
        -11    1    3    3    0    0 -0.44651966103E+02 -0.33546068793E+02 -0.24439885974E+02  0.60962651148E+02  0.51100000000E-03 0. -1.
         23    2    1    0    0    0 -0.25448971778E+02 -0.15730155330E+02 -0.27789733980E+01  0.94953192442E+02  0.90073848095E+02 0.  0.
         11    1    3    3    0    0  0.19202994325E+02  0.17815913463E+02  0.21660912576E+02  0.33990541294E+02  0.51100000000E-03 0.  1.
         22    1    1    0    0    0  0.25448971778E+02  0.15730155330E+02  0.27789733980E+01  0.30046807558E+02  0.00000000000E+00 0. -1.
</event>
<event>
 5    1  0.1094625E-009  0.9118800E+02  0.7818608E-02  0.1130116E+00
         25   -1    0    0    0    0  0.00000000000E+00  0.00000000000E+00  0.99999998245E-14  0.12500000000E+03  0.12500000000E+03 0.  0.
        -11    1    3    3    0    0  0.92103168097E+01  0.11793535257E+02 -0.13715110128E+02  0.20298316572E+02  0.51100000000E-03 0. -1.
         23    2    1    0    0    0  0.58502100438E+01  0.10599669690E+02  0.44632397966E+02  0.78754687770E+02  0.63746936729E+02 0.  0.
         11    1    3    3    0    0 -0.33601067660E+01 -0.11938655669E+01  0.58347508094E+02  0.58456371197E+02  0.51100000000E-03 0.  1.
         22    1    1    0    0    0 -0.58502100438E+01 -0.10599669690E+02 -0.44632397966E+02  0.46245312230E+02  0.00000000000E+00 0.  1.
</event>
<event>
 5    1  0.1094625E-009  0.9118800E+02  0.7818608E-02  0.1130116E+00
         25   -1    0    0    0    0  0.00000000000E+00  0.00000000000E+00  0.99999998245E-14  0.12500000000E+03  0.12500000000E+03 0.  0.
        -11    1    3    3    0    0  0.10851848297E+02 -0.32168241110E+02  0.15048823550E+00  0.33949683276E+02  0.51100000000E-03 0. -1.
         23    2    1    0    0    0 -0.17505402962E+02  0.22885795448E+02 -0.34428147096E+01  0.95981872230E+02  0.91490262092E+02 0.  0.
         11    1    3    3    0    0 -0.28357251258E+02  0.55054036558E+02 -0.35933029451E+01  0.62032188955E+02  0.51100000000E-03 0.  1.
         22    1    1    0    0    0  0.17505402962E+02 -0.22885795448E+02  0.34428147096E+01  0.29018127770E+02  0.00000000000E+00 0.  1.
</event>
<event>
 5    1  0.1094625E-009  0.9118800E+02  0.7818608E-02  0.1130116E+00
         25   -1    0    0    0    0  0.00000000000E+00  0.00000000000E+00  0.99999998245E-14  0.12500000000E+03  0.12500000000E+03 0.  0.
        -11    1    3    3    0    0 -0.41913686585E+01 -0.23171701601E+02 -0.33254839158E+02  0.40747756429E+02  0.51100000000E-03 0. -1.
         23    2    1    0    0    0  0.26192552017E+02 -0.10156793117E+02  0.99947808725E+01  0.95182121600E+02  0.90390986276E+02 0.  0.
         11    1    3    3    0    0  0.30383920676E+02  0.13014908484E+02  0.43249620031E+02  0.54434365171E+02  0.51100000000E-03 0.  1.
         22    1    1    0    0    0 -0.26192552017E+02  0.10156793117E+02 -0.99947808725E+01  0.29817878400E+02  0.00000000000E+00 0.  1.
</event>
<event>
 5    1  0.1094625E-009  0.9118800E+02  0.7818608E-02  0.1130116E+00
         25   -1    0    0    0    0  0.00000000000E+00  0.00000000000E+00  0.99999998245E-14  0.12500000000E+03  0.12500000000E+03 0.  0.
        -11    1    3    3    0    0  0.10606152194E+02  0.10571913023E+02 -0.24898379064E+02  0.29054863442E+02  0.51100000000E-03 0.  1.
         23    2    1    0    0    0  0.22330810888E+01 -0.22488914120E+02  0.26143717645E+02  0.90442339753E+02  0.83579811787E+02 0.  0.
         11    1    3    3    0    0 -0.83730711052E+01 -0.33060827143E+02  0.51042096709E+02  0.61387476311E+02  0.51100000000E-03 0. -1.
         22    1    1    0    0    0 -0.22330810888E+01  0.22488914120E+02 -0.26143717645E+02  0.34557660247E+02  0.00000000000E+00 0. -1.
</event>
<event>
 5    1  0.1094625E-009  0.9118800E+02  0.7818608E-02  0.1130116E+00
         25   -1    0    0    0    0  0.00000000000E+00  0.00000000000E+00  0.99999998245E-14  0.12500000000E+03  0.12500000000E+03 0.  0.
        -11    1    3    3    0    0 -0.25396206875E+01 -0.19736041005E+02 -0.30172700474E+02  0.36143503455E+02  0.51100000000E-03 0. -1.
         23    2    1    0    0    0  0.21650056321E+02  0.47021264161E+01  0.18773531298E+02  0.95960709221E+02  0.91461343229E+02 0.  0.
         11    1    3    3    0    0  0.24189677009E+02  0.24438167421E+02  0.48946231772E+02  0.59817205766E+02  0.51100000000E-03 0.  1.
         22    1    1    0    0    0 -0.21650056321E+02 -0.47021264161E+01 -0.18773531298E+02  0.29039290779E+02  0.00000000000E+00 0.  1.
</event>
<event>
 5    1  0.1094625E-009  0.9118800E+02  0.7818608E-02  0.1130116E+00
         25   -1    0    0    0    0  0.00000000000E+00  0.00000000000E+00  0.99999998245E-14  0.12500000000E+03  0.12500000000E+03 0.  0.
        -11    1    3    3    0    0  0.34731956307E+02 -0.18731842711E+01  0.23523571366E+01  0.34861887393E+02  0.51100000000E-03 0. -1.
         23    2    1    0    0    0 -0.23330907567E+02 -0.18886766067E+01  0.18540874655E+02  0.95139283662E+02  0.90331727071E+02 0.  0.
         11    1    3    3    0    0 -0.58062863875E+02 -0.15492335649E-01  0.16188517518E+02  0.60277396269E+02  0.51100000000E-03 0.  1.
         22    1    1    0    0    0  0.23330907567E+02  0.18886766067E+01 -0.18540874655E+02  0.29860716338E+02  0.00000000000E+00 0.  1.
</event>
<event>
 5    1  0.1094625E-009  0.9118800E+02  0.7818608E-02  0.1130116E+00
         25   -1    0    0    0    0  0.00000000000E+00  0.00000000000E+00  0.99999998245E-14  0.12500000000E+03  0.12500000000E+03 0.  0.
        -11    1    3    3    0    0  0.29724949641E+02  0.42215223030E+02  0.12292336783E+01  0.51645025921E+02  0.51100000000E-03 0. -1.
         23    2    1    0    0    0  0.36676796273E-01  0.18333599969E+02  0.23046379612E+02  0.95550758138E+02  0.90899337371E+02 0.  0.
         11    1    3    3    0    0 -0.29688272845E+02 -0.23881623062E+02  0.21817145934E+02  0.43905732217E+02  0.51100000000E-03 0.  1.
         22    1    1    0    0    0 -0.36676796273E-01 -0.18333599969E+02 -0.23046379612E+02  0.29449241862E+02  0.00000000000E+00 0. -1.
</event>
<event>
 5    1  0.1094625E-009  0.9118800E+02  0.7818608E-02  0.1130116E+00
         25   -1    0    0    0    0  0.00000000000E+00  0.00000000000E+00  0.99999998245E-14  0.12500000000E+03  0.12500000000E+03 0.  0.
        -11    1    3    3    0    0 -0.27067452476E+02  0.47406946936E+02  0.20889643824E+02  0.58450344915E+02  0.51100000000E-03 0.  1.
         23    2    1    0    0    0 -0.53837638473E+01  0.18224171908E+02  0.23355246561E+02  0.94890651006E+02  0.89987014350E+02 0.  0.
         11    1    3    3    0    0  0.21683688629E+02 -0.29182775029E+02  0.24656027369E+01  0.36440306091E+02  0.51100000000E-03 0. -1.
         22    1    1    0    0    0  0.53837638473E+01 -0.18224171908E+02 -0.23355246561E+02  0.30109348994E+02  0.00000000000E+00 0.  1.
</event>
<event>
 5    1  0.1094625E-009  0.9118800E+02  0.7818608E-02  0.1130116E+00
         25   -1    0    0    0    0  0.00000000000E+00  0.00000000000E+00  0.99999998245E-14  0.12500000000E+03  0.12500000000E+03 0.  0.
        -11    1    3    3    0    0  0.54367730186E+01  0.11640210138E+02  0.57077514796E+02  0.58505518444E+02  0.51100000000E-03 0.  1.
         23    2    1    0    0    0 -0.77677857122E+01 -0.61515446552E+01  0.29496260244E+02  0.93883937188E+02  0.88577560911E+02 0.  0.
         11    1    3    3    0    0 -0.13204558731E+02 -0.17791754794E+02 -0.27581254551E+02  0.35378418744E+02  0.51100000000E-03 0. -1.
         22    1    1    0    0    0  0.77677857122E+01  0.61515446552E+01 -0.29496260244E+02  0.31116062812E+02  0.00000000000E+00 0.  1.
</event>
<event>
 5    1  0.1094625E-009  0.9118800E+02  0.7818608E-02  0.1130116E+00
         25   -1    0    0    0    0  0.00000000000E+00  0.00000000000E+00  0.99999998245E-14  0.12500000000E+03  0.12500000000E+03 0.  0.
        -11    1    3    3    0    0 -0.12400197294E+01  0.17206951518E+02  0.33632911564E+02  0.37799332931E+02  0.51100000000E-03 0. -1.
         23    2    1    0    0    0 -0.13226879905E+02  0.80748522788E+01 -0.23480132206E+02  0.96866919832E+02  0.92691585152E+02 0.  0.
         11    1    3    3    0    0 -0.11986860176E+02 -0.91320992391E+01 -0.57113043770E+02  0.59067586901E+02  0.51100000000E-03 0.  1.
         22    1    1    0    0    0  0.13226879905E+02 -0.80748522788E+01  0.23480132206E+02  0.28133080168E+02  0.00000000000E+00 0.  1.
</event>
<event>
 5    1  0.1094625E-009  0.9118800E+02  0.7818608E-02  0.1130116E+00
         25   -1    0    0    0    0  0.00000000000E+00  0.00000000000E+00  0.99999998245E-14  0.12500000000E+03  0.12500000000E+03 0.  0.
        -11    1    3    3    0    0 -0.25592115906E+02  0.29995215175E+02 -0.62977581745E+01  0.39929075725E+02  0.51100000000E-03 0. -1.
         23    2    1    0    0    0  0.13226876384E+02  0.12479572983E+02  0.25924780117E+02  0.93333231538E+02  0.87796969677E+02 0.  0.
         11    1    3    3    0    0  0.38818992291E+02 -0.17515642192E+02  0.32222538292E+02  0.53404155813E+02  0.51100000000E-03 0.  1.
         22    1    1    0    0    0 -0.13226876384E+02 -0.12479572983E+02 -0.25924780117E+02  0.31666768462E+02  0.00000000000E+00 0.  1.
</event>
<event>
 5    1  0.1094625E-009  0.9118800E+02  0.7818608E-02  0.1130116E+00
         25   -1    0    0    0    0  0.00000000000E+00  0.00000000000E+00  0.99999998245E-14  0.12500000000E+03  0.12500000000E+03 0.  0.
        -11    1    3    3    0    0 -0.15841034979E+02  0.22214936589E+02 -0.52905865472E+02  0.59527072820E+02  0.51100000000E-03 0.  1.
         23    2    1    0    0    0 -0.25128053106E+01 -0.16663843204E+01 -0.28977337445E+02  0.95866220419E+02  0.91332114313E+02 0.  0.
         11    1    3    3    0    0  0.13328229669E+02 -0.23881320909E+02  0.23928528027E+02  0.36339147600E+02  0.51100000000E-03 0. -1.
         22    1    1    0    0    0  0.25128053106E+01  0.16663843204E+01  0.28977337445E+02  0.29133779581E+02  0.00000000000E+00 0.  1.
</event>
<event>
 5    1  0.1094625E-009  0.9118800E+02  0.7818608E-02  0.1130116E+00
         25   -1    0    0    0    0  0.00000000000E+00  0.00000000000E+00  0.99999998245E-14  0.12500000000E+03  0.12500000000E+03 0.  0.
        -11    1    3    3    0    0  0.31267490956E+02 -0.43342143981E+01 -0.24299431448E+02  0.39835960816E+02  0.51100000000E-03 0. -1.
         23    2    1    0    0    0 -0.80603334721E+01 -0.25401242856E+02  0.10437671305E+02  0.96379428787E+02  0.92031827086E+02 0.  0.
         11    1    3    3    0    0 -0.39327824428E+02 -0.21067028458E+02  0.34737102753E+02  0.56543467971E+02  0.51100000000E-03 0.  1.
         22    1    1    0    0    0  0.80603334721E+01  0.25401242856E+02 -0.10437671305E+02  0.28620571213E+02  0.00000000000E+00 0.  1.
</event>
<event>
 5    1  0.1094625E-009  0.9118800E+02  0.7818608E-02  0.1130116E+00
         25   -1    0    0    0    0  0.00000000000E+00  0.00000000000E+00  0.99999998245E-14  0.12500000000E+03  0.12500000000E+03 0.  0.
        -11    1    3    3    0    0 -0.29694058772E+02  0.26280732506E+02 -0.11227796088E+02  0.41212588278E+02  0.51100000000E-03 0. -1.
         23    2    1    0    0    0 -0.29200186074E+02 -0.12325373130E+02  0.16993969398E+02  0.89036675829E+02  0.81450407962E+02 0.  0.
         11    1    3    3    0    0  0.49387269740E+00 -0.38606105636E+02  0.28221765486E+02  0.47824087550E+02  0.51100000000E-03 0.  1.
         22    1    1    0    0    0  0.29200186074E+02  0.12325373130E+02 -0.16993969398E+02  0.35963324171E+02  0.00000000000E+00 0. -1.
</event>
<event>
 5    1  0.1094625E-009  0.9118800E+02  0.7818608E-02  0.1130116E+00
         25   -1    0    0    0    0  0.00000000000E+00  0.00000000000E+00  0.99999998245E-14  0.12500000000E+03  0.12500000000E+03 0.  0.
        -11    1    3    3    0    0  0.32633019564E+02  0.17210835154E+01 -0.68253737956E+01  0.33383556163E+02  0.51100000000E-03 0.  1.
         23    2    1    0    0    0 -0.23708687712E+02 -0.19956327870E+02 -0.27311912875E+01  0.93890253923E+02  0.88586474593E+02 0.  0.
         11    1    3    3    0    0 -0.56341707277E+02 -0.21677411386E+02  0.40941825081E+01  0.60506697761E+02  0.51100000000E-03 0. -1.
         22    1    1    0    0    0  0.23708687712E+02  0.19956327870E+02  0.27311912875E+01  0.31109746077E+02  0.00000000000E+00 0. -1.
</event>
<event>
 5    1  0.1094625E-009  0.9118800E+02  0.7818608E-02  0.1130116E+00
         25   -1    0    0    0    0  0.00000000000E+00  0.00000000000E+00  0.99999998245E-14  0.12500000000E+03  0.12500000000E+03 0.  0.
        -11    1    3    3    0    0 -0.11731303332E+02 -0.13158549514E+02 -0.27744799572E+02  0.32871641375E+02  0.51100000000E-03 0.  1.
         23    2    1    0    0    0  0.22609914366E+02  0.31952125586E+01  0.20504277250E+02  0.94310539326E+02  0.89177546677E+02 0.  0.
         11    1    3    3    0    0  0.34341217699E+02  0.16353762072E+02  0.48249076821E+02  0.61438897950E+02  0.51100000000E-03 0. -1.
         22    1    1    0    0    0 -0.22609914366E+02 -0.31952125586E+01 -0.20504277250E+02  0.30689460674E+02  0.00000000000E+00 0.  1.
</event>
<event>
 5    1  0.1094625E-009  0.9118800E+02  0.7818608E-02  0.1130116E+00
         25   -1    0    0    0    0  0.00000000000E+00  0.00000000000E+00  0.99999998245E-14  0.12500000000E+03  0.12500000000E+03 0.  0.
        -11    1    3    3    0    0  0.22834492519E+02  0.52752267078E+02 -0.18382820529E+02  0.60350176647E+02  0.51100000000E-03 0.  1.
         23    2    1    0    0    0  0.21082367699E+02  0.19670053861E+02 -0.77557242848E+01  0.95141525393E+02  0.90334829098E+02 0.  0.
         11    1    3    3    0    0 -0.17521248206E+01 -0.33082213217E+02  0.10627096244E+02  0.34791348746E+02  0.51100000000E-03 0. -1.
         22    1    1    0    0    0 -0.21082367699E+02 -0.19670053861E+02  0.77557242848E+01  0.29858474607E+02  0.00000000000E+00 0.  1.
</event>
<event>
 5    1  0.1094625E-009  0.9118800E+02  0.7818608E-02  0.1130116E+00
         25   -1    0    0    0    0  0.00000000000E+00  0.00000000000E+00  0.99999998245E-14  0.12500000000E+03  0.12500000000E+03 0.  0.
        -11    1    3    3    0    0 -0.39638427814E+02 -0.30058955584E+02 -0.30705138928E+02  0.58459826609E+02  0.51100000000E-03 0. -1.
         23    2    1    0    0    0 -0.13149925348E+02 -0.32631681694E+01 -0.24995941847E+02  0.96568223553E+02  0.92287896759E+02 0.  0.
         11    1    3    3    0    0  0.26488502466E+02  0.26795787415E+02  0.57091970811E+01  0.38108396944E+02  0.51100000000E-03 0.  1.
         22    1    1    0    0    0  0.13149925348E+02  0.32631681694E+01  0.24995941847E+02  0.28431776447E+02  0.00000000000E+00 0. -1.
</event>
<event>
 5    1  0.1094625E-009  0.9118800E+02  0.7818608E-02  0.1130116E+00
         25   -1    0    0    0    0  0.00000000000E+00  0.00000000000E+00  0.99999998245E-14  0.12500000000E+03  0.12500000000E+03 0.  0.
        -11    1    3    3    0    0  0.19383554721E+02  0.71101154266E+01 -0.27373777043E+02  0.34287018023E+02  0.51100000000E-03 0.  1.
         23    2    1    0    0    0 -0.17322984485E+02 -0.25255345904E+02  0.63551159306E+01  0.93722119850E+02  0.88348910364E+02 0.  0.
         11    1    3    3    0    0 -0.36706539207E+02 -0.32365461330E+02  0.33728892974E+02  0.59435101827E+02  0.51100000000E-03 0. -1.
         22    1    1    0    0    0  0.17322984485E+02  0.25255345904E+02 -0.63551159306E+01  0.31277880150E+02  0.00000000000E+00 0. -1.
</event>
<event>
 5    1  0.1094625E-009  0.9118800E+02  0.7818608E-02  0.1130116E+00
         25   -1    0    0    0    0  0.00000000000E+00  0.00000000000E+00  0.99999998245E-14  0.12500000000E+03  0.12500000000E+03 0.  0.
        -11    1    3    3    0    0  0.57553927566E+01 -0.46899801865E+02 -0.13195265584E+02  0.49059463866E+02  0.51100000000E-03 0.  1.
         23    2    1    0    0    0  0.20516673619E+02 -0.29520992826E+01 -0.20330596719E+02  0.95965848566E+02  0.91468366889E+02 0.  0.
         11    1    3    3    0    0  0.14761280863E+02  0.43947702582E+02 -0.71353311346E+01  0.46906384700E+02  0.51100000000E-03 0. -1.
         22    1    1    0    0    0 -0.20516673619E+02  0.29520992826E+01  0.20330596719E+02  0.29034151434E+02  0.00000000000E+00 0. -1.
</event>
<event>
 5    1  0.1094625E-009  0.9118800E+02  0.7818608E-02  0.1130116E+00
         25   -1    0    0    0    0  0.00000000000E+00  0.00000000000E+00  0.99999998245E-14  0.12500000000E+03  0.12500000000E+03 0.  0.
        -11    1    3    3    0    0  0.39787256937E+02  0.94351213549E+01  0.13766050251E+02  0.43145700474E+02  0.51100000000E-03 0.  1.
         23    2    1    0    0    0  0.58097124186E+01 -0.42186751626E+00 -0.27147801708E+02  0.97234304112E+02  0.93185707209E+02 0.  0.
         11    1    3    3    0    0 -0.33977544519E+02 -0.98569888712E+01 -0.40913851959E+02  0.54088603638E+02  0.51100000000E-03 0. -1.
         22    1    1    0    0    0 -0.58097124186E+01  0.42186751626E+00  0.27147801708E+02  0.27765695888E+02  0.00000000000E+00 0.  1.
</event>
<event>
 5    1  0.1094625E-009  0.9118800E+02  0.7818608E-02  0.1130116E+00
         25   -1    0    0    0    0  0.00000000000E+00  0.00000000000E+00  0.99999998245E-14  0.12500000000E+03  0.12500000000E+03 0.  0.
        -11    1    3    3    0    0 -0.35233949127E+02  0.29666603421E+02  0.23998386729E+02  0.51937087861E+02  0.51100000000E-03 0.  1.
         23    2    1    0    0    0 -0.12649923929E+02  0.41172447846E+02  0.10443468834E+02  0.80680060037E+02  0.67416726480E+02 0.  0.
         11    1    3    3    0    0  0.22584025198E+02  0.11505844425E+02 -0.13554917895E+02  0.28742972176E+02  0.51100000000E-03 0. -1.
         22    1    1    0    0    0  0.12649923929E+02 -0.41172447846E+02 -0.10443468834E+02  0.44319939963E+02  0.00000000000E+00 0.  1.
</event>
<event>
 5    1  0.1094625E-009  0.9118800E+02  0.7818608E-02  0.1130116E+00
         25   -1    0    0    0    0  0.00000000000E+00  0.00000000000E+00  0.99999998245E-14  0.12500000000E+03  0.12500000000E+03 0.  0.
        -11    1    3    3    0    0  0.25648174078E+02 -0.26547313390E+02  0.44249419479E+02  0.57624645823E+02  0.51100000000E-03 0.  1.
         23    2    1    0    0    0  0.25019871994E+02 -0.52027486948E+01  0.10916360664E+02  0.97210982048E+02  0.93154417566E+02 0.  0.
         11    1    3    3    0    0 -0.62830208392E+00  0.21344564695E+02 -0.33333058815E+02  0.39586336225E+02  0.51100000000E-03 0. -1.
         22    1    1    0    0    0 -0.25019871994E+02  0.52027486948E+01 -0.10916360664E+02  0.27789017952E+02  0.00000000000E+00 0.  1.
</event>
<event>
 5    1  0.1094625E-009  0.9118800E+02  0.7818608E-02  0.1130116E+00
         25   -1    0    0    0    0  0.00000000000E+00  0.00000000000E+00  0.99999998245E-14  0.12500000000E+03  0.12500000000E+03 0.  0.
        -11    1    3    3    0    0 -0.24076452929E+02  0.18220605462E+02 -0.33062832091E+02  0.44775181911E+02  0.51100000000E-03 0.  1.
         23    2    1    0    0    0  0.14794610408E+02 -0.87962401023E+01 -0.27662190108E+02  0.92420081359E+02  0.86487110830E+02 0.  0.
         11    1    3    3    0    0  0.38871063338E+02 -0.27016845564E+02  0.54006419828E+01  0.47644899447E+02  0.51100000000E-03 0. -1.
         22    1    1    0    0    0 -0.14794610408E+02  0.87962401023E+01  0.27662190108E+02  0.32579918641E+02  0.00000000000E+00 0. -1.
</event>
<event>
 5    1  0.1094625E-009  0.9118800E+02  0.7818608E-02  0.1130116E+00
         25   -1    0    0    0    0  0.00000000000E+00  0.00000000000E+00  0.99999998245E-14  0.12500000000E+03  0.12500000000E+03 0.  0.
        -11    1    3    3    0    0  0.16925322719E+01  0.28894163203E+02 -0.19476110631E+02  0.34886332829E+02  0.51100000000E-03 0.  1.
         23    2    1    0    0    0 -0.15489770499E+02 -0.21989337810E+02  0.10184995417E+02  0.96238948227E+02  0.91840824565E+02 0.  0.
         11    1    3    3    0    0 -0.17182302771E+02 -0.50883501013E+02  0.29661106048E+02  0.61352615398E+02  0.51100000000E-03 0. -1.
         22    1    1    0    0    0  0.15489770499E+02  0.21989337810E+02 -0.10184995417E+02  0.28761051773E+02  0.00000000000E+00 0. -1.
</event>
<event>
 5    1  0.1094625E-009  0.9118800E+02  0.7818608E-02  0.1130116E+00
         25   -1    0    0    0    0  0.00000000000E+00  0.00000000000E+00  0.99999998245E-14  0.12500000000E+03  0.12500000000E+03 0.  0.
        -11    1    3    3    0    0  0.66177981133E+01  0.57720142458E+02 -0.15188499086E+02  0.60050816830E+02  0.51100000000E-03 0. -1.
         23    2    1    0    0    0 -0.71606110257E+01  0.38403392673E+02 -0.12767745188E+02  0.83901213689E+02  0.73145768313E+02 0.  0.
         11    1    3    3    0    0 -0.13778409139E+02 -0.19316749784E+02  0.24207538972E+01  0.23850396859E+02  0.51100000000E-03 0.  1.
         22    1    1    0    0    0  0.71606110257E+01 -0.38403392673E+02  0.12767745188E+02  0.41098786311E+02  0.00000000000E+00 0. -1.
</event>
<event>
 5    1  0.1094625E-009  0.9118800E+02  0.7818608E-02  0.1130116E+00
         25   -1    0    0    0    0  0.00000000000E+00  0.00000000000E+00  0.99999998245E-14  0.12500000000E+03  0.12500000000E+03 0.  0.
        -11    1    3    3    0    0 -0.11397840688E+02  0.47422258938E+02 -0.30217853310E+02  0.57375082344E+02  0.51100000000E-03 0. -1.
         23    2    1    0    0    0 -0.72726168237E+01  0.10473877848E+02 -0.27542308894E+02  0.94649186965E+02  0.89650971782E+02 0.  0.
         11    1    3    3    0    0  0.41252238647E+01 -0.36948381090E+02  0.26755444154E+01  0.37274104621E+02  0.51100000000E-03 0.  1.
         22    1    1    0    0    0  0.72726168237E+01 -0.10473877848E+02  0.27542308894E+02  0.30350813035E+02  0.00000000000E+00 0. -1.
</event>
<event>
 5    1  0.1094625E-009  0.9118800E+02  0.7818608E-02  0.1130116E+00
         25   -1    0    0    0    0  0.00000000000E+00  0.00000000000E+00  0.99999998245E-14  0.12500000000E+03  0.12500000000E+03 0.  0.
        -11    1    3    3    0    0 -0.64903502282E+01  0.33738209331E+02  0.11914015151E+02  0.36363926799E+02  0.51100000000E-03 0. -1.
         23    2    1    0    0    0  0.19190876073E+02 -0.46802955593E+01 -0.23292906849E+02  0.94458971850E+02  0.89385362126E+02 0.  0.
         11    1    3    3    0    0  0.25681226302E+02 -0.38418504891E+02 -0.35206922001E+02  0.58095045050E+02  0.51100000000E-03 0.  1.
         22    1    1    0    0    0 -0.19190876073E+02  0.46802955593E+01  0.23292906849E+02  0.30541028150E+02  0.00000000000E+00 0.  1.
</event>
<event>
 5    1  0.1094625E-009  0.9118800E+02  0.7818608E-02  0.1130116E+00
         25   -1    0    0    0    0  0.00000000000E+00  0.00000000000E+00  0.99999998245E-14  0.12500000000E+03  0.12500000000E+03 0.  0.
        -11    1    3    3    0    0 -0.17462271432E+02 -0.30624646161E+02  0.56512886818E+01  0.35703458377E+02  0.51100000000E-03 0. -1.
         23    2    1    0    0    0  0.23890962153E+02  0.14444524605E+02  0.29002206228E+01  0.96931625566E+02  0.92778803568E+02 0.  0.
         11    1    3    3    0    0  0.41353233585E+02  0.45069170767E+02 -0.27510680590E+01  0.61228167189E+02  0.51100000000E-03 0.  1.
         22    1    1    0    0    0 -0.23890962153E+02 -0.14444524605E+02 -0.29002206228E+01  0.28068374434E+02  0.00000000000E+00 0.  1.
</event>
<event>
 5    1  0.1094625E-009  0.9118800E+02  0.7818608E-02  0.1130116E+00
         25   -1    0    0    0    0  0.00000000000E+00  0.00000000000E+00  0.99999998245E-14  0.12500000000E+03  0.12500000000E+03 0.  0.
        -11    1    3    3    0    0 -0.11294773438E+02  0.35412947165E+02  0.49600335201E+02  0.61982594219E+02  0.51100000000E-03 0. -1.
         23    2    1    0    0    0 -0.21461438801E+00  0.18501705312E+02  0.26480555093E+02  0.92695527294E+02  0.86884301364E+02 0.  0.
         11    1    3    3    0    0  0.11080159050E+02 -0.16911241853E+02 -0.23119780108E+02  0.30712933075E+02  0.51100000000E-03 0.  1.
         22    1    1    0    0    0  0.21461438801E+00 -0.18501705312E+02 -0.26480555093E+02  0.32304472706E+02  0.00000000000E+00 0. -1.
</event>
<event>
 5    1  0.1094625E-009  0.9118800E+02  0.7818608E-02  0.1130116E+00
         25   -1    0    0    0    0  0.00000000000E+00  0.00000000000E+00  0.99999998245E-14  0.12500000000E+03  0.12500000000E+03 0.  0.
        -11    1    3    3    0    0  0.25557021871E+02 -0.29125885119E+01 -0.13112691640E+01  0.25755853040E+02  0.51100000000E-03 0. -1.
         23    2    1    0    0    0  0.29569098348E+01  0.36459103179E+02 -0.28461942156E+02  0.78652490124E+02  0.63546223579E+02 0.  0.
         11    1    3    3    0    0 -0.22600112036E+02  0.39371691691E+02 -0.27150672992E+02  0.52896637084E+02  0.51100000000E-03 0.  1.
         22    1    1    0    0    0 -0.29569098348E+01 -0.36459103179E+02  0.28461942156E+02  0.46347509876E+02  0.00000000000E+00 0.  1.
</event>
<event>
 5    1  0.1094625E-009  0.9118800E+02  0.7818608E-02  0.1130116E+00
         25   -1    0    0    0    0  0.00000000000E+00  0.00000000000E+00  0.99999998245E-14  0.12500000000E+03  0.12500000000E+03 0.  0.
        -11    1    3    3    0    0  0.22543480028E+02 -0.12383854275E+02  0.12995494743E+02  0.28817550596E+02  0.51100000000E-03 0. -1.
         23    2    1    0    0    0 -0.33408354958E+02 -0.57199903386E+01 -0.99767589740E+01  0.89667689149E+02  0.82413119631E+02 0.  0.
         11    1    3    3    0    0 -0.55951834986E+02  0.66638639364E+01 -0.22972253717E+02  0.60850138553E+02  0.51100000000E-03 0.  1.
         22    1    1    0    0    0  0.33408354958E+02  0.57199903386E+01  0.99767589740E+01  0.35332310851E+02  0.00000000000E+00 0.  1.
</event>
<event>
 5    1  0.1094625E-009  0.9118800E+02  0.7818608E-02  0.1130116E+00
         25   -1    0    0    0    0  0.00000000000E+00  0.00000000000E+00  0.99999998245E-14  0.12500000000E+03  0.12500000000E+03 0.  0.
        -11    1    3    3    0    0 -0.24074398968E+02 -0.28183418647E+02  0.45963530602E+01  0.37349809022E+02  0.51100000000E-03 0. -1.
         23    2    1    0    0    0 -0.83207814632E+01  0.27871786295E+02 -0.13628195261E+01  0.95880776925E+02  0.91352034632E+02 0.  0.
         11    1    3    3    0    0  0.15753617505E+02  0.56055204941E+02 -0.59591725863E+01  0.58530967903E+02  0.51100000000E-03 0.  1.
         22    1    1    0    0    0  0.83207814632E+01 -0.27871786295E+02  0.13628195261E+01  0.29119223075E+02  0.00000000000E+00 0.  1.
</event>
<event>
 5    1  0.1094625E-009  0.9118800E+02  0.7818608E-02  0.1130116E+00
         25   -1    0    0    0    0  0.00000000000E+00  0.00000000000E+00  0.99999998245E-14  0.12500000000E+03  0.12500000000E+03 0.  0.
        -11    1    3    3    0    0  0.35056836888E+02  0.37786721907E+02  0.21425093461E+02  0.55819824392E+02  0.51100000000E-03 0.  1.
         23    2    1    0    0    0  0.19817413489E+01  0.28873921082E+02  0.31623411405E+00  0.96056423485E+02  0.91592062272E+02 0.  0.
         11    1    3    3    0    0 -0.33075095539E+02 -0.89128008242E+01 -0.21108859347E+02  0.40236599094E+02  0.51100000000E-03 0. -1.
         22    1    1    0    0    0 -0.19817413489E+01 -0.28873921082E+02 -0.31623411405E+00  0.28943576515E+02  0.00000000000E+00 0.  1.
</event>
<event>
 5    1  0.1094625E-009  0.9118800E+02  0.7818608E-02  0.1130116E+00
         25   -1    0    0    0    0  0.00000000000E+00  0.00000000000E+00  0.99999998245E-14  0.12500000000E+03  0.12500000000E+03 0.  0.
        -11    1    3    3    0    0  0.34122563087E+02  0.27020356849E+02 -0.15078341289E+02  0.46063058650E+02  0.51100000000E-03 0.  1.
         23    2    1    0    0    0  0.77572963391E+00  0.17976004298E+02  0.21890118913E+02  0.96664231209E+02  0.92417843527E+02 0.  0.
         11    1    3    3    0    0 -0.33346833453E+02 -0.90443525511E+01  0.36968460202E+02  0.50601172559E+02  0.51100000000E-03 0. -1.
         22    1    1    0    0    0 -0.77572963391E+00 -0.17976004298E+02 -0.21890118913E+02  0.28335768791E+02  0.00000000000E+00 0. -1.
</event>
<event>
 5    1  0.1094625E-009  0.9118800E+02  0.7818608E-02  0.1130116E+00
         25   -1    0    0    0    0  0.00000000000E+00  0.00000000000E+00  0.99999998245E-14  0.12500000000E+03  0.12500000000E+03 0.  0.
        -11    1    3    3    0    0 -0.32554739357E+02  0.16128680541E+02  0.51291125331E+01  0.36691323037E+02  0.51100000000E-03 0.  1.
         23    2    1    0    0    0  0.53038978726E+01 -0.21965921959E+02 -0.18911249662E+02  0.95533605176E+02  0.90875746456E+02 0.  0.
         11    1    3    3    0    0  0.37858637230E+02 -0.38094602500E+02 -0.24040362195E+02  0.58842282138E+02  0.51100000000E-03 0. -1.
         22    1    1    0    0    0 -0.53038978726E+01  0.21965921959E+02  0.18911249662E+02  0.29466394824E+02  0.00000000000E+00 0. -1.
</event>
<event>
 5    1  0.1094625E-009  0.9118800E+02  0.7818608E-02  0.1130116E+00
         25   -1    0    0    0    0  0.00000000000E+00  0.00000000000E+00  0.99999998245E-14  0.12500000000E+03  0.12500000000E+03 0.  0.
        -11    1    3    3    0    0  0.11910023925E+02  0.15747836307E+02 -0.35857679495E+02  0.40934291215E+02  0.51100000000E-03 0.  1.
         23    2    1    0    0    0 -0.24185686675E+02 -0.96055265822E+01  0.17748890370E+01  0.98916215536E+02  0.95415165902E+02 0.  0.
         11    1    3    3    0    0 -0.36095710600E+02 -0.25353362889E+02  0.37632568532E+02  0.57981924322E+02  0.51100000000E-03 0. -1.
         22    1    1    0    0    0  0.24185686675E+02  0.96055265822E+01 -0.17748890370E+01  0.26083784464E+02  0.00000000000E+00 0. -1.
</event>
<event>
 5    1  0.1094625E-009  0.9118800E+02  0.7818608E-02  0.1130116E+00
         25   -1    0    0    0    0  0.00000000000E+00  0.00000000000E+00  0.99999998245E-14  0.12500000000E+03  0.12500000000E+03 0.  0.
        -11    1    3    3    0    0  0.28715551762E+02 -0.15193437892E+02 -0.46748144398E+02  0.56928134282E+02  0.51100000000E-03 0.  1.
         23    2    1    0    0    0  0.40212115934E+01  0.81819818614E+01 -0.27558853066E+02  0.95972334710E+02  0.91477230378E+02 0.  0.
         11    1    3    3    0    0 -0.24694340169E+02  0.23375419753E+02  0.19189291332E+02  0.39044200428E+02  0.51100000000E-03 0. -1.
         22    1    1    0    0    0 -0.40212115934E+01 -0.81819818614E+01  0.27558853066E+02  0.29027665290E+02  0.00000000000E+00 0.  1.
</event>
<event>
 5    1  0.1094625E-009  0.9118800E+02  0.7818608E-02  0.1130116E+00
         25   -1    0    0    0    0  0.00000000000E+00  0.00000000000E+00  0.99999998245E-14  0.12500000000E+03  0.12500000000E+03 0.  0.
        -11    1    3    3    0    0  0.11661203426E+01  0.46999263255E+02  0.32612966609E+02  0.57217970729E+02  0.51100000000E-03 0.  1.
         23    2    1    0    0    0  0.17323123648E+02  0.18122072308E+02  0.21032996273E+02  0.92275589388E+02  0.86278023546E+02 0.  0.
         11    1    3    3    0    0  0.16157003306E+02 -0.28877190947E+02 -0.11579970335E+02  0.35057618659E+02  0.51100000000E-03 0. -1.
         22    1    1    0    0    0 -0.17323123648E+02 -0.18122072308E+02 -0.21032996273E+02  0.32724410612E+02  0.00000000000E+00 0.  1.
</event>
<event>
 5    1  0.1094625E-009  0.9118800E+02  0.7818608E-02  0.1130116E+00
         25   -1    0    0    0    0  0.00000000000E+00  0.00000000000E+00  0.99999998245E-14  0.12500000000E+03  0.12500000000E+03 0.  0.
        -11    1    3    3    0    0 -0.32553359560E+02  0.49024701877E+00 -0.34754576812E+02  0.47621866516E+02  0.51100000000E-03 0.  1.
         23    2    1    0    0    0  0.14749319244E+02  0.14523908852E+01 -0.25011652981E+02  0.95927080602E+02  0.91415371522E+02 0.  0.
         11    1    3    3    0    0  0.47302678805E+02  0.96214386641E+00  0.97429238311E+01  0.48305214087E+02  0.51100000000E-03 0. -1.
         22    1    1    0    0    0 -0.14749319244E+02 -0.14523908852E+01  0.25011652981E+02  0.29072919398E+02  0.00000000000E+00 0.  1.
</event>
<event>
 5    1  0.1094625E-009  0.9118800E+02  0.7818608E-02  0.1130116E+00
         25   -1    0    0    0    0  0.00000000000E+00  0.00000000000E+00  0.99999998245E-14  0.12500000000E+03  0.12500000000E+03 0.  0.
        -11    1    3    3    0    0 -0.16900262823E+02 -0.11996126180E+02 -0.23443566880E+02  0.31291001185E+02  0.51100000000E-03 0.  1.
         23    2    1    0    0    0  0.21488884653E+02  0.13275345560E+02  0.18640063202E+02  0.93607980002E+02  0.88187272328E+02 0.  0.
         11    1    3    3    0    0  0.38389147476E+02  0.25271471739E+02  0.42083630082E+02  0.62316978818E+02  0.51100000000E-03 0. -1.
         22    1    1    0    0    0 -0.21488884653E+02 -0.13275345560E+02 -0.18640063202E+02  0.31392019998E+02  0.00000000000E+00 0. -1.
</event>
<event>
 5    1  0.1094625E-009  0.9118800E+02  0.7818608E-02  0.1130116E+00
         25   -1    0    0    0    0  0.00000000000E+00  0.00000000000E+00  0.99999998245E-14  0.12500000000E+03  0.12500000000E+03 0.  0.
        -11    1    3    3    0    0 -0.91904377718E+01 -0.15707494036E+02  0.42372209088E+02  0.46115004267E+02  0.51100000000E-03 0.  1.
         23    2    1    0    0    0 -0.21237106745E+02 -0.18482549212E+02 -0.61460934216E+01  0.96183445857E+02  0.91765251944E+02 0.  0.
         11    1    3    3    0    0 -0.12046668974E+02 -0.27750551760E+01 -0.48518302509E+02  0.50068441590E+02  0.51100000000E-03 0. -1.
         22    1    1    0    0    0  0.21237106745E+02  0.18482549212E+02  0.61460934216E+01  0.28816554143E+02  0.00000000000E+00 0. -1.
</event>
<event>
 5    1  0.1094625E-009  0.9118800E+02  0.7818608E-02  0.1130116E+00
         25   -1    0    0    0    0  0.00000000000E+00  0.00000000000E+00  0.99999998245E-14  0.12500000000E+03  0.12500000000E+03 0.  0.
        -11    1    3    3    0    0 -0.32494840737E+02 -0.52252732202E+01  0.26367262296E+02  0.42171680972E+02  0.51100000000E-03 0.  1.
         23    2    1    0    0    0 -0.82320265857E+01  0.26119043412E+02 -0.98826370872E+01  0.95885790304E+02  0.91358894345E+02 0.  0.
         11    1    3    3    0    0  0.24262814152E+02  0.31344316632E+02 -0.36249899384E+02  0.53714109331E+02  0.51100000000E-03 0. -1.
         22    1    1    0    0    0  0.82320265857E+01 -0.26119043412E+02  0.98826370872E+01  0.29114209696E+02  0.00000000000E+00 0. -1.
</event>
<event>
 5    1  0.1094625E-009  0.9118800E+02  0.7818608E-02  0.1130116E+00
         25   -1    0    0    0    0  0.00000000000E+00  0.00000000000E+00  0.99999998245E-14  0.12500000000E+03  0.12500000000E+03 0.  0.
        -11    1    3    3    0    0  0.25066708343E+02  0.41427464533E+01 -0.54249907065E+02  0.59904546006E+02  0.51100000000E-03 0.  1.
         23    2    1    0    0    0  0.19885460392E+02 -0.72477900158E+01 -0.22119604088E+02  0.94385642582E+02  0.89282756708E+02 0.  0.
         11    1    3    3    0    0 -0.51812479503E+01 -0.11390536469E+02  0.32130302978E+02  0.34481096576E+02  0.51100000000E-03 0. -1.
         22    1    1    0    0    0 -0.19885460392E+02  0.72477900158E+01  0.22119604088E+02  0.30614357418E+02  0.00000000000E+00 0.  1.
</event>
<event>
 5    1  0.1094625E-009  0.9118800E+02  0.7818608E-02  0.1130116E+00
         25   -1    0    0    0    0  0.00000000000E+00  0.00000000000E+00  0.99999998245E-14  0.12500000000E+03  0.12500000000E+03 0.  0.
        -11    1    3    3    0    0 -0.12597734541E+02 -0.48600757718E+02  0.15581638157E+02  0.52569230680E+02  0.51100000000E-03 0.  1.
         23    2    1    0    0    0  0.14711229258E+02 -0.24247678611E+02 -0.72860790041E+01  0.95717631046E+02  0.91128523315E+02 0.  0.
         11    1    3    3    0    0  0.27308963799E+02  0.24353079108E+02 -0.22867717161E+02  0.43148400367E+02  0.51100000000E-03 0. -1.
         22    1    1    0    0    0 -0.14711229258E+02  0.24247678611E+02  0.72860790041E+01  0.29282368954E+02  0.00000000000E+00 0.  1.
</event>
<event>
 5    1  0.1094625E-009  0.9118800E+02  0.7818608E-02  0.1130116E+00
         25   -1    0    0    0    0  0.00000000000E+00  0.00000000000E+00  0.99999998245E-14  0.12500000000E+03  0.12500000000E+03 0.  0.
        -11    1    3    3    0    0  0.31200774028E+01  0.29885379196E+02 -0.41858009209E+02  0.51526339943E+02  0.51100000000E-03 0. -1.
         23    2    1    0    0    0 -0.17832724778E+02 -0.23292784927E+01 -0.26637306639E+02  0.92860029305E+02  0.87120648105E+02 0.  0.
         11    1    3    3    0    0 -0.20952802181E+02 -0.32214657689E+02  0.15220702570E+02  0.41333689361E+02  0.51100000000E-03 0.  1.
         22    1    1    0    0    0  0.17832724778E+02  0.23292784927E+01  0.26637306639E+02  0.32139970695E+02  0.00000000000E+00 0. -1.
</event>
<event>
 5    1  0.1094625E-009  0.9118800E+02  0.7818608E-02  0.1130116E+00
         25   -1    0    0    0    0  0.00000000000E+00  0.00000000000E+00  0.99999998245E-14  0.12500000000E+03  0.12500000000E+03 0.  0.
        -11    1    3    3    0    0  0.11470026835E+02 -0.30327971408E+02 -0.23230649542E+02  0.39887472265E+02  0.51100000000E-03 0.  1.
         23    2    1    0    0    0  0.23612975832E+02  0.90234167698E+01  0.14599994325E+02  0.95808314332E+02  0.91252827809E+02 0.  0.
         11    1    3    3    0    0  0.12142948997E+02  0.39351388177E+02  0.37830643867E+02  0.55920842067E+02  0.51100000000E-03 0. -1.
         22    1    1    0    0    0 -0.23612975832E+02 -0.90234167698E+01 -0.14599994325E+02  0.29191685668E+02  0.00000000000E+00 0. -1.
</event>
<event>
 5    1  0.1094625E-009  0.9118800E+02  0.7818608E-02  0.1130116E+00
         25   -1    0    0    0    0  0.00000000000E+00  0.00000000000E+00  0.99999998245E-14  0.12500000000E+03  0.12500000000E+03 0.  0.
        -11    1    3    3    0    0 -0.29231931773E+02  0.19947052531E+02 -0.48019651608E+02  0.59651300746E+02  0.51100000000E-03 0. -1.
         23    2    1    0    0    0 -0.14550655880E+02 -0.38158695890E+01 -0.24892318670E+02  0.95915468441E+02  0.91399491849E+02 0.  0.
         11    1    3    3    0    0  0.14681275893E+02 -0.23762922120E+02  0.23127332938E+02  0.36264167695E+02  0.51100000000E-03 0.  1.
         22    1    1    0    0    0  0.14550655880E+02  0.38158695890E+01  0.24892318670E+02  0.29084531559E+02  0.00000000000E+00 0. -1.
</event>
<event>
 5    1  0.1094625E-009  0.9118800E+02  0.7818608E-02  0.1130116E+00
         25   -1    0    0    0    0  0.00000000000E+00  0.00000000000E+00  0.99999998245E-14  0.12500000000E+03  0.12500000000E+03 0.  0.
        -11    1    3    3    0    0 -0.11947980514E+02 -0.17402611577E+02 -0.32351045987E+02  0.38628943874E+02  0.51100000000E-03 0.  1.
         23    2    1    0    0    0 -0.19361917020E+02  0.17470808687E+02  0.12628098894E+02  0.96024460858E+02  0.91548430978E+02 0.  0.
         11    1    3    3    0    0 -0.74139365057E+01  0.34873420264E+02  0.44979144881E+02  0.57395516985E+02  0.51100000000E-03 0. -1.
         22    1    1    0    0    0  0.19361917020E+02 -0.17470808687E+02 -0.12628098894E+02  0.28975539142E+02  0.00000000000E+00 0. -1.
</event>
<event>
 5    1  0.1094625E-009  0.9118800E+02  0.7818608E-02  0.1130116E+00
         25   -1    0    0    0    0  0.00000000000E+00  0.00000000000E+00  0.99999998245E-14  0.12500000000E+03  0.12500000000E+03 0.  0.
        -11    1    3    3    0    0 -0.35878063487E+01  0.49926308202E+02  0.37042430012E+02  0.62270781483E+02  0.51100000000E-03 0. -1.
         23    2    1    0    0    0 -0.53820564576E+01  0.22769491566E+02  0.16464048020E+02  0.96390890348E+02  0.92047393157E+02 0.  0.
         11    1    3    3    0    0 -0.17942501089E+01 -0.27156816636E+02 -0.20578381993E+02  0.34120108865E+02  0.51100000000E-03 0.  1.
         22    1    1    0    0    0  0.53820564576E+01 -0.22769491566E+02 -0.16464048020E+02  0.28609109652E+02  0.00000000000E+00 0. -1.
</event>
<event>
 5    1  0.1094625E-009  0.9118800E+02  0.7818608E-02  0.1130116E+00
         25   -1    0    0    0    0  0.00000000000E+00  0.00000000000E+00  0.99999998245E-14  0.12500000000E+03  0.12500000000E+03 0.  0.
        -11    1    3    3    0    0 -0.30687419202E+02  0.84866289651E+01 -0.40523119896E+02  0.51535073638E+02  0.51100000000E-03 0.  1.
         23    2    1    0    0    0  0.51549719827E+01 -0.11895172374E+02 -0.27203551584E+02  0.94865267867E+02  0.89951747992E+02 0.  0.
         11    1    3    3    0    0  0.35842391185E+02 -0.20381801339E+02  0.13319568312E+02  0.43330194229E+02  0.51100000000E-03 0. -1.
         22    1    1    0    0    0 -0.51549719827E+01  0.11895172374E+02  0.27203551584E+02  0.30134732133E+02  0.00000000000E+00 0.  1.
</event>
<event>
 5    1  0.1094625E-009  0.9118800E+02  0.7818608E-02  0.1130116E+00
         25   -1    0    0    0    0  0.00000000000E+00  0.00000000000E+00  0.99999998245E-14  0.12500000000E+03  0.12500000000E+03 0.  0.
        -11    1    3    3    0    0  0.19276945458E+02 -0.14751732029E+02 -0.28085952716E+02  0.37121893328E+02  0.51100000000E-03 0. -1.
         23    2    1    0    0    0 -0.11422489836E+01 -0.82637639407E+01  0.27271621835E+02  0.96480955754E+02  0.92169620474E+02 0.  0.
         11    1    3    3    0    0 -0.20419194441E+02  0.64879680885E+01  0.55357574551E+02  0.59359062425E+02  0.51100000000E-03 0.  1.
         22    1    1    0    0    0  0.11422489836E+01  0.82637639407E+01 -0.27271621835E+02  0.28519044246E+02  0.00000000000E+00 0.  1.
</event>
<event>
 5    1  0.1094625E-009  0.9118800E+02  0.7818608E-02  0.1130116E+00
         25   -1    0    0    0    0  0.00000000000E+00  0.00000000000E+00  0.99999998245E-14  0.12500000000E+03  0.12500000000E+03 0.  0.
        -11    1    3    3    0    0  0.41878140363E+02  0.22882156036E+02  0.25315107126E+02  0.54020610457E+02  0.51100000000E-03 0. -1.
         23    2    1    0    0    0  0.47018935410E+01 -0.22675334828E+01  0.25567146606E+02  0.98905393344E+02  0.95400987081E+02 0.  0.
         11    1    3    3    0    0 -0.37176246822E+02 -0.25149689519E+02  0.25203947958E+00  0.44884782887E+02  0.51100000000E-03 0.  1.
         22    1    1    0    0    0 -0.47018935410E+01  0.22675334828E+01 -0.25567146606E+02  0.26094606656E+02  0.00000000000E+00 0. -1.
</event>
<event>
 5    1  0.1094625E-009  0.9118800E+02  0.7818608E-02  0.1130116E+00
         25   -1    0    0    0    0  0.00000000000E+00  0.00000000000E+00  0.99999998245E-14  0.12500000000E+03  0.12500000000E+03 0.  0.
        -11    1    3    3    0    0 -0.56563917100E+02 -0.12075291993E+02 -0.86462139342E+01  0.58481162865E+02  0.51100000000E-03 0. -1.
         23    2    1    0    0    0 -0.23603231771E+02 -0.17167340201E+02  0.64807204437E+01  0.95103012575E+02  0.90281521607E+02 0.  0.
         11    1    3    3    0    0  0.32960685328E+02 -0.50920482079E+01  0.15126934378E+02  0.36621849710E+02  0.51100000000E-03 0.  1.
         22    1    1    0    0    0  0.23603231771E+02  0.17167340201E+02 -0.64807204437E+01  0.29896987425E+02  0.00000000000E+00 0. -1.
</event>
<event>
 5    1  0.1094625E-009  0.9118800E+02  0.7818608E-02  0.1130116E+00
         25   -1    0    0    0    0  0.00000000000E+00  0.00000000000E+00  0.99999998245E-14  0.12500000000E+03  0.12500000000E+03 0.  0.
        -11    1    3    3    0    0 -0.16105029274E+02  0.40825735185E+01  0.23668118796E+02  0.28917455318E+02  0.51100000000E-03 0.  1.
         23    2    1    0    0    0  0.29361999453E+02 -0.25368604938E+02  0.12540013103E+02  0.84220776650E+02  0.73689851150E+02 0.  0.
         11    1    3    3    0    0  0.45467028727E+02 -0.29451178457E+02 -0.11128105693E+02  0.55303321332E+02  0.51100000000E-03 0. -1.
         22    1    1    0    0    0 -0.29361999453E+02  0.25368604938E+02 -0.12540013103E+02  0.40779223350E+02  0.00000000000E+00 0. -1.
</event>
<event>
 5    1  0.1094625E-009  0.9118800E+02  0.7818608E-02  0.1130116E+00
         25   -1    0    0    0    0  0.00000000000E+00  0.00000000000E+00  0.99999998245E-14  0.12500000000E+03  0.12500000000E+03 0.  0.
        -11    1    3    3    0    0 -0.40106262282E+02 -0.93838431702E+01 -0.16273861485E+02  0.44287778842E+02  0.51100000000E-03 0.  1.
         23    2    1    0    0    0 -0.21825543326E+01 -0.26212065560E+02  0.13576716534E+02  0.95399946687E+02  0.90691712254E+02 0.  0.
         11    1    3    3    0    0  0.37923707950E+02 -0.16828222389E+02  0.29850578019E+02  0.51112167844E+02  0.51100000000E-03 0. -1.
         22    1    1    0    0    0  0.21825543326E+01  0.26212065560E+02 -0.13576716534E+02  0.29600053313E+02  0.00000000000E+00 0. -1.
</event>
<event>
 5    1  0.1094625E-009  0.9118800E+02  0.7818608E-02  0.1130116E+00
         25   -1    0    0    0    0  0.00000000000E+00  0.00000000000E+00  0.99999998245E-14  0.12500000000E+03  0.12500000000E+03 0.  0.
        -11    1    3    3    0    0  0.34415908191E+02 -0.36506827250E+02  0.13977121419E+02  0.52082272376E+02  0.51100000000E-03 0.  1.
         23    2    1    0    0    0  0.14363136588E+02  0.10282993766E+00  0.25804399250E+02  0.95467352179E+02  0.90784569420E+02 0.  0.
         11    1    3    3    0    0 -0.20052771603E+02  0.36609657188E+02  0.11827277831E+02  0.43385079803E+02  0.51100000000E-03 0. -1.
         22    1    1    0    0    0 -0.14363136588E+02 -0.10282993766E+00 -0.25804399250E+02  0.29532647821E+02  0.00000000000E+00 0.  1.
</event>
<event>
 5    1  0.1094625E-009  0.9118800E+02  0.7818608E-02  0.1130116E+00
         25   -1    0    0    0    0  0.00000000000E+00  0.00000000000E+00  0.99999998245E-14  0.12500000000E+03  0.12500000000E+03 0.  0.
        -11    1    3    3    0    0 -0.24437903093E+02  0.30034960436E+02  0.85544280436E+01  0.39654611275E+02  0.51100000000E-03 0.  1.
         23    2    1    0    0    0  0.62456952121E+01 -0.14181138117E+02  0.24698186322E+02  0.95843289030E+02  0.91300724299E+02 0.  0.
         11    1    3    3    0    0  0.30683598305E+02 -0.44216098553E+02  0.16143758279E+02  0.56188677755E+02  0.51100000000E-03 0. -1.
         22    1    1    0    0    0 -0.62456952121E+01  0.14181138117E+02 -0.24698186322E+02  0.29156710970E+02  0.00000000000E+00 0. -1.
</event>
<event>
 5    1  0.1094625E-009  0.9118800E+02  0.7818608E-02  0.1130116E+00
         25   -1    0    0    0    0  0.00000000000E+00  0.00000000000E+00  0.99999998245E-14  0.12500000000E+03  0.12500000000E+03 0.  0.
        -11    1    3    3    0    0 -0.46335830377E+02  0.72767780978E+01  0.24274086238E+02  0.52812800902E+02  0.51100000000E-03 0. -1.
         23    2    1    0    0    0 -0.14642396764E+02  0.25710574937E+02  0.28558691237E+01  0.95274767704E+02  0.90519014169E+02 0.  0.
         11    1    3    3    0    0  0.31693433613E+02  0.18433796839E+02 -0.21418217114E+02  0.42461966802E+02  0.51100000000E-03 0.  1.
         22    1    1    0    0    0  0.14642396764E+02 -0.25710574937E+02 -0.28558691237E+01  0.29725232296E+02  0.00000000000E+00 0. -1.
</event>
<event>
 5    1  0.1094625E-009  0.9118800E+02  0.7818608E-02  0.1130116E+00
         25   -1    0    0    0    0  0.00000000000E+00  0.00000000000E+00  0.99999998245E-14  0.12500000000E+03  0.12500000000E+03 0.  0.
        -11    1    3    3    0    0  0.19169881759E+02  0.35518161477E+02  0.79359289351E+01  0.41133965645E+02  0.51100000000E-03 0.  1.
         23    2    1    0    0    0 -0.15695191309E+00 -0.11537277888E+02  0.27140854405E+02  0.95508316548E+02  0.90840955175E+02 0.  0.
         11    1    3    3    0    0 -0.19326833672E+02 -0.47055439365E+02  0.19204925470E+02  0.54374350904E+02  0.51100000000E-03 0. -1.
         22    1    1    0    0    0  0.15695191309E+00  0.11537277888E+02 -0.27140854405E+02  0.29491683452E+02  0.00000000000E+00 0. -1.
</event>
<event>
 5    1  0.1094625E-009  0.9118800E+02  0.7818608E-02  0.1130116E+00
         25   -1    0    0    0    0  0.00000000000E+00  0.00000000000E+00  0.99999998245E-14  0.12500000000E+03  0.12500000000E+03 0.  0.
        -11    1    3    3    0    0  0.31345076269E+02  0.89460359230E+01  0.11063424954E+01  0.32615477293E+02  0.51100000000E-03 0.  1.
         23    2    1    0    0    0 -0.30107210346E+02  0.34273205108E+01  0.42848421514E+01  0.94396887202E+02  0.89298498310E+02 0.  0.
         11    1    3    3    0    0 -0.61452286615E+02 -0.55187154122E+01  0.31784996560E+01  0.61781409909E+02  0.51100000000E-03 0. -1.
         22    1    1    0    0    0  0.30107210346E+02 -0.34273205108E+01 -0.42848421514E+01  0.30603112798E+02  0.00000000000E+00 0. -1.
</event>
<event>
 5    1  0.1094625E-009  0.9118800E+02  0.7818608E-02  0.1130116E+00
         25   -1    0    0    0    0  0.00000000000E+00  0.00000000000E+00  0.99999998245E-14  0.12500000000E+03  0.12500000000E+03 0.  0.
        -11    1    3    3    0    0 -0.23850898756E+02 -0.10525096019E+02 -0.22369459706E+02  0.34351648366E+02  0.51100000000E-03 0.  1.
         23    2    1    0    0    0  0.25950892973E+02  0.11472678410E+02  0.63768809199E+01  0.95918462794E+02  0.91403586902E+02 0.  0.
         11    1    3    3    0    0  0.49801791729E+02  0.21997774429E+02  0.28746340626E+02  0.61566814428E+02  0.51100000000E-03 0. -1.
         22    1    1    0    0    0 -0.25950892973E+02 -0.11472678410E+02 -0.63768809199E+01  0.29081537206E+02  0.00000000000E+00 0. -1.
</event>
<event>
 5    1  0.1094625E-009  0.9118800E+02  0.7818608E-02  0.1130116E+00
         25   -1    0    0    0    0  0.00000000000E+00  0.00000000000E+00  0.99999998245E-14  0.12500000000E+03  0.12500000000E+03 0.  0.
        -11    1    3    3    0    0 -0.36622670094E+01 -0.14175080280E+02  0.41830884635E+02  0.44318935121E+02  0.51100000000E-03 0.  1.
         23    2    1    0    0    0  0.22788943770E+02  0.16380102330E+02  0.12377646298E+02  0.94326724362E+02  0.89200230328E+02 0.  0.
         11    1    3    3    0    0  0.26451210779E+02  0.30555182610E+02 -0.29453238337E+02  0.50007789241E+02  0.51100000000E-03 0. -1.
         22    1    1    0    0    0 -0.22788943770E+02 -0.16380102330E+02 -0.12377646298E+02  0.30673275638E+02  0.00000000000E+00 0. -1.
</event>
<event>
 5    1  0.1094625E-009  0.9118800E+02  0.7818608E-02  0.1130116E+00
         25   -1    0    0    0    0  0.00000000000E+00  0.00000000000E+00  0.99999998245E-14  0.12500000000E+03  0.12500000000E+03 0.  0.
        -11    1    3    3    0    0 -0.21114900492E+02 -0.54858193547E+02 -0.21216056938E+02  0.62493051568E+02  0.51100000000E-03 0.  1.
         23    2    1    0    0    0 -0.10532479555E+02 -0.27524644054E+02 -0.11334861560E+02  0.93424404322E+02  0.87926680140E+02 0.  0.
         11    1    3    3    0    0  0.10582420938E+02  0.27333549493E+02  0.98811953778E+01  0.30931352753E+02  0.51100000000E-03 0. -1.
         22    1    1    0    0    0  0.10532479555E+02  0.27524644054E+02  0.11334861560E+02  0.31575595678E+02  0.00000000000E+00 0.  1.
</event>
<event>
 5    1  0.1094625E-009  0.9118800E+02  0.7818608E-02  0.1130116E+00
         25   -1    0    0    0    0  0.00000000000E+00  0.00000000000E+00  0.99999998245E-14  0.12500000000E+03  0.12500000000E+03 0.  0.
        -11    1    3    3    0    0  0.72429501146E+01  0.10302456977E+02  0.31386906174E+02  0.33819207938E+02  0.51100000000E-03 0.  1.
         23    2    1    0    0    0  0.34832948674E+01 -0.19747960706E+02 -0.22021484521E+02  0.95216429434E+02  0.90438417492E+02 0.  0.
         11    1    3    3    0    0 -0.37596552471E+01 -0.30050417684E+02 -0.53408390694E+02  0.61397221496E+02  0.51100000000E-03 0. -1.
         22    1    1    0    0    0 -0.34832948674E+01  0.19747960706E+02  0.22021484521E+02  0.29783570566E+02  0.00000000000E+00 0. -1.
</event>
<event>
 5    1  0.1094625E-009  0.9118800E+02  0.7818608E-02  0.1130116E+00
         25   -1    0    0    0    0  0.00000000000E+00  0.00000000000E+00  0.99999998245E-14  0.12500000000E+03  0.12500000000E+03 0.  0.
        -11    1    3    3    0    0  0.91067835363E+01 -0.25953076594E+02  0.32809763339E+02  0.42813272027E+02  0.51100000000E-03 0.  1.
         23    2    1    0    0    0 -0.30314990974E+02 -0.51129210790E+01  0.12479138099E+02  0.91820646067E+02  0.85616362436E+02 0.  0.
         11    1    3    3    0    0 -0.39421774510E+02  0.20840155515E+02 -0.20330625239E+02  0.49007374040E+02  0.51100000000E-03 0. -1.
         22    1    1    0    0    0  0.30314990974E+02  0.51129210790E+01 -0.12479138099E+02  0.33179353933E+02  0.00000000000E+00 0. -1.
</event>
<event>
 5    1  0.1094625E-009  0.9118800E+02  0.7818608E-02  0.1130116E+00
         25   -1    0    0    0    0  0.00000000000E+00  0.00000000000E+00  0.99999998245E-14  0.12500000000E+03  0.12500000000E+03 0.  0.
        -11    1    3    3    0    0 -0.13527155230E+02  0.46659700286E+02  0.39163119502E+01  0.48738578754E+02  0.51100000000E-03 0.  1.
         23    2    1    0    0    0 -0.31500422092E+02  0.21426495717E+02 -0.13864800524E+02  0.84458613686E+02  0.74092195416E+02 0.  0.
         11    1    3    3    0    0 -0.17973266861E+02 -0.25233204569E+02 -0.17781112474E+02  0.35720034932E+02  0.51100000000E-03 0. -1.
         22    1    1    0    0    0  0.31500422092E+02 -0.21426495717E+02  0.13864800524E+02  0.40541386314E+02  0.00000000000E+00 0. -1.
</event>
<event>
 5    1  0.1094625E-009  0.9118800E+02  0.7818608E-02  0.1130116E+00
         25   -1    0    0    0    0  0.00000000000E+00  0.00000000000E+00  0.99999998245E-14  0.12500000000E+03  0.12500000000E+03 0.  0.
        -11    1    3    3    0    0  0.57385108639E+02  0.54702812130E+01  0.17939834438E+02  0.60372281139E+02  0.51100000000E-03 0. -1.
         23    2    1    0    0    0  0.22399926809E+02 -0.12375232208E+01  0.18380971179E+02  0.95997443453E+02  0.91511534045E+02 0.  0.
         11    1    3    3    0    0 -0.34985181830E+02 -0.67078044338E+01  0.44113674156E+00  0.35625162313E+02  0.51100000000E-03 0.  1.
         22    1    1    0    0    0 -0.22399926809E+02  0.12375232208E+01 -0.18380971179E+02  0.29002556547E+02  0.00000000000E+00 0. -1.
</event>
<event>
 5    1  0.1094625E-009  0.9118800E+02  0.7818608E-02  0.1130116E+00
         25   -1    0    0    0    0  0.00000000000E+00  0.00000000000E+00  0.99999998245E-14  0.12500000000E+03  0.12500000000E+03 0.  0.
        -11    1    3    3    0    0  0.38711521294E+02 -0.18567907518E+02  0.10126471252E+02  0.44112294100E+02  0.51100000000E-03 0.  1.
         23    2    1    0    0    0 -0.10423106275E+02 -0.43733070251E+01  0.25157981804E+02  0.97419372610E+02  0.93433629666E+02 0.  0.
         11    1    3    3    0    0 -0.49134627569E+02  0.14194600493E+02  0.15031510552E+02  0.53307078510E+02  0.51100000000E-03 0. -1.
         22    1    1    0    0    0  0.10423106275E+02  0.43733070251E+01 -0.25157981804E+02  0.27580627390E+02  0.00000000000E+00 0. -1.
</event>
<event>
 5    1  0.1094625E-009  0.9118800E+02  0.7818608E-02  0.1130116E+00
         25   -1    0    0    0    0  0.00000000000E+00  0.00000000000E+00  0.99999998245E-14  0.12500000000E+03  0.12500000000E+03 0.  0.
        -11    1    3    3    0    0 -0.12464002402E+02 -0.84670418447E+01 -0.57615512764E+02  0.59553248986E+02  0.51100000000E-03 0.  1.
         23    2    1    0    0    0  0.20670076906E+01  0.71323137704E+01 -0.27923191369E+02  0.96106280324E+02  0.91660078993E+02 0.  0.
         11    1    3    3    0    0  0.14531010092E+02  0.15599355615E+02  0.29692321395E+02  0.36553031338E+02  0.51100000000E-03 0. -1.
         22    1    1    0    0    0 -0.20670076906E+01 -0.71323137704E+01  0.27923191369E+02  0.28893719676E+02  0.00000000000E+00 0.  1.
</event>
<event>
 5    1  0.1094625E-009  0.9118800E+02  0.7818608E-02  0.1130116E+00
         25   -1    0    0    0    0  0.00000000000E+00  0.00000000000E+00  0.99999998245E-14  0.12500000000E+03  0.12500000000E+03 0.  0.
        -11    1    3    3    0    0  0.28761820112E+02 -0.21249192198E+02 -0.18288543544E+02  0.40165175096E+02  0.51100000000E-03 0. -1.
         23    2    1    0    0    0  0.12479685002E+02  0.81756401849E+01  0.25547727192E+02  0.95415037691E+02  0.90712509736E+02 0.  0.
         11    1    3    3    0    0 -0.16282135111E+02  0.29424832383E+02  0.43836270736E+02  0.55249862595E+02  0.51100000000E-03 0.  1.
         22    1    1    0    0    0 -0.12479685002E+02 -0.81756401849E+01 -0.25547727192E+02  0.29584962309E+02  0.00000000000E+00 0.  1.
</event>
<event>
 5    1  0.1094625E-009  0.9118800E+02  0.7818608E-02  0.1130116E+00
         25   -1    0    0    0    0  0.00000000000E+00  0.00000000000E+00  0.99999998245E-14  0.12500000000E+03  0.12500000000E+03 0.  0.
        -11    1    3    3    0    0  0.33202181979E+02 -0.88984277738E+01  0.58911873084E+01  0.34875105637E+02  0.51100000000E-03 0.  1.
         23    2    1    0    0    0 -0.19344080923E+02  0.20274426310E+02 -0.64843581261E+01  0.96237303165E+02  0.91838585524E+02 0.  0.
         11    1    3    3    0    0 -0.52546262902E+02  0.29172854084E+02 -0.12375545434E+02  0.61362197528E+02  0.51100000000E-03 0. -1.
         22    1    1    0    0    0  0.19344080923E+02 -0.20274426310E+02  0.64843581261E+01  0.28762696835E+02  0.00000000000E+00 0. -1.
</event>
<event>
 5    1  0.1094625E-009  0.9118800E+02  0.7818608E-02  0.1130116E+00
         25   -1    0    0    0    0  0.00000000000E+00  0.00000000000E+00  0.99999998245E-14  0.12500000000E+03  0.12500000000E+03 0.  0.
        -11    1    3    3    0    0 -0.30800955522E+02  0.35151890564E+02 -0.19565033522E+02  0.50666999203E+02  0.51100000000E-03 0.  1.
         23    2    1    0    0    0 -0.28079515923E+01  0.25444972260E+02  0.14311226138E+02  0.95671815620E+02  0.91065657111E+02 0.  0.
         11    1    3    3    0    0  0.27993003929E+02 -0.97069183043E+01  0.33876259660E+02  0.45004816417E+02  0.51100000000E-03 0. -1.
         22    1    1    0    0    0  0.28079515923E+01 -0.25444972260E+02 -0.14311226138E+02  0.29328184380E+02  0.00000000000E+00 0. -1.
</event>
<event>
 5    1  0.1094625E-009  0.9118800E+02  0.7818608E-02  0.1130116E+00
         25   -1    0    0    0    0  0.00000000000E+00  0.00000000000E+00  0.99999998245E-14  0.12500000000E+03  0.12500000000E+03 0.  0.
        -11    1    3    3    0    0  0.42382970838E+02  0.49129561958E+01  0.40291687461E+02  0.58684524658E+02  0.51100000000E-03 0. -1.
         23    2    1    0    0    0  0.15176729773E+02  0.15952512041E+02  0.24635887745E+02  0.91958469587E+02  0.85817349043E+02 0.  0.
         11    1    3    3    0    0 -0.27206241065E+02  0.11039555846E+02 -0.15655799715E+02  0.33273944929E+02  0.51100000000E-03 0.  1.
         22    1    1    0    0    0 -0.15176729773E+02 -0.15952512041E+02 -0.24635887745E+02  0.33041530413E+02  0.00000000000E+00 0. -1.
</event>
<event>
 5    1  0.1094625E-009  0.9118800E+02  0.7818608E-02  0.1130116E+00
         25   -1    0    0    0    0  0.00000000000E+00  0.00000000000E+00  0.99999998245E-14  0.12500000000E+03  0.12500000000E+03 0.  0.
        -11    1    3    3    0    0 -0.10783229842E+01  0.33002801419E+02  0.22358216203E+02  0.39877782210E+02  0.51100000000E-03 0.  1.
         23    2    1    0    0    0  0.18532656535E+02  0.94023242085E+01 -0.22592516852E+02  0.94303340955E+02  0.89167456164E+02 0.  0.
         11    1    3    3    0    0  0.19610979520E+02 -0.23600477210E+02 -0.44950733055E+02  0.54425558745E+02  0.51100000000E-03 0. -1.
         22    1    1    0    0    0 -0.18532656535E+02 -0.94023242085E+01  0.22592516852E+02  0.30696659045E+02  0.00000000000E+00 0. -1.
</event>
<event>
 5    1  0.1094625E-009  0.9118800E+02  0.7818608E-02  0.1130116E+00
         25   -1    0    0    0    0  0.00000000000E+00  0.00000000000E+00  0.99999998245E-14  0.12500000000E+03  0.12500000000E+03 0.  0.
        -11    1    3    3    0    0  0.52609486294E+02  0.21150161222E+02 -0.17331542348E+02  0.59291396748E+02  0.51100000000E-03 0. -1.
         23    2    1    0    0    0  0.17882659926E+02  0.11531650432E+02 -0.20485175454E+02  0.95463397265E+02  0.90779123791E+02 0.  0.
         11    1    3    3    0    0 -0.34726826368E+02 -0.96185107892E+01 -0.31536331063E+01  0.36172000518E+02  0.51100000000E-03 0.  1.
         22    1    1    0    0    0 -0.17882659926E+02 -0.11531650432E+02  0.20485175454E+02  0.29536602735E+02  0.00000000000E+00 0. -1.
</event>
<event>
 5    1  0.1094625E-009  0.9118800E+02  0.7818608E-02  0.1130116E+00
         25   -1    0    0    0    0  0.00000000000E+00  0.00000000000E+00  0.99999998245E-14  0.12500000000E+03  0.12500000000E+03 0.  0.
        -11    1    3    3    0    0 -0.25775179586E+02  0.16265737988E+02 -0.17646740034E+02  0.35218483060E+02  0.51100000000E-03 0.  1.
         23    2    1    0    0    0  0.24941399627E+02  0.87170509352E+01  0.13620374221E+02  0.95275010744E+02  0.90519349787E+02 0.  0.
         11    1    3    3    0    0  0.50716579213E+02 -0.75486870525E+01  0.31267114256E+02  0.60056527683E+02  0.51100000000E-03 0. -1.
         22    1    1    0    0    0 -0.24941399627E+02 -0.87170509352E+01 -0.13620374221E+02  0.29724989256E+02  0.00000000000E+00 0. -1.
</event>
<event>
 5    1  0.1094625E-009  0.9118800E+02  0.7818608E-02  0.1130116E+00
         25   -1    0    0    0    0  0.00000000000E+00  0.00000000000E+00  0.99999998245E-14  0.12500000000E+03  0.12500000000E+03 0.  0.
        -11    1    3    3    0    0 -0.50471055670E+02  0.29559370758E+02  0.47904623929E+01  0.58685878968E+02  0.51100000000E-03 0.  1.
         23    2    1    0    0    0 -0.19970785014E+02  0.17677896499E+02 -0.12320046406E+02  0.95621030955E+02  0.90995921550E+02 0.  0.
         11    1    3    3    0    0  0.30500270656E+02 -0.11881474259E+02 -0.17110508799E+02  0.36935151987E+02  0.51100000000E-03 0. -1.
         22    1    1    0    0    0  0.19970785014E+02 -0.17677896499E+02  0.12320046406E+02  0.29378969045E+02  0.00000000000E+00 0.  1.
</event>
<event>
 5    1  0.1094625E-009  0.9118800E+02  0.7818608E-02  0.1130116E+00
         25   -1    0    0    0    0  0.00000000000E+00  0.00000000000E+00  0.99999998245E-14  0.12500000000E+03  0.12500000000E+03 0.  0.
        -11    1    3    3    0    0 -0.33411917675E+00  0.48957124144E+02  0.36378524299E+02  0.60994333102E+02  0.51100000000E-03 0. -1.
         23    2    1    0    0    0  0.27428651351E+01  0.27629442776E+02  0.90486859476E+01  0.95797463558E+02  0.91237962984E+02 0.  0.
         11    1    3    3    0    0  0.30769843118E+01 -0.21327681367E+02 -0.27329838352E+02  0.34803130456E+02  0.51100000000E-03 0.  1.
         22    1    1    0    0    0 -0.27428651351E+01 -0.27629442776E+02 -0.90486859476E+01  0.29202536442E+02  0.00000000000E+00 0. -1.
</event>
<event>
 5    1  0.1094625E-009  0.9118800E+02  0.7818608E-02  0.1130116E+00
         25   -1    0    0    0    0  0.00000000000E+00  0.00000000000E+00  0.99999998245E-14  0.12500000000E+03  0.12500000000E+03 0.  0.
        -11    1    3    3    0    0  0.23288346921E+02 -0.14166628062E+02 -0.25191112109E+02  0.37116473196E+02  0.51100000000E-03 0.  1.
         23    2    1    0    0    0 -0.21769192735E+02 -0.10598244108E+02  0.14079300038E+02  0.96992015066E+02  0.92860130123E+02 0.  0.
         11    1    3    3    0    0 -0.45057539656E+02  0.35683839535E+01  0.39270412146E+02  0.59875541870E+02  0.51100000000E-03 0. -1.
         22    1    1    0    0    0  0.21769192735E+02  0.10598244108E+02 -0.14079300038E+02  0.28007984934E+02  0.00000000000E+00 0. -1.
</event>
<event>
 5    1  0.1094625E-009  0.9118800E+02  0.7818608E-02  0.1130116E+00
         25   -1    0    0    0    0  0.00000000000E+00  0.00000000000E+00  0.99999998245E-14  0.12500000000E+03  0.12500000000E+03 0.  0.
        -11    1    3    3    0    0  0.24631647021E+01 -0.25637235953E+02  0.27953188682E+02  0.38009417325E+02  0.51100000000E-03 0. -1.
         23    2    1    0    0    0 -0.24275666246E+02 -0.14326529584E+01 -0.16767506907E+02  0.95461723915E+02  0.90776819612E+02 0.  0.
         11    1    3    3    0    0 -0.26738830948E+02  0.24204582994E+02 -0.44720695589E+02  0.57452306591E+02  0.51100000000E-03 0.  1.
         22    1    1    0    0    0  0.24275666246E+02  0.14326529584E+01  0.16767506907E+02  0.29538276085E+02  0.00000000000E+00 0.  1.
</event>
<event>
 5    1  0.1094625E-009  0.9118800E+02  0.7818608E-02  0.1130116E+00
         25   -1    0    0    0    0  0.00000000000E+00  0.00000000000E+00  0.99999998245E-14  0.12500000000E+03  0.12500000000E+03 0.  0.
        -11    1    3    3    0    0 -0.42278800836E+02  0.12630661306E+02  0.41144921795E+02  0.60331875447E+02  0.51100000000E-03 0.  1.
         23    2    1    0    0    0 -0.19278141544E+02 -0.49024955750E+01  0.23502699568E+02  0.94209448020E+02  0.89035734427E+02 0.  0.
         11    1    3    3    0    0  0.23000659292E+02 -0.17533156881E+02 -0.17642222227E+02  0.33877572573E+02  0.51100000000E-03 0. -1.
         22    1    1    0    0    0  0.19278141544E+02  0.49024955750E+01 -0.23502699568E+02  0.30790551980E+02  0.00000000000E+00 0.  1.
</event>
<event>
 5    1  0.1094625E-009  0.9118800E+02  0.7818608E-02  0.1130116E+00
         25   -1    0    0    0    0  0.00000000000E+00  0.00000000000E+00  0.99999998245E-14  0.12500000000E+03  0.12500000000E+03 0.  0.
        -11    1    3    3    0    0 -0.51062183726E+02 -0.21274270537E+02 -0.23606413203E+02  0.60143195279E+02  0.51100000000E-03 0.  1.
         23    2    1    0    0    0 -0.27407396644E+02 -0.11197726244E+02  0.50141799822E+00  0.95389091810E+02  0.90676749790E+02 0.  0.
         11    1    3    3    0    0  0.23654787082E+02  0.10076544293E+02  0.24107831201E+02  0.35245896531E+02  0.51100000000E-03 0. -1.
         22    1    1    0    0    0  0.27407396644E+02  0.11197726244E+02 -0.50141799822E+00  0.29610908190E+02  0.00000000000E+00 0.  1.
</event>
<event>
 5    1  0.1094625E-009  0.9118800E+02  0.7818608E-02  0.1130116E+00
         25   -1    0    0    0    0  0.00000000000E+00  0.00000000000E+00  0.99999998245E-14  0.12500000000E+03  0.12500000000E+03 0.  0.
        -11    1    3    3    0    0 -0.10590101326E+02  0.22797789424E+02  0.25142065392E+02  0.35552959106E+02  0.51100000000E-03 0.  1.
         23    2    1    0    0    0  0.64026995660E+01  0.42351178273E+01 -0.28862884487E+02  0.95133683092E+02  0.90323976734E+02 0.  0.
         11    1    3    3    0    0  0.16992800892E+02 -0.18562671597E+02 -0.54004949879E+02  0.59580723986E+02  0.51100000000E-03 0. -1.
         22    1    1    0    0    0 -0.64026995660E+01 -0.42351178273E+01  0.28862884487E+02  0.29866316908E+02  0.00000000000E+00 0. -1.
</event>
<event>
 5    1  0.1094625E-009  0.9118800E+02  0.7818608E-02  0.1130116E+00
         25   -1    0    0    0    0  0.00000000000E+00  0.00000000000E+00  0.99999998245E-14  0.12500000000E+03  0.12500000000E+03 0.  0.
        -11    1    3    3    0    0  0.38716114798E+02 -0.26910745577E+01  0.35588625909E+02  0.52656715828E+02  0.51100000000E-03 0.  1.
         23    2    1    0    0    0  0.30975995663E+02 -0.79718288224E+01 -0.34732031314E+01  0.92826633653E+02  0.87072719111E+02 0.  0.
         11    1    3    3    0    0 -0.77401191354E+01 -0.52807542648E+01 -0.39061829041E+02  0.40169917826E+02  0.51100000000E-03 0. -1.
         22    1    1    0    0    0 -0.30975995663E+02  0.79718288224E+01  0.34732031314E+01  0.32173366347E+02  0.00000000000E+00 0.  1.
</event>
<event>
 5    1  0.1094625E-009  0.9118800E+02  0.7818608E-02  0.1130116E+00
         25   -1    0    0    0    0  0.00000000000E+00  0.00000000000E+00  0.99999998245E-14  0.12500000000E+03  0.12500000000E+03 0.  0.
        -11    1    3    3    0    0 -0.61884243444E+02  0.79865911741E+01 -0.33712012402E+01  0.62488480725E+02  0.51100000000E-03 0. -1.
         23    2    1    0    0    0 -0.29259630088E+02  0.46278542171E+01 -0.15320489365E+01  0.95337057437E+02  0.90604990807E+02 0.  0.
         11    1    3    3    0    0  0.32624613356E+02 -0.33587369569E+01  0.18391523037E+01  0.32848576712E+02  0.51100000000E-03 0.  1.
         22    1    1    0    0    0  0.29259630088E+02 -0.46278542171E+01  0.15320489365E+01  0.29662942563E+02  0.00000000000E+00 0. -1.
</event>
<event>
 5    1  0.1094625E-009  0.9118800E+02  0.7818608E-02  0.1130116E+00
         25   -1    0    0    0    0  0.00000000000E+00  0.00000000000E+00  0.99999998245E-14  0.12500000000E+03  0.12500000000E+03 0.  0.
        -11    1    3    3    0    0  0.11657435308E+02 -0.45560561890E+02  0.18032640875E+02  0.50367020310E+02  0.51100000000E-03 0. -1.
         23    2    1    0    0    0 -0.15457533303E+02 -0.10180284267E+02  0.23289435014E+02  0.95251532698E+02  0.90486922671E+02 0.  0.
         11    1    3    3    0    0 -0.27114968611E+02  0.35380277623E+02  0.52567941388E+01  0.44884512388E+02  0.51100000000E-03 0.  1.
         22    1    1    0    0    0  0.15457533303E+02  0.10180284267E+02 -0.23289435014E+02  0.29748467302E+02  0.00000000000E+00 0. -1.
</event>
<event>
 5    1  0.1094625E-009  0.9118800E+02  0.7818608E-02  0.1130116E+00
         25   -1    0    0    0    0  0.00000000000E+00  0.00000000000E+00  0.99999998245E-14  0.12500000000E+03  0.12500000000E+03 0.  0.
        -11    1    3    3    0    0  0.30902443427E+02 -0.14763848453E+02 -0.41783791742E+02  0.54026081511E+02  0.51100000000E-03 0.  1.
         23    2    1    0    0    0  0.26461092276E+01  0.13239574053E+02 -0.23696871974E+02  0.97726753833E+02  0.93843958027E+02 0.  0.
         11    1    3    3    0    0 -0.28256334199E+02  0.28003422506E+02  0.18086919768E+02  0.43700672322E+02  0.51100000000E-03 0. -1.
         22    1    1    0    0    0 -0.26461092276E+01 -0.13239574053E+02  0.23696871974E+02  0.27273246167E+02  0.00000000000E+00 0.  1.
</event>
<event>
 5    1  0.1094625E-009  0.9118800E+02  0.7818608E-02  0.1130116E+00
         25   -1    0    0    0    0  0.00000000000E+00  0.00000000000E+00  0.99999998245E-14  0.12500000000E+03  0.12500000000E+03 0.  0.
        -11    1    3    3    0    0 -0.42310438944E+02 -0.28416068221E+02 -0.11897788417E+01  0.50980994015E+02  0.51100000000E-03 0.  1.
         23    2    1    0    0    0 -0.23603427704E+02  0.12117285380E+02 -0.10292413370E+02  0.96541535927E+02  0.92251742432E+02 0.  0.
         11    1    3    3    0    0  0.18707011239E+02  0.40533353602E+02 -0.91026345287E+01  0.45560541912E+02  0.51100000000E-03 0. -1.
         22    1    1    0    0    0  0.23603427704E+02 -0.12117285380E+02  0.10292413370E+02  0.28458464073E+02  0.00000000000E+00 0.  1.
</event>
<event>
 5    1  0.1094625E-009  0.9118800E+02  0.7818608E-02  0.1130116E+00
         25   -1    0    0    0    0  0.00000000000E+00  0.00000000000E+00  0.99999998245E-14  0.12500000000E+03  0.12500000000E+03 0.  0.
        -11    1    3    3    0    0 -0.14606016064E+02  0.29739856100E+02 -0.19880039893E+02  0.38639497054E+02  0.51100000000E-03 0. -1.
         23    2    1    0    0    0  0.85435033193E+00 -0.24263479394E+02 -0.17880269125E+02  0.94847879498E+02  0.89927581278E+02 0.  0.
         11    1    3    3    0    0  0.15460366396E+02 -0.54003335494E+02  0.19997707682E+01  0.56208382444E+02  0.51100000000E-03 0.  1.
         22    1    1    0    0    0 -0.85435033193E+00  0.24263479394E+02  0.17880269125E+02  0.30152120502E+02  0.00000000000E+00 0.  1.
</event>
<event>
 5    1  0.1094625E-009  0.9118800E+02  0.7818608E-02  0.1130116E+00
         25   -1    0    0    0    0  0.00000000000E+00  0.00000000000E+00  0.99999998245E-14  0.12500000000E+03  0.12500000000E+03 0.  0.
        -11    1    3    3    0    0 -0.52954299629E+01  0.29702269572E+02 -0.18382869312E+02  0.35329821407E+02  0.51100000000E-03 0.  1.
         23    2    1    0    0    0  0.14281212214E+02 -0.25298765341E+02 -0.24529490068E+01  0.95845283247E+02  0.91303454544E+02 0.  0.
         11    1    3    3    0    0  0.19576642177E+02 -0.55001034914E+02  0.15929920305E+02  0.60515461840E+02  0.51100000000E-03 0. -1.
         22    1    1    0    0    0 -0.14281212214E+02  0.25298765341E+02  0.24529490068E+01  0.29154716753E+02  0.00000000000E+00 0. -1.
</event>
<event>
 5    1  0.1094625E-009  0.9118800E+02  0.7818608E-02  0.1130116E+00
         25   -1    0    0    0    0  0.00000000000E+00  0.00000000000E+00  0.99999998245E-14  0.12500000000E+03  0.12500000000E+03 0.  0.
        -11    1    3    3    0    0 -0.77683750824E+01  0.44283828115E+02 -0.37887427917E+02  0.58795087196E+02  0.51100000000E-03 0.  1.
         23    2    1    0    0    0 -0.13688798008E+02  0.26136044806E+02 -0.77063024755E+01  0.94506342842E+02  0.89451583052E+02 0.  0.
         11    1    3    3    0    0 -0.59204229261E+01 -0.18147783309E+02  0.30181125442E+02  0.35711255646E+02  0.51100000000E-03 0. -1.
         22    1    1    0    0    0  0.13688798008E+02 -0.26136044806E+02  0.77063024755E+01  0.30493657158E+02  0.00000000000E+00 0.  1.
</event>
<event>
 5    1  0.1094625E-009  0.9118800E+02  0.7818608E-02  0.1130116E+00
         25   -1    0    0    0    0  0.00000000000E+00  0.00000000000E+00  0.99999998245E-14  0.12500000000E+03  0.12500000000E+03 0.  0.
        -11    1    3    3    0    0 -0.47590957959E+02 -0.28474913704E+02 -0.14835433651E+01  0.55479013068E+02  0.51100000000E-03 0.  1.
         23    2    1    0    0    0 -0.22427781414E+02 -0.53669644804E+01 -0.20120306179E+02  0.94395483869E+02  0.89296533904E+02 0.  0.
         11    1    3    3    0    0  0.25163176545E+02  0.23107949223E+02 -0.18636762814E+02  0.38916470801E+02  0.51100000000E-03 0. -1.
         22    1    1    0    0    0  0.22427781414E+02  0.53669644804E+01  0.20120306179E+02  0.30604516131E+02  0.00000000000E+00 0.  1.
</event>
<event>
 5    1  0.1094625E-009  0.9118800E+02  0.7818608E-02  0.1130116E+00
         25   -1    0    0    0    0  0.00000000000E+00  0.00000000000E+00  0.99999998245E-14  0.12500000000E+03  0.12500000000E+03 0.  0.
        -11    1    3    3    0    0 -0.44452851173E+02  0.22819314408E+02 -0.31372525686E+02  0.59000105556E+02  0.51100000000E-03 0.  1.
         23    2    1    0    0    0 -0.21351165235E+02  0.21118284155E+02 -0.30523912530E+02  0.82179871337E+02  0.70142482379E+02 0.  0.
         11    1    3    3    0    0  0.23101685938E+02 -0.17010302532E+01  0.84861315507E+00  0.23179765781E+02  0.51100000000E-03 0. -1.
         22    1    1    0    0    0  0.21351165235E+02 -0.21118284155E+02  0.30523912530E+02  0.42820128663E+02  0.00000000000E+00 0.  1.
</event>
<event>
 5    1  0.1094625E-009  0.9118800E+02  0.7818608E-02  0.1130116E+00
         25   -1    0    0    0    0  0.00000000000E+00  0.00000000000E+00  0.99999998245E-14  0.12500000000E+03  0.12500000000E+03 0.  0.
        -11    1    3    3    0    0 -0.84054105720E+01 -0.14765620441E+02 -0.33119468888E+02  0.37223295039E+02  0.51100000000E-03 0. -1.
         23    2    1    0    0    0 -0.10663631792E+02  0.11433834353E+02  0.21834521523E+02  0.98144982943E+02  0.94399394784E+02 0.  0.
         11    1    3    3    0    0 -0.22582212197E+01  0.26199454794E+02  0.54953990412E+02  0.60921687903E+02  0.51100000000E-03 0.  1.
         22    1    1    0    0    0  0.10663631792E+02 -0.11433834353E+02 -0.21834521523E+02  0.26855017057E+02  0.00000000000E+00 0.  1.
</event>
<event>
 5    1  0.1094625E-009  0.9118800E+02  0.7818608E-02  0.1130116E+00
         25   -1    0    0    0    0  0.00000000000E+00  0.00000000000E+00  0.99999998245E-14  0.12500000000E+03  0.12500000000E+03 0.  0.
        -11    1    3    3    0    0 -0.67203946679E+01 -0.31369060207E+02 -0.15170258300E+02  0.35486876164E+02  0.51100000000E-03 0.  1.
         23    2    1    0    0    0 -0.17738508646E+02  0.19783705945E+02  0.13546160293E+02  0.95174705893E+02  0.90380730652E+02 0.  0.
         11    1    3    3    0    0 -0.11018113978E+02  0.51152766152E+02  0.28716418593E+02  0.59687829728E+02  0.51100000000E-03 0. -1.
         22    1    1    0    0    0  0.17738508646E+02 -0.19783705945E+02 -0.13546160293E+02  0.29825294107E+02  0.00000000000E+00 0. -1.
</event>
<event>
 5    1  0.1094625E-009  0.9118800E+02  0.7818608E-02  0.1130116E+00
         25   -1    0    0    0    0  0.00000000000E+00  0.00000000000E+00  0.99999998245E-14  0.12500000000E+03  0.12500000000E+03 0.  0.
        -11    1    3    3    0    0  0.16609472876E+02  0.17674908844E+02  0.54755142364E+02  0.59886581197E+02  0.51100000000E-03 0. -1.
         23    2    1    0    0    0  0.17781051550E+02  0.60661806508E+00  0.23412406344E+02  0.95594650988E+02  0.90959676489E+02 0.  0.
         11    1    3    3    0    0  0.11715786745E+01 -0.17068290779E+02 -0.31342736020E+02  0.35708069791E+02  0.51100000000E-03 0.  1.
         22    1    1    0    0    0 -0.17781051550E+02 -0.60661806508E+00 -0.23412406344E+02  0.29405349012E+02  0.00000000000E+00 0. -1.
</event>
<event>
 5    1  0.1094625E-009  0.9118800E+02  0.7818608E-02  0.1130116E+00
         25   -1    0    0    0    0  0.00000000000E+00  0.00000000000E+00  0.99999998245E-14  0.12500000000E+03  0.12500000000E+03 0.  0.
        -11    1    3    3    0    0 -0.30989991904E+02 -0.90414018331E+01  0.37022974914E+02  0.49120537630E+02  0.51100000000E-03 0.  1.
         23    2    1    0    0    0 -0.14866985751E+02  0.24310355590E+02  0.10715557819E+02  0.94555890002E+02  0.89520793676E+02 0.  0.
         11    1    3    3    0    0  0.16123006153E+02  0.33351757423E+02 -0.26307417096E+02  0.45435352372E+02  0.51100000000E-03 0. -1.
         22    1    1    0    0    0  0.14866985751E+02 -0.24310355590E+02 -0.10715557819E+02  0.30444109998E+02  0.00000000000E+00 0.  1.
</event>
<event>
 5    1  0.1094625E-009  0.9118800E+02  0.7818608E-02  0.1130116E+00
         25   -1    0    0    0    0  0.00000000000E+00  0.00000000000E+00  0.99999998245E-14  0.12500000000E+03  0.12500000000E+03 0.  0.
        -11    1    3    3    0    0  0.49093548856E+02  0.93324095466E+01  0.17607382062E+02  0.52983868400E+02  0.51100000000E-03 0. -1.
         23    2    1    0    0    0  0.14538628254E+02 -0.86298393890E+01  0.27090640093E+02  0.93066496903E+02  0.87416384196E+02 0.  0.
         11    1    3    3    0    0 -0.34554920602E+02 -0.17962248936E+02  0.94832580301E+01  0.40082628504E+02  0.51100000000E-03 0.  1.
         22    1    1    0    0    0 -0.14538628254E+02  0.86298393890E+01 -0.27090640093E+02  0.31933503097E+02  0.00000000000E+00 0. -1.
</event>
<event>
 5    1  0.1094625E-009  0.9118800E+02  0.7818608E-02  0.1130116E+00
         25   -1    0    0    0    0  0.00000000000E+00  0.00000000000E+00  0.99999998245E-14  0.12500000000E+03  0.12500000000E+03 0.  0.
        -11    1    3    3    0    0  0.31568150088E+01 -0.33792747248E+02 -0.37182580823E+02  0.50343416298E+02  0.51100000000E-03 0. -1.
         23    2    1    0    0    0  0.21170679118E+02 -0.11520630381E+02  0.40601825815E+01  0.10055807574E+03  0.97542395584E+02 0.  0.
         11    1    3    3    0    0  0.18013864109E+02  0.22272116867E+02  0.41242763405E+02  0.50214659447E+02  0.51100000000E-03 0.  1.
         22    1    1    0    0    0 -0.21170679118E+02  0.11520630381E+02 -0.40601825815E+01  0.24441924255E+02  0.00000000000E+00 0. -1.
</event>
<event>
 5    1  0.1094625E-009  0.9118800E+02  0.7818608E-02  0.1130116E+00
         25   -1    0    0    0    0  0.00000000000E+00  0.00000000000E+00  0.99999998245E-14  0.12500000000E+03  0.12500000000E+03 0.  0.
        -11    1    3    3    0    0  0.29112838883E+02 -0.25944954822E+02 -0.11362720951E+02  0.40617847016E+02  0.51100000000E-03 0. -1.
         23    2    1    0    0    0  0.43060709456E+02  0.10704721063E+02 -0.49376374011E+01  0.80354776123E+02  0.66810882578E+02 0.  0.
         11    1    3    3    0    0  0.13947870573E+02  0.36649675885E+02  0.64250835496E+01  0.39736929107E+02  0.51100000000E-03 0.  1.
         22    1    1    0    0    0 -0.43060709456E+02 -0.10704721063E+02  0.49376374011E+01  0.44645223877E+02  0.00000000000E+00 0.  1.
</event>
<event>
 5    1  0.1094625E-009  0.9118800E+02  0.7818608E-02  0.1130116E+00
         25   -1    0    0    0    0  0.00000000000E+00  0.00000000000E+00  0.99999998245E-14  0.12500000000E+03  0.12500000000E+03 0.  0.
        -11    1    3    3    0    0  0.52970085681E+02  0.20206220907E+02  0.56451253932E+01  0.56973579678E+02  0.51100000000E-03 0.  1.
         23    2    1    0    0    0  0.92197522100E+01  0.57755807720E+01  0.17363765428E+02  0.10450947746E+03  0.10248106833E+03 0.  0.
         11    1    3    3    0    0 -0.43750333471E+02 -0.14430640135E+02  0.11718640035E+02  0.47535897783E+02  0.51100000000E-03 0. -1.
         22    1    1    0    0    0 -0.92197522100E+01 -0.57755807720E+01 -0.17363765428E+02  0.20490522539E+02  0.00000000000E+00 0.  1.
</event>
<event>
 5    1  0.1094625E-009  0.9118800E+02  0.7818608E-02  0.1130116E+00
         25   -1    0    0    0    0  0.00000000000E+00  0.00000000000E+00  0.99999998245E-14  0.12500000000E+03  0.12500000000E+03 0.  0.
        -11    1    3    3    0    0 -0.29868611702E+01  0.37195975956E+02 -0.26317679748E+02  0.45662700692E+02  0.51100000000E-03 0.  1.
         23    2    1    0    0    0 -0.25651244882E+02  0.37154524865E+01  0.71111858361E+01  0.98123245822E+02  0.94370606946E+02 0.  0.
         11    1    3    3    0    0 -0.22664383712E+02 -0.33480523469E+02  0.33428865584E+02  0.52460545129E+02  0.51100000000E-03 0. -1.
         22    1    1    0    0    0  0.25651244882E+02 -0.37154524865E+01 -0.71111858361E+01  0.26876754178E+02  0.00000000000E+00 0. -1.
</event>
<event>
 5    1  0.1094625E-009  0.9118800E+02  0.7818608E-02  0.1130116E+00
         25   -1    0    0    0    0  0.00000000000E+00  0.00000000000E+00  0.99999998245E-14  0.12500000000E+03  0.12500000000E+03 0.  0.
        -11    1    3    3    0    0 -0.40061551009E+02  0.19418674480E+02  0.61859243709E+01  0.44947507699E+02  0.51100000000E-03 0.  1.
         23    2    1    0    0    0  0.78831179280E+01  0.14223765483E+02  0.23702193361E+02  0.96255382714E+02  0.91863190009E+02 0.  0.
         11    1    3    3    0    0  0.47944668937E+02 -0.51949089966E+01  0.17516268990E+02  0.51307875015E+02  0.51100000000E-03 0. -1.
         22    1    1    0    0    0 -0.78831179280E+01 -0.14223765483E+02 -0.23702193361E+02  0.28744617286E+02  0.00000000000E+00 0.  1.
</event>
<event>
 5    1  0.1094625E-009  0.9118800E+02  0.7818608E-02  0.1130116E+00
         25   -1    0    0    0    0  0.00000000000E+00  0.00000000000E+00  0.99999998245E-14  0.12500000000E+03  0.12500000000E+03 0.  0.
        -11    1    3    3    0    0  0.25161666388E+02 -0.28437326350E+02 -0.40286460979E+02  0.55360544830E+02  0.51100000000E-03 0.  1.
         23    2    1    0    0    0  0.11259684552E+02 -0.27037905388E+02 -0.25501600764E+01  0.95600473807E+02  0.90967678060E+02 0.  0.
         11    1    3    3    0    0 -0.13901981836E+02  0.13994209621E+01  0.37736300902E+02  0.40239928977E+02  0.51100000000E-03 0. -1.
         22    1    1    0    0    0 -0.11259684552E+02  0.27037905388E+02  0.25501600764E+01  0.29399526193E+02  0.00000000000E+00 0.  1.
</event>
<event>
 5    1  0.1094625E-009  0.9118800E+02  0.7818608E-02  0.1130116E+00
         25   -1    0    0    0    0  0.00000000000E+00  0.00000000000E+00  0.99999998245E-14  0.12500000000E+03  0.12500000000E+03 0.  0.
        -11    1    3    3    0    0 -0.16326629310E+02  0.42736372189E+02  0.44133600661E+01  0.45961223655E+02  0.51100000000E-03 0. -1.
         23    2    1    0    0    0  0.14230998576E+02  0.77700835707E+01  0.23733187669E+02  0.96257005791E+02  0.91865398534E+02 0.  0.
         11    1    3    3    0    0  0.30557627887E+02 -0.34966288619E+02  0.19319827603E+02  0.50295782136E+02  0.51100000000E-03 0.  1.
         22    1    1    0    0    0 -0.14230998576E+02 -0.77700835707E+01 -0.23733187669E+02  0.28742994209E+02  0.00000000000E+00 0.  1.
</event>
<event>
 5    1  0.1094625E-009  0.9118800E+02  0.7818608E-02  0.1130116E+00
         25   -1    0    0    0    0  0.00000000000E+00  0.00000000000E+00  0.99999998245E-14  0.12500000000E+03  0.12500000000E+03 0.  0.
        -11    1    3    3    0    0 -0.98128536835E+01 -0.25818687237E+01 -0.58666616127E+02  0.59537635086E+02  0.51100000000E-03 0.  1.
         23    2    1    0    0    0  0.86266819170E+01  0.15712513089E+01 -0.28906261104E+02  0.94793040494E+02  0.89851322325E+02 0.  0.
         11    1    3    3    0    0  0.18439535601E+02  0.41531200326E+01  0.29760355023E+02  0.35255405409E+02  0.51100000000E-03 0. -1.
         22    1    1    0    0    0 -0.86266819170E+01 -0.15712513089E+01  0.28906261104E+02  0.30206959506E+02  0.00000000000E+00 0.  1.
</event>
<event>
 5    1  0.1094625E-009  0.9118800E+02  0.7818608E-02  0.1130116E+00
         25   -1    0    0    0    0  0.00000000000E+00  0.00000000000E+00  0.99999998245E-14  0.12500000000E+03  0.12500000000E+03 0.  0.
        -11    1    3    3    0    0  0.34718565326E+02 -0.44334336196E+01 -0.24531370069E+02  0.42741340991E+02  0.51100000000E-03 0.  1.
         23    2    1    0    0    0  0.27547847999E+01  0.29313102815E+02  0.53929139287E+00  0.95552798586E+02  0.90902143244E+02 0.  0.
         11    1    3    3    0    0 -0.31963780526E+02  0.33746536435E+02  0.25070661462E+02  0.52811457595E+02  0.51100000000E-03 0. -1.
         22    1    1    0    0    0 -0.27547847999E+01 -0.29313102815E+02 -0.53929139287E+00  0.29447201414E+02  0.00000000000E+00 0. -1.
</event>
<event>
 5    1  0.1094625E-009  0.9118800E+02  0.7818608E-02  0.1130116E+00
         25   -1    0    0    0    0  0.00000000000E+00  0.00000000000E+00  0.99999998245E-14  0.12500000000E+03  0.12500000000E+03 0.  0.
        -11    1    3    3    0    0  0.31789569163E+02  0.10524875400E+02 -0.18138543601E+01  0.33535649355E+02  0.51100000000E-03 0. -1.
         23    2    1    0    0    0 -0.28310498360E+02 -0.46773532680E+00  0.83671981451E+01  0.95475212134E+02  0.90795391036E+02 0.  0.
         11    1    3    3    0    0 -0.60100067523E+02 -0.10992610727E+02  0.10181052505E+02  0.61939562779E+02  0.51100000000E-03 0.  1.
         22    1    1    0    0    0  0.28310498360E+02  0.46773532680E+00 -0.83671981451E+01  0.29524787866E+02  0.00000000000E+00 0.  1.
</event>
<event>
 5    1  0.1094625E-009  0.9118800E+02  0.7818608E-02  0.1130116E+00
         25   -1    0    0    0    0  0.00000000000E+00  0.00000000000E+00  0.99999998245E-14  0.12500000000E+03  0.12500000000E+03 0.  0.
        -11    1    3    3    0    0 -0.23233615768E+02  0.20973714687E+02 -0.44592871991E+02  0.54481389869E+02  0.51100000000E-03 0. -1.
         23    2    1    0    0    0 -0.26224457706E+02 -0.57837458072E+01 -0.16071301568E+02  0.93703664246E+02  0.88322794688E+02 0.  0.
         11    1    3    3    0    0 -0.29908419378E+01 -0.26757460494E+02  0.28521570423E+02  0.39222274377E+02  0.51100000000E-03 0.  1.
         22    1    1    0    0    0  0.26224457706E+02  0.57837458072E+01  0.16071301568E+02  0.31296335754E+02  0.00000000000E+00 0. -1.
</event>
<event>
 5    1  0.1094625E-009  0.9118800E+02  0.7818608E-02  0.1130116E+00
         25   -1    0    0    0    0  0.00000000000E+00  0.00000000000E+00  0.99999998245E-14  0.12500000000E+03  0.12500000000E+03 0.  0.
        -11    1    3    3    0    0 -0.31499695942E+02  0.19026144656E+02 -0.22951446818E+02  0.43370426977E+02  0.51100000000E-03 0. -1.
         23    2    1    0    0    0  0.20233480751E+01 -0.20582434220E+02 -0.21334938406E+02  0.95286196262E+02  0.90534794777E+02 0.  0.
         11    1    3    3    0    0  0.33523044017E+02 -0.39608578875E+02  0.16165084127E+01  0.51915769284E+02  0.51100000000E-03 0.  1.
         22    1    1    0    0    0 -0.20233480751E+01  0.20582434220E+02  0.21334938406E+02  0.29713803738E+02  0.00000000000E+00 0.  1.
</event>
<event>
 5    1  0.1094625E-009  0.9118800E+02  0.7818608E-02  0.1130116E+00
         25   -1    0    0    0    0  0.00000000000E+00  0.00000000000E+00  0.99999998245E-14  0.12500000000E+03  0.12500000000E+03 0.  0.
        -11    1    3    3    0    0  0.27756836449E+02 -0.39197388789E+02 -0.21443784926E+02  0.52599554843E+02  0.51100000000E-03 0.  1.
         23    2    1    0    0    0  0.74278278992E+01 -0.45228359046E+02 -0.61260640255E+01  0.78758181808E+02  0.63753787746E+02 0.  0.
         11    1    3    3    0    0 -0.20329008549E+02 -0.60309702571E+01  0.15317720900E+02  0.26158626965E+02  0.51100000000E-03 0. -1.
         22    1    1    0    0    0 -0.74278278992E+01  0.45228359046E+02  0.61260640255E+01  0.46241818192E+02  0.00000000000E+00 0.  1.
</event>
<event>
 5    1  0.1094625E-009  0.9118800E+02  0.7818608E-02  0.1130116E+00
         25   -1    0    0    0    0  0.00000000000E+00  0.00000000000E+00  0.99999998245E-14  0.12500000000E+03  0.12500000000E+03 0.  0.
        -11    1    3    3    0    0  0.13361012042E+02  0.32296082978E+02  0.25773718349E+02  0.43426238339E+02  0.51100000000E-03 0. -1.
         23    2    1    0    0    0 -0.27953513607E+02  0.65367580410E+01  0.94453114328E+01  0.94778450789E+02  0.89831023022E+02 0.  0.
         11    1    3    3    0    0 -0.41314525649E+02 -0.25759324937E+02 -0.16328406916E+02  0.51352212450E+02  0.51100000000E-03 0.  1.
         22    1    1    0    0    0  0.27953513607E+02 -0.65367580410E+01 -0.94453114328E+01  0.30221549211E+02  0.00000000000E+00 0.  1.
</event>
<event>
 5    1  0.1094625E-009  0.9118800E+02  0.7818608E-02  0.1130116E+00
         25   -1    0    0    0    0  0.00000000000E+00  0.00000000000E+00  0.99999998245E-14  0.12500000000E+03  0.12500000000E+03 0.  0.
        -11    1    3    3    0    0 -0.14808050959E+02 -0.16848080933E+02  0.20717028779E+02  0.30534103655E+02  0.51100000000E-03 0. -1.
         23    2    1    0    0    0 -0.74676457934E+01  0.23380097749E+02 -0.23681033344E+02  0.90894486594E+02  0.84253318324E+02 0.  0.
         11    1    3    3    0    0  0.73404051653E+01  0.40228178682E+02 -0.44398062123E+02  0.60360382939E+02  0.51100000000E-03 0.  1.
         22    1    1    0    0    0  0.74676457934E+01 -0.23380097749E+02  0.23681033344E+02  0.34105513406E+02  0.00000000000E+00 0.  1.
</event>
<event>
 5    1  0.1094625E-009  0.9118800E+02  0.7818608E-02  0.1130116E+00
         25   -1    0    0    0    0  0.00000000000E+00  0.00000000000E+00  0.99999998245E-14  0.12500000000E+03  0.12500000000E+03 0.  0.
        -11    1    3    3    0    0 -0.12257997539E+02 -0.46377752781E+02  0.34459543150E+02  0.59064495012E+02  0.51100000000E-03 0.  1.
         23    2    1    0    0    0  0.87956506786E+01 -0.23436257844E+02  0.16654049319E+02  0.94933756282E+02  0.90046871520E+02 0.  0.
         11    1    3    3    0    0  0.21053648217E+02  0.22941494937E+02 -0.17805493831E+02  0.35869261270E+02  0.51100000000E-03 0. -1.
         22    1    1    0    0    0 -0.87956506786E+01  0.23436257844E+02 -0.16654049319E+02  0.30066243718E+02  0.00000000000E+00 0.  1.
</event>
<event>
 5    1  0.1094625E-009  0.9118800E+02  0.7818608E-02  0.1130116E+00
         25   -1    0    0    0    0  0.00000000000E+00  0.00000000000E+00  0.99999998245E-14  0.12500000000E+03  0.12500000000E+03 0.  0.
        -11    1    3    3    0    0  0.14179858617E+02  0.36728747252E+02 -0.13719802261E+02  0.41692951916E+02  0.51100000000E-03 0. -1.
         23    2    1    0    0    0 -0.25510392518E+02  0.15516718852E+00 -0.14472438282E+02  0.95669884536E+02  0.91063006397E+02 0.  0.
         11    1    3    3    0    0 -0.39690251135E+02 -0.36573580064E+02 -0.75263602049E+00  0.53976932620E+02  0.51100000000E-03 0.  1.
         22    1    1    0    0    0  0.25510392518E+02 -0.15516718852E+00  0.14472438282E+02  0.29330115464E+02  0.00000000000E+00 0.  1.
</event>
<event>
 5    1  0.1094625E-009  0.9118800E+02  0.7818608E-02  0.1130116E+00
         25   -1    0    0    0    0  0.00000000000E+00  0.00000000000E+00  0.99999998245E-14  0.12500000000E+03  0.12500000000E+03 0.  0.
        -11    1    3    3    0    0 -0.19880678993E+02  0.14380899223E+02  0.24088983447E+02  0.34385037203E+02  0.51100000000E-03 0. -1.
         23    2    1    0    0    0  0.48148421127E+01 -0.15592107088E+02 -0.23862818258E+02  0.96090994427E+02  0.91639230719E+02 0.  0.
         11    1    3    3    0    0  0.24695521106E+02 -0.29973006311E+02 -0.47951801705E+02  0.61705957224E+02  0.51100000000E-03 0.  1.
         22    1    1    0    0    0 -0.48148421127E+01  0.15592107088E+02  0.23862818258E+02  0.28909005573E+02  0.00000000000E+00 0.  1.
</event>
<event>
 5    1  0.1094625E-009  0.9118800E+02  0.7818608E-02  0.1130116E+00
         25   -1    0    0    0    0  0.00000000000E+00  0.00000000000E+00  0.99999998245E-14  0.12500000000E+03  0.12500000000E+03 0.  0.
        -11    1    3    3    0    0  0.28363288682E+02 -0.18776870732E+01 -0.22764129815E+02  0.36417131410E+02  0.51100000000E-03 0.  1.
         23    2    1    0    0    0 -0.77511117431E+01  0.28381789630E+02  0.10134840936E+02  0.93882147943E+02  0.88575035906E+02 0.  0.
         11    1    3    3    0    0 -0.36114400425E+02  0.30259476703E+02  0.32898970751E+02  0.57465016533E+02  0.51100000000E-03 0. -1.
         22    1    1    0    0    0  0.77511117431E+01 -0.28381789630E+02 -0.10134840936E+02  0.31117852057E+02  0.00000000000E+00 0. -1.
</event>
<event>
 5    1  0.1094625E-009  0.9118800E+02  0.7818608E-02  0.1130116E+00
         25   -1    0    0    0    0  0.00000000000E+00  0.00000000000E+00  0.99999998245E-14  0.12500000000E+03  0.12500000000E+03 0.  0.
        -11    1    3    3    0    0  0.34055297794E+02  0.27589066109E+02  0.22364284411E+02  0.49204482459E+02  0.51100000000E-03 0. -1.
         23    2    1    0    0    0  0.71172102567E+01  0.24157903383E+02 -0.15220747746E+02  0.95573309060E+02  0.90930342928E+02 0.  0.
         11    1    3    3    0    0 -0.26938087538E+02 -0.34311627256E+01 -0.37585032157E+02  0.46368826601E+02  0.51100000000E-03 0.  1.
         22    1    1    0    0    0 -0.71172102567E+01 -0.24157903383E+02  0.15220747746E+02  0.29426690940E+02  0.00000000000E+00 0.  1.
</event>
<event>
 5    1  0.1094625E-009  0.9118800E+02  0.7818608E-02  0.1130116E+00
         25   -1    0    0    0    0  0.00000000000E+00  0.00000000000E+00  0.99999998245E-14  0.12500000000E+03  0.12500000000E+03 0.  0.
        -11    1    3    3    0    0 -0.19751670143E+01 -0.49532553477E+02  0.29521194730E+02  0.57696413036E+02  0.51100000000E-03 0. -1.
         23    2    1    0    0    0  0.13131571058E+01 -0.11427142389E+02  0.26558093861E+02  0.96058052687E+02  0.91594285694E+02 0.  0.
         11    1    3    3    0    0  0.32883241201E+01  0.38105411088E+02 -0.29631008694E+01  0.38361639651E+02  0.51100000000E-03 0.  1.
         22    1    1    0    0    0 -0.13131571058E+01  0.11427142389E+02 -0.26558093861E+02  0.28941947313E+02  0.00000000000E+00 0.  1.
</event>
<event>
 5    1  0.1094625E-009  0.9118800E+02  0.7818608E-02  0.1130116E+00
         25   -1    0    0    0    0  0.00000000000E+00  0.00000000000E+00  0.99999998245E-14  0.12500000000E+03  0.12500000000E+03 0.  0.
        -11    1    3    3    0    0  0.22318324068E+02  0.42499029454E+02 -0.27683642103E+02  0.55413528439E+02  0.51100000000E-03 0. -1.
         23    2    1    0    0    0  0.25412963688E+02  0.71248035483E+01 -0.20351278674E+02  0.91671992368E+02  0.85399052056E+02 0.  0.
         11    1    3    3    0    0  0.30946396205E+01 -0.35374225906E+02  0.73323634292E+01  0.36258463929E+02  0.51100000000E-03 0.  1.
         22    1    1    0    0    0 -0.25412963688E+02 -0.71248035483E+01  0.20351278674E+02  0.33328007632E+02  0.00000000000E+00 0. -1.
</event>
<event>
 5    1  0.1094625E-009  0.9118800E+02  0.7818608E-02  0.1130116E+00
         25   -1    0    0    0    0  0.00000000000E+00  0.00000000000E+00  0.99999998245E-14  0.12500000000E+03  0.12500000000E+03 0.  0.
        -11    1    3    3    0    0  0.15250524571E+02 -0.26637024261E+02 -0.16924928703E+02  0.35050859804E+02  0.51100000000E-03 0. -1.
         23    2    1    0    0    0 -0.16323274032E+02  0.73450893463E+01  0.22723756793E+02  0.96073044830E+02  0.91614743395E+02 0.  0.
         11    1    3    3    0    0 -0.31573798603E+02  0.33982113607E+02  0.39648685497E+02  0.61022185025E+02  0.51100000000E-03 0.  1.
         22    1    1    0    0    0  0.16323274032E+02 -0.73450893463E+01 -0.22723756793E+02  0.28926955170E+02  0.00000000000E+00 0.  1.
</event>
<event>
 5    1  0.1094625E-009  0.9118800E+02  0.7818608E-02  0.1130116E+00
         25   -1    0    0    0    0  0.00000000000E+00  0.00000000000E+00  0.99999998245E-14  0.12500000000E+03  0.12500000000E+03 0.  0.
        -11    1    3    3    0    0 -0.23569051379E+02 -0.37596826711E+02  0.22306723866E+02  0.49664992616E+02  0.51100000000E-03 0.  1.
         23    2    1    0    0    0 -0.20348629749E+02  0.11063230105E+02  0.61938552050E+01  0.10102447841E+03  0.98138267784E+02 0.  0.
         11    1    3    3    0    0  0.32204216299E+01  0.48660056816E+02 -0.16112868661E+02  0.51359485799E+02  0.51100000000E-03 0. -1.
         22    1    1    0    0    0  0.20348629749E+02 -0.11063230105E+02 -0.61938552050E+01  0.23975521586E+02  0.00000000000E+00 0.  1.
</event>
<event>
 5    1  0.1094625E-009  0.9118800E+02  0.7818608E-02  0.1130116E+00
         25   -1    0    0    0    0  0.00000000000E+00  0.00000000000E+00  0.99999998245E-14  0.12500000000E+03  0.12500000000E+03 0.  0.
        -11    1    3    3    0    0 -0.33713403410E+02 -0.28791497751E+02 -0.94350353526E+01  0.45327296463E+02  0.51100000000E-03 0.  1.
         23    2    1    0    0    0  0.14543818752E+02 -0.19572116906E+02 -0.17326214165E+02  0.95086990767E+02  0.90259335760E+02 0.  0.
         11    1    3    3    0    0  0.48257222162E+02  0.92193808450E+01 -0.78911788121E+01  0.49759694305E+02  0.51100000000E-03 0. -1.
         22    1    1    0    0    0 -0.14543818752E+02  0.19572116906E+02  0.17326214165E+02  0.29913009233E+02  0.00000000000E+00 0. -1.
</event>
<event>
 5    1  0.1094625E-009  0.9118800E+02  0.7818608E-02  0.1130116E+00
         25   -1    0    0    0    0  0.00000000000E+00  0.00000000000E+00  0.99999998245E-14  0.12500000000E+03  0.12500000000E+03 0.  0.
        -11    1    3    3    0    0  0.34045207330E+02  0.45636162146E+01  0.50521817686E+01  0.34719263759E+02  0.51100000000E-03 0. -1.
         23    2    1    0    0    0 -0.25137047415E+02  0.10774337873E+02 -0.96199448057E+01  0.96008607357E+02  0.91526782087E+02 0.  0.
         11    1    3    3    0    0 -0.59182254744E+02  0.62107216586E+01 -0.14672126574E+02  0.61289343598E+02  0.51100000000E-03 0.  1.
         22    1    1    0    0    0  0.25137047415E+02 -0.10774337873E+02  0.96199448057E+01  0.28991392643E+02  0.00000000000E+00 0.  1.
</event>
<event>
 5    1  0.1094625E-009  0.9118800E+02  0.7818608E-02  0.1130116E+00
         25   -1    0    0    0    0  0.00000000000E+00  0.00000000000E+00  0.99999998245E-14  0.12500000000E+03  0.12500000000E+03 0.  0.
        -11    1    3    3    0    0 -0.36293838079E+01  0.52152782423E+02  0.30019040382E+02  0.60284557948E+02  0.51100000000E-03 0. -1.
         23    2    1    0    0    0 -0.13197682534E+02  0.23919089612E+02  0.11645320771E+02  0.95302943446E+02  0.90557914406E+02 0.  0.
         11    1    3    3    0    0 -0.95682987257E+01 -0.28233692812E+02 -0.18373719611E+02  0.35018385498E+02  0.51100000000E-03 0.  1.
         22    1    1    0    0    0  0.13197682534E+02 -0.23919089612E+02 -0.11645320771E+02  0.29697056554E+02  0.00000000000E+00 0. -1.
</event>
<event>
 5    1  0.1094625E-009  0.9118800E+02  0.7818608E-02  0.1130116E+00
         25   -1    0    0    0    0  0.00000000000E+00  0.00000000000E+00  0.99999998245E-14  0.12500000000E+03  0.12500000000E+03 0.  0.
        -11    1    3    3    0    0  0.66342620493E+01  0.46686951275E+02  0.15640150464E+02  0.49681980225E+02  0.51100000000E-03 0.  1.
         23    2    1    0    0    0  0.38522265592E+01  0.35225108204E+01  0.29453037567E+02  0.95087976433E+02  0.90260700796E+02 0.  0.
         11    1    3    3    0    0 -0.27820354901E+01 -0.43164440455E+02  0.13812887103E+02  0.45405996208E+02  0.51100000000E-03 0. -1.
         22    1    1    0    0    0 -0.38522265592E+01 -0.35225108204E+01 -0.29453037567E+02  0.29912023567E+02  0.00000000000E+00 0.  1.
</event>
<event>
 5    1  0.1094625E-009  0.9118800E+02  0.7818608E-02  0.1130116E+00
         25   -1    0    0    0    0  0.00000000000E+00  0.00000000000E+00  0.99999998245E-14  0.12500000000E+03  0.12500000000E+03 0.  0.
        -11    1    3    3    0    0  0.11473467895E+01 -0.48626084450E+02  0.28969158132E+02  0.56612936832E+02  0.51100000000E-03 0. -1.
         23    2    1    0    0    0  0.14450281142E+02 -0.24917842009E+02  0.20005321905E+00  0.96194627294E+02  0.91780481713E+02 0.  0.
         11    1    3    3    0    0  0.13302934352E+02  0.23708242441E+02 -0.28769104913E+02  0.39581690462E+02  0.51100000000E-03 0.  1.
         22    1    1    0    0    0 -0.14450281142E+02  0.24917842009E+02 -0.20005321905E+00  0.28805372706E+02  0.00000000000E+00 0. -1.
</event>
<event>
 5    1  0.1094625E-009  0.9118800E+02  0.7818608E-02  0.1130116E+00
         25   -1    0    0    0    0  0.00000000000E+00  0.00000000000E+00  0.99999998245E-14  0.12500000000E+03  0.12500000000E+03 0.  0.
        -11    1    3    3    0    0  0.16499976810E+02  0.29402473314E+02  0.44664650136E+01  0.34010351097E+02  0.51100000000E-03 0.  1.
         23    2    1    0    0    0 -0.69033054284E+01 -0.25847009116E+02 -0.11158405770E+02  0.96013218092E+02  0.91533078845E+02 0.  0.
         11    1    3    3    0    0 -0.23403282239E+02 -0.55249482430E+02 -0.15624870783E+02  0.62002866995E+02  0.51100000000E-03 0. -1.
         22    1    1    0    0    0  0.69033054284E+01  0.25847009116E+02  0.11158405770E+02  0.28986781908E+02  0.00000000000E+00 0. -1.
</event>
<event>
 5    1  0.1094625E-009  0.9118800E+02  0.7818608E-02  0.1130116E+00
         25   -1    0    0    0    0  0.00000000000E+00  0.00000000000E+00  0.99999998245E-14  0.12500000000E+03  0.12500000000E+03 0.  0.
        -11    1    3    3    0    0  0.58230688373E+01 -0.37650039979E+02 -0.10198798849E+02  0.39439182792E+02  0.51100000000E-03 0. -1.
         23    2    1    0    0    0  0.17876285425E+01  0.23543900173E+02 -0.34873991218E+01  0.10113218058E+03  0.98275353703E+02 0.  0.
         11    1    3    3    0    0 -0.40354402948E+01  0.61193940152E+02  0.67113997270E+01  0.61692997789E+02  0.51100000000E-03 0.  1.
         22    1    1    0    0    0 -0.17876285425E+01 -0.23543900173E+02  0.34873991218E+01  0.23867819419E+02  0.00000000000E+00 0.  1.
</event>
<event>
 5    1  0.1094625E-009  0.9118800E+02  0.7818608E-02  0.1130116E+00
         25   -1    0    0    0    0  0.00000000000E+00  0.00000000000E+00  0.99999998245E-14  0.12500000000E+03  0.12500000000E+03 0.  0.
        -11    1    3    3    0    0  0.47415958169E+02 -0.10406724321E+01 -0.13128388636E+02  0.49210879657E+02  0.51100000000E-03 0.  1.
         23    2    1    0    0    0  0.11492237993E+02  0.24899202828E+02  0.50687836213E+01  0.97112110102E+02  0.93021650842E+02 0.  0.
         11    1    3    3    0    0 -0.35923720175E+02  0.25939875260E+02  0.18197172257E+02  0.47901230445E+02  0.51100000000E-03 0. -1.
         22    1    1    0    0    0 -0.11492237993E+02 -0.24899202828E+02 -0.50687836213E+01  0.27887889898E+02  0.00000000000E+00 0. -1.
</event>
<event>
 5    1  0.1094625E-009  0.9118800E+02  0.7818608E-02  0.1130116E+00
         25   -1    0    0    0    0  0.00000000000E+00  0.00000000000E+00  0.99999998245E-14  0.12500000000E+03  0.12500000000E+03 0.  0.
        -11    1    3    3    0    0 -0.29384491873E+02 -0.69825767038E+01  0.27876801760E+02  0.41101348113E+02  0.51100000000E-03 0. -1.
         23    2    1    0    0    0 -0.17382776205E+02  0.27211021385E+01 -0.24009191536E+02  0.95234137276E+02  0.90462889182E+02 0.  0.
         11    1    3    3    0    0  0.12001715667E+02  0.97036788422E+01 -0.51885993296E+02  0.54132789164E+02  0.51100000000E-03 0.  1.
         22    1    1    0    0    0  0.17382776205E+02 -0.27211021385E+01  0.24009191536E+02  0.29765862724E+02  0.00000000000E+00 0.  1.
</event>
<event>
 5    1  0.1094625E-009  0.9118800E+02  0.7818608E-02  0.1130116E+00
         25   -1    0    0    0    0  0.00000000000E+00  0.00000000000E+00  0.99999998245E-14  0.12500000000E+03  0.12500000000E+03 0.  0.
        -11    1    3    3    0    0 -0.26521629138E+02 -0.18755899443E+02  0.76817171465E+01  0.33379475050E+02  0.51100000000E-03 0. -1.
         23    2    1    0    0    0  0.24382837518E+02  0.16254848196E+02 -0.43552190222E+00  0.95692449187E+02  0.91093975085E+02 0.  0.
         11    1    3    3    0    0  0.50904466656E+02  0.35010747640E+02 -0.81172390487E+01  0.62312974137E+02  0.51100000000E-03 0.  1.
         22    1    1    0    0    0 -0.24382837518E+02 -0.16254848196E+02  0.43552190222E+00  0.29307550813E+02  0.00000000000E+00 0.  1.
</event>
<event>
 5    1  0.1094625E-009  0.9118800E+02  0.7818608E-02  0.1130116E+00
         25   -1    0    0    0    0  0.00000000000E+00  0.00000000000E+00  0.99999998245E-14  0.12500000000E+03  0.12500000000E+03 0.  0.
        -11    1    3    3    0    0  0.23841656994E+02 -0.22883672039E+02  0.48333860692E+01  0.33398333422E+02  0.51100000000E-03 0.  1.
         23    2    1    0    0    0 -0.28597987576E+02  0.69731622337E+01  0.98743361240E+01  0.93952095098E+02  0.88673692685E+02 0.  0.
         11    1    3    3    0    0 -0.52439644570E+02  0.29856834273E+02  0.50409500548E+01  0.60553761676E+02  0.51100000000E-03 0. -1.
         22    1    1    0    0    0  0.28597987576E+02 -0.69731622337E+01 -0.98743361240E+01  0.31047904902E+02  0.00000000000E+00 0. -1.
</event>
<event>
 5    1  0.1094625E-009  0.9118800E+02  0.7818608E-02  0.1130116E+00
         25   -1    0    0    0    0  0.00000000000E+00  0.00000000000E+00  0.99999998245E-14  0.12500000000E+03  0.12500000000E+03 0.  0.
        -11    1    3    3    0    0 -0.12513072772E+02 -0.38317191001E+02  0.29721570855E+02  0.50081492497E+02  0.51100000000E-03 0. -1.
         23    2    1    0    0    0  0.17956291568E+02 -0.21332248062E+02 -0.17470608181E+01  0.97061756752E+02  0.92953962735E+02 0.  0.
         11    1    3    3    0    0  0.30469364339E+02  0.16984942938E+02 -0.31468631673E+02  0.46980264255E+02  0.51100000000E-03 0.  1.
         22    1    1    0    0    0 -0.17956291568E+02  0.21332248062E+02  0.17470608181E+01  0.27938243248E+02  0.00000000000E+00 0.  1.
</event>
<event>
 5    1  0.1094625E-009  0.9118800E+02  0.7818608E-02  0.1130116E+00
         25   -1    0    0    0    0  0.00000000000E+00  0.00000000000E+00  0.99999998245E-14  0.12500000000E+03  0.12500000000E+03 0.  0.
        -11    1    3    3    0    0  0.17043128591E+02 -0.30910045394E+02 -0.41368621162E+02  0.54380713084E+02  0.51100000000E-03 0.  1.
         23    2    1    0    0    0  0.22011589912E+02 -0.18498113548E+02 -0.17497056219E+01  0.96194587921E+02  0.91780428089E+02 0.  0.
         11    1    3    3    0    0  0.49684613208E+01  0.12411931846E+02  0.39618915540E+02  0.41813874837E+02  0.51100000000E-03 0. -1.
         22    1    1    0    0    0 -0.22011589912E+02  0.18498113548E+02  0.17497056219E+01  0.28805412079E+02  0.00000000000E+00 0.  1.
</event>
<event>
 5    1  0.1094625E-009  0.9118800E+02  0.7818608E-02  0.1130116E+00
         25   -1    0    0    0    0  0.00000000000E+00  0.00000000000E+00  0.99999998245E-14  0.12500000000E+03  0.12500000000E+03 0.  0.
        -11    1    3    3    0    0  0.19630891914E+02 -0.25881750826E+02 -0.21188082140E+02  0.38783653363E+02  0.51100000000E-03 0.  1.
         23    2    1    0    0    0  0.75836800496E+01  0.17576523580E+02  0.18145200893E+02  0.98623974907E+02  0.95031540695E+02 0.  0.
         11    1    3    3    0    0 -0.12047211864E+02  0.43458274406E+02  0.39333283033E+02  0.59840321544E+02  0.51100000000E-03 0. -1.
         22    1    1    0    0    0 -0.75836800496E+01 -0.17576523580E+02 -0.18145200893E+02  0.26376025093E+02  0.00000000000E+00 0. -1.
</event>
<event>
 5    1  0.1094625E-009  0.9118800E+02  0.7818608E-02  0.1130116E+00
         25   -1    0    0    0    0  0.00000000000E+00  0.00000000000E+00  0.99999998245E-14  0.12500000000E+03  0.12500000000E+03 0.  0.
        -11    1    3    3    0    0  0.22670314048E+02  0.22183956249E+02 -0.63007118106E+01  0.32338367669E+02  0.51100000000E-03 0. -1.
         23    2    1    0    0    0 -0.27809201745E+02  0.65731561662E+01  0.18758262911E+02  0.90817687160E+02  0.84139299914E+02 0.  0.
         11    1    3    3    0    0 -0.50479515792E+02 -0.15610800083E+02  0.25058974721E+02  0.58479319492E+02  0.51100000000E-03 0.  1.
         22    1    1    0    0    0  0.27809201745E+02 -0.65731561662E+01 -0.18758262911E+02  0.34182312840E+02  0.00000000000E+00 0.  1.
</event>
<event>
 5    1  0.1094625E-009  0.9118800E+02  0.7818608E-02  0.1130116E+00
         25   -1    0    0    0    0  0.00000000000E+00  0.00000000000E+00  0.99999998245E-14  0.12500000000E+03  0.12500000000E+03 0.  0.
        -11    1    3    3    0    0 -0.12643338907E+02 -0.85686827211E+01  0.40433653714E+02  0.43222178279E+02  0.51100000000E-03 0. -1.
         23    2    1    0    0    0 -0.34788765912E+00 -0.29471423933E+02 -0.53622444099E+01  0.95042705069E+02  0.90197983721E+02 0.  0.
         11    1    3    3    0    0  0.12295451248E+02 -0.20902741212E+02 -0.45795898124E+02  0.51820526790E+02  0.51100000000E-03 0.  1.
         22    1    1    0    0    0  0.34788765912E+00  0.29471423933E+02  0.53622444099E+01  0.29957294931E+02  0.00000000000E+00 0. -1.
</event>
<event>
 5    1  0.1094625E-009  0.9118800E+02  0.7818608E-02  0.1130116E+00
         25   -1    0    0    0    0  0.00000000000E+00  0.00000000000E+00  0.99999998245E-14  0.12500000000E+03  0.12500000000E+03 0.  0.
        -11    1    3    3    0    0  0.33007008743E+02  0.19833781529E+02  0.18493397867E+02  0.42718231246E+02  0.51100000000E-03 0.  1.
         23    2    1    0    0    0 -0.97703747249E+01 -0.13578751849E+02  0.22290234966E+02  0.97130710470E+02  0.93046642162E+02 0.  0.
         11    1    3    3    0    0 -0.42777383468E+02 -0.33412533378E+02  0.37968370997E+01  0.54412479224E+02  0.51100000000E-03 0. -1.
         22    1    1    0    0    0  0.97703747249E+01  0.13578751849E+02 -0.22290234966E+02  0.27869289530E+02  0.00000000000E+00 0. -1.
</event>
<event>
 5    1  0.1094625E-009  0.9118800E+02  0.7818608E-02  0.1130116E+00
         25   -1    0    0    0    0  0.00000000000E+00  0.00000000000E+00  0.99999998245E-14  0.12500000000E+03  0.12500000000E+03 0.  0.
        -11    1    3    3    0    0  0.27030498884E+02  0.70832480940E+01 -0.30506656171E+02  0.41369993286E+02  0.51100000000E-03 0. -1.
         23    2    1    0    0    0 -0.24964880551E+02  0.47632581862E+01 -0.14065927705E+02  0.95952036015E+02  0.91449488811E+02 0.  0.
         11    1    3    3    0    0 -0.51995379435E+02 -0.23199899078E+01  0.16440728466E+02  0.54582042729E+02  0.51100000000E-03 0.  1.
         22    1    1    0    0    0  0.24964880551E+02 -0.47632581862E+01  0.14065927705E+02  0.29047963985E+02  0.00000000000E+00 0.  1.
</event>
<event>
 5    1  0.1094625E-009  0.9118800E+02  0.7818608E-02  0.1130116E+00
         25   -1    0    0    0    0  0.00000000000E+00  0.00000000000E+00  0.99999998245E-14  0.12500000000E+03  0.12500000000E+03 0.  0.
        -11    1    3    3    0    0 -0.27924080642E+02 -0.34346202847E+02  0.42389732678E+02  0.61288705048E+02  0.51100000000E-03 0.  1.
         23    2    1    0    0    0 -0.19975348753E+02 -0.10851313516E+02  0.19191388421E+02  0.95249790718E+02  0.90484516241E+02 0.  0.
         11    1    3    3    0    0  0.79487318886E+01  0.23494889331E+02 -0.23198344257E+02  0.33961085670E+02  0.51100000000E-03 0. -1.
         22    1    1    0    0    0  0.19975348753E+02  0.10851313516E+02 -0.19191388421E+02  0.29750209282E+02  0.00000000000E+00 0.  1.
</event>
<event>
 5    1  0.1094625E-009  0.9118800E+02  0.7818608E-02  0.1130116E+00
         25   -1    0    0    0    0  0.00000000000E+00  0.00000000000E+00  0.99999998245E-14  0.12500000000E+03  0.12500000000E+03 0.  0.
        -11    1    3    3    0    0 -0.28795803358E+02 -0.17690785322E+02 -0.11658435395E+01  0.33815992781E+02  0.51100000000E-03 0. -1.
         23    2    1    0    0    0  0.11945362176E+02  0.27333295751E+02  0.46322325991E+01  0.94812944612E+02  0.89879008411E+02 0.  0.
         11    1    3    3    0    0  0.40741165534E+02  0.45024081073E+02  0.57980761386E+01  0.60996951831E+02  0.51100000000E-03 0.  1.
         22    1    1    0    0    0 -0.11945362176E+02 -0.27333295751E+02 -0.46322325991E+01  0.30187055388E+02  0.00000000000E+00 0.  1.
</event>
<event>
 5    1  0.1094625E-009  0.9118800E+02  0.7818608E-02  0.1130116E+00
         25   -1    0    0    0    0  0.00000000000E+00  0.00000000000E+00  0.99999998245E-14  0.12500000000E+03  0.12500000000E+03 0.  0.
        -11    1    3    3    0    0 -0.73034164441E+01 -0.31089548994E+01 -0.57607772359E+02  0.58152050082E+02  0.51100000000E-03 0. -1.
         23    2    1    0    0    0 -0.68970221104E+00  0.14801829041E+02 -0.24945856989E+02  0.95985079477E+02  0.91494643937E+02 0.  0.
         11    1    3    3    0    0  0.66137142331E+01  0.17910783940E+02  0.32661915370E+02  0.37833029395E+02  0.51100000000E-03 0.  1.
         22    1    1    0    0    0  0.68970221104E+00 -0.14801829041E+02  0.24945856989E+02  0.29014920523E+02  0.00000000000E+00 0. -1.
</event>
<event>
 5    1  0.1094625E-009  0.9118800E+02  0.7818608E-02  0.1130116E+00
         25   -1    0    0    0    0  0.00000000000E+00  0.00000000000E+00  0.99999998245E-14  0.12500000000E+03  0.12500000000E+03 0.  0.
        -11    1    3    3    0    0  0.23687997026E+02 -0.31733479653E+02  0.18876476884E+02  0.43868625620E+02  0.51100000000E-03 0.  1.
         23    2    1    0    0    0 -0.22655124669E+02 -0.11719564896E+02  0.16929169705E+02  0.94386283107E+02  0.89283653468E+02 0.  0.
         11    1    3    3    0    0 -0.46343121695E+02  0.20013914757E+02 -0.19473071789E+01  0.50517657486E+02  0.51100000000E-03 0. -1.
         22    1    1    0    0    0  0.22655124669E+02  0.11719564896E+02 -0.16929169705E+02  0.30613716893E+02  0.00000000000E+00 0. -1.
</event>
<event>
 5    1  0.1094625E-009  0.9118800E+02  0.7818608E-02  0.1130116E+00
         25   -1    0    0    0    0  0.00000000000E+00  0.00000000000E+00  0.99999998245E-14  0.12500000000E+03  0.12500000000E+03 0.  0.
        -11    1    3    3    0    0 -0.46825653887E+02 -0.21845066641E+02 -0.38257472629E+01  0.51812017340E+02  0.51100000000E-03 0.  1.
         23    2    1    0    0    0 -0.82655602732E+01 -0.20237077564E+02  0.18469033906E+02  0.96382452789E+02  0.92035934271E+02 0.  0.
         11    1    3    3    0    0  0.38560093614E+02  0.16079890765E+01  0.22294781169E+02  0.44570435448E+02  0.51100000000E-03 0. -1.
         22    1    1    0    0    0  0.82655602732E+01  0.20237077564E+02 -0.18469033906E+02  0.28617547211E+02  0.00000000000E+00 0.  1.
</event>
<event>
 5    1  0.1094625E-009  0.9118800E+02  0.7818608E-02  0.1130116E+00
         25   -1    0    0    0    0  0.00000000000E+00  0.00000000000E+00  0.99999998245E-14  0.12500000000E+03  0.12500000000E+03 0.  0.
        -11    1    3    3    0    0  0.40370690863E+02 -0.80815638731E+00 -0.31773106853E+02  0.51380697902E+02  0.51100000000E-03 0. -1.
         23    2    1    0    0    0 -0.15426222240E+01  0.10288979368E+02 -0.28266325250E+02  0.94879775517E+02  0.89971906056E+02 0.  0.
         11    1    3    3    0    0 -0.41913313087E+02  0.11097135755E+02  0.35067816033E+01  0.43499077615E+02  0.51100000000E-03 0.  1.
         22    1    1    0    0    0  0.15426222240E+01 -0.10288979368E+02  0.28266325250E+02  0.30120224483E+02  0.00000000000E+00 0.  1.
</event>
<event>
 5    1  0.1094625E-009  0.9118800E+02  0.7818608E-02  0.1130116E+00
         25   -1    0    0    0    0  0.00000000000E+00  0.00000000000E+00  0.99999998245E-14  0.12500000000E+03  0.12500000000E+03 0.  0.
        -11    1    3    3    0    0  0.55675254339E+02  0.60981446413E+01  0.25940955672E+01  0.56068267726E+02  0.51100000000E-03 0. -1.
         23    2    1    0    0    0  0.22966234918E+02 -0.94957611473E+01  0.16813981026E+02  0.94994544096E+02  0.90131215591E+02 0.  0.
         11    1    3    3    0    0 -0.32709019421E+02 -0.15593905789E+02  0.14219885459E+02  0.38926276369E+02  0.51100000000E-03 0.  1.
         22    1    1    0    0    0 -0.22966234918E+02  0.94957611473E+01 -0.16813981026E+02  0.30005455904E+02  0.00000000000E+00 0. -1.
</event>
<event>
 5    1  0.1094625E-009  0.9118800E+02  0.7818608E-02  0.1130116E+00
         25   -1    0    0    0    0  0.00000000000E+00  0.00000000000E+00  0.99999998245E-14  0.12500000000E+03  0.12500000000E+03 0.  0.
        -11    1    3    3    0    0  0.52141219535E+02  0.61261397280E+01 -0.31536130522E+02  0.61243480397E+02  0.51100000000E-03 0. -1.
         23    2    1    0    0    0  0.18363002962E+02  0.10115254505E+01 -0.21196926752E+02  0.96936985813E+02  0.92786025097E+02 0.  0.
         11    1    3    3    0    0 -0.33778216573E+02 -0.51146142775E+01  0.10339203770E+02  0.35693505416E+02  0.51100000000E-03 0.  1.
         22    1    1    0    0    0 -0.18363002962E+02 -0.10115254505E+01  0.21196926752E+02  0.28063014187E+02  0.00000000000E+00 0. -1.
</event>
<event>
 5    1  0.1094625E-009  0.9118800E+02  0.7818608E-02  0.1130116E+00
         25   -1    0    0    0    0  0.00000000000E+00  0.00000000000E+00  0.99999998245E-14  0.12500000000E+03  0.12500000000E+03 0.  0.
        -11    1    3    3    0    0  0.69611467905E+01  0.29969649768E+02 -0.14273128851E+02  0.33916952683E+02  0.51100000000E-03 0.  1.
         23    2    1    0    0    0 -0.26198246345E+02 -0.50967984289E+01 -0.30160194626E+02  0.84726400637E+02  0.74542606335E+02 0.  0.
         11    1    3    3    0    0 -0.33159393135E+02 -0.35066448196E+02 -0.15887065775E+02  0.50809447954E+02  0.51100000000E-03 0. -1.
         22    1    1    0    0    0  0.26198246345E+02  0.50967984289E+01  0.30160194626E+02  0.40273599363E+02  0.00000000000E+00 0. -1.
</event>
<event>
 5    1  0.1094625E-009  0.9118800E+02  0.7818608E-02  0.1130116E+00
         25   -1    0    0    0    0  0.00000000000E+00  0.00000000000E+00  0.99999998245E-14  0.12500000000E+03  0.12500000000E+03 0.  0.
        -11    1    3    3    0    0  0.67563005659E+01 -0.49159267030E+02  0.31442466190E+02  0.58744444951E+02  0.51100000000E-03 0. -1.
         23    2    1    0    0    0 -0.71461474374E+01 -0.27240788105E+02  0.39360737143E+01  0.96563744338E+02  0.92281829655E+02 0.  0.
         11    1    3    3    0    0 -0.13902448003E+02  0.21918478924E+02 -0.27506392476E+02  0.37819299387E+02  0.51100000000E-03 0.  1.
         22    1    1    0    0    0  0.71461474374E+01  0.27240788105E+02 -0.39360737143E+01  0.28436255662E+02  0.00000000000E+00 0. -1.
</event>
<event>
 5    1  0.1094625E-009  0.9118800E+02  0.7818608E-02  0.1130116E+00
         25   -1    0    0    0    0  0.00000000000E+00  0.00000000000E+00  0.99999998245E-14  0.12500000000E+03  0.12500000000E+03 0.  0.
        -11    1    3    3    0    0  0.27530373387E+02  0.10263124223E+02 -0.29266723218E+02  0.41470402286E+02  0.51100000000E-03 0.  1.
         23    2    1    0    0    0 -0.23255600283E+02  0.14251525062E+02 -0.11042065731E+02  0.95574566669E+02  0.90932071720E+02 0.  0.
         11    1    3    3    0    0 -0.50785973669E+02  0.39884008398E+01  0.18224657486E+02  0.54104164383E+02  0.51100000000E-03 0. -1.
         22    1    1    0    0    0  0.23255600283E+02 -0.14251525062E+02  0.11042065731E+02  0.29425433331E+02  0.00000000000E+00 0.  1.
</event>
<event>
 5    1  0.1094625E-009  0.9118800E+02  0.7818608E-02  0.1130116E+00
         25   -1    0    0    0    0  0.00000000000E+00  0.00000000000E+00  0.99999998245E-14  0.12500000000E+03  0.12500000000E+03 0.  0.
        -11    1    3    3    0    0  0.17601462353E+02  0.25471268142E+02 -0.54906899070E+01  0.31444310354E+02  0.51100000000E-03 0. -1.
         23    2    1    0    0    0 -0.26173948231E+02 -0.17082443588E+02  0.48714437386E+01  0.93367478617E+02  0.87845715060E+02 0.  0.
         11    1    3    3    0    0 -0.43775410584E+02 -0.42553711730E+02  0.10362133646E+02  0.61923168263E+02  0.51100000000E-03 0.  1.
         22    1    1    0    0    0  0.26173948231E+02  0.17082443588E+02 -0.48714437386E+01  0.31632521383E+02  0.00000000000E+00 0.  1.
</event>
<event>
 5    1  0.1094625E-009  0.9118800E+02  0.7818608E-02  0.1130116E+00
         25   -1    0    0    0    0  0.00000000000E+00  0.00000000000E+00  0.99999998245E-14  0.12500000000E+03  0.12500000000E+03 0.  0.
        -11    1    3    3    0    0 -0.26238075629E+00  0.40563533711E+02  0.61071539377E+01  0.41021536299E+02  0.51100000000E-03 0. -1.
         23    2    1    0    0    0  0.42849880764E+01 -0.39406782642E+00 -0.29320139614E+02  0.95365779928E+02  0.90644608125E+02 0.  0.
         11    1    3    3    0    0  0.45473688327E+01 -0.40957601538E+02 -0.35427293552E+02  0.54344243630E+02  0.51100000000E-03 0.  1.
         22    1    1    0    0    0 -0.42849880764E+01  0.39406782642E+00  0.29320139614E+02  0.29634220072E+02  0.00000000000E+00 0.  1.
</event>
<event>
 5    1  0.1094625E-009  0.9118800E+02  0.7818608E-02  0.1130116E+00
         25   -1    0    0    0    0  0.00000000000E+00  0.00000000000E+00  0.99999998245E-14  0.12500000000E+03  0.12500000000E+03 0.  0.
        -11    1    3    3    0    0  0.60946280799E+01  0.41250935024E+02  0.26579668831E+02  0.49449599869E+02  0.51100000000E-03 0. -1.
         23    2    1    0    0    0 -0.98516131528E+00 -0.36345459920E+01  0.29761452354E+02  0.95001258133E+02  0.90140526586E+02 0.  0.
         11    1    3    3    0    0 -0.70797893952E+01 -0.44885481016E+02  0.31817835234E+01  0.45551658264E+02  0.51100000000E-03 0.  1.
         22    1    1    0    0    0  0.98516131528E+00  0.36345459920E+01 -0.29761452354E+02  0.29998741867E+02  0.00000000000E+00 0. -1.
</event>
<event>
 5    1  0.1094625E-009  0.9118800E+02  0.7818608E-02  0.1130116E+00
         25   -1    0    0    0    0  0.00000000000E+00  0.00000000000E+00  0.99999998245E-14  0.12500000000E+03  0.12500000000E+03 0.  0.
        -11    1    3    3    0    0 -0.24679458388E+01 -0.54631925324E+02 -0.20100892282E+02  0.58264774024E+02  0.51100000000E-03 0. -1.
         23    2    1    0    0    0  0.11272616042E+02 -0.22149472193E+02 -0.19283332452E+02  0.93543396539E+02  0.88095681703E+02 0.  0.
         11    1    3    3    0    0  0.13740561881E+02  0.32482453131E+02  0.81755982996E+00  0.35278622515E+02  0.51100000000E-03 0.  1.
         22    1    1    0    0    0 -0.11272616042E+02  0.22149472193E+02  0.19283332452E+02  0.31456603461E+02  0.00000000000E+00 0. -1.
</event>
<event>
 5    1  0.1094625E-009  0.9118800E+02  0.7818608E-02  0.1130116E+00
         25   -1    0    0    0    0  0.00000000000E+00  0.00000000000E+00  0.99999998245E-14  0.12500000000E+03  0.12500000000E+03 0.  0.
        -11    1    3    3    0    0  0.22659347860E+02  0.24142563553E+02  0.30888817555E+01  0.33254332215E+02  0.51100000000E-03 0.  1.
         23    2    1    0    0    0  0.59399241193E+01 -0.32141300948E+02 -0.24086409172E+01  0.92225810823E+02  0.86205873963E+02 0.  0.
         11    1    3    3    0    0 -0.16719423740E+02 -0.56283864501E+02 -0.54975226727E+01  0.58971478607E+02  0.51100000000E-03 0. -1.
         22    1    1    0    0    0 -0.59399241193E+01  0.32141300948E+02  0.24086409172E+01  0.32774189177E+02  0.00000000000E+00 0. -1.
</event>
<event>
 5    1  0.1094625E-009  0.9118800E+02  0.7818608E-02  0.1130116E+00
         25   -1    0    0    0    0  0.00000000000E+00  0.00000000000E+00  0.99999998245E-14  0.12500000000E+03  0.12500000000E+03 0.  0.
        -11    1    3    3    0    0 -0.49450530100E+02  0.29684300420E+02  0.81793573202E+01  0.58253021424E+02  0.51100000000E-03 0.  1.
         23    2    1    0    0    0 -0.23333144666E+02  0.35812580259E+01  0.16618730298E+02  0.96130582863E+02  0.91693215212E+02 0.  0.
         11    1    3    3    0    0  0.26117385433E+02 -0.26103042394E+02  0.84393729782E+01  0.37877561440E+02  0.51100000000E-03 0. -1.
         22    1    1    0    0    0  0.23333144666E+02 -0.35812580259E+01 -0.16618730298E+02  0.28869417137E+02  0.00000000000E+00 0.  1.
</event>
<event>
 5    1  0.1094625E-009  0.9118800E+02  0.7818608E-02  0.1130116E+00
         25   -1    0    0    0    0  0.00000000000E+00  0.00000000000E+00  0.99999998245E-14  0.12500000000E+03  0.12500000000E+03 0.  0.
        -11    1    3    3    0    0 -0.44355048741E+02  0.65680748477E+00 -0.26899103929E+02  0.51878353264E+02  0.51100000000E-03 0. -1.
         23    2    1    0    0    0 -0.12428480472E+02 -0.22879429841E+02 -0.20067932479E+02  0.92126646800E+02  0.86061964304E+02 0.  0.
         11    1    3    3    0    0  0.31926568269E+02 -0.23536237325E+02  0.68311714506E+01  0.40248293536E+02  0.51100000000E-03 0.  1.
         22    1    1    0    0    0  0.12428480472E+02  0.22879429841E+02  0.20067932479E+02  0.32873353200E+02  0.00000000000E+00 0. -1.
</event>
<event>
 5    1  0.1094625E-009  0.9118800E+02  0.7818608E-02  0.1130116E+00
         25   -1    0    0    0    0  0.00000000000E+00  0.00000000000E+00  0.99999998245E-14  0.12500000000E+03  0.12500000000E+03 0.  0.
        -11    1    3    3    0    0  0.14305287381E+02 -0.13609304111E+02 -0.30365830863E+02  0.36220685937E+02  0.51100000000E-03 0.  1.
         23    2    1    0    0    0 -0.88978946295E+01 -0.39327978979E+02  0.33244399885E+01  0.84541201691E+02  0.74231397822E+02 0.  0.
         11    1    3    3    0    0 -0.23203182011E+02 -0.25718674868E+02  0.33690270852E+02  0.48320515754E+02  0.51100000000E-03 0. -1.
         22    1    1    0    0    0  0.88978946295E+01  0.39327978979E+02 -0.33244399885E+01  0.40458798309E+02  0.00000000000E+00 0. -1.
</event>
<event>
 5    1  0.1094625E-009  0.9118800E+02  0.7818608E-02  0.1130116E+00
         25   -1    0    0    0    0  0.00000000000E+00  0.00000000000E+00  0.99999998245E-14  0.12500000000E+03  0.12500000000E+03 0.  0.
        -11    1    3    3    0    0  0.52425176637E+02 -0.36869050376E+01  0.32773382566E+02  0.61936152764E+02  0.51100000000E-03 0. -1.
         23    2    1    0    0    0  0.26866855653E+02 -0.13806850470E+01  0.98336134907E+01  0.96356777797E+02  0.92001056784E+02 0.  0.
         11    1    3    3    0    0 -0.25558320984E+02  0.23062199906E+01 -0.22939769075E+02  0.34420625033E+02  0.51100000000E-03 0.  1.
         22    1    1    0    0    0 -0.26866855653E+02  0.13806850470E+01 -0.98336134907E+01  0.28643222203E+02  0.00000000000E+00 0. -1.
</event>
<event>
 5    1  0.1094625E-009  0.9118800E+02  0.7818608E-02  0.1130116E+00
         25   -1    0    0    0    0  0.00000000000E+00  0.00000000000E+00  0.99999998245E-14  0.12500000000E+03  0.12500000000E+03 0.  0.
        -11    1    3    3    0    0  0.35897395191E+02 -0.48118710535E+02 -0.31331486339E+01  0.60115305087E+02  0.51100000000E-03 0. -1.
         23    2    1    0    0    0  0.12720664487E+02 -0.27302599385E+02  0.90253946641E+01  0.93556320397E+02  0.88114017609E+02 0.  0.
         11    1    3    3    0    0 -0.23176730703E+02  0.20816111151E+02  0.12158543298E+02  0.33441015310E+02  0.51100000000E-03 0.  1.
         22    1    1    0    0    0 -0.12720664487E+02  0.27302599385E+02 -0.90253946641E+01  0.31443679603E+02  0.00000000000E+00 0. -1.
</event>
<event>
 5    1  0.1094625E-009  0.9118800E+02  0.7818608E-02  0.1130116E+00
         25   -1    0    0    0    0  0.00000000000E+00  0.00000000000E+00  0.99999998245E-14  0.12500000000E+03  0.12500000000E+03 0.  0.
        -11    1    3    3    0    0  0.49338182077E+02 -0.23542565827E+02 -0.20537574158E+01  0.54705818120E+02  0.51100000000E-03 0.  1.
         23    2    1    0    0    0  0.10049023533E+02 -0.25263607077E+02 -0.12015162533E+02  0.95274643026E+02  0.90518841998E+02 0.  0.
         11    1    3    3    0    0 -0.39289158544E+02 -0.17210412502E+01 -0.99614051173E+01  0.40568824906E+02  0.51100000000E-03 0. -1.
         22    1    1    0    0    0 -0.10049023533E+02  0.25263607077E+02  0.12015162533E+02  0.29725356974E+02  0.00000000000E+00 0.  1.
</event>
<event>
 5    1  0.1094625E-009  0.9118800E+02  0.7818608E-02  0.1130116E+00
         25   -1    0    0    0    0  0.00000000000E+00  0.00000000000E+00  0.99999998245E-14  0.12500000000E+03  0.12500000000E+03 0.  0.
        -11    1    3    3    0    0 -0.42533899775E+02  0.17589544250E+01  0.24938011004E+02  0.49336912589E+02  0.51100000000E-03 0.  1.
         23    2    1    0    0    0 -0.14257622999E+02 -0.92774318525E+01 -0.16897091889E+02  0.10102371443E+03  0.98137294684E+02 0.  0.
         11    1    3    3    0    0  0.28276276776E+02 -0.11036386278E+02 -0.41835102893E+02  0.51686801842E+02  0.51100000000E-03 0. -1.
         22    1    1    0    0    0  0.14257622999E+02  0.92774318525E+01  0.16897091889E+02  0.23976285569E+02  0.00000000000E+00 0. -1.
</event>
<event>
 5    1  0.1094625E-009  0.9118800E+02  0.7818608E-02  0.1130116E+00
         25   -1    0    0    0    0  0.00000000000E+00  0.00000000000E+00  0.99999998245E-14  0.12500000000E+03  0.12500000000E+03 0.  0.
        -11    1    3    3    0    0  0.46366184038E+01 -0.34859817035E+02  0.17846524757E+02  0.39436068771E+02  0.51100000000E-03 0.  1.
         23    2    1    0    0    0  0.14999372185E+02 -0.26371543986E+00 -0.25228880158E+02  0.95647877320E+02  0.91032792608E+02 0.  0.
         11    1    3    3    0    0  0.10362753781E+02  0.34596101595E+02 -0.43075404915E+02  0.56211808549E+02  0.51100000000E-03 0. -1.
         22    1    1    0    0    0 -0.14999372185E+02  0.26371543986E+00  0.25228880158E+02  0.29352122680E+02  0.00000000000E+00 0.  1.
</event>
<event>
 5    1  0.1094625E-009  0.9118800E+02  0.7818608E-02  0.1130116E+00
         25   -1    0    0    0    0  0.00000000000E+00  0.00000000000E+00  0.99999998245E-14  0.12500000000E+03  0.12500000000E+03 0.  0.
        -11    1    3    3    0    0 -0.16842902021E+02 -0.35810263594E+02 -0.38078920600E+02  0.54918690092E+02  0.51100000000E-03 0.  1.
         23    2    1    0    0    0 -0.24801413022E+02 -0.15366603492E+02 -0.38549910025E+01  0.95570362789E+02  0.90926292662E+02 0.  0.
         11    1    3    3    0    0 -0.79585110003E+01  0.20443660102E+02  0.34223929597E+02  0.40651672697E+02  0.51100000000E-03 0. -1.
         22    1    1    0    0    0  0.24801413022E+02  0.15366603492E+02  0.38549910025E+01  0.29429637211E+02  0.00000000000E+00 0. -1.
</event>
<event>
 5    1  0.1094625E-009  0.9118800E+02  0.7818608E-02  0.1130116E+00
         25   -1    0    0    0    0  0.00000000000E+00  0.00000000000E+00  0.99999998245E-14  0.12500000000E+03  0.12500000000E+03 0.  0.
        -11    1    3    3    0    0 -0.12478458960E+02  0.14371913039E+02 -0.46470677101E+02  0.50217403885E+02  0.51100000000E-03 0. -1.
         23    2    1    0    0    0 -0.77709437132E+00 -0.19001697250E+02 -0.30579695487E+02  0.88989082904E+02  0.81377335456E+02 0.  0.
         11    1    3    3    0    0  0.11701364589E+02 -0.33373610289E+02  0.15890981615E+02  0.38771679019E+02  0.51100000000E-03 0.  1.
         22    1    1    0    0    0  0.77709437132E+00  0.19001697250E+02  0.30579695487E+02  0.36010917096E+02  0.00000000000E+00 0. -1.
</event>
<event>
 5    1  0.1094625E-009  0.9118800E+02  0.7818608E-02  0.1130116E+00
         25   -1    0    0    0    0  0.00000000000E+00  0.00000000000E+00  0.99999998245E-14  0.12500000000E+03  0.12500000000E+03 0.  0.
        -11    1    3    3    0    0  0.54929798748E+02  0.41517443085E+01  0.21453315382E+02  0.59116533325E+02  0.51100000000E-03 0.  1.
         23    2    1    0    0    0  0.17452020784E+02  0.23468619550E+01  0.22223596475E+02  0.96645652348E+02  0.92392711222E+02 0.  0.
         11    1    3    3    0    0 -0.37477777964E+02 -0.18048823535E+01  0.77028109313E+00  0.37529119023E+02  0.51100000000E-03 0. -1.
         22    1    1    0    0    0 -0.17452020784E+02 -0.23468619550E+01 -0.22223596475E+02  0.28354347652E+02  0.00000000000E+00 0.  1.
</event>
<event>
 5    1  0.1094625E-009  0.9118800E+02  0.7818608E-02  0.1130116E+00
         25   -1    0    0    0    0  0.00000000000E+00  0.00000000000E+00  0.99999998245E-14  0.12500000000E+03  0.12500000000E+03 0.  0.
        -11    1    3    3    0    0  0.14405265035E+02 -0.23535184575E+02  0.32434101710E+02  0.42583888124E+02  0.51100000000E-03 0. -1.
         23    2    1    0    0    0  0.19615868229E+02  0.22045113634E+02  0.87077159639E+01  0.94233238084E+02  0.89069127765E+02 0.  0.
         11    1    3    3    0    0  0.52106031939E+01  0.45580298209E+02 -0.23726385746E+02  0.51649349960E+02  0.51100000000E-03 0.  1.
         22    1    1    0    0    0 -0.19615868229E+02 -0.22045113634E+02 -0.87077159639E+01  0.30766761916E+02  0.00000000000E+00 0.  1.
</event>
<event>
 5    1  0.1094625E-009  0.9118800E+02  0.7818608E-02  0.1130116E+00
         25   -1    0    0    0    0  0.00000000000E+00  0.00000000000E+00  0.99999998245E-14  0.12500000000E+03  0.12500000000E+03 0.  0.
        -11    1    3    3    0    0 -0.11851293195E+02 -0.14614558342E+02  0.84054226782E+00  0.18834674870E+02  0.51100000000E-03 0.  1.
         23    2    1    0    0    0  0.10322965560E+02  0.43033699939E+02  0.30545319063E+01  0.80640185826E+02  0.67342753556E+02 0.  0.
         11    1    3    3    0    0  0.22174258754E+02  0.57648258281E+02  0.22139896385E+01  0.61805510956E+02  0.51100000000E-03 0. -1.
         22    1    1    0    0    0 -0.10322965560E+02 -0.43033699939E+02 -0.30545319063E+01  0.44359814174E+02  0.00000000000E+00 0. -1.
</event>
<event>
 5    1  0.1094625E-009  0.9118800E+02  0.7818608E-02  0.1130116E+00
         25   -1    0    0    0    0  0.00000000000E+00  0.00000000000E+00  0.99999998245E-14  0.12500000000E+03  0.12500000000E+03 0.  0.
        -11    1    3    3    0    0 -0.13244462387E+02  0.47840541492E+02 -0.16293305582E+02  0.52245621838E+02  0.51100000000E-03 0.  1.
         23    2    1    0    0    0  0.12405254821E+02  0.23804401262E+02  0.10222338542E+02  0.96276558843E+02  0.91892000255E+02 0.  0.
         11    1    3    3    0    0  0.25649717208E+02 -0.24036140230E+02  0.26515644123E+02  0.44030937005E+02  0.51100000000E-03 0. -1.
         22    1    1    0    0    0 -0.12405254821E+02 -0.23804401262E+02 -0.10222338542E+02  0.28723441157E+02  0.00000000000E+00 0. -1.
</event>
<event>
 5    1  0.1094625E-009  0.9118800E+02  0.7818608E-02  0.1130116E+00
         25   -1    0    0    0    0  0.00000000000E+00  0.00000000000E+00  0.99999998245E-14  0.12500000000E+03  0.12500000000E+03 0.  0.
        -11    1    3    3    0    0  0.44100512675E+02  0.23567714329E+02  0.33395293605E+01  0.50114317650E+02  0.51100000000E-03 0.  1.
         23    2    1    0    0    0  0.73415919294E+01  0.98370315768E+01  0.26581946175E+02  0.95720894400E+02  0.91132999511E+02 0.  0.
         11    1    3    3    0    0 -0.36758920745E+02 -0.13730682752E+02  0.23242416815E+02  0.45606576750E+02  0.51100000000E-03 0. -1.
         22    1    1    0    0    0 -0.73415919294E+01 -0.98370315768E+01 -0.26581946175E+02  0.29279105600E+02  0.00000000000E+00 0.  1.
</event>
<event>
 5    1  0.1094625E-009  0.9118800E+02  0.7818608E-02  0.1130116E+00
         25   -1    0    0    0    0  0.00000000000E+00  0.00000000000E+00  0.99999998245E-14  0.12500000000E+03  0.12500000000E+03 0.  0.
        -11    1    3    3    0    0 -0.49570586250E+02 -0.48620575225E+01 -0.70971540759E+01  0.50311551564E+02  0.51100000000E-03 0.  1.
         23    2    1    0    0    0 -0.62323827086E+01 -0.20637311773E+02 -0.17075678803E+02  0.97498726610E+02  0.93539733015E+02 0.  0.
         11    1    3    3    0    0  0.43338203541E+02 -0.15775254251E+02 -0.99785247273E+01  0.47187175047E+02  0.51100000000E-03 0. -1.
         22    1    1    0    0    0  0.62323827086E+01  0.20637311773E+02  0.17075678803E+02  0.27501273390E+02  0.00000000000E+00 0. -1.
</event>
<event>
 5    1  0.1094625E-009  0.9118800E+02  0.7818608E-02  0.1130116E+00
         25   -1    0    0    0    0  0.00000000000E+00  0.00000000000E+00  0.99999998245E-14  0.12500000000E+03  0.12500000000E+03 0.  0.
        -11    1    3    3    0    0 -0.17376826228E+02  0.58000798815E+02  0.12071263149E+02  0.61739469930E+02  0.51100000000E-03 0. -1.
         23    2    1    0    0    0 -0.10384748587E+02  0.29968168332E+02  0.13184269389E+02  0.90652378894E+02  0.83893353273E+02 0.  0.
         11    1    3    3    0    0  0.69920776413E+01 -0.28032630484E+02  0.11130062394E+01  0.28912908963E+02  0.51100000000E-03 0.  1.
         22    1    1    0    0    0  0.10384748587E+02 -0.29968168332E+02 -0.13184269389E+02  0.34347621106E+02  0.00000000000E+00 0. -1.
</event>
<event>
 5    1  0.1094625E-009  0.9118800E+02  0.7818608E-02  0.1130116E+00
         25   -1    0    0    0    0  0.00000000000E+00  0.00000000000E+00  0.99999998245E-14  0.12500000000E+03  0.12500000000E+03 0.  0.
        -11    1    3    3    0    0 -0.43217530582E+02  0.17461503931E+02 -0.68467989281E+01  0.47111970082E+02  0.51100000000E-03 0.  1.
         23    2    1    0    0    0  0.35035070506E+01  0.26705385670E+02  0.78333167736E+01  0.96949812173E+02  0.92803302976E+02 0.  0.
         11    1    3    3    0    0  0.46721037632E+02  0.92438817390E+01  0.14680115702E+02  0.49837842092E+02  0.51100000000E-03 0. -1.
         22    1    1    0    0    0 -0.35035070506E+01 -0.26705385670E+02 -0.78333167736E+01  0.28050187827E+02  0.00000000000E+00 0.  1.
</event>
<event>
 5    1  0.1094625E-009  0.9118800E+02  0.7818608E-02  0.1130116E+00
         25   -1    0    0    0    0  0.00000000000E+00  0.00000000000E+00  0.99999998245E-14  0.12500000000E+03  0.12500000000E+03 0.  0.
        -11    1    3    3    0    0  0.21929805369E+02  0.16384934137E+02 -0.31373491660E+02  0.41637464012E+02  0.51100000000E-03 0. -1.
         23    2    1    0    0    0 -0.20109392675E+02 -0.14408330483E+02 -0.14039152070E+02  0.96555572569E+02  0.92270759952E+02 0.  0.
         11    1    3    3    0    0 -0.42039198044E+02 -0.30793264620E+02  0.17334339590E+02  0.54918108556E+02  0.51100000000E-03 0.  1.
         22    1    1    0    0    0  0.20109392675E+02  0.14408330483E+02  0.14039152070E+02  0.28444427431E+02  0.00000000000E+00 0.  1.
</event>
<event>
 5    1  0.1094625E-009  0.9118800E+02  0.7818608E-02  0.1130116E+00
         25   -1    0    0    0    0  0.00000000000E+00  0.00000000000E+00  0.99999998245E-14  0.12500000000E+03  0.12500000000E+03 0.  0.
        -11    1    3    3    0    0 -0.35299687533E+02 -0.37189160055E+02  0.10102050777E+02  0.52260434324E+02  0.51100000000E-03 0.  1.
         23    2    1    0    0    0 -0.23606331955E+02 -0.24178741228E+01 -0.15195263146E+02  0.96821975837E+02  0.92630955729E+02 0.  0.
         11    1    3    3    0    0  0.11693355578E+02  0.34771285932E+02 -0.25297313924E+02  0.44561541514E+02  0.51100000000E-03 0. -1.
         22    1    1    0    0    0  0.23606331955E+02  0.24178741228E+01  0.15195263146E+02  0.28178024163E+02  0.00000000000E+00 0. -1.
</event>
<event>
 5    1  0.1094625E-009  0.9118800E+02  0.7818608E-02  0.1130116E+00
         25   -1    0    0    0    0  0.00000000000E+00  0.00000000000E+00  0.99999998245E-14  0.12500000000E+03  0.12500000000E+03 0.  0.
        -11    1    3    3    0    0 -0.33038218117E+02  0.39972982217E+02 -0.20227487356E+01  0.51898503604E+02  0.51100000000E-03 0.  1.
         23    2    1    0    0    0 -0.24233822408E+02  0.19946930186E+00  0.15488025447E+02  0.96238969616E+02  0.91840853676E+02 0.  0.
         11    1    3    3    0    0  0.88043957088E+01 -0.39773512915E+02  0.17510774182E+02  0.44340466012E+02  0.51100000000E-03 0. -1.
         22    1    1    0    0    0  0.24233822408E+02 -0.19946930186E+00 -0.15488025447E+02  0.28761030384E+02  0.00000000000E+00 0.  1.
</event>
<event>
 5    1  0.1094625E-009  0.9118800E+02  0.7818608E-02  0.1130116E+00
         25   -1    0    0    0    0  0.00000000000E+00  0.00000000000E+00  0.99999998245E-14  0.12500000000E+03  0.12500000000E+03 0.  0.
        -11    1    3    3    0    0 -0.25633247568E+01  0.52095542219E+01  0.43322818610E+02  0.43710144150E+02  0.51100000000E-03 0.  1.
         23    2    1    0    0    0  0.28109887190E+02  0.93392699221E+01  0.20362769474E+01  0.95309359315E+02  0.90566770002E+02 0.  0.
         11    1    3    3    0    0  0.30673211947E+02  0.41297157002E+01 -0.41286541663E+02  0.51599215165E+02  0.51100000000E-03 0. -1.
         22    1    1    0    0    0 -0.28109887190E+02 -0.93392699221E+01 -0.20362769474E+01  0.29690640685E+02  0.00000000000E+00 0. -1.
</event>
<event>
 5    1  0.1094625E-009  0.9118800E+02  0.7818608E-02  0.1130116E+00
         25   -1    0    0    0    0  0.00000000000E+00  0.00000000000E+00  0.99999998245E-14  0.12500000000E+03  0.12500000000E+03 0.  0.
        -11    1    3    3    0    0 -0.20969962822E+02  0.29426599591E+02  0.35838164044E+02  0.50892416985E+02  0.51100000000E-03 0.  1.
         23    2    1    0    0    0 -0.11079852014E+02 -0.12489066975E+02  0.24369510485E+02  0.95459977051E+02  0.90774414141E+02 0.  0.
         11    1    3    3    0    0  0.98901108081E+01 -0.41915666566E+02 -0.11468653559E+02  0.44567560066E+02  0.51100000000E-03 0. -1.
         22    1    1    0    0    0  0.11079852014E+02  0.12489066975E+02 -0.24369510485E+02  0.29540022949E+02  0.00000000000E+00 0.  1.
</event>
<event>
 5    1  0.1094625E-009  0.9118800E+02  0.7818608E-02  0.1130116E+00
         25   -1    0    0    0    0  0.00000000000E+00  0.00000000000E+00  0.99999998245E-14  0.12500000000E+03  0.12500000000E+03 0.  0.
        -11    1    3    3    0    0  0.11393126683E+02  0.12364135103E+02  0.57564164357E+02  0.59969227032E+02  0.51100000000E-03 0. -1.
         23    2    1    0    0    0 -0.17310443096E+01  0.13557301394E+02  0.44188082139E+02  0.78746529442E+02  0.63730937233E+02 0.  0.
         11    1    3    3    0    0 -0.13124170992E+02  0.11931662913E+01 -0.13376082218E+02  0.18777302410E+02  0.51100000000E-03 0.  1.
         22    1    1    0    0    0  0.17310443096E+01 -0.13557301394E+02 -0.44188082139E+02  0.46253470558E+02  0.00000000000E+00 0. -1.
</event>
<event>
 5    1  0.1094625E-009  0.9118800E+02  0.7818608E-02  0.1130116E+00
         25   -1    0    0    0    0  0.00000000000E+00  0.00000000000E+00  0.99999998245E-14  0.12500000000E+03  0.12500000000E+03 0.  0.
        -11    1    3    3    0    0 -0.20408511175E+02  0.17391237855E+01  0.10944606818E+02  0.23223184506E+02  0.51100000000E-03 0.  1.
         23    2    1    0    0    0 -0.14766616452E+02  0.17359552331E+02 -0.41182401745E+02  0.77931993541E+02  0.62112787614E+02 0.  0.
         11    1    3    3    0    0  0.56418947231E+01  0.15620428545E+02 -0.52127008563E+02  0.54708809035E+02  0.51100000000E-03 0. -1.
         22    1    1    0    0    0  0.14766616452E+02 -0.17359552331E+02  0.41182401745E+02  0.47068006459E+02  0.00000000000E+00 0. -1.
</event>
<event>
 5    1  0.1094625E-009  0.9118800E+02  0.7818608E-02  0.1130116E+00
         25   -1    0    0    0    0  0.00000000000E+00  0.00000000000E+00  0.99999998245E-14  0.12500000000E+03  0.12500000000E+03 0.  0.
        -11    1    3    3    0    0  0.30599611310E+02  0.22152504489E+02 -0.12916676200E+02  0.39923804826E+02  0.51100000000E-03 0. -1.
         23    2    1    0    0    0 -0.18625266656E+01 -0.23010022220E+02 -0.17932261214E+02  0.95768234395E+02  0.91197908961E+02 0.  0.
         11    1    3    3    0    0 -0.32462137975E+02 -0.45162526709E+02 -0.50155850145E+01  0.55844429569E+02  0.51100000000E-03 0.  1.
         22    1    1    0    0    0  0.18625266656E+01  0.23010022220E+02  0.17932261214E+02  0.29231765605E+02  0.00000000000E+00 0.  1.
</event>
<event>
 5    1  0.1094625E-009  0.9118800E+02  0.7818608E-02  0.1130116E+00
         25   -1    0    0    0    0  0.00000000000E+00  0.00000000000E+00  0.99999998245E-14  0.12500000000E+03  0.12500000000E+03 0.  0.
        -11    1    3    3    0    0 -0.20013962847E+02  0.41227540230E+01 -0.43440737138E+02  0.48006806319E+02  0.51100000000E-03 0.  1.
         23    2    1    0    0    0 -0.92788410300E+00 -0.26483308273E+02 -0.11782334553E+02  0.95999138056E+02  0.91513848755E+02 0.  0.
         11    1    3    3    0    0  0.19086078744E+02 -0.30606062296E+02  0.31658402585E+02  0.47992331737E+02  0.51100000000E-03 0. -1.
         22    1    1    0    0    0  0.92788410300E+00  0.26483308273E+02  0.11782334553E+02  0.29000861944E+02  0.00000000000E+00 0.  1.
</event>
<event>
 5    1  0.1094625E-009  0.9118800E+02  0.7818608E-02  0.1130116E+00
         25   -1    0    0    0    0  0.00000000000E+00  0.00000000000E+00  0.99999998245E-14  0.12500000000E+03  0.12500000000E+03 0.  0.
        -11    1    3    3    0    0 -0.59378216279E+02  0.12519432098E+02 -0.24167091971E+01  0.60731781072E+02  0.51100000000E-03 0.  1.
         23    2    1    0    0    0 -0.24160181668E+02  0.15665782237E+02 -0.25752044889E+01  0.96090437750E+02  0.91638471384E+02 0.  0.
         11    1    3    3    0    0  0.35218034612E+02  0.31463501395E+01 -0.15849529177E+00  0.35358656679E+02  0.51100000000E-03 0. -1.
         22    1    1    0    0    0  0.24160181668E+02 -0.15665782237E+02  0.25752044889E+01  0.28909562250E+02  0.00000000000E+00 0.  1.
</event>
<event>
 5    1  0.1094625E-009  0.9118800E+02  0.7818608E-02  0.1130116E+00
         25   -1    0    0    0    0  0.00000000000E+00  0.00000000000E+00  0.99999998245E-14  0.12500000000E+03  0.12500000000E+03 0.  0.
        -11    1    3    3    0    0 -0.90131737060E+01 -0.54035198795E+02  0.61331920737E+01  0.55124006153E+02  0.51100000000E-03 0. -1.
         23    2    1    0    0    0 -0.16427733829E+02 -0.14362400079E+02  0.17471838534E+02  0.97046214629E+02  0.92933060088E+02 0.  0.
         11    1    3    3    0    0 -0.74145601229E+01  0.39672798716E+02  0.11338646460E+02  0.41922208477E+02  0.51100000000E-03 0.  1.
         22    1    1    0    0    0  0.16427733829E+02  0.14362400079E+02 -0.17471838534E+02  0.27953785371E+02  0.00000000000E+00 0. -1.
</event>
<event>
 5    1  0.1094625E-009  0.9118800E+02  0.7818608E-02  0.1130116E+00
         25   -1    0    0    0    0  0.00000000000E+00  0.00000000000E+00  0.99999998245E-14  0.12500000000E+03  0.12500000000E+03 0.  0.
        -11    1    3    3    0    0 -0.19799182872E+02 -0.41751178769E+02  0.52673399067E+01  0.46507133227E+02  0.51100000000E-03 0.  1.
         23    2    1    0    0    0  0.36983075564E+01 -0.31105295467E+01 -0.24093642007E+02  0.10042650904E+03  0.97373647666E+02 0.  0.
         11    1    3    3    0    0  0.23497490429E+02  0.38640649223E+02 -0.29360981913E+02  0.53919375812E+02  0.51100000000E-03 0. -1.
         22    1    1    0    0    0 -0.36983075564E+01  0.31105295467E+01  0.24093642007E+02  0.24573490961E+02  0.00000000000E+00 0. -1.
</event>
<event>
 5    1  0.1094625E-009  0.9118800E+02  0.7818608E-02  0.1130116E+00
         25   -1    0    0    0    0  0.00000000000E+00  0.00000000000E+00  0.99999998245E-14  0.12500000000E+03  0.12500000000E+03 0.  0.
        -11    1    3    3    0    0  0.45353638275E+01 -0.73400965233E+00  0.34301298831E+02  0.34607620505E+02  0.51100000000E-03 0. -1.
         23    2    1    0    0    0  0.14409503875E+01  0.21174350278E+02 -0.21593778111E+02  0.94722604128E+02  0.89753278670E+02 0.  0.
         11    1    3    3    0    0 -0.30944134400E+01  0.21908359930E+02 -0.55895076942E+02  0.60114983623E+02  0.51100000000E-03 0.  1.
         22    1    1    0    0    0 -0.14409503875E+01 -0.21174350278E+02  0.21593778111E+02  0.30277395872E+02  0.00000000000E+00 0.  1.
</event>
<event>
 5    1  0.1094625E-009  0.9118800E+02  0.7818608E-02  0.1130116E+00
         25   -1    0    0    0    0  0.00000000000E+00  0.00000000000E+00  0.99999998245E-14  0.12500000000E+03  0.12500000000E+03 0.  0.
        -11    1    3    3    0    0  0.32180485928E+02  0.25121003771E+02  0.37723598750E+02  0.55585235521E+02  0.51100000000E-03 0. -1.
         23    2    1    0    0    0  0.70949472451E+01  0.28129988968E+02  0.73900360545E+01  0.95062612194E+02  0.90225567599E+02 0.  0.
         11    1    3    3    0    0 -0.25085538683E+02  0.30089851965E+01 -0.30333562695E+02  0.39477376673E+02  0.51100000000E-03 0.  1.
         22    1    1    0    0    0 -0.70949472451E+01 -0.28129988968E+02 -0.73900360545E+01  0.29937387806E+02  0.00000000000E+00 0. -1.
</event>
<event>
 5    1  0.1094625E-009  0.9118800E+02  0.7818608E-02  0.1130116E+00
         25   -1    0    0    0    0  0.00000000000E+00  0.00000000000E+00  0.99999998245E-14  0.12500000000E+03  0.12500000000E+03 0.  0.
        -11    1    3    3    0    0 -0.24082101357E+02 -0.40533819160E+02  0.11944533397E+02  0.48637536737E+02  0.51100000000E-03 0.  1.
         23    2    1    0    0    0  0.63907467048E+01 -0.21652278202E+02 -0.18611663274E+02  0.95741551569E+02  0.91161328929E+02 0.  0.
         11    1    3    3    0    0  0.30472848062E+02  0.18881540958E+02 -0.30556196671E+02  0.47104014832E+02  0.51100000000E-03 0. -1.
         22    1    1    0    0    0 -0.63907467048E+01  0.21652278202E+02  0.18611663274E+02  0.29258448431E+02  0.00000000000E+00 0. -1.
</event>
<event>
 5    1  0.1094625E-009  0.9118800E+02  0.7818608E-02  0.1130116E+00
         25   -1    0    0    0    0  0.00000000000E+00  0.00000000000E+00  0.99999998245E-14  0.12500000000E+03  0.12500000000E+03 0.  0.
        -11    1    3    3    0    0  0.47021456078E+02  0.65245907158E+00  0.36698582077E+02  0.59650892376E+02  0.51100000000E-03 0.  1.
         23    2    1    0    0    0  0.21109864182E+02 -0.12813843269E+02  0.14207373676E+02  0.96510170027E+02  0.92209232221E+02 0.  0.
         11    1    3    3    0    0 -0.25911591896E+02 -0.13466302341E+02 -0.22491208401E+02  0.36859277651E+02  0.51100000000E-03 0. -1.
         22    1    1    0    0    0 -0.21109864182E+02  0.12813843269E+02 -0.14207373676E+02  0.28489829973E+02  0.00000000000E+00 0.  1.
</event>
<event>
 5    1  0.1094625E-009  0.9118800E+02  0.7818608E-02  0.1130116E+00
         25   -1    0    0    0    0  0.00000000000E+00  0.00000000000E+00  0.99999998245E-14  0.12500000000E+03  0.12500000000E+03 0.  0.
        -11    1    3    3    0    0  0.21234748194E+02 -0.33334722931E+02 -0.35096712489E+02  0.52857331673E+02  0.51100000000E-03 0.  1.
         23    2    1    0    0    0  0.16735738378E+02  0.66611018524E+01 -0.24705613354E+02  0.94425132083E+02  0.89338026734E+02 0.  0.
         11    1    3    3    0    0 -0.44990098165E+01  0.39995824784E+02  0.10391099135E+02  0.41567800410E+02  0.51100000000E-03 0. -1.
         22    1    1    0    0    0 -0.16735738378E+02 -0.66611018524E+01  0.24705613354E+02  0.30574867917E+02  0.00000000000E+00 0.  1.
</event>
<event>
 5    1  0.1094625E-009  0.9118800E+02  0.7818608E-02  0.1130116E+00
         25   -1    0    0    0    0  0.00000000000E+00  0.00000000000E+00  0.99999998245E-14  0.12500000000E+03  0.12500000000E+03 0.  0.
        -11    1    3    3    0    0  0.20175958545E+02 -0.26031115452E+02  0.19294512554E+02  0.38170230413E+02  0.51100000000E-03 0.  1.
         23    2    1    0    0    0 -0.28121384232E+02 -0.69608272674E+01 -0.51724131532E+01  0.95571795414E+02  0.90928262127E+02 0.  0.
         11    1    3    3    0    0 -0.48297342776E+02  0.19070288185E+02 -0.24466925707E+02  0.57401565000E+02  0.51100000000E-03 0. -1.
         22    1    1    0    0    0  0.28121384232E+02  0.69608272674E+01  0.51724131532E+01  0.29428204586E+02  0.00000000000E+00 0. -1.
</event>
<event>
 5    1  0.1094625E-009  0.9118800E+02  0.7818608E-02  0.1130116E+00
         25   -1    0    0    0    0  0.00000000000E+00  0.00000000000E+00  0.99999998245E-14  0.12500000000E+03  0.12500000000E+03 0.  0.
        -11    1    3    3    0    0 -0.28214507265E+02 -0.17004076743E+02  0.21170534870E+02  0.39158506011E+02  0.51100000000E-03 0.  1.
         23    2    1    0    0    0 -0.68550187657E+01 -0.10032749809E+02 -0.28687432349E+02  0.93845287262E+02  0.88523001618E+02 0.  0.
         11    1    3    3    0    0  0.21359488499E+02  0.69713269341E+01 -0.49857967219E+02  0.54686781251E+02  0.51100000000E-03 0. -1.
         22    1    1    0    0    0  0.68550187657E+01  0.10032749809E+02  0.28687432349E+02  0.31154712738E+02  0.00000000000E+00 0. -1.
</event>
<event>
 5    1  0.1094625E-009  0.9118800E+02  0.7818608E-02  0.1130116E+00
         25   -1    0    0    0    0  0.00000000000E+00  0.00000000000E+00  0.99999998245E-14  0.12500000000E+03  0.12500000000E+03 0.  0.
        -11    1    3    3    0    0  0.38139119524E+02  0.27891163953E+02 -0.80505126146E+01  0.47930368436E+02  0.51100000000E-03 0. -1.
         23    2    1    0    0    0  0.21074919465E+02 -0.18712147674E+00  0.23465850369E+02  0.93459020649E+02  0.87975878297E+02 0.  0.
         11    1    3    3    0    0 -0.17064200059E+02 -0.28078285430E+02  0.31516362984E+02  0.45528652213E+02  0.51100000000E-03 0.  1.
         22    1    1    0    0    0 -0.21074919465E+02  0.18712147674E+00 -0.23465850369E+02  0.31540979351E+02  0.00000000000E+00 0. -1.
</event>
<event>
 5    1  0.1094625E-009  0.9118800E+02  0.7818608E-02  0.1130116E+00
         25   -1    0    0    0    0  0.00000000000E+00  0.00000000000E+00  0.99999998245E-14  0.12500000000E+03  0.12500000000E+03 0.  0.
        -11    1    3    3    0    0 -0.38288226476E+01  0.28922661137E+02 -0.36857446997E+02  0.47006931505E+02  0.51100000000E-03 0.  1.
         23    2    1    0    0    0 -0.10653100926E+02  0.27910127526E+02  0.93269298005E+01  0.93703747871E+02  0.88322913039E+02 0.  0.
         11    1    3    3    0    0 -0.68242782782E+01 -0.10125336114E+01  0.46184376797E+02  0.46696816366E+02  0.51100000000E-03 0. -1.
         22    1    1    0    0    0  0.10653100926E+02 -0.27910127526E+02 -0.93269298005E+01  0.31296252129E+02  0.00000000000E+00 0.  1.
</event>
<event>
 5    1  0.1094625E-009  0.9118800E+02  0.7818608E-02  0.1130116E+00
         25   -1    0    0    0    0  0.00000000000E+00  0.00000000000E+00  0.99999998245E-14  0.12500000000E+03  0.12500000000E+03 0.  0.
        -11    1    3    3    0    0  0.79272707334E+01  0.21098713647E+02 -0.43787015695E+02  0.49247335792E+02  0.51100000000E-03 0. -1.
         23    2    1    0    0    0  0.11991305617E+02  0.26516341750E+02  0.22796457908E+01  0.95809169674E+02  0.91253999466E+02 0.  0.
         11    1    3    3    0    0  0.40640348838E+01  0.54176281026E+01  0.46066661486E+02  0.46561833882E+02  0.51100000000E-03 0.  1.
         22    1    1    0    0    0 -0.11991305617E+02 -0.26516341750E+02 -0.22796457908E+01  0.29190830326E+02  0.00000000000E+00 0. -1.
</event>
<event>
 5    1  0.1094625E-009  0.9118800E+02  0.7818608E-02  0.1130116E+00
         25   -1    0    0    0    0  0.00000000000E+00  0.00000000000E+00  0.99999998245E-14  0.12500000000E+03  0.12500000000E+03 0.  0.
        -11    1    3    3    0    0  0.33732135003E+02  0.90917884049E+01 -0.27126872015E+02  0.44231038127E+02  0.51100000000E-03 0. -1.
         23    2    1    0    0    0  0.16876708843E+02  0.10668904107E+02  0.21463273752E+02  0.95685823628E+02  0.91084882977E+02 0.  0.
         11    1    3    3    0    0 -0.16855426159E+02  0.15771157021E+01  0.48590145767E+02  0.51454785500E+02  0.51100000000E-03 0.  1.
         22    1    1    0    0    0 -0.16876708843E+02 -0.10668904107E+02 -0.21463273752E+02  0.29314176372E+02  0.00000000000E+00 0.  1.
</event>
<event>
 5    1  0.1094625E-009  0.9118800E+02  0.7818608E-02  0.1130116E+00
         25   -1    0    0    0    0  0.00000000000E+00  0.00000000000E+00  0.99999998245E-14  0.12500000000E+03  0.12500000000E+03 0.  0.
        -11    1    3    3    0    0  0.10342814447E+02 -0.22887709147E+02 -0.34885973654E+02  0.42986651402E+02  0.51100000000E-03 0.  1.
         23    2    1    0    0    0 -0.72137559630E+00  0.24681158829E+02 -0.17109047880E+02  0.94960034899E+02  0.90083343215E+02 0.  0.
         11    1    3    3    0    0 -0.11064190044E+02  0.47568867976E+02  0.17776925775E+02  0.51973383497E+02  0.51100000000E-03 0. -1.
         22    1    1    0    0    0  0.72137559630E+00 -0.24681158829E+02  0.17109047880E+02  0.30039965101E+02  0.00000000000E+00 0. -1.
</event>
<event>
 5    1  0.1094625E-009  0.9118800E+02  0.7818608E-02  0.1130116E+00
         25   -1    0    0    0    0  0.00000000000E+00  0.00000000000E+00  0.99999998245E-14  0.12500000000E+03  0.12500000000E+03 0.  0.
        -11    1    3    3    0    0 -0.19663377085E+02 -0.17240854134E+02 -0.44404313861E+02  0.51532887940E+02  0.51100000000E-03 0.  1.
         23    2    1    0    0    0 -0.31810259155E+02 -0.30322432282E+01 -0.86235272018E+01  0.91902382142E+02  0.85735614161E+02 0.  0.
         11    1    3    3    0    0 -0.12146882070E+02  0.14208610906E+02  0.35780786660E+02  0.40369494202E+02  0.51100000000E-03 0. -1.
         22    1    1    0    0    0  0.31810259155E+02  0.30322432282E+01  0.86235272018E+01  0.33097617858E+02  0.00000000000E+00 0.  1.
</event>
<event>
 5    1  0.1094625E-009  0.9118800E+02  0.7818608E-02  0.1130116E+00
         25   -1    0    0    0    0  0.00000000000E+00  0.00000000000E+00  0.99999998245E-14  0.12500000000E+03  0.12500000000E+03 0.  0.
        -11    1    3    3    0    0 -0.19852985406E+02 -0.83746105505E+01 -0.13313925188E+02  0.25328555734E+02  0.51100000000E-03 0.  1.
         23    2    1    0    0    0 -0.10172160405E+02  0.44145320396E+02 -0.79994293166E+01  0.78997032384E+02  0.64220386918E+02 0.  0.
         11    1    3    3    0    0  0.96808250007E+01  0.52519930946E+02  0.53144958714E+01  0.53668476650E+02  0.51100000000E-03 0. -1.
         22    1    1    0    0    0  0.10172160405E+02 -0.44145320396E+02  0.79994293166E+01  0.46002967616E+02  0.00000000000E+00 0. -1.
</event>
<event>
 5    1  0.1094625E-009  0.9118800E+02  0.7818608E-02  0.1130116E+00
         25   -1    0    0    0    0  0.00000000000E+00  0.00000000000E+00  0.99999998245E-14  0.12500000000E+03  0.12500000000E+03 0.  0.
        -11    1    3    3    0    0 -0.14719829172E+02  0.29434385361E+02 -0.97781830289E+01  0.34331753175E+02  0.51100000000E-03 0.  1.
         23    2    1    0    0    0 -0.39767581129E+01 -0.25861889835E+02  0.13824114672E+02  0.95406789674E+02  0.90701143425E+02 0.  0.
         11    1    3    3    0    0  0.10743071059E+02 -0.55296275196E+02  0.23602297701E+02  0.61075036499E+02  0.51100000000E-03 0. -1.
         22    1    1    0    0    0  0.39767581129E+01  0.25861889835E+02 -0.13824114672E+02  0.29593210326E+02  0.00000000000E+00 0. -1.
</event>
<event>
 5    1  0.1094625E-009  0.9118800E+02  0.7818608E-02  0.1130116E+00
         25   -1    0    0    0    0  0.00000000000E+00  0.00000000000E+00  0.99999998245E-14  0.12500000000E+03  0.12500000000E+03 0.  0.
        -11    1    3    3    0    0  0.40561004746E+01  0.34053710590E+02  0.98225316240E+01  0.35673369392E+02  0.51100000000E-03 0.  1.
         23    2    1    0    0    0 -0.27330439145E+02 -0.62605108281E+01 -0.15785609094E+02  0.92823419166E+02  0.87068104329E+02 0.  0.
         11    1    3    3    0    0 -0.31386539620E+02 -0.40314221418E+02 -0.25608140718E+02  0.57150049774E+02  0.51100000000E-03 0. -1.
         22    1    1    0    0    0  0.27330439145E+02  0.62605108281E+01  0.15785609094E+02  0.32176580834E+02  0.00000000000E+00 0. -1.
</event>
<event>
 5    1  0.1094625E-009  0.9118800E+02  0.7818608E-02  0.1130116E+00
         25   -1    0    0    0    0  0.00000000000E+00  0.00000000000E+00  0.99999998245E-14  0.12500000000E+03  0.12500000000E+03 0.  0.
        -11    1    3    3    0    0 -0.30286174281E+02 -0.42759958159E+02  0.56709372420E+01  0.52705084231E+02  0.51100000000E-03 0.  1.
         23    2    1    0    0    0 -0.22081032498E+02 -0.29968885527E+01  0.19287742397E+02  0.95528482497E+02  0.90868699915E+02 0.  0.
         11    1    3    3    0    0  0.82051417832E+01  0.39763069606E+02  0.13616805155E+02  0.42823398266E+02  0.51100000000E-03 0. -1.
         22    1    1    0    0    0  0.22081032498E+02  0.29968885527E+01 -0.19287742397E+02  0.29471517503E+02  0.00000000000E+00 0.  1.
</event>
<event>
 5    1  0.1094625E-009  0.9118800E+02  0.7818608E-02  0.1130116E+00
         25   -1    0    0    0    0  0.00000000000E+00  0.00000000000E+00  0.99999998245E-14  0.12500000000E+03  0.12500000000E+03 0.  0.
        -11    1    3    3    0    0  0.82011286852E+01 -0.24942060080E+02 -0.33271552431E+02  0.42383500023E+02  0.51100000000E-03 0. -1.
         23    2    1    0    0    0  0.39656614739E+02 -0.10610304545E+02 -0.17718390735E+02  0.80287954360E+02  0.66685745029E+02 0.  0.
         11    1    3    3    0    0  0.31455486053E+02  0.14331755535E+02  0.15553161696E+02  0.37904454337E+02  0.51100000000E-03 0.  1.
         22    1    1    0    0    0 -0.39656614739E+02  0.10610304545E+02  0.17718390735E+02  0.44712045640E+02  0.00000000000E+00 0. -1.
</event>
<event>
 5    1  0.1094625E-009  0.9118800E+02  0.7818608E-02  0.1130116E+00
         25   -1    0    0    0    0  0.00000000000E+00  0.00000000000E+00  0.99999998245E-14  0.12500000000E+03  0.12500000000E+03 0.  0.
        -11    1    3    3    0    0 -0.16377454041E+02 -0.20347330314E+02  0.32256109645E+02  0.41505318473E+02  0.51100000000E-03 0. -1.
         23    2    1    0    0    0 -0.20135661914E+02 -0.36472215821E+01 -0.19934838967E+02  0.96431749955E+02  0.92102863630E+02 0.  0.
         11    1    3    3    0    0 -0.37582078728E+01  0.16700108732E+02 -0.52190948612E+02  0.54926431482E+02  0.51100000000E-03 0.  1.
         22    1    1    0    0    0  0.20135661914E+02  0.36472215821E+01  0.19934838967E+02  0.28568250045E+02  0.00000000000E+00 0.  1.
</event>
<event>
 5    1  0.1094625E-009  0.9118800E+02  0.7818608E-02  0.1130116E+00
         25   -1    0    0    0    0  0.00000000000E+00  0.00000000000E+00  0.99999998245E-14  0.12500000000E+03  0.12500000000E+03 0.  0.
        -11    1    3    3    0    0  0.22913656286E+02  0.30305348830E+02  0.44923726487E+02  0.58835287149E+02  0.51100000000E-03 0. -1.
         23    2    1    0    0    0  0.99553450831E+01  0.25676099892E+02  0.11176855703E+02  0.95279752612E+02  0.90525897693E+02 0.  0.
         11    1    3    3    0    0 -0.12958311203E+02 -0.46292489381E+01 -0.33746870784E+02  0.36444465464E+02  0.51100000000E-03 0.  1.
         22    1    1    0    0    0 -0.99553450831E+01 -0.25676099892E+02 -0.11176855703E+02  0.29720247388E+02  0.00000000000E+00 0. -1.
</event>
<event>
 5    1  0.1094625E-009  0.9118800E+02  0.7818608E-02  0.1130116E+00
         25   -1    0    0    0    0  0.00000000000E+00  0.00000000000E+00  0.99999998245E-14  0.12500000000E+03  0.12500000000E+03 0.  0.
        -11    1    3    3    0    0  0.34287027195E+02  0.84231591063E+01 -0.39675367473E+02  0.53110117940E+02  0.51100000000E-03 0. -1.
         23    2    1    0    0    0  0.25549693699E+02  0.14901959943E+02  0.11897758555E+01  0.95398128018E+02  0.90689205557E+02 0.  0.
         11    1    3    3    0    0 -0.87373334959E+01  0.64788008365E+01  0.40865143328E+02  0.42288010079E+02  0.51100000000E-03 0.  1.
         22    1    1    0    0    0 -0.25549693699E+02 -0.14901959943E+02 -0.11897758555E+01  0.29601871982E+02  0.00000000000E+00 0. -1.
</event>
<event>
 5    1  0.1094625E-009  0.9118800E+02  0.7818608E-02  0.1130116E+00
         25   -1    0    0    0    0  0.00000000000E+00  0.00000000000E+00  0.99999998245E-14  0.12500000000E+03  0.12500000000E+03 0.  0.
        -11    1    3    3    0    0 -0.28041161949E+02 -0.46342458364E+02  0.19576541275E+02  0.57594888481E+02  0.51100000000E-03 0. -1.
         23    2    1    0    0    0 -0.26508371703E+02 -0.10380052143E+02  0.75222343757E+01  0.95554741250E+02  0.90904814573E+02 0.  0.
         11    1    3    3    0    0  0.15327902460E+01  0.35962406221E+02 -0.12054306899E+02  0.37959852769E+02  0.51100000000E-03 0.  1.
         22    1    1    0    0    0  0.26508371703E+02  0.10380052143E+02 -0.75222343757E+01  0.29445258750E+02  0.00000000000E+00 0. -1.
</event>
<event>
 5    1  0.1094625E-009  0.9118800E+02  0.7818608E-02  0.1130116E+00
         25   -1    0    0    0    0  0.00000000000E+00  0.00000000000E+00  0.99999998245E-14  0.12500000000E+03  0.12500000000E+03 0.  0.
        -11    1    3    3    0    0 -0.74566566650E+01 -0.33175184843E+02 -0.11333143641E+02  0.35841801894E+02  0.51100000000E-03 0.  1.
         23    2    1    0    0    0 -0.10893035617E+02  0.26497131278E+02 -0.44398905528E+01  0.96009159739E+02  0.91527536483E+02 0.  0.
         11    1    3    3    0    0 -0.34363789520E+01  0.59672316121E+02  0.68932530880E+01  0.60167357844E+02  0.51100000000E-03 0. -1.
         22    1    1    0    0    0  0.10893035617E+02 -0.26497131278E+02  0.44398905528E+01  0.28990840261E+02  0.00000000000E+00 0. -1.
</event>
<event>
 5    1  0.1094625E-009  0.9118800E+02  0.7818608E-02  0.1130116E+00
         25   -1    0    0    0    0  0.00000000000E+00  0.00000000000E+00  0.99999998245E-14  0.12500000000E+03  0.12500000000E+03 0.  0.
        -11    1    3    3    0    0 -0.20369588263E+01  0.37425905836E+02 -0.41114209725E+02  0.55634754160E+02  0.51100000000E-03 0.  1.
         23    2    1    0    0    0 -0.19027715811E+02  0.20531147842E+02 -0.92168294640E+01  0.95529133945E+02  0.90869596049E+02 0.  0.
         11    1    3    3    0    0 -0.16990756985E+02 -0.16894757995E+02  0.31897380261E+02  0.39894379784E+02  0.51100000000E-03 0. -1.
         22    1    1    0    0    0  0.19027715811E+02 -0.20531147842E+02  0.92168294640E+01  0.29470866055E+02  0.00000000000E+00 0.  1.
</event>
<event>
 5    1  0.1094625E-009  0.9118800E+02  0.7818608E-02  0.1130116E+00
         25   -1    0    0    0    0  0.00000000000E+00  0.00000000000E+00  0.99999998245E-14  0.12500000000E+03  0.12500000000E+03 0.  0.
        -11    1    3    3    0    0  0.15813768149E+02 -0.26566071655E+02  0.21677719954E+02  0.37759170659E+02  0.51100000000E-03 0. -1.
         23    2    1    0    0    0  0.17706863579E+02  0.10326703722E+02 -0.21977535147E+02  0.94946948929E+02  0.90065183241E+02 0.  0.
         11    1    3    3    0    0  0.18930954296E+01  0.36892775376E+02 -0.43655255101E+02  0.57187778270E+02  0.51100000000E-03 0.  1.
         22    1    1    0    0    0 -0.17706863579E+02 -0.10326703722E+02  0.21977535147E+02  0.30053051071E+02  0.00000000000E+00 0.  1.
</event>
<event>
 5    1  0.1094625E-009  0.9118800E+02  0.7818608E-02  0.1130116E+00
         25   -1    0    0    0    0  0.00000000000E+00  0.00000000000E+00  0.99999998245E-14  0.12500000000E+03  0.12500000000E+03 0.  0.
        -11    1    3    3    0    0 -0.30620168634E+02 -0.68715886554E+01 -0.18477703203E+02  0.36417564083E+02  0.51100000000E-03 0.  1.
         23    2    1    0    0    0  0.13235263289E+02 -0.26693651546E+02  0.11438643008E+02  0.93085022622E+02  0.87442870810E+02 0.  0.
         11    1    3    3    0    0  0.43855431923E+02 -0.19822062891E+02  0.29916346211E+02  0.56667458539E+02  0.51100000000E-03 0. -1.
         22    1    1    0    0    0 -0.13235263289E+02  0.26693651546E+02 -0.11438643008E+02  0.31914977378E+02  0.00000000000E+00 0. -1.
</event>
<event>
 5    1  0.1094625E-009  0.9118800E+02  0.7818608E-02  0.1130116E+00
         25   -1    0    0    0    0  0.00000000000E+00  0.00000000000E+00  0.99999998245E-14  0.12500000000E+03  0.12500000000E+03 0.  0.
        -11    1    3    3    0    0 -0.53053368199E+02 -0.16684217377E+02  0.63740416185E+01  0.55979026372E+02  0.51100000000E-03 0.  1.
         23    2    1    0    0    0 -0.25033210748E+02  0.11596853440E+02  0.92692598507E+01  0.95895570299E+02  0.91372274650E+02 0.  0.
         11    1    3    3    0    0  0.28020157451E+02  0.28281070817E+02  0.28952182322E+01  0.39916543926E+02  0.51100000000E-03 0. -1.
         22    1    1    0    0    0  0.25033210748E+02 -0.11596853440E+02 -0.92692598507E+01  0.29104429701E+02  0.00000000000E+00 0.  1.
</event>
<event>
 5    1  0.1094625E-009  0.9118800E+02  0.7818608E-02  0.1130116E+00
         25   -1    0    0    0    0  0.00000000000E+00  0.00000000000E+00  0.99999998245E-14  0.12500000000E+03  0.12500000000E+03 0.  0.
        -11    1    3    3    0    0 -0.47987317699E+01  0.28313105622E+02 -0.23443111147E+02  0.37070732891E+02  0.51100000000E-03 0. -1.
         23    2    1    0    0    0 -0.79620824839E+01 -0.59833739377E+01  0.25903174187E+02  0.97248063958E+02  0.93204162940E+02 0.  0.
         11    1    3    3    0    0 -0.31633507140E+01 -0.34296479559E+02  0.49346285333E+02  0.60177331067E+02  0.51100000000E-03 0.  1.
         22    1    1    0    0    0  0.79620824839E+01  0.59833739377E+01 -0.25903174187E+02  0.27751936042E+02  0.00000000000E+00 0.  1.
</event>
<event>
 5    1  0.1094625E-009  0.9118800E+02  0.7818608E-02  0.1130116E+00
         25   -1    0    0    0    0  0.00000000000E+00  0.00000000000E+00  0.99999998245E-14  0.12500000000E+03  0.12500000000E+03 0.  0.
        -11    1    3    3    0    0 -0.25010199511E+02 -0.23524132445E+02  0.10418766542E+02  0.35880991951E+02  0.51100000000E-03 0. -1.
         23    2    1    0    0    0  0.64438463350E+01  0.23202847851E+02 -0.13856895800E+02  0.97216752076E+02  0.93162159802E+02 0.  0.
         11    1    3    3    0    0  0.31454045846E+02  0.46726980296E+02 -0.24275662342E+02  0.61335760125E+02  0.51100000000E-03 0.  1.
         22    1    1    0    0    0 -0.64438463350E+01 -0.23202847851E+02  0.13856895800E+02  0.27783247924E+02  0.00000000000E+00 0.  1.
</event>
<event>
 5    1  0.1094625E-009  0.9118800E+02  0.7818608E-02  0.1130116E+00
         25   -1    0    0    0    0  0.00000000000E+00  0.00000000000E+00  0.99999998245E-14  0.12500000000E+03  0.12500000000E+03 0.  0.
        -11    1    3    3    0    0 -0.38606456063E+02  0.43346011792E+00 -0.43660734553E+02  0.58282982760E+02  0.51100000000E-03 0.  1.
         23    2    1    0    0    0 -0.14088141440E+02  0.16060335038E+02 -0.17892434034E+02  0.97133366073E+02  0.93050209663E+02 0.  0.
         11    1    3    3    0    0  0.24518314623E+02  0.15626874920E+02  0.25768300519E+02  0.38850383314E+02  0.51100000000E-03 0. -1.
         22    1    1    0    0    0  0.14088141440E+02 -0.16060335038E+02  0.17892434034E+02  0.27866633927E+02  0.00000000000E+00 0. -1.
</event>
<event>
 5    1  0.1094625E-009  0.9118800E+02  0.7818608E-02  0.1130116E+00
         25   -1    0    0    0    0  0.00000000000E+00  0.00000000000E+00  0.99999998245E-14  0.12500000000E+03  0.12500000000E+03 0.  0.
        -11    1    3    3    0    0 -0.23968787243E+02 -0.10141760663E+02 -0.52899117549E+02  0.58954853142E+02  0.51100000000E-03 0.  1.
         23    2    1    0    0    0 -0.22799527523E+02 -0.87856728602E+01 -0.16231275788E+02  0.95666387598E+02  0.91058206107E+02 0.  0.
         11    1    3    3    0    0  0.11692597199E+01  0.13560878029E+01  0.36667841761E+02  0.36711534456E+02  0.51100000000E-03 0. -1.
         22    1    1    0    0    0  0.22799527523E+02  0.87856728602E+01  0.16231275788E+02  0.29333612402E+02  0.00000000000E+00 0.  1.
</event>
<event>
 5    1  0.1094625E-009  0.9118800E+02  0.7818608E-02  0.1130116E+00
         25   -1    0    0    0    0  0.00000000000E+00  0.00000000000E+00  0.99999998245E-14  0.12500000000E+03  0.12500000000E+03 0.  0.
        -11    1    3    3    0    0  0.23915943458E+02 -0.39548972689E+02 -0.83719041242E+01  0.46970015661E+02  0.51100000000E-03 0.  1.
         23    2    1    0    0    0 -0.86531661887E+01 -0.11804719169E+02  0.21385610385E+02  0.99085274238E+02  0.95636387215E+02 0.  0.
         11    1    3    3    0    0 -0.32569109646E+02  0.27744253520E+02  0.29757514510E+02  0.52115258577E+02  0.51100000000E-03 0. -1.
         22    1    1    0    0    0  0.86531661887E+01  0.11804719169E+02 -0.21385610385E+02  0.25914725762E+02  0.00000000000E+00 0. -1.
</event>
<event>
 5    1  0.1094625E-009  0.9118800E+02  0.7818608E-02  0.1130116E+00
         25   -1    0    0    0    0  0.00000000000E+00  0.00000000000E+00  0.99999998245E-14  0.12500000000E+03  0.12500000000E+03 0.  0.
        -11    1    3    3    0    0 -0.48046222102E+02 -0.70861978455E+01 -0.70213028681E+01  0.49070891091E+02  0.51100000000E-03 0. -1.
         23    2    1    0    0    0 -0.13447020509E+02  0.24937579661E+02 -0.47687569272E+01  0.96269419036E+02  0.91882287515E+02 0.  0.
         11    1    3    3    0    0  0.34599201594E+02  0.32023777507E+02  0.22525459409E+01  0.47198527945E+02  0.51100000000E-03 0.  1.
         22    1    1    0    0    0  0.13447020509E+02 -0.24937579661E+02  0.47687569272E+01  0.28730580964E+02  0.00000000000E+00 0. -1.
</event>
<event>
 5    1  0.1094625E-009  0.9118800E+02  0.7818608E-02  0.1130116E+00
         25   -1    0    0    0    0  0.00000000000E+00  0.00000000000E+00  0.99999998245E-14  0.12500000000E+03  0.12500000000E+03 0.  0.
        -11    1    3    3    0    0 -0.29203928780E+02  0.30951987886E+02  0.23489425302E+02  0.48607078822E+02  0.51100000000E-03 0. -1.
         23    2    1    0    0    0 -0.56606765409E+01  0.23888233182E+02 -0.16410411805E+02  0.95470479871E+02  0.90788875793E+02 0.  0.
         11    1    3    3    0    0  0.23543252239E+02 -0.70637547042E+01 -0.39899837106E+02  0.46863401049E+02  0.51100000000E-03 0.  1.
         22    1    1    0    0    0  0.56606765409E+01 -0.23888233182E+02  0.16410411805E+02  0.29529520129E+02  0.00000000000E+00 0.  1.
</event>
<event>
 5    1  0.1094625E-009  0.9118800E+02  0.7818608E-02  0.1130116E+00
         25   -1    0    0    0    0  0.00000000000E+00  0.00000000000E+00  0.99999998245E-14  0.12500000000E+03  0.12500000000E+03 0.  0.
        -11    1    3    3    0    0  0.17454199745E+02 -0.39112757107E+02 -0.10889471305E+02  0.44193183217E+02  0.51100000000E-03 0.  1.
         23    2    1    0    0    0 -0.21604502012E+02 -0.17037042265E+02  0.12488837526E+02  0.94784335535E+02  0.89839211282E+02 0.  0.
         11    1    3    3    0    0 -0.39058701758E+02  0.22075714843E+02  0.23378308831E+02  0.50591152318E+02  0.51100000000E-03 0. -1.
         22    1    1    0    0    0  0.21604502012E+02  0.17037042265E+02 -0.12488837526E+02  0.30215664465E+02  0.00000000000E+00 0.  1.
</event>
<event>
 5    1  0.1094625E-009  0.9118800E+02  0.7818608E-02  0.1130116E+00
         25   -1    0    0    0    0  0.00000000000E+00  0.00000000000E+00  0.99999998245E-14  0.12500000000E+03  0.12500000000E+03 0.  0.
        -11    1    3    3    0    0  0.39711333989E+02  0.35449891510E+02  0.78316889153E+01  0.53805391986E+02  0.51100000000E-03 0.  1.
         23    2    1    0    0    0  0.11740409509E+02  0.20798874674E+02 -0.18395876692E+02  0.94853048539E+02  0.89934765996E+02 0.  0.
         11    1    3    3    0    0 -0.27970924480E+02 -0.14651016836E+02 -0.26227565607E+02  0.41047656553E+02  0.51100000000E-03 0. -1.
         22    1    1    0    0    0 -0.11740409509E+02 -0.20798874674E+02  0.18395876692E+02  0.30146951461E+02  0.00000000000E+00 0.  1.
</event>
<event>
 5    1  0.1094625E-009  0.9118800E+02  0.7818608E-02  0.1130116E+00
         25   -1    0    0    0    0  0.00000000000E+00  0.00000000000E+00  0.99999998245E-14  0.12500000000E+03  0.12500000000E+03 0.  0.
        -11    1    3    3    0    0 -0.23641307262E+02 -0.78518072484E+01 -0.33059054700E+02  0.41394001788E+02  0.51100000000E-03 0.  1.
         23    2    1    0    0    0  0.21378192364E+02 -0.20752880201E+02 -0.10188795609E+02  0.93511578296E+02  0.88050522850E+02 0.  0.
         11    1    3    3    0    0  0.45019499626E+02 -0.12901072953E+02  0.22870259091E+02  0.52117576508E+02  0.51100000000E-03 0. -1.
         22    1    1    0    0    0 -0.21378192364E+02  0.20752880201E+02  0.10188795609E+02  0.31488421704E+02  0.00000000000E+00 0. -1.
</event>
<event>
 5    1  0.1094625E-009  0.9118800E+02  0.7818608E-02  0.1130116E+00
         25   -1    0    0    0    0  0.00000000000E+00  0.00000000000E+00  0.99999998245E-14  0.12500000000E+03  0.12500000000E+03 0.  0.
        -11    1    3    3    0    0 -0.23297117965E+02  0.17639721855E+02 -0.54255819539E+02  0.61624747031E+02  0.51100000000E-03 0.  1.
         23    2    1    0    0    0 -0.50880454397E+01  0.41091184932E+01 -0.27639594980E+02  0.96597178453E+02  0.92327106600E+02 0.  0.
         11    1    3    3    0    0  0.18209072525E+02 -0.13530603361E+02  0.26616224558E+02  0.34972431422E+02  0.51100000000E-03 0. -1.
         22    1    1    0    0    0  0.50880454397E+01 -0.41091184932E+01  0.27639594980E+02  0.28402821547E+02  0.00000000000E+00 0.  1.
</event>
<event>
 5    1  0.1094625E-009  0.9118800E+02  0.7818608E-02  0.1130116E+00
         25   -1    0    0    0    0  0.00000000000E+00  0.00000000000E+00  0.99999998245E-14  0.12500000000E+03  0.12500000000E+03 0.  0.
        -11    1    3    3    0    0  0.11718639860E+02 -0.18443095386E+01  0.39967291296E+02  0.41690674876E+02  0.51100000000E-03 0. -1.
         23    2    1    0    0    0 -0.29560395997E+02 -0.33596185211E+01  0.72661329624E+01  0.94374834917E+02  0.89267624195E+02 0.  0.
         11    1    3    3    0    0 -0.41279035857E+02 -0.15153089825E+01 -0.32701158334E+02  0.52684160041E+02  0.51100000000E-03 0.  1.
         22    1    1    0    0    0  0.29560395997E+02  0.33596185211E+01 -0.72661329624E+01  0.30625165083E+02  0.00000000000E+00 0. -1.
</event>
<event>
 5    1  0.1094625E-009  0.9118800E+02  0.7818608E-02  0.1130116E+00
         25   -1    0    0    0    0  0.00000000000E+00  0.00000000000E+00  0.99999998245E-14  0.12500000000E+03  0.12500000000E+03 0.  0.
        -11    1    3    3    0    0  0.15107051632E+02  0.24341061724E+02 -0.28587014777E+02  0.40471319585E+02  0.51100000000E-03 0. -1.
         23    2    1    0    0    0  0.35294393700E+01  0.16253615914E+02  0.24490521040E+02  0.95395564634E+02  0.90685672288E+02 0.  0.
         11    1    3    3    0    0 -0.11577612263E+02 -0.80874458098E+01  0.53077535817E+02  0.54924245048E+02  0.51100000000E-03 0.  1.
         22    1    1    0    0    0 -0.35294393700E+01 -0.16253615914E+02 -0.24490521040E+02  0.29604435366E+02  0.00000000000E+00 0.  1.
</event>
<event>
 5    1  0.1094625E-009  0.9118800E+02  0.7818608E-02  0.1130116E+00
         25   -1    0    0    0    0  0.00000000000E+00  0.00000000000E+00  0.99999998245E-14  0.12500000000E+03  0.12500000000E+03 0.  0.
        -11    1    3    3    0    0  0.48272857504E+01  0.41604130394E+02  0.28403624868E+02  0.50606049633E+02  0.51100000000E-03 0.  1.
         23    2    1    0    0    0  0.18421646521E+02  0.19566779658E+02 -0.94884436876E+01  0.96500061573E+02  0.92195528054E+02 0.  0.
         11    1    3    3    0    0  0.13594360771E+02 -0.22037350736E+02 -0.37892068555E+02  0.45894011939E+02  0.51100000000E-03 0. -1.
         22    1    1    0    0    0 -0.18421646521E+02 -0.19566779658E+02  0.94884436876E+01  0.28499938427E+02  0.00000000000E+00 0.  1.
</event>
<event>
 5    1  0.1094625E-009  0.9118800E+02  0.7818608E-02  0.1130116E+00
         25   -1    0    0    0    0  0.00000000000E+00  0.00000000000E+00  0.99999998245E-14  0.12500000000E+03  0.12500000000E+03 0.  0.
        -11    1    3    3    0    0  0.46983454544E+02 -0.20949825967E+02 -0.16476517303E+02  0.54016810639E+02  0.51100000000E-03 0.  1.
         23    2    1    0    0    0  0.25716038076E+02 -0.12945455821E+01  0.13693840628E+02  0.95836465685E+02  0.91291381966E+02 0.  0.
         11    1    3    3    0    0 -0.21267416468E+02  0.19655280385E+02  0.30170357931E+02  0.41819655046E+02  0.51100000000E-03 0. -1.
         22    1    1    0    0    0 -0.25716038076E+02  0.12945455821E+01 -0.13693840628E+02  0.29163534315E+02  0.00000000000E+00 0.  1.
</event>
<event>
 5    1  0.1094625E-009  0.9118800E+02  0.7818608E-02  0.1130116E+00
         25   -1    0    0    0    0  0.00000000000E+00  0.00000000000E+00  0.99999998245E-14  0.12500000000E+03  0.12500000000E+03 0.  0.
        -11    1    3    3    0    0  0.26521273810E+02 -0.24810466243E+02 -0.92033033444E+01  0.37465157045E+02  0.51100000000E-03 0. -1.
         23    2    1    0    0    0 -0.26354303487E+02  0.36754453799E+01 -0.66111714523E+01  0.97581652147E+02  0.93650483377E+02 0.  0.
         11    1    3    3    0    0 -0.52875577297E+02  0.28485911622E+02  0.25921318921E+01  0.60116495103E+02  0.51100000000E-03 0.  1.
         22    1    1    0    0    0  0.26354303487E+02 -0.36754453799E+01  0.66111714523E+01  0.27418347853E+02  0.00000000000E+00 0.  1.
</event>
<event>
 5    1  0.1094625E-009  0.9118800E+02  0.7818608E-02  0.1130116E+00
         25   -1    0    0    0    0  0.00000000000E+00  0.00000000000E+00  0.99999998245E-14  0.12500000000E+03  0.12500000000E+03 0.  0.
        -11    1    3    3    0    0  0.11875609974E+02 -0.12383920857E+02  0.85851123087E+01  0.19185821892E+02  0.51100000000E-03 0. -1.
         23    2    1    0    0    0 -0.24815811501E+02  0.33273869043E+02  0.20099974414E+02  0.78880765044E+02  0.63993681414E+02 0.  0.
         11    1    3    3    0    0 -0.36691421475E+02  0.45657789899E+02  0.11514862105E+02  0.59694943152E+02  0.51100000000E-03 0.  1.
         22    1    1    0    0    0  0.24815811501E+02 -0.33273869043E+02 -0.20099974414E+02  0.46119234956E+02  0.00000000000E+00 0.  1.
</event>
<event>
 5    1  0.1094625E-009  0.9118800E+02  0.7818608E-02  0.1130116E+00
         25   -1    0    0    0    0  0.00000000000E+00  0.00000000000E+00  0.99999998245E-14  0.12500000000E+03  0.12500000000E+03 0.  0.
        -11    1    3    3    0    0 -0.21846970482E+02 -0.22511583165E+02  0.16836138433E+02  0.35602205738E+02  0.51100000000E-03 0. -1.
         23    2    1    0    0    0 -0.62386449867E+00  0.29549308142E+02 -0.31660514413E+01  0.95275015554E+02  0.90519356430E+02 0.  0.
         11    1    3    3    0    0  0.21223105983E+02  0.52060891307E+02 -0.20002189874E+02  0.59672809816E+02  0.51100000000E-03 0.  1.
         22    1    1    0    0    0  0.62386449867E+00 -0.29549308142E+02  0.31660514413E+01  0.29724984446E+02  0.00000000000E+00 0.  1.
</event>
<event>
 5    1  0.1094625E-009  0.9118800E+02  0.7818608E-02  0.1130116E+00
         25   -1    0    0    0    0  0.00000000000E+00  0.00000000000E+00  0.99999998245E-14  0.12500000000E+03  0.12500000000E+03 0.  0.
        -11    1    3    3    0    0  0.31363306459E+02 -0.37886856369E+02  0.29734924343E+02  0.57473790578E+02  0.51100000000E-03 0.  1.
         23    2    1    0    0    0  0.19171030303E+02 -0.22445200523E+02 -0.26462288947E+01  0.95363570445E+02  0.90641561170E+02 0.  0.
         11    1    3    3    0    0 -0.12192276156E+02  0.15441655846E+02 -0.32381153237E+02  0.37889779867E+02  0.51100000000E-03 0. -1.
         22    1    1    0    0    0 -0.19171030303E+02  0.22445200523E+02  0.26462288947E+01  0.29636429555E+02  0.00000000000E+00 0.  1.
</event>
<event>
 5    1  0.1094625E-009  0.9118800E+02  0.7818608E-02  0.1130116E+00
         25   -1    0    0    0    0  0.00000000000E+00  0.00000000000E+00  0.99999998245E-14  0.12500000000E+03  0.12500000000E+03 0.  0.
        -11    1    3    3    0    0  0.26210753629E+02  0.14690736579E+02 -0.17127923663E+02  0.34585938129E+02  0.51100000000E-03 0. -1.
         23    2    1    0    0    0 -0.20787843140E+02  0.14388224743E+02  0.18591535971E+02  0.93618466522E+02  0.88202135067E+02 0.  0.
         11    1    3    3    0    0 -0.46998596769E+02 -0.30251183571E+00  0.35719459634E+02  0.59032528393E+02  0.51100000000E-03 0.  1.
         22    1    1    0    0    0  0.20787843140E+02 -0.14388224743E+02 -0.18591535971E+02  0.31381533478E+02  0.00000000000E+00 0. -1.
</event>
<event>
 5    1  0.1094625E-009  0.9118800E+02  0.7818608E-02  0.1130116E+00
         25   -1    0    0    0    0  0.00000000000E+00  0.00000000000E+00  0.99999998245E-14  0.12500000000E+03  0.12500000000E+03 0.  0.
        -11    1    3    3    0    0 -0.25841255599E+00 -0.36553703546E+02  0.40789483646E+02  0.54772456548E+02  0.51100000000E-03 0. -1.
         23    2    1    0    0    0  0.19529104835E+02 -0.77147197929E+01  0.22438130609E+02  0.94269354996E+02  0.89119799982E+02 0.  0.
         11    1    3    3    0    0  0.19787517391E+02  0.28838983753E+02 -0.18351353037E+02  0.39496898447E+02  0.51100000000E-03 0.  1.
         22    1    1    0    0    0 -0.19529104835E+02  0.77147197929E+01 -0.22438130609E+02  0.30730645004E+02  0.00000000000E+00 0. -1.
</event>
<event>
 5    1  0.1094625E-009  0.9118800E+02  0.7818608E-02  0.1130116E+00
         25   -1    0    0    0    0  0.00000000000E+00  0.00000000000E+00  0.99999998245E-14  0.12500000000E+03  0.12500000000E+03 0.  0.
        -11    1    3    3    0    0 -0.37755763126E+02  0.43564194933E+01 -0.24518850711E+02  0.45228863356E+02  0.51100000000E-03 0.  1.
         23    2    1    0    0    0 -0.15854860924E+02  0.12194674481E+02  0.20783921329E+02  0.96154582922E+02  0.91725927253E+02 0.  0.
         11    1    3    3    0    0  0.21900902202E+02  0.78382549882E+01  0.45302772040E+02  0.50925719566E+02  0.51100000000E-03 0. -1.
         22    1    1    0    0    0  0.15854860924E+02 -0.12194674481E+02 -0.20783921329E+02  0.28845417078E+02  0.00000000000E+00 0. -1.
</event>
<event>
 5    1  0.1094625E-009  0.9118800E+02  0.7818608E-02  0.1130116E+00
         25   -1    0    0    0    0  0.00000000000E+00  0.00000000000E+00  0.99999998245E-14  0.12500000000E+03  0.12500000000E+03 0.  0.
        -11    1    3    3    0    0 -0.26480776450E+02 -0.29015897430E+02  0.41820153560E+01  0.39504975354E+02  0.51100000000E-03 0.  1.
         23    2    1    0    0    0  0.13464416516E+02 -0.36157634399E+01 -0.25896135612E+02  0.95589558028E+02  0.90952677294E+02 0.  0.
         11    1    3    3    0    0  0.39945192966E+02  0.25400133990E+02 -0.30078150968E+02  0.56084582674E+02  0.51100000000E-03 0. -1.
         22    1    1    0    0    0 -0.13464416516E+02  0.36157634399E+01  0.25896135612E+02  0.29410441972E+02  0.00000000000E+00 0. -1.
</event>
<event>
 5    1  0.1094625E-009  0.9118800E+02  0.7818608E-02  0.1130116E+00
         25   -1    0    0    0    0  0.00000000000E+00  0.00000000000E+00  0.99999998245E-14  0.12500000000E+03  0.12500000000E+03 0.  0.
        -11    1    3    3    0    0  0.24876400839E+02 -0.14930253527E+02 -0.53710351439E+02  0.61045471913E+02  0.51100000000E-03 0.  1.
         23    2    1    0    0    0  0.12713060721E+02  0.25500062168E+01 -0.25515176301E+02  0.96379226665E+02  0.92031552558E+02 0.  0.
         11    1    3    3    0    0 -0.12163340119E+02  0.17480259744E+02  0.28195175138E+02  0.35333754752E+02  0.51100000000E-03 0. -1.
         22    1    1    0    0    0 -0.12713060721E+02 -0.25500062168E+01  0.25515176301E+02  0.28620773335E+02  0.00000000000E+00 0.  1.
</event>
<event>
 5    1  0.1094625E-009  0.9118800E+02  0.7818608E-02  0.1130116E+00
         25   -1    0    0    0    0  0.00000000000E+00  0.00000000000E+00  0.99999998245E-14  0.12500000000E+03  0.12500000000E+03 0.  0.
        -11    1    3    3    0    0 -0.22676050421E+02 -0.33588765376E+02 -0.14042088930E+02  0.42890426484E+02  0.51100000000E-03 0.  1.
         23    2    1    0    0    0  0.14851135987E+02 -0.38775503556E+02  0.51407317863E+00  0.83474583839E+02  0.72413023412E+02 0.  0.
         11    1    3    3    0    0  0.37527186408E+02 -0.51867381794E+01  0.14556162108E+02  0.40584157355E+02  0.51100000000E-03 0. -1.
         22    1    1    0    0    0 -0.14851135987E+02  0.38775503556E+02 -0.51407317863E+00  0.41525416161E+02  0.00000000000E+00 0.  1.
</event>
<event>
 5    1  0.1094625E-009  0.9118800E+02  0.7818608E-02  0.1130116E+00
         25   -1    0    0    0    0  0.00000000000E+00  0.00000000000E+00  0.99999998245E-14  0.12500000000E+03  0.12500000000E+03 0.  0.
        -11    1    3    3    0    0  0.18983239134E+02  0.23741843665E+02 -0.20057316862E+02  0.36418875169E+02  0.51100000000E-03 0. -1.
         23    2    1    0    0    0 -0.99988942491E+01  0.32825957114E+01  0.27387352662E+02  0.95660258920E+02  0.91049792587E+02 0.  0.
         11    1    3    3    0    0 -0.28982133384E+02 -0.20459247954E+02  0.47444669523E+02  0.59241383751E+02  0.51100000000E-03 0.  1.
         22    1    1    0    0    0  0.99988942491E+01 -0.32825957114E+01 -0.27387352662E+02  0.29339741080E+02  0.00000000000E+00 0.  1.
</event>
<event>
 5    1  0.1094625E-009  0.9118800E+02  0.7818608E-02  0.1130116E+00
         25   -1    0    0    0    0  0.00000000000E+00  0.00000000000E+00  0.99999998245E-14  0.12500000000E+03  0.12500000000E+03 0.  0.
        -11    1    3    3    0    0 -0.33317780800E+02  0.29896943786E+02  0.40846122900E+02  0.60599567007E+02  0.51100000000E-03 0.  1.
         23    2    1    0    0    0 -0.22511494152E+02  0.16767560526E+02  0.11196220111E+02  0.94779579756E+02  0.89832593968E+02 0.  0.
         11    1    3    3    0    0  0.10806286648E+02 -0.13129383261E+02 -0.29649902789E+02  0.34180012750E+02  0.51100000000E-03 0. -1.
         22    1    1    0    0    0  0.22511494152E+02 -0.16767560526E+02 -0.11196220111E+02  0.30220420244E+02  0.00000000000E+00 0.  1.
</event>
<event>
 5    1  0.1094625E-009  0.9118800E+02  0.7818608E-02  0.1130116E+00
         25   -1    0    0    0    0  0.00000000000E+00  0.00000000000E+00  0.99999998245E-14  0.12500000000E+03  0.12500000000E+03 0.  0.
        -11    1    3    3    0    0  0.16579916523E+02 -0.28499229883E+02  0.73725293367E+01  0.33785409941E+02  0.51100000000E-03 0.  1.
         23    2    1    0    0    0 -0.18425707920E+02  0.19702791504E+02 -0.10610035988E+02  0.96012423884E+02  0.91531994249E+02 0.  0.
         11    1    3    3    0    0 -0.35005624443E+02  0.48202021387E+02 -0.17982565325E+02  0.62227013943E+02  0.51100000000E-03 0. -1.
         22    1    1    0    0    0  0.18425707920E+02 -0.19702791504E+02  0.10610035988E+02  0.28987576116E+02  0.00000000000E+00 0. -1.
</event>
<event>
 5    1  0.1094625E-009  0.9118800E+02  0.7818608E-02  0.1130116E+00
         25   -1    0    0    0    0  0.00000000000E+00  0.00000000000E+00  0.99999998245E-14  0.12500000000E+03  0.12500000000E+03 0.  0.
        -11    1    3    3    0    0 -0.15227591397E+02  0.11157952211E+02 -0.27899074802E+02  0.33685869625E+02  0.51100000000E-03 0. -1.
         23    2    1    0    0    0  0.19883898964E+02  0.20656782183E+01  0.21935511446E+02  0.95321672438E+02  0.90583762946E+02 0.  0.
         11    1    3    3    0    0  0.35111490361E+02 -0.90922739926E+01  0.49834586248E+02  0.61635802813E+02  0.51100000000E-03 0.  1.
         22    1    1    0    0    0 -0.19883898964E+02 -0.20656782183E+01 -0.21935511446E+02  0.29678327562E+02  0.00000000000E+00 0.  1.
</event>
<event>
 5    1  0.1094625E-009  0.9118800E+02  0.7818608E-02  0.1130116E+00
         25   -1    0    0    0    0  0.00000000000E+00  0.00000000000E+00  0.99999998245E-14  0.12500000000E+03  0.12500000000E+03 0.  0.
        -11    1    3    3    0    0  0.32693931699E+02  0.42257093514E+02 -0.65986690761E+01  0.53833981425E+02  0.51100000000E-03 0.  1.
         23    2    1    0    0    0  0.28373733044E+02  0.62967557458E+01  0.10773242659E+02  0.94003538634E+02  0.88746181093E+02 0.  0.
         11    1    3    3    0    0 -0.43201986551E+01 -0.35960337768E+02  0.17371911736E+02  0.40169557210E+02  0.51100000000E-03 0. -1.
         22    1    1    0    0    0 -0.28373733044E+02 -0.62967557458E+01 -0.10773242659E+02  0.30996461366E+02  0.00000000000E+00 0.  1.
</event>
<event>
 5    1  0.1094625E-009  0.9118800E+02  0.7818608E-02  0.1130116E+00
         25   -1    0    0    0    0  0.00000000000E+00  0.00000000000E+00  0.99999998245E-14  0.12500000000E+03  0.12500000000E+03 0.  0.
        -11    1    3    3    0    0  0.34678897833E+02  0.25552730287E+02  0.60178265960E+01  0.43494622854E+02  0.51100000000E-03 0. -1.
         23    2    1    0    0    0  0.15581655232E+02 -0.23700296107E+02  0.24043633908E+00  0.96635412484E+02  0.92378856460E+02 0.  0.
         11    1    3    3    0    0 -0.19097242602E+02 -0.49253026394E+02 -0.57773902569E+01  0.53140789629E+02  0.51100000000E-03 0.  1.
         22    1    1    0    0    0 -0.15581655232E+02  0.23700296107E+02 -0.24043633908E+00  0.28364587516E+02  0.00000000000E+00 0.  1.
</event>
<event>
 5    1  0.1094625E-009  0.9118800E+02  0.7818608E-02  0.1130116E+00
         25   -1    0    0    0    0  0.00000000000E+00  0.00000000000E+00  0.99999998245E-14  0.12500000000E+03  0.12500000000E+03 0.  0.
        -11    1    3    3    0    0 -0.36350923458E+02  0.56758576400E+01 -0.35750095631E+02  0.51299847311E+02  0.51100000000E-03 0.  1.
         23    2    1    0    0    0  0.31033654698E+01  0.19719760421E+02 -0.21798819767E+02  0.95441779967E+02  0.90749352569E+02 0.  0.
         11    1    3    3    0    0  0.39454288928E+02  0.14043902781E+02  0.13951275864E+02  0.44141932656E+02  0.51100000000E-03 0. -1.
         22    1    1    0    0    0 -0.31033654698E+01 -0.19719760421E+02  0.21798819767E+02  0.29558220033E+02  0.00000000000E+00 0.  1.
</event>
<event>
 5    1  0.1094625E-009  0.9118800E+02  0.7818608E-02  0.1130116E+00
         25   -1    0    0    0    0  0.00000000000E+00  0.00000000000E+00  0.99999998245E-14  0.12500000000E+03  0.12500000000E+03 0.  0.
        -11    1    3    3    0    0 -0.34332548425E+02 -0.19165187436E+02 -0.27215685570E+02  0.47819680385E+02  0.51100000000E-03 0.  1.
         23    2    1    0    0    0  0.12954529540E+02 -0.11481504791E+02 -0.23420073483E+02  0.95877077244E+02  0.91346972096E+02 0.  0.
         11    1    3    3    0    0  0.47287077966E+02  0.76836826448E+01  0.37956120865E+01  0.48057396859E+02  0.51100000000E-03 0. -1.
         22    1    1    0    0    0 -0.12954529540E+02  0.11481504791E+02  0.23420073483E+02  0.29122922756E+02  0.00000000000E+00 0.  1.
</event>
<event>
 5    1  0.1094625E-009  0.9118800E+02  0.7818608E-02  0.1130116E+00
         25   -1    0    0    0    0  0.00000000000E+00  0.00000000000E+00  0.99999998245E-14  0.12500000000E+03  0.12500000000E+03 0.  0.
        -11    1    3    3    0    0  0.16410588571E+02 -0.34310691934E+02 -0.24076006373E+02  0.45013165644E+02  0.51100000000E-03 0. -1.
         23    2    1    0    0    0  0.82944938907E+01 -0.15931750247E+02  0.22777426265E+02  0.95992579534E+02  0.91504889943E+02 0.  0.
         11    1    3    3    0    0 -0.81160946799E+01  0.18378941687E+02  0.46853432637E+02  0.50979413890E+02  0.51100000000E-03 0.  1.
         22    1    1    0    0    0 -0.82944938907E+01  0.15931750247E+02 -0.22777426265E+02  0.29007420466E+02  0.00000000000E+00 0.  1.
</event>
<event>
 5    1  0.1094625E-009  0.9118800E+02  0.7818608E-02  0.1130116E+00
         25   -1    0    0    0    0  0.00000000000E+00  0.00000000000E+00  0.99999998245E-14  0.12500000000E+03  0.12500000000E+03 0.  0.
        -11    1    3    3    0    0 -0.16662425020E+02 -0.40493336610E+01 -0.35072163930E+02  0.39039597765E+02  0.51100000000E-03 0. -1.
         23    2    1    0    0    0 -0.80336187728E+01 -0.20046895520E+02  0.19093294486E+02  0.96173433348E+02  0.91751612177E+02 0.  0.
         11    1    3    3    0    0  0.86288062471E+01 -0.15997561860E+02  0.54165458417E+02  0.57133835583E+02  0.51100000000E-03 0.  1.
         22    1    1    0    0    0  0.80336187728E+01  0.20046895520E+02 -0.19093294486E+02  0.28826566652E+02  0.00000000000E+00 0.  1.
</event>
<event>
 5    1  0.1094625E-009  0.9118800E+02  0.7818608E-02  0.1130116E+00
         25   -1    0    0    0    0  0.00000000000E+00  0.00000000000E+00  0.99999998245E-14  0.12500000000E+03  0.12500000000E+03 0.  0.
        -11    1    3    3    0    0 -0.48040822371E+02 -0.11775735350E+02 -0.31427043242E+02  0.58602453910E+02  0.51100000000E-03 0. -1.
         23    2    1    0    0    0 -0.29351711346E+02  0.40870591165E+01 -0.44847784376E+01  0.95027675286E+02  0.90177152436E+02 0.  0.
         11    1    3    3    0    0  0.18689111025E+02  0.15862794466E+02  0.26942264805E+02  0.36425221376E+02  0.51100000000E-03 0.  1.
         22    1    1    0    0    0  0.29351711346E+02 -0.40870591165E+01  0.44847784376E+01  0.29972324714E+02  0.00000000000E+00 0. -1.
</event>
<event>
 5    1  0.1094625E-009  0.9118800E+02  0.7818608E-02  0.1130116E+00
         25   -1    0    0    0    0  0.00000000000E+00  0.00000000000E+00  0.99999998245E-14  0.12500000000E+03  0.12500000000E+03 0.  0.
        -11    1    3    3    0    0  0.82877530194E+01  0.17696271484E+02 -0.54887013521E+02  0.58261729532E+02  0.51100000000E-03 0. -1.
         23    2    1    0    0    0 -0.11758537458E+02  0.17123430181E+01 -0.22363029160E+02  0.99676090448E+02  0.96405511316E+02 0.  0.
         11    1    3    3    0    0 -0.20046290477E+02 -0.15983928465E+02  0.32523984361E+02  0.41414360916E+02  0.51100000000E-03 0.  1.
         22    1    1    0    0    0  0.11758537458E+02 -0.17123430181E+01  0.22363029160E+02  0.25323909552E+02  0.00000000000E+00 0. -1.
</event>
<event>
 5    1  0.1094625E-009  0.9118800E+02  0.7818608E-02  0.1130116E+00
         25   -1    0    0    0    0  0.00000000000E+00  0.00000000000E+00  0.99999998245E-14  0.12500000000E+03  0.12500000000E+03 0.  0.
        -11    1    3    3    0    0  0.19485120952E+02  0.19958100247E+02 -0.34154936303E+02  0.44097113036E+02  0.51100000000E-03 0. -1.
         23    2    1    0    0    0 -0.24238141309E+02  0.14861887038E+01 -0.38463023125E+01  0.10041361571E+03  0.97357094900E+02 0.  0.
         11    1    3    3    0    0 -0.43723262261E+02 -0.18471911543E+02  0.30308633991E+02  0.56316502674E+02  0.51100000000E-03 0.  1.
         22    1    1    0    0    0  0.24238141309E+02 -0.14861887038E+01  0.38463023125E+01  0.24586384290E+02  0.00000000000E+00 0.  1.
</event>
<event>
 5    1  0.1094625E-009  0.9118800E+02  0.7818608E-02  0.1130116E+00
         25   -1    0    0    0    0  0.00000000000E+00  0.00000000000E+00  0.99999998245E-14  0.12500000000E+03  0.12500000000E+03 0.  0.
        -11    1    3    3    0    0  0.18461376717E+02 -0.26290269596E+02  0.48275773594E+01  0.32485476896E+02  0.51100000000E-03 0. -1.
         23    2    1    0    0    0 -0.10160364149E+02  0.24337060605E+02 -0.15874598336E+02  0.94218050892E+02  0.89047811445E+02 0.  0.
         11    1    3    3    0    0 -0.28621740866E+02  0.50627330201E+02 -0.20702175695E+02  0.61732573997E+02  0.51100000000E-03 0.  1.
         22    1    1    0    0    0  0.10160364149E+02 -0.24337060605E+02  0.15874598336E+02  0.30781949108E+02  0.00000000000E+00 0.  1.
</event>
<event>
 5    1  0.1094625E-009  0.9118800E+02  0.7818608E-02  0.1130116E+00
         25   -1    0    0    0    0  0.00000000000E+00  0.00000000000E+00  0.99999998245E-14  0.12500000000E+03  0.12500000000E+03 0.  0.
        -11    1    3    3    0    0  0.32768614877E+02  0.68220333595E+01  0.20326522558E+02  0.39159798003E+02  0.51100000000E-03 0.  1.
         23    2    1    0    0    0 -0.19665534646E+02  0.19856784880E+02 -0.45724471928E+00  0.97049432359E+02  0.92937388009E+02 0.  0.
         11    1    3    3    0    0 -0.52434149523E+02  0.13034751521E+02 -0.20783767277E+02  0.57889634356E+02  0.51100000000E-03 0. -1.
         22    1    1    0    0    0  0.19665534646E+02 -0.19856784880E+02  0.45724471928E+00  0.27950567641E+02  0.00000000000E+00 0. -1.
</event>
<event>
 5    1  0.1094625E-009  0.9118800E+02  0.7818608E-02  0.1130116E+00
         25   -1    0    0    0    0  0.00000000000E+00  0.00000000000E+00  0.99999998245E-14  0.12500000000E+03  0.12500000000E+03 0.  0.
        -11    1    3    3    0    0  0.35671494215E+02  0.25204155704E+02  0.21406679716E+02  0.48641041323E+02  0.51100000000E-03 0.  1.
         23    2    1    0    0    0  0.10225830803E+02  0.19200278950E+02 -0.18563536915E+02  0.96402391181E+02  0.92063009918E+02 0.  0.
         11    1    3    3    0    0 -0.25445663411E+02 -0.60038767538E+01 -0.39970216630E+02  0.47761349858E+02  0.51100000000E-03 0. -1.
         22    1    1    0    0    0 -0.10225830803E+02 -0.19200278950E+02  0.18563536915E+02  0.28597608819E+02  0.00000000000E+00 0.  1.
</event>
<event>
 5    1  0.1094625E-009  0.9118800E+02  0.7818608E-02  0.1130116E+00
         25   -1    0    0    0    0  0.00000000000E+00  0.00000000000E+00  0.99999998245E-14  0.12500000000E+03  0.12500000000E+03 0.  0.
        -11    1    3    3    0    0  0.39442942328E+02  0.25425309009E+02  0.40106846352E+02  0.61731281878E+02  0.51100000000E-03 0.  1.
         23    2    1    0    0    0  0.21646180245E+02  0.15188628955E+02  0.13584960597E+02  0.95271180260E+02  0.90514060040E+02 0.  0.
         11    1    3    3    0    0 -0.17796762083E+02 -0.10236680055E+02 -0.26521885755E+02  0.33539898382E+02  0.51100000000E-03 0. -1.
         22    1    1    0    0    0 -0.21646180245E+02 -0.15188628955E+02 -0.13584960597E+02  0.29728819740E+02  0.00000000000E+00 0.  1.
</event>
<event>
 5    1  0.1094625E-009  0.9118800E+02  0.7818608E-02  0.1130116E+00
         25   -1    0    0    0    0  0.00000000000E+00  0.00000000000E+00  0.99999998245E-14  0.12500000000E+03  0.12500000000E+03 0.  0.
        -11    1    3    3    0    0  0.46442319683E+02 -0.25628829045E+02 -0.94958477095E+01  0.53887819215E+02  0.51100000000E-03 0.  1.
         23    2    1    0    0    0  0.69138681429E+01 -0.28706900647E+02  0.26473088969E+01  0.95353820451E+02  0.90628114362E+02 0.  0.
         11    1    3    3    0    0 -0.39528451540E+02 -0.30780716016E+01  0.12143156606E+02  0.41466001236E+02  0.51100000000E-03 0. -1.
         22    1    1    0    0    0 -0.69138681429E+01  0.28706900647E+02 -0.26473088969E+01  0.29646179549E+02  0.00000000000E+00 0.  1.
</event>
<event>
 5    1  0.1094625E-009  0.9118800E+02  0.7818608E-02  0.1130116E+00
         25   -1    0    0    0    0  0.00000000000E+00  0.00000000000E+00  0.99999998245E-14  0.12500000000E+03  0.12500000000E+03 0.  0.
        -11    1    3    3    0    0 -0.28010892532E+02 -0.37528345953E+02  0.31823053344E+01  0.46937340337E+02  0.51100000000E-03 0.  1.
         23    2    1    0    0    0 -0.29802863493E+02  0.86458802708E+01 -0.40370472051E+01  0.93706875065E+02  0.88327338725E+02 0.  0.
         11    1    3    3    0    0 -0.17919709613E+01  0.46174226224E+02 -0.72193525395E+01  0.46769534728E+02  0.51100000000E-03 0. -1.
         22    1    1    0    0    0  0.29802863493E+02 -0.86458802708E+01  0.40370472051E+01  0.31293124935E+02  0.00000000000E+00 0. -1.
</event>
<event>
 5    1  0.1094625E-009  0.9118800E+02  0.7818608E-02  0.1130116E+00
         25   -1    0    0    0    0  0.00000000000E+00  0.00000000000E+00  0.99999998245E-14  0.12500000000E+03  0.12500000000E+03 0.  0.
        -11    1    3    3    0    0  0.31367581166E+02  0.26785710511E+02  0.45594002244E+02  0.61483432539E+02  0.51100000000E-03 0. -1.
         23    2    1    0    0    0  0.21165758225E+02  0.96491967252E+01  0.17716588027E+02  0.95760064808E+02  0.91186710666E+02 0.  0.
         11    1    3    3    0    0 -0.10201822941E+02 -0.17136513786E+02 -0.27877414217E+02  0.34276632270E+02  0.51100000000E-03 0.  1.
         22    1    1    0    0    0 -0.21165758225E+02 -0.96491967252E+01 -0.17716588027E+02  0.29239935192E+02  0.00000000000E+00 0. -1.
</event>
<event>
 5    1  0.1094625E-009  0.9118800E+02  0.7818608E-02  0.1130116E+00
         25   -1    0    0    0    0  0.00000000000E+00  0.00000000000E+00  0.99999998245E-14  0.12500000000E+03  0.12500000000E+03 0.  0.
        -11    1    3    3    0    0 -0.30846967452E+02 -0.26445800167E+02  0.37022032399E+02  0.54968596768E+02  0.51100000000E-03 0.  1.
         23    2    1    0    0    0  0.24459830476E+01 -0.25463258865E+02  0.20871503468E+02  0.91985154216E+02  0.85856208594E+02 0.  0.
         11    1    3    3    0    0  0.33292950499E+02  0.98254130218E+00 -0.16150528930E+02  0.37016557448E+02  0.51100000000E-03 0. -1.
         22    1    1    0    0    0 -0.24459830476E+01  0.25463258865E+02 -0.20871503468E+02  0.33014845784E+02  0.00000000000E+00 0.  1.
</event>
<event>
 5    1  0.1094625E-009  0.9118800E+02  0.7818608E-02  0.1130116E+00
         25   -1    0    0    0    0  0.00000000000E+00  0.00000000000E+00  0.99999998245E-14  0.12500000000E+03  0.12500000000E+03 0.  0.
        -11    1    3    3    0    0  0.83937407932E+01  0.22440011254E+02  0.35237240561E+02  0.42610704197E+02  0.51100000000E-03 0.  1.
         23    2    1    0    0    0 -0.12927984075E+02  0.23969907700E+02 -0.12589228178E+02  0.94997034921E+02  0.90134669968E+02 0.  0.
         11    1    3    3    0    0 -0.21321724868E+02  0.15298964465E+01 -0.47826468738E+02  0.52386330724E+02  0.51100000000E-03 0. -1.
         22    1    1    0    0    0  0.12927984075E+02 -0.23969907700E+02  0.12589228178E+02  0.30002965079E+02  0.00000000000E+00 0. -1.
</event>
<event>
 4    1  0.1094625E-009  0.9118800E+02  0.7818608E-02  0.1130116E+00
         25   -1    0    0    0    0  0.00000000000E+00  0.00000000000E+00  0.99999998245E-14  0.12500000000E+03  0.12500000000E+03 0.  0.
        -11    1    1    0    0    0 -0.22278554908E+02  0.35118103341E+02  0.31144814989E+02  0.51957816467E+02  0.51100000000E-03 0.  1.
         11    1    1    0    0    0 -0.16334998685E+02 -0.53702857831E+01 -0.10168107753E+02  0.19976550427E+02  0.51100000000E-03 0. -1.
         22    1    1    0    0    0  0.38613553592E+02 -0.29747817558E+02 -0.20976707236E+02  0.53065633106E+02  0.00000000000E+00 0. -1.
</event>
<event>
 5    1  0.1094625E-009  0.9118800E+02  0.7818608E-02  0.1130116E+00
         25   -1    0    0    0    0  0.00000000000E+00  0.00000000000E+00  0.99999998245E-14  0.12500000000E+03  0.12500000000E+03 0.  0.
        -11    1    3    3    0    0 -0.75445785922E+01  0.23662374890E+02 -0.26510724813E+02  0.36326948426E+02  0.51100000000E-03 0.  1.
         23    2    1    0    0    0 -0.18974714535E+02 -0.15781981706E+02  0.16120964950E+02  0.95521257673E+02  0.90858760823E+02 0.  0.
         11    1    3    3    0    0 -0.11430135943E+02 -0.39444356596E+02  0.42631689763E+02  0.59194309247E+02  0.51100000000E-03 0. -1.
         22    1    1    0    0    0  0.18974714535E+02  0.15781981706E+02 -0.16120964950E+02  0.29478742327E+02  0.00000000000E+00 0. -1.
</event>
<event>
 5    1  0.1094625E-009  0.9118800E+02  0.7818608E-02  0.1130116E+00
         25   -1    0    0    0    0  0.00000000000E+00  0.00000000000E+00  0.99999998245E-14  0.12500000000E+03  0.12500000000E+03 0.  0.
        -11    1    3    3    0    0  0.20500093465E+02 -0.33157652294E+02  0.18086719149E+02  0.42974563960E+02  0.51100000000E-03 0.  1.
         23    2    1    0    0    0 -0.22498508719E+02 -0.26009945181E+02 -0.10835897402E+01  0.90592525382E+02  0.83804124871E+02 0.  0.
         11    1    3    3    0    0 -0.42998602184E+02  0.71477071136E+01 -0.19170308889E+02  0.47617961421E+02  0.51100000000E-03 0. -1.
         22    1    1    0    0    0  0.22498508719E+02  0.26009945181E+02  0.10835897402E+01  0.34407474618E+02  0.00000000000E+00 0. -1.
</event>
<event>
 5    1  0.1094625E-009  0.9118800E+02  0.7818608E-02  0.1130116E+00
         25   -1    0    0    0    0  0.00000000000E+00  0.00000000000E+00  0.99999998245E-14  0.12500000000E+03  0.12500000000E+03 0.  0.
        -11    1    3    3    0    0 -0.68030953893E+01  0.35879523365E+02 -0.44678712001E+02  0.57704502512E+02  0.51100000000E-03 0. -1.
         23    2    1    0    0    0 -0.51464166510E+00  0.32551835442E+02 -0.13379716382E+02  0.89801936742E+02  0.82616488581E+02 0.  0.
         11    1    3    3    0    0  0.62884537242E+01 -0.33276879237E+01  0.31298995619E+02  0.32097434230E+02  0.51100000000E-03 0.  1.
         22    1    1    0    0    0  0.51464166510E+00 -0.32551835442E+02  0.13379716382E+02  0.35198063258E+02  0.00000000000E+00 0. -1.
</event>
<event>
 5    1  0.1094625E-009  0.9118800E+02  0.7818608E-02  0.1130116E+00
         25   -1    0    0    0    0  0.00000000000E+00  0.00000000000E+00  0.99999998245E-14  0.12500000000E+03  0.12500000000E+03 0.  0.
        -11    1    3    3    0    0 -0.39114322419E+02 -0.43623692446E+02  0.91363544297E+01  0.59299491848E+02  0.51100000000E-03 0.  1.
         23    2    1    0    0    0 -0.35096376192E+02 -0.18837778760E+02  0.36549158841E+01  0.85000300744E+02  0.75000501238E+02 0.  0.
         11    1    3    3    0    0  0.40179462266E+01  0.24785913686E+02 -0.54814385457E+01  0.25700808896E+02  0.51100000000E-03 0. -1.
         22    1    1    0    0    0  0.35096376192E+02  0.18837778760E+02 -0.36549158841E+01  0.39999699256E+02  0.00000000000E+00 0.  1.
</event>
<event>
 5    1  0.1094625E-009  0.9118800E+02  0.7818608E-02  0.1130116E+00
         25   -1    0    0    0    0  0.00000000000E+00  0.00000000000E+00  0.99999998245E-14  0.12500000000E+03  0.12500000000E+03 0.  0.
        -11    1    3    3    0    0  0.11978442962E+02 -0.11982874852E+02  0.30102509057E+02  0.34543211161E+02  0.51100000000E-03 0. -1.
         23    2    1    0    0    0 -0.26816846737E+02  0.81394223409E+01 -0.11336344754E+02  0.94769118813E+02  0.89818036626E+02 0.  0.
         11    1    3    3    0    0 -0.38795289699E+02  0.20122297192E+02 -0.41438853811E+02  0.60225907652E+02  0.51100000000E-03 0.  1.
         22    1    1    0    0    0  0.26816846737E+02 -0.81394223409E+01  0.11336344754E+02  0.30230881187E+02  0.00000000000E+00 0.  1.
</event>
<event>
 5    1  0.1094625E-009  0.9118800E+02  0.7818608E-02  0.1130116E+00
         25   -1    0    0    0    0  0.00000000000E+00  0.00000000000E+00  0.99999998245E-14  0.12500000000E+03  0.12500000000E+03 0.  0.
        -11    1    3    3    0    0  0.26664846916E+01  0.49522434562E+02 -0.21170818987E+01  0.49639336233E+02  0.51100000000E-03 0. -1.
         23    2    1    0    0    0  0.54714096215E+01  0.91220970013E+01 -0.26176582968E+02  0.96744691245E+02  0.92526605965E+02 0.  0.
         11    1    3    3    0    0  0.28049249299E+01 -0.40400337561E+02 -0.24059501069E+02  0.47105355013E+02  0.51100000000E-03 0.  1.
         22    1    1    0    0    0 -0.54714096215E+01 -0.91220970013E+01  0.26176582968E+02  0.28255308755E+02  0.00000000000E+00 0.  1.
</event>
<event>
 5    1  0.1094625E-009  0.9118800E+02  0.7818608E-02  0.1130116E+00
         25   -1    0    0    0    0  0.00000000000E+00  0.00000000000E+00  0.99999998245E-14  0.12500000000E+03  0.12500000000E+03 0.  0.
        -11    1    3    3    0    0  0.10233655034E+02 -0.29718429648E+02 -0.22818410404E+02  0.38840605166E+02  0.51100000000E-03 0.  1.
         23    2    1    0    0    0 -0.30112491042E+02  0.40571016512E+01 -0.65286755572E+01  0.93921940294E+02  0.88631174388E+02 0.  0.
         11    1    3    3    0    0 -0.40346146077E+02  0.33775531299E+02  0.16289734846E+02  0.55081335127E+02  0.51100000000E-03 0. -1.
         22    1    1    0    0    0  0.30112491042E+02 -0.40571016512E+01  0.65286755572E+01  0.31078059706E+02  0.00000000000E+00 0. -1.
</event>
<event>
 5    1  0.1094625E-009  0.9118800E+02  0.7818608E-02  0.1130116E+00
         25   -1    0    0    0    0  0.00000000000E+00  0.00000000000E+00  0.99999998245E-14  0.12500000000E+03  0.12500000000E+03 0.  0.
        -11    1    3    3    0    0 -0.10206547585E+02 -0.14563992591E+02 -0.14169477426E+02  0.22738900250E+02  0.51100000000E-03 0.  1.
         23    2    1    0    0    0 -0.27196142919E+02 -0.12983699454E+02  0.37348604126E+02  0.77009116789E+02  0.60226897622E+02 0.  0.
         11    1    3    3    0    0 -0.16989595335E+02  0.15802931367E+01  0.51518081552E+02  0.54270216539E+02  0.51100000000E-03 0. -1.
         22    1    1    0    0    0  0.27196142919E+02  0.12983699454E+02 -0.37348604126E+02  0.47990883211E+02  0.00000000000E+00 0. -1.
</event>
<event>
 5    1  0.1094625E-009  0.9118800E+02  0.7818608E-02  0.1130116E+00
         25   -1    0    0    0    0  0.00000000000E+00  0.00000000000E+00  0.99999998245E-14  0.12500000000E+03  0.12500000000E+03 0.  0.
        -11    1    3    3    0    0  0.10740778302E+02  0.62777042063E+01  0.37327524707E+02  0.39346130555E+02  0.51100000000E-03 0.  1.
         23    2    1    0    0    0  0.23067492098E+02 -0.91285805883E+01 -0.15506657672E+02  0.95744289320E+02  0.91165082844E+02 0.  0.
         11    1    3    3    0    0  0.12326713796E+02 -0.15406284795E+02 -0.52834182379E+02  0.56398158765E+02  0.51100000000E-03 0. -1.
         22    1    1    0    0    0 -0.23067492098E+02  0.91285805883E+01  0.15506657672E+02  0.29255710680E+02  0.00000000000E+00 0. -1.
</event>
<event>
 5    1  0.1094625E-009  0.9118800E+02  0.7818608E-02  0.1130116E+00
         25   -1    0    0    0    0  0.00000000000E+00  0.00000000000E+00  0.99999998245E-14  0.12500000000E+03  0.12500000000E+03 0.  0.
        -11    1    3    3    0    0 -0.31649706083E+02  0.69690305911E+01  0.31473416220E+02  0.45175736976E+02  0.51100000000E-03 0.  1.
         23    2    1    0    0    0  0.78420553121E+01  0.27423165526E+02  0.84724751050E+01  0.95245829311E+02  0.90479043583E+02 0.  0.
         11    1    3    3    0    0  0.39491761395E+02  0.20454134935E+02 -0.23000941115E+02  0.50070092335E+02  0.51100000000E-03 0. -1.
         22    1    1    0    0    0 -0.78420553121E+01 -0.27423165526E+02 -0.84724751050E+01  0.29754170689E+02  0.00000000000E+00 0.  1.
</event>
<event>
 5    1  0.1094625E-009  0.9118800E+02  0.7818608E-02  0.1130116E+00
         25   -1    0    0    0    0  0.00000000000E+00  0.00000000000E+00  0.99999998245E-14  0.12500000000E+03  0.12500000000E+03 0.  0.
        -11    1    3    3    0    0  0.31358250374E+02 -0.24274301140E+02 -0.16491863668E+00  0.39656131439E+02  0.51100000000E-03 0. -1.
         23    2    1    0    0    0 -0.19980264057E+02  0.55447596066E+01 -0.13172258037E+02  0.10043450199E+03  0.97383907790E+02 0.  0.
         11    1    3    3    0    0 -0.51338514431E+02  0.29819060746E+02 -0.13007339401E+02  0.60778370546E+02  0.51100000000E-03 0.  1.
         22    1    1    0    0    0  0.19980264057E+02 -0.55447596066E+01  0.13172258037E+02  0.24565498014E+02  0.00000000000E+00 0.  1.
</event>
<event>
 5    1  0.1094625E-009  0.9118800E+02  0.7818608E-02  0.1130116E+00
         25   -1    0    0    0    0  0.00000000000E+00  0.00000000000E+00  0.99999998245E-14  0.12500000000E+03  0.12500000000E+03 0.  0.
        -11    1    3    3    0    0  0.45379176983E+02  0.20169421903E+02  0.27182683585E+02  0.56612485997E+02  0.51100000000E-03 0.  1.
         23    2    1    0    0    0  0.87123108267E+01  0.12871053332E+01  0.25645656104E+02  0.97884309393E+02  0.94053587642E+02 0.  0.
         11    1    3    3    0    0 -0.36666866156E+02 -0.18882316570E+02 -0.15370274816E+01  0.41271823397E+02  0.51100000000E-03 0. -1.
         22    1    1    0    0    0 -0.87123108267E+01 -0.12871053332E+01 -0.25645656104E+02  0.27115690607E+02  0.00000000000E+00 0.  1.
</event>
<event>
 5    1  0.1094625E-009  0.9118800E+02  0.7818608E-02  0.1130116E+00
         25   -1    0    0    0    0  0.00000000000E+00  0.00000000000E+00  0.99999998245E-14  0.12500000000E+03  0.12500000000E+03 0.  0.
        -11    1    3    3    0    0  0.16995449530E+02 -0.18451983970E+02  0.45674905603E+02  0.52110632497E+02  0.51100000000E-03 0.  1.
         23    2    1    0    0    0  0.26645234705E+02  0.48427887134E+01  0.93083894461E+01  0.96363183677E+02  0.92009759913E+02 0.  0.
         11    1    3    3    0    0  0.96497851751E+01  0.23294772684E+02 -0.36366516157E+02  0.44252551180E+02  0.51100000000E-03 0. -1.
         22    1    1    0    0    0 -0.26645234705E+02 -0.48427887134E+01 -0.93083894461E+01  0.28636816323E+02  0.00000000000E+00 0.  1.
</event>
<event>
 5    1  0.1094625E-009  0.9118800E+02  0.7818608E-02  0.1130116E+00
         25   -1    0    0    0    0  0.00000000000E+00  0.00000000000E+00  0.99999998245E-14  0.12500000000E+03  0.12500000000E+03 0.  0.
        -11    1    3    3    0    0  0.43978197985E+02 -0.44406116859E+01 -0.12075454822E+01  0.44218311778E+02  0.51100000000E-03 0.  1.
         23    2    1    0    0    0  0.38758914970E+00 -0.19850324622E+02  0.21506144658E+02  0.95730564218E+02  0.91146261879E+02 0.  0.
         11    1    3    3    0    0 -0.43590608835E+02 -0.15409712936E+02  0.22713690140E+02  0.51512252440E+02  0.51100000000E-03 0. -1.
         22    1    1    0    0    0 -0.38758914970E+00  0.19850324622E+02 -0.21506144658E+02  0.29269435782E+02  0.00000000000E+00 0. -1.
</event>
<event>
 5    1  0.1094625E-009  0.9118800E+02  0.7818608E-02  0.1130116E+00
         25   -1    0    0    0    0  0.00000000000E+00  0.00000000000E+00  0.99999998245E-14  0.12500000000E+03  0.12500000000E+03 0.  0.
        -11    1    3    3    0    0 -0.34202388356E+02 -0.28692989434E+01  0.23560612969E+02  0.41630982806E+02  0.51100000000E-03 0. -1.
         23    2    1    0    0    0 -0.91083146002E+01  0.18299725193E+02 -0.20149467199E+02  0.96297345673E+02  0.91920272075E+02 0.  0.
         11    1    3    3    0    0  0.25094073756E+02  0.21169024136E+02 -0.43710080168E+02  0.54666362867E+02  0.51100000000E-03 0.  1.
         22    1    1    0    0    0  0.91083146002E+01 -0.18299725193E+02  0.20149467199E+02  0.28702654327E+02  0.00000000000E+00 0.  1.
</event>
<event>
 5    1  0.1094625E-009  0.9118800E+02  0.7818608E-02  0.1130116E+00
         25   -1    0    0    0    0  0.00000000000E+00  0.00000000000E+00  0.99999998245E-14  0.12500000000E+03  0.12500000000E+03 0.  0.
        -11    1    3    3    0    0  0.41236633670E+02 -0.20031495903E+02  0.19629513606E+02  0.49870217457E+02  0.51100000000E-03 0.  1.
         23    2    1    0    0    0 -0.43767305837E+01 -0.17690711832E+02  0.22985305790E+02  0.95666719617E+02  0.91058661885E+02 0.  0.
         11    1    3    3    0    0 -0.45613364254E+02  0.23407840712E+01  0.33557921847E+01  0.45796502160E+02  0.51100000000E-03 0. -1.
         22    1    1    0    0    0  0.43767305837E+01  0.17690711832E+02 -0.22985305790E+02  0.29333280383E+02  0.00000000000E+00 0.  1.
</event>
<event>
 5    1  0.1094625E-009  0.9118800E+02  0.7818608E-02  0.1130116E+00
         25   -1    0    0    0    0  0.00000000000E+00  0.00000000000E+00  0.99999998245E-14  0.12500000000E+03  0.12500000000E+03 0.  0.
        -11    1    3    3    0    0 -0.17515006120E+02  0.12829239860E+02 -0.33619799994E+02  0.40020691981E+02  0.51100000000E-03 0. -1.
         23    2    1    0    0    0 -0.18881179817E+02 -0.48726228555E+01  0.20337853008E+02  0.96824307111E+02  0.92634101593E+02 0.  0.
         11    1    3    3    0    0 -0.13661736970E+01 -0.17701862715E+02  0.53957653002E+02  0.56803615131E+02  0.51100000000E-03 0.  1.
         22    1    1    0    0    0  0.18881179817E+02  0.48726228555E+01 -0.20337853008E+02  0.28175692889E+02  0.00000000000E+00 0.  1.
</event>
<event>
 5    1  0.1094625E-009  0.9118800E+02  0.7818608E-02  0.1130116E+00
         25   -1    0    0    0    0  0.00000000000E+00  0.00000000000E+00  0.99999998245E-14  0.12500000000E+03  0.12500000000E+03 0.  0.
        -11    1    3    3    0    0  0.32185019038E+02 -0.27143622347E+02 -0.41569501626E+02  0.59166503617E+02  0.51100000000E-03 0. -1.
         23    2    1    0    0    0  0.22759712299E+02 -0.65203045298E+01 -0.73626804484E+01  0.10020629236E+03  0.97090540684E+02 0.  0.
         11    1    3    3    0    0 -0.94253067396E+01  0.20623317817E+02  0.34206821177E+02  0.41039788745E+02  0.51100000000E-03 0.  1.
         22    1    1    0    0    0 -0.22759712299E+02  0.65203045298E+01  0.73626804484E+01  0.24793707638E+02  0.00000000000E+00 0. -1.
</event>
<event>
 5    1  0.1094625E-009  0.9118800E+02  0.7818608E-02  0.1130116E+00
         25   -1    0    0    0    0  0.00000000000E+00  0.00000000000E+00  0.99999998245E-14  0.12500000000E+03  0.12500000000E+03 0.  0.
        -11    1    3    3    0    0 -0.52992725911E+02 -0.19168704642E+02  0.11054493579E+02  0.57427084774E+02  0.51100000000E-03 0. -1.
         23    2    1    0    0    0 -0.21592079266E+02  0.16852853376E+01  0.19274371073E+02  0.96007596617E+02  0.91525401688E+02 0.  0.
         11    1    3    3    0    0  0.31400646645E+02  0.20853989980E+02  0.82198774931E+01  0.38580511842E+02  0.51100000000E-03 0.  1.
         22    1    1    0    0    0  0.21592079266E+02 -0.16852853376E+01 -0.19274371073E+02  0.28992403383E+02  0.00000000000E+00 0. -1.
</event>
<event>
 5    1  0.1094625E-009  0.9118800E+02  0.7818608E-02  0.1130116E+00
         25   -1    0    0    0    0  0.00000000000E+00  0.00000000000E+00  0.99999998245E-14  0.12500000000E+03  0.12500000000E+03 0.  0.
        -11    1    3    3    0    0  0.15862968434E+02  0.24437558896E+02  0.24815376090E+02  0.38270497032E+02  0.51100000000E-03 0. -1.
         23    2    1    0    0    0  0.16518683579E+02 -0.17356941637E+02 -0.15595709648E+02  0.96410552828E+02  0.92074090856E+02 0.  0.
         11    1    3    3    0    0  0.65571514578E+00 -0.41794500533E+02 -0.40411085738E+02  0.58140055796E+02  0.51100000000E-03 0.  1.
         22    1    1    0    0    0 -0.16518683579E+02  0.17356941637E+02  0.15595709648E+02  0.28589447172E+02  0.00000000000E+00 0.  1.
</event>
<event>
 5    1  0.1094625E-009  0.9118800E+02  0.7818608E-02  0.1130116E+00
         25   -1    0    0    0    0  0.00000000000E+00  0.00000000000E+00  0.99999998245E-14  0.12500000000E+03  0.12500000000E+03 0.  0.
        -11    1    3    3    0    0  0.50678317820E+02 -0.25436085006E+02  0.17762952502E+01  0.56731310073E+02  0.51100000000E-03 0. -1.
         23    2    1    0    0    0  0.26122450107E+02  0.41128916706E+01  0.11185863752E+02  0.96287253260E+02  0.91906546638E+02 0.  0.
         11    1    3    3    0    0 -0.24555867713E+02  0.29548976677E+02  0.94095685019E+01  0.39555943187E+02  0.51100000000E-03 0.  1.
         22    1    1    0    0    0 -0.26122450107E+02 -0.41128916706E+01 -0.11185863752E+02  0.28712746740E+02  0.00000000000E+00 0. -1.
</event>
<event>
 5    1  0.1094625E-009  0.9118800E+02  0.7818608E-02  0.1130116E+00
         25   -1    0    0    0    0  0.00000000000E+00  0.00000000000E+00  0.99999998245E-14  0.12500000000E+03  0.12500000000E+03 0.  0.
        -11    1    3    3    0    0 -0.51912198396E+01 -0.28161004522E+02  0.18384843397E+02  0.34029302169E+02  0.51100000000E-03 0. -1.
         23    2    1    0    0    0  0.11198676541E+02  0.19736262967E+02 -0.17719749408E+02  0.96209030040E+02  0.91800095370E+02 0.  0.
         11    1    3    3    0    0  0.16389896380E+02  0.47897267489E+02 -0.36104592805E+02  0.62179727871E+02  0.51100000000E-03 0.  1.
         22    1    1    0    0    0 -0.11198676541E+02 -0.19736262967E+02  0.17719749408E+02  0.28790969960E+02  0.00000000000E+00 0.  1.
</event>
<event>
 5    1  0.1094625E-009  0.9118800E+02  0.7818608E-02  0.1130116E+00
         25   -1    0    0    0    0  0.00000000000E+00  0.00000000000E+00  0.99999998245E-14  0.12500000000E+03  0.12500000000E+03 0.  0.
        -11    1    3    3    0    0 -0.36550389037E+02 -0.27252790253E+02 -0.23433206500E+00  0.45592767267E+02  0.51100000000E-03 0. -1.
         23    2    1    0    0    0  0.12989316354E+02 -0.26804198921E+02 -0.18079473779E+01  0.95159489065E+02  0.90359682748E+02 0.  0.
         11    1    3    3    0    0  0.49539705390E+02  0.44859133235E+00 -0.15736153128E+01  0.49566721798E+02  0.51100000000E-03 0.  1.
         22    1    1    0    0    0 -0.12989316354E+02  0.26804198921E+02  0.18079473779E+01  0.29840510935E+02  0.00000000000E+00 0.  1.
</event>
<event>
 5    1  0.1094625E-009  0.9118800E+02  0.7818608E-02  0.1130116E+00
         25   -1    0    0    0    0  0.00000000000E+00  0.00000000000E+00  0.99999998245E-14  0.12500000000E+03  0.12500000000E+03 0.  0.
        -11    1    3    3    0    0  0.13549577941E+02  0.35718642352E+01  0.58464720090E+02  0.60120485461E+02  0.51100000000E-03 0.  1.
         23    2    1    0    0    0 -0.35272180431E+01  0.88591518625E+01  0.27733692477E+02  0.95672819139E+02  0.91067034566E+02 0.  0.
         11    1    3    3    0    0 -0.17076795984E+02  0.52872876273E+01 -0.30731027613E+02  0.35552333678E+02  0.51100000000E-03 0. -1.
         22    1    1    0    0    0  0.35272180431E+01 -0.88591518625E+01 -0.27733692477E+02  0.29327180861E+02  0.00000000000E+00 0.  1.
</event>
<event>
 5    1  0.1094625E-009  0.9118800E+02  0.7818608E-02  0.1130116E+00
         25   -1    0    0    0    0  0.00000000000E+00  0.00000000000E+00  0.99999998245E-14  0.12500000000E+03  0.12500000000E+03 0.  0.
        -11    1    3    3    0    0 -0.36856165184E+02  0.15755297919E+02 -0.40334462570E+02  0.56863654434E+02  0.51100000000E-03 0.  1.
         23    2    1    0    0    0 -0.28089940704E+02  0.25477599760E+01 -0.39909911022E+01  0.96513795276E+02  0.92214146523E+02 0.  0.
         11    1    3    3    0    0  0.87662244808E+01 -0.13207537943E+02  0.36343471467E+02  0.39650140841E+02  0.51100000000E-03 0. -1.
         22    1    1    0    0    0  0.28089940704E+02 -0.25477599760E+01  0.39909911022E+01  0.28486204724E+02  0.00000000000E+00 0.  1.
</event>
<event>
 5    1  0.1094625E-009  0.9118800E+02  0.7818608E-02  0.1130116E+00
         25   -1    0    0    0    0  0.00000000000E+00  0.00000000000E+00  0.99999998245E-14  0.12500000000E+03  0.12500000000E+03 0.  0.
        -11    1    3    3    0    0  0.92408970606E+01 -0.16344602399E+02  0.33038656325E+02  0.38001223903E+02  0.51100000000E-03 0. -1.
         23    2    1    0    0    0 -0.24076563609E+02  0.12577868752E+02 -0.63032744309E+01  0.97114251560E+02  0.93024528432E+02 0.  0.
         11    1    3    3    0    0 -0.33317460669E+02  0.28922471151E+02 -0.39341930756E+02  0.59113027657E+02  0.51100000000E-03 0.  1.
         22    1    1    0    0    0  0.24076563609E+02 -0.12577868752E+02  0.63032744309E+01  0.27885748440E+02  0.00000000000E+00 0.  1.
</event>
<event>
 5    1  0.1094625E-009  0.9118800E+02  0.7818608E-02  0.1130116E+00
         25   -1    0    0    0    0  0.00000000000E+00  0.00000000000E+00  0.99999998245E-14  0.12500000000E+03  0.12500000000E+03 0.  0.
        -11    1    3    3    0    0 -0.39312650082E+02 -0.19995228455E+01  0.40877659028E+02  0.56749145861E+02  0.51100000000E-03 0. -1.
         23    2    1    0    0    0 -0.13226921540E+02  0.17525483761E+02  0.18643541720E+02  0.96195908583E+02  0.91782226742E+02 0.  0.
         11    1    3    3    0    0  0.26085728542E+02  0.19525006607E+02 -0.22234117307E+02  0.39446762722E+02  0.51100000000E-03 0.  1.
         22    1    1    0    0    0  0.13226921540E+02 -0.17525483761E+02 -0.18643541720E+02  0.28804091417E+02  0.00000000000E+00 0. -1.
</event>
<event>
 5    1  0.1094625E-009  0.9118800E+02  0.7818608E-02  0.1130116E+00
         25   -1    0    0    0    0  0.00000000000E+00  0.00000000000E+00  0.99999998245E-14  0.12500000000E+03  0.12500000000E+03 0.  0.
        -11    1    3    3    0    0 -0.24763862882E+01  0.48955304425E+02  0.56762470893E+01  0.49345456748E+02  0.51100000000E-03 0.  1.
         23    2    1    0    0    0  0.17021460655E+02  0.14707743999E+02  0.23386019262E+02  0.92550751114E+02  0.86675762347E+02 0.  0.
         11    1    3    3    0    0  0.19497846943E+02 -0.34247560426E+02  0.17709772173E+02  0.43205294366E+02  0.51100000000E-03 0. -1.
         22    1    1    0    0    0 -0.17021460655E+02 -0.14707743999E+02 -0.23386019262E+02  0.32449248886E+02  0.00000000000E+00 0.  1.
</event>
<event>
 5    1  0.1094625E-009  0.9118800E+02  0.7818608E-02  0.1130116E+00
         25   -1    0    0    0    0  0.00000000000E+00  0.00000000000E+00  0.99999998245E-14  0.12500000000E+03  0.12500000000E+03 0.  0.
        -11    1    3    3    0    0  0.70989796456E+01 -0.60173179185E+02  0.12159644418E+02  0.61798575695E+02  0.51100000000E-03 0.  1.
         23    2    1    0    0    0 -0.28654163419E+01 -0.31364032796E+02  0.50119388773E+01  0.93109049946E+02  0.87477211241E+02 0.  0.
         11    1    3    3    0    0 -0.99643959875E+01  0.28809146389E+02 -0.71477055404E+01  0.31310474251E+02  0.51100000000E-03 0. -1.
         22    1    1    0    0    0  0.28654163419E+01  0.31364032796E+02 -0.50119388773E+01  0.31890950054E+02  0.00000000000E+00 0.  1.
</event>
<event>
 5    1  0.1094625E-009  0.9118800E+02  0.7818608E-02  0.1130116E+00
         25   -1    0    0    0    0  0.00000000000E+00  0.00000000000E+00  0.99999998245E-14  0.12500000000E+03  0.12500000000E+03 0.  0.
        -11    1    3    3    0    0  0.20753255674E+02  0.33533002167E+02  0.46185436925E+02  0.60731000647E+02  0.51100000000E-03 0. -1.
         23    2    1    0    0    0  0.20443637203E+02  0.15859853510E+02  0.20124347371E+02  0.92220942470E+02  0.86198814479E+02 0.  0.
         11    1    3    3    0    0 -0.30961847136E+00 -0.17673148657E+02 -0.26061089554E+02  0.31489941823E+02  0.51100000000E-03 0.  1.
         22    1    1    0    0    0 -0.20443637203E+02 -0.15859853510E+02 -0.20124347371E+02  0.32779057530E+02  0.00000000000E+00 0. -1.
</event>
<event>
 5    1  0.1094625E-009  0.9118800E+02  0.7818608E-02  0.1130116E+00
         25   -1    0    0    0    0  0.00000000000E+00  0.00000000000E+00  0.99999998245E-14  0.12500000000E+03  0.12500000000E+03 0.  0.
        -11    1    3    3    0    0  0.26287133318E+02  0.16398737452E+02  0.49662926747E+02  0.58534931976E+02  0.51100000000E-03 0.  1.
         23    2    1    0    0    0  0.20232524752E+02 -0.37607849522E+01  0.13467485126E+02  0.10040586011E+03  0.97347136720E+02 0.  0.
         11    1    3    3    0    0 -0.60546085663E+01 -0.20159522404E+02 -0.36195441621E+02  0.41870928134E+02  0.51100000000E-03 0. -1.
         22    1    1    0    0    0 -0.20232524752E+02  0.37607849522E+01 -0.13467485126E+02  0.24594139890E+02  0.00000000000E+00 0.  1.
</event>
<event>
 5    1  0.1094625E-009  0.9118800E+02  0.7818608E-02  0.1130116E+00
         25   -1    0    0    0    0  0.00000000000E+00  0.00000000000E+00  0.99999998245E-14  0.12500000000E+03  0.12500000000E+03 0.  0.
        -11    1    3    3    0    0  0.30206381224E+02 -0.27384488288E+02 -0.21131001153E+02  0.45922269929E+02  0.51100000000E-03 0.  1.
         23    2    1    0    0    0 -0.12240588274E+02 -0.27477652368E+02 -0.20902311279E+02  0.88369957715E+02  0.80420702738E+02 0.  0.
         11    1    3    3    0    0 -0.42446969498E+02 -0.93164080348E-01  0.22868987380E+00  0.42447687787E+02  0.51100000000E-03 0. -1.
         22    1    1    0    0    0  0.12240588274E+02  0.27477652368E+02  0.20902311279E+02  0.36630042285E+02  0.00000000000E+00 0.  1.
</event>
<event>
 5    1  0.1094625E-009  0.9118800E+02  0.7818608E-02  0.1130116E+00
         25   -1    0    0    0    0  0.00000000000E+00  0.00000000000E+00  0.99999998245E-14  0.12500000000E+03  0.12500000000E+03 0.  0.
        -11    1    3    3    0    0  0.48245692492E+02 -0.35032943944E+02  0.18215986055E+02  0.62344014577E+02  0.51100000000E-03 0. -1.
         23    2    1    0    0    0  0.19307409423E+02 -0.10314999606E+02  0.64293514465E+01  0.10218527152E+03  0.99605812483E+02 0.  0.
         11    1    3    3    0    0 -0.28938283069E+02  0.24717944338E+02 -0.11786634608E+02  0.39841256945E+02  0.51100000000E-03 0.  1.
         22    1    1    0    0    0 -0.19307409423E+02  0.10314999606E+02 -0.64293514465E+01  0.22814728478E+02  0.00000000000E+00 0. -1.
</event>
<event>
 5    1  0.1094625E-009  0.9118800E+02  0.7818608E-02  0.1130116E+00
         25   -1    0    0    0    0  0.00000000000E+00  0.00000000000E+00  0.99999998245E-14  0.12500000000E+03  0.12500000000E+03 0.  0.
        -11    1    3    3    0    0 -0.18484874165E+02  0.10143230512E+02 -0.29988928038E+02  0.36659398567E+02  0.51100000000E-03 0.  1.
         23    2    1    0    0    0 -0.89620335353E+01  0.30082534172E+00  0.27665232325E+02  0.95917812658E+02  0.91402697797E+02 0.  0.
         11    1    3    3    0    0  0.95228406293E+01 -0.98424051704E+01  0.57654160364E+02  0.59258414092E+02  0.51100000000E-03 0. -1.
         22    1    1    0    0    0  0.89620335353E+01 -0.30082534172E+00 -0.27665232325E+02  0.29082187342E+02  0.00000000000E+00 0. -1.
</event>
<event>
 5    1  0.1094625E-009  0.9118800E+02  0.7818608E-02  0.1130116E+00
         25   -1    0    0    0    0  0.00000000000E+00  0.00000000000E+00  0.99999998245E-14  0.12500000000E+03  0.12500000000E+03 0.  0.
        -11    1    3    3    0    0 -0.15696177734E+02 -0.41353022413E+02 -0.20637993462E+01  0.44279811722E+02  0.51100000000E-03 0. -1.
         23    2    1    0    0    0 -0.50887980404E+01 -0.12568594587E+02 -0.33898777820E+02  0.88489829184E+02  0.80606806759E+02 0.  0.
         11    1    3    3    0    0  0.10607379693E+02  0.28784427827E+02 -0.31834978473E+02  0.44210017461E+02  0.51100000000E-03 0.  1.
         22    1    1    0    0    0  0.50887980404E+01  0.12568594587E+02  0.33898777820E+02  0.36510170816E+02  0.00000000000E+00 0. -1.
</event>
<event>
 5    1  0.1094625E-009  0.9118800E+02  0.7818608E-02  0.1130116E+00
         25   -1    0    0    0    0  0.00000000000E+00  0.00000000000E+00  0.99999998245E-14  0.12500000000E+03  0.12500000000E+03 0.  0.
        -11    1    3    3    0    0 -0.30711297987E+02  0.48394080865E+01 -0.20246101128E+02  0.37101324853E+02  0.51100000000E-03 0.  1.
         23    2    1    0    0    0  0.25850634632E+00 -0.17173227090E+02  0.24041119850E+02  0.95454069691E+02  0.90766279105E+02 0.  0.
         11    1    3    3    0    0  0.30969804333E+02 -0.22012635176E+02  0.44287220978E+02  0.58352744838E+02  0.51100000000E-03 0. -1.
         22    1    1    0    0    0 -0.25850634632E+00  0.17173227090E+02 -0.24041119850E+02  0.29545930309E+02  0.00000000000E+00 0. -1.
</event>
<event>
 5    1  0.1094625E-009  0.9118800E+02  0.7818608E-02  0.1130116E+00
         25   -1    0    0    0    0  0.00000000000E+00  0.00000000000E+00  0.99999998245E-14  0.12500000000E+03  0.12500000000E+03 0.  0.
        -11    1    3    3    0    0  0.59351532947E+02 -0.11886942968E+02 -0.10804275161E+02  0.61486878587E+02  0.51100000000E-03 0. -1.
         23    2    1    0    0    0  0.27405659611E+02 -0.20203577770E+01 -0.12161253078E+02  0.94949241263E+02  0.90068364678E+02 0.  0.
         11    1    3    3    0    0 -0.31945873337E+02  0.98665851907E+01 -0.13569779166E+01  0.33462362676E+02  0.51100000000E-03 0.  1.
         22    1    1    0    0    0 -0.27405659611E+02  0.20203577770E+01  0.12161253078E+02  0.30050758737E+02  0.00000000000E+00 0. -1.
</event>
<event>
 5    1  0.1094625E-009  0.9118800E+02  0.7818608E-02  0.1130116E+00
         25   -1    0    0    0    0  0.00000000000E+00  0.00000000000E+00  0.99999998245E-14  0.12500000000E+03  0.12500000000E+03 0.  0.
        -11    1    3    3    0    0 -0.10976731007E+02 -0.56417795549E+02  0.22116001650E+01  0.57518235837E+02  0.51100000000E-03 0.  1.
         23    2    1    0    0    0 -0.18559196025E+02 -0.18098189857E+02 -0.79586323255E+01  0.97883066883E+02  0.94051936294E+02 0.  0.
         11    1    3    3    0    0 -0.75824650179E+01  0.38319605693E+02 -0.10170232490E+02  0.40364831046E+02  0.51100000000E-03 0. -1.
         22    1    1    0    0    0  0.18559196025E+02  0.18098189857E+02  0.79586323255E+01  0.27116933117E+02  0.00000000000E+00 0.  1.
</event>
<event>
 5    1  0.1094625E-009  0.9118800E+02  0.7818608E-02  0.1130116E+00
         25   -1    0    0    0    0  0.00000000000E+00  0.00000000000E+00  0.99999998245E-14  0.12500000000E+03  0.12500000000E+03 0.  0.
        -11    1    3    3    0    0  0.21313295122E+02 -0.42734245204E+01 -0.26312805891E+02  0.34130374451E+02  0.51100000000E-03 0. -1.
         23    2    1    0    0    0 -0.19379844011E+02 -0.12997060048E+02  0.18451156517E+02  0.95251939549E+02  0.90487484700E+02 0.  0.
         11    1    3    3    0    0 -0.40693139133E+02 -0.87236355279E+01  0.44763962408E+02  0.61121565098E+02  0.51100000000E-03 0.  1.
         22    1    1    0    0    0  0.19379844011E+02  0.12997060048E+02 -0.18451156517E+02  0.29748060451E+02  0.00000000000E+00 0.  1.
</event>
<event>
 5    1  0.1094625E-009  0.9118800E+02  0.7818608E-02  0.1130116E+00
         25   -1    0    0    0    0  0.00000000000E+00  0.00000000000E+00  0.99999998245E-14  0.12500000000E+03  0.12500000000E+03 0.  0.
        -11    1    3    3    0    0 -0.22386093346E+02 -0.21472429487E+02 -0.33390215065E+02  0.45575309826E+02  0.51100000000E-03 0.  1.
         23    2    1    0    0    0  0.13876604441E+02  0.10477673991E+02 -0.24875762213E+02  0.94649623582E+02  0.89651580552E+02 0.  0.
         11    1    3    3    0    0  0.36262697786E+02  0.31950103478E+02  0.85144528524E+01  0.49074313756E+02  0.51100000000E-03 0. -1.
         22    1    1    0    0    0 -0.13876604441E+02 -0.10477673991E+02  0.24875762213E+02  0.30350376418E+02  0.00000000000E+00 0. -1.
</event>
<event>
 5    1  0.1094625E-009  0.9118800E+02  0.7818608E-02  0.1130116E+00
         25   -1    0    0    0    0  0.00000000000E+00  0.00000000000E+00  0.99999998245E-14  0.12500000000E+03  0.12500000000E+03 0.  0.
        -11    1    3    3    0    0 -0.44398211512E+02  0.16635904176E+02 -0.35524035996E+00  0.47413929274E+02  0.51100000000E-03 0.  1.
         23    2    1    0    0    0 -0.13253988035E+01  0.31124973406E+02  0.59190822233E+01  0.93289494077E+02  0.87734676834E+02 0.  0.
         11    1    3    3    0    0  0.43072812709E+02  0.14489069230E+02  0.62743225832E+01  0.45875564803E+02  0.51100000000E-03 0. -1.
         22    1    1    0    0    0  0.13253988035E+01 -0.31124973406E+02 -0.59190822233E+01  0.31710505923E+02  0.00000000000E+00 0. -1.
</event>
<event>
 5    1  0.1094625E-009  0.9118800E+02  0.7818608E-02  0.1130116E+00
         25   -1    0    0    0    0  0.00000000000E+00  0.00000000000E+00  0.99999998245E-14  0.12500000000E+03  0.12500000000E+03 0.  0.
        -11    1    3    3    0    0 -0.53181137434E+02 -0.31817725339E+02 -0.47116154796E+01  0.62151430758E+02  0.51100000000E-03 0.  1.
         23    2    1    0    0    0 -0.25385515748E+02 -0.16339082883E+02  0.22776690831E+01  0.94724963820E+02  0.89756564968E+02 0.  0.
         11    1    3    3    0    0  0.27795621686E+02  0.15478642456E+02  0.69892845627E+01  0.32573533062E+02  0.51100000000E-03 0. -1.
         22    1    1    0    0    0  0.25385515748E+02  0.16339082883E+02 -0.22776690831E+01  0.30275036180E+02  0.00000000000E+00 0.  1.
</event>
<event>
 5    1  0.1094625E-009  0.9118800E+02  0.7818608E-02  0.1130116E+00
         25   -1    0    0    0    0  0.00000000000E+00  0.00000000000E+00  0.99999998245E-14  0.12500000000E+03  0.12500000000E+03 0.  0.
        -11    1    3    3    0    0  0.22648586324E+02  0.94584053315E+01  0.56659380852E+02  0.61747107889E+02  0.51100000000E-03 0. -1.
         23    2    1    0    0    0  0.42525261305E+01  0.23308124476E+01  0.28261977254E+02  0.96324993052E+02  0.91957861345E+02 0.  0.
         11    1    3    3    0    0 -0.18396060194E+02 -0.71275928839E+01 -0.28397403598E+02  0.34577885163E+02  0.51100000000E-03 0.  1.
         22    1    1    0    0    0 -0.42525261305E+01 -0.23308124476E+01 -0.28261977254E+02  0.28675006948E+02  0.00000000000E+00 0. -1.
</event>
<event>
 5    1  0.1094625E-009  0.9118800E+02  0.7818608E-02  0.1130116E+00
         25   -1    0    0    0    0  0.00000000000E+00  0.00000000000E+00  0.99999998245E-14  0.12500000000E+03  0.12500000000E+03 0.  0.
        -11    1    3    3    0    0 -0.30431331421E+02  0.13486196412E+02  0.48786014952E+02  0.59059450394E+02  0.51100000000E-03 0. -1.
         23    2    1    0    0    0 -0.21586818979E+02 -0.51773759961E+01  0.16688030362E+02  0.97227957705E+02  0.93177193703E+02 0.  0.
         11    1    3    3    0    0  0.88445124413E+01 -0.18663572408E+02 -0.32097984590E+02  0.38168507311E+02  0.51100000000E-03 0.  1.
         22    1    1    0    0    0  0.21586818979E+02  0.51773759961E+01 -0.16688030362E+02  0.27772042295E+02  0.00000000000E+00 0. -1.
</event>
<event>
 5    1  0.1094625E-009  0.9118800E+02  0.7818608E-02  0.1130116E+00
         25   -1    0    0    0    0  0.00000000000E+00  0.00000000000E+00  0.99999998245E-14  0.12500000000E+03  0.12500000000E+03 0.  0.
        -11    1    3    3    0    0  0.11430435524E+02  0.47635498743E+02  0.18193470556E+02  0.52257037496E+02  0.51100000000E-03 0. -1.
         23    2    1    0    0    0 -0.79888522489E+01  0.15401656421E+02  0.28820199478E+02  0.91360192053E+02  0.84941438729E+02 0.  0.
         11    1    3    3    0    0 -0.19419287773E+02 -0.32233842322E+02  0.10626728922E+02  0.39103154557E+02  0.51100000000E-03 0.  1.
         22    1    1    0    0    0  0.79888522489E+01 -0.15401656421E+02 -0.28820199478E+02  0.33639807947E+02  0.00000000000E+00 0.  1.
</event>
<event>
 5    1  0.1094625E-009  0.9118800E+02  0.7818608E-02  0.1130116E+00
         25   -1    0    0    0    0  0.00000000000E+00  0.00000000000E+00  0.99999998245E-14  0.12500000000E+03  0.12500000000E+03 0.  0.
        -11    1    3    3    0    0 -0.25725844306E+02  0.22738411190E+02  0.36897370324E+02  0.50401094688E+02  0.51100000000E-03 0.  1.
         23    2    1    0    0    0  0.10258683581E+02 -0.31413660434E+01  0.27181334116E+02  0.95777856106E+02  0.91211095961E+02 0.  0.
         11    1    3    3    0    0  0.35984527887E+02 -0.25879777233E+02 -0.97160362081E+01  0.45376761418E+02  0.51100000000E-03 0. -1.
         22    1    1    0    0    0 -0.10258683581E+02  0.31413660434E+01 -0.27181334116E+02  0.29222143894E+02  0.00000000000E+00 0.  1.
</event>
<event>
 5    1  0.1094625E-009  0.9118800E+02  0.7818608E-02  0.1130116E+00
         25   -1    0    0    0    0  0.00000000000E+00  0.00000000000E+00  0.99999998245E-14  0.12500000000E+03  0.12500000000E+03 0.  0.
        -11    1    3    3    0    0 -0.77662682672E+01 -0.23539802218E+02 -0.37916069466E+02  0.45299729969E+02  0.51100000000E-03 0. -1.
         23    2    1    0    0    0  0.17421151333E+02 -0.22347317451E+02  0.60893284908E+01  0.96017608234E+02  0.91539073943E+02 0.  0.
         11    1    3    3    0    0  0.25187419600E+02  0.11924847667E+01  0.44005397957E+02  0.50717878264E+02  0.51100000000E-03 0.  1.
         22    1    1    0    0    0 -0.17421151333E+02  0.22347317451E+02 -0.60893284908E+01  0.28982391766E+02  0.00000000000E+00 0. -1.
</event>
<event>
 5    1  0.1094625E-009  0.9118800E+02  0.7818608E-02  0.1130116E+00
         25   -1    0    0    0    0  0.00000000000E+00  0.00000000000E+00  0.99999998245E-14  0.12500000000E+03  0.12500000000E+03 0.  0.
        -11    1    3    3    0    0 -0.14910118014E+02  0.92611430232E+01 -0.27315628023E+02  0.32468814636E+02  0.51100000000E-03 0. -1.
         23    2    1    0    0    0 -0.15739112867E+02  0.11752895369E+02  0.29616496224E+02  0.89461470599E+02  0.82099742081E+02 0.  0.
         11    1    3    3    0    0 -0.82899485310E+00  0.24917523460E+01  0.56932124247E+02  0.56992655964E+02  0.51100000000E-03 0.  1.
         22    1    1    0    0    0  0.15739112867E+02 -0.11752895369E+02 -0.29616496224E+02  0.35538529401E+02  0.00000000000E+00 0.  1.
</event>
<event>
 5    1  0.1094625E-009  0.9118800E+02  0.7818608E-02  0.1130116E+00
         25   -1    0    0    0    0  0.00000000000E+00  0.00000000000E+00  0.99999998245E-14  0.12500000000E+03  0.12500000000E+03 0.  0.
        -11    1    3    3    0    0 -0.11968363338E+02  0.21357689156E+02 -0.39082651097E+02  0.46117743051E+02  0.51100000000E-03 0.  1.
         23    2    1    0    0    0 -0.10396692927E+02 -0.22159066722E+02 -0.95845725374E+01  0.98713511217E+02  0.95149239641E+02 0.  0.
         11    1    3    3    0    0  0.15716704117E+01 -0.43516755878E+02  0.29498078560E+02  0.52595768166E+02  0.51100000000E-03 0. -1.
         22    1    1    0    0    0  0.10396692927E+02  0.22159066722E+02  0.95845725374E+01  0.26286488783E+02  0.00000000000E+00 0. -1.
</event>
<event>
 5    1  0.1094625E-009  0.9118800E+02  0.7818608E-02  0.1130116E+00
         25   -1    0    0    0    0  0.00000000000E+00  0.00000000000E+00  0.99999998245E-14  0.12500000000E+03  0.12500000000E+03 0.  0.
        -11    1    3    3    0    0 -0.16626838021E+01 -0.12692527207E+02 -0.31987454872E+02  0.34453766612E+02  0.51100000000E-03 0.  1.
         23    2    1    0    0    0 -0.51225869004E+01  0.34861402791E+01  0.27815319320E+02  0.96502876295E+02  0.92199344215E+02 0.  0.
         11    1    3    3    0    0 -0.34599030983E+01  0.16178667486E+02  0.59802774192E+02  0.62049109683E+02  0.51100000000E-03 0. -1.
         22    1    1    0    0    0  0.51225869004E+01 -0.34861402791E+01 -0.27815319320E+02  0.28497123705E+02  0.00000000000E+00 0. -1.
</event>
<event>
 5    1  0.1094625E-009  0.9118800E+02  0.7818608E-02  0.1130116E+00
         25   -1    0    0    0    0  0.00000000000E+00  0.00000000000E+00  0.99999998245E-14  0.12500000000E+03  0.12500000000E+03 0.  0.
        -11    1    3    3    0    0 -0.41453522572E+01 -0.41368001239E+02 -0.16910204259E+02  0.44882630050E+02  0.51100000000E-03 0.  1.
         23    2    1    0    0    0  0.90258742956E+01  0.53135922330E+01 -0.28400966794E+02  0.94729294953E+02  0.89762596543E+02 0.  0.
         11    1    3    3    0    0  0.13171226553E+02  0.46681593472E+02 -0.11490762535E+02  0.49846664903E+02  0.51100000000E-03 0. -1.
         22    1    1    0    0    0 -0.90258742956E+01 -0.53135922330E+01  0.28400966794E+02  0.30270705047E+02  0.00000000000E+00 0. -1.
</event>
<event>
 5    1  0.1094625E-009  0.9118800E+02  0.7818608E-02  0.1130116E+00
         25   -1    0    0    0    0  0.00000000000E+00  0.00000000000E+00  0.99999998245E-14  0.12500000000E+03  0.12500000000E+03 0.  0.
        -11    1    3    3    0    0  0.10584898729E+02  0.27334206948E+02 -0.24540142743E+02  0.38228491426E+02  0.51100000000E-03 0. -1.
         23    2    1    0    0    0 -0.16133991448E+02  0.14661119830E+02  0.22422783593E+02  0.93726443458E+02  0.88355027386E+02 0.  0.
         11    1    3    3    0    0 -0.26718890178E+02 -0.12673087117E+02  0.46962926336E+02  0.55497952032E+02  0.51100000000E-03 0.  1.
         22    1    1    0    0    0  0.16133991448E+02 -0.14661119830E+02 -0.22422783593E+02  0.31273556542E+02  0.00000000000E+00 0.  1.
</event>
<event>
 5    1  0.1094625E-009  0.9118800E+02  0.7818608E-02  0.1130116E+00
         25   -1    0    0    0    0  0.00000000000E+00  0.00000000000E+00  0.99999998245E-14  0.12500000000E+03  0.12500000000E+03 0.  0.
        -11    1    3    3    0    0  0.23068519328E+02  0.33113343487E+02 -0.15419355305E+02  0.43201928420E+02  0.51100000000E-03 0.  1.
         23    2    1    0    0    0  0.23574060127E+02 -0.13641010219E+02  0.94618807377E+01  0.96167021351E+02  0.91742876224E+02 0.  0.
         11    1    3    3    0    0  0.50554079878E+00 -0.46754353706E+02  0.24881236043E+02  0.52965092932E+02  0.51100000000E-03 0. -1.
         22    1    1    0    0    0 -0.23574060127E+02  0.13641010219E+02 -0.94618807377E+01  0.28832978649E+02  0.00000000000E+00 0. -1.
</event>
<event>
 5    1  0.1094625E-009  0.9118800E+02  0.7818608E-02  0.1130116E+00
         25   -1    0    0    0    0  0.00000000000E+00  0.00000000000E+00  0.99999998245E-14  0.12500000000E+03  0.12500000000E+03 0.  0.
        -11    1    3    3    0    0  0.24588230936E+02 -0.16702225457E+02  0.27414012234E+02  0.40436042126E+02  0.51100000000E-03 0.  1.
         23    2    1    0    0    0  0.14856889909E+02  0.25163634522E+02 -0.63526100417E+01  0.95095295781E+02  0.90270836626E+02 0.  0.
         11    1    3    3    0    0 -0.97313410275E+01  0.41865859979E+02 -0.33766622275E+02  0.54659253655E+02  0.51100000000E-03 0. -1.
         22    1    1    0    0    0 -0.14856889909E+02 -0.25163634522E+02  0.63526100417E+01  0.29904704219E+02  0.00000000000E+00 0. -1.
</event>
<event>
 5    1  0.1094625E-009  0.9118800E+02  0.7818608E-02  0.1130116E+00
         25   -1    0    0    0    0  0.00000000000E+00  0.00000000000E+00  0.99999998245E-14  0.12500000000E+03  0.12500000000E+03 0.  0.
        -11    1    3    3    0    0 -0.96443692713E+01 -0.45549173466E+01 -0.34449760407E+02  0.36063099188E+02  0.51100000000E-03 0.  1.
         23    2    1    0    0    0  0.66035723259E+01 -0.16560439657E+02  0.22385717994E+02  0.96382248530E+02  0.92035656854E+02 0.  0.
         11    1    3    3    0    0  0.16247941597E+02 -0.12005522310E+02  0.56835478401E+02  0.60319149342E+02  0.51100000000E-03 0. -1.
         22    1    1    0    0    0 -0.66035723259E+01  0.16560439657E+02 -0.22385717994E+02  0.28617751470E+02  0.00000000000E+00 0. -1.
</event>
<event>
 5    1  0.1094625E-009  0.9118800E+02  0.7818608E-02  0.1130116E+00
         25   -1    0    0    0    0  0.00000000000E+00  0.00000000000E+00  0.99999998245E-14  0.12500000000E+03  0.12500000000E+03 0.  0.
        -11    1    3    3    0    0 -0.15685303683E+02  0.31803865533E+02  0.26535723273E+02  0.44290622307E+02  0.51100000000E-03 0.  1.
         23    2    1    0    0    0 -0.24758257017E+02  0.63199000446E+01 -0.16110805480E+02  0.94792873683E+02  0.89851090260E+02 0.  0.
         11    1    3    3    0    0 -0.90729533338E+01 -0.25483965488E+02 -0.42646528753E+02  0.50502251377E+02  0.51100000000E-03 0. -1.
         22    1    1    0    0    0  0.24758257017E+02 -0.63199000446E+01  0.16110805480E+02  0.30207126317E+02  0.00000000000E+00 0.  1.
</event>
<event>
 5    1  0.1094625E-009  0.9118800E+02  0.7818608E-02  0.1130116E+00
         25   -1    0    0    0    0  0.00000000000E+00  0.00000000000E+00  0.99999998245E-14  0.12500000000E+03  0.12500000000E+03 0.  0.
        -11    1    3    3    0    0 -0.89905114545E+01  0.31857787383E+02  0.19366490241E+02  0.38351125899E+02  0.51100000000E-03 0. -1.
         23    2    1    0    0    0 -0.46482150206E+00 -0.25980780793E+02  0.53959144497E+01  0.98460728676E+02  0.94816571173E+02 0.  0.
         11    1    3    3    0    0  0.85256899524E+01 -0.57838568177E+02 -0.13970575791E+02  0.60109602778E+02  0.51100000000E-03 0.  1.
         22    1    1    0    0    0  0.46482150206E+00  0.25980780793E+02 -0.53959144497E+01  0.26539271324E+02  0.00000000000E+00 0.  1.
</event>
<event>
 5    1  0.1094625E-009  0.9118800E+02  0.7818608E-02  0.1130116E+00
         25   -1    0    0    0    0  0.00000000000E+00  0.00000000000E+00  0.99999998245E-14  0.12500000000E+03  0.12500000000E+03 0.  0.
        -11    1    3    3    0    0  0.30963143991E+01 -0.27420239578E+02  0.39967132007E+02  0.48567770614E+02  0.51100000000E-03 0. -1.
         23    2    1    0    0    0  0.11315018708E+02  0.15287590143E+02  0.22759569206E+02  0.95339621527E+02  0.90608528195E+02 0.  0.
         11    1    3    3    0    0  0.82187043089E+01  0.42707829721E+02 -0.17207562801E+02  0.46771850912E+02  0.51100000000E-03 0.  1.
         22    1    1    0    0    0 -0.11315018708E+02 -0.15287590143E+02 -0.22759569206E+02  0.29660378473E+02  0.00000000000E+00 0. -1.
</event>
<event>
 5    1  0.1094625E-009  0.9118800E+02  0.7818608E-02  0.1130116E+00
         25   -1    0    0    0    0  0.00000000000E+00  0.00000000000E+00  0.99999998245E-14  0.12500000000E+03  0.12500000000E+03 0.  0.
        -11    1    3    3    0    0 -0.17868396348E+02 -0.16301659351E+02 -0.53425114490E+02  0.58645260203E+02  0.51100000000E-03 0.  1.
         23    2    1    0    0    0 -0.98426331890E+00  0.48299365208E+01 -0.30506669896E+02  0.94097670489E+02  0.88878667982E+02 0.  0.
         11    1    3    3    0    0  0.16884133029E+02  0.21131595872E+02  0.22918444595E+02  0.35452410287E+02  0.51100000000E-03 0. -1.
         22    1    1    0    0    0  0.98426331890E+00 -0.48299365208E+01  0.30506669896E+02  0.30902329511E+02  0.00000000000E+00 0.  1.
</event>
<event>
 5    1  0.1094625E-009  0.9118800E+02  0.7818608E-02  0.1130116E+00
         25   -1    0    0    0    0  0.00000000000E+00  0.00000000000E+00  0.99999998245E-14  0.12500000000E+03  0.12500000000E+03 0.  0.
        -11    1    3    3    0    0 -0.34710239765E+02  0.16503795852E+02  0.13200458529E+02  0.40637767258E+02  0.51100000000E-03 0.  1.
         23    2    1    0    0    0  0.22404391419E+01  0.73372498434E+01 -0.27548140865E+02  0.96403586450E+02  0.92064632800E+02 0.  0.
         11    1    3    3    0    0  0.36950678907E+02 -0.91665460089E+01 -0.40748599393E+02  0.55765819192E+02  0.51100000000E-03 0. -1.
         22    1    1    0    0    0 -0.22404391419E+01 -0.73372498434E+01  0.27548140865E+02  0.28596413550E+02  0.00000000000E+00 0. -1.
</event>
<event>
 5    1  0.1094625E-009  0.9118800E+02  0.7818608E-02  0.1130116E+00
         25   -1    0    0    0    0  0.00000000000E+00  0.00000000000E+00  0.99999998245E-14  0.12500000000E+03  0.12500000000E+03 0.  0.
        -11    1    3    3    0    0  0.21998950356E+02  0.32110244510E+01 -0.24160859071E+02  0.32833087063E+02  0.51100000000E-03 0.  1.
         23    2    1    0    0    0 -0.22342834734E+02 -0.14923514414E+02  0.14567817027E+02  0.94436380461E+02  0.89353763856E+02 0.  0.
         11    1    3    3    0    0 -0.44341785090E+02 -0.18134538865E+02  0.38728676098E+02  0.61603293397E+02  0.51100000000E-03 0. -1.
         22    1    1    0    0    0  0.22342834734E+02  0.14923514414E+02 -0.14567817027E+02  0.30563619539E+02  0.00000000000E+00 0. -1.
</event>
<event>
 5    1  0.1094625E-009  0.9118800E+02  0.7818608E-02  0.1130116E+00
         25   -1    0    0    0    0  0.00000000000E+00  0.00000000000E+00  0.99999998245E-14  0.12500000000E+03  0.12500000000E+03 0.  0.
        -11    1    3    3    0    0  0.14213727696E+02  0.19031519146E+02  0.35196805586E+02  0.42462264421E+02  0.51100000000E-03 0. -1.
         23    2    1    0    0    0 -0.13093311855E+02 -0.21468955687E+02  0.17269531318E+02  0.94494466313E+02  0.89434985202E+02 0.  0.
         11    1    3    3    0    0 -0.27307039551E+02 -0.40500474833E+02 -0.17927274268E+02  0.52032201892E+02  0.51100000000E-03 0.  1.
         22    1    1    0    0    0  0.13093311855E+02  0.21468955687E+02 -0.17269531318E+02  0.30505533687E+02  0.00000000000E+00 0.  1.
</event>
<event>
 5    1  0.1094625E-009  0.9118800E+02  0.7818608E-02  0.1130116E+00
         25   -1    0    0    0    0  0.00000000000E+00  0.00000000000E+00  0.99999998245E-14  0.12500000000E+03  0.12500000000E+03 0.  0.
        -11    1    3    3    0    0  0.33830834119E+02 -0.31043772131E+02  0.96082820111E+01  0.46910129064E+02  0.51100000000E-03 0.  1.
         23    2    1    0    0    0  0.23910525097E-01 -0.22181133540E+02 -0.21800490302E+02  0.93899121649E+02  0.88598986519E+02 0.  0.
         11    1    3    3    0    0 -0.33806923593E+02  0.88626385915E+01 -0.31408772313E+02  0.46988992585E+02  0.51100000000E-03 0. -1.
         22    1    1    0    0    0 -0.23910525097E-01  0.22181133540E+02  0.21800490302E+02  0.31100878351E+02  0.00000000000E+00 0. -1.
</event>
<event>
 5    1  0.1094625E-009  0.9118800E+02  0.7818608E-02  0.1130116E+00
         25   -1    0    0    0    0  0.00000000000E+00  0.00000000000E+00  0.99999998245E-14  0.12500000000E+03  0.12500000000E+03 0.  0.
        -11    1    3    3    0    0  0.22903922248E+02 -0.16078731407E+02 -0.41658935147E+02  0.50185477340E+02  0.51100000000E-03 0. -1.
         23    2    1    0    0    0 -0.14431835630E+01 -0.29018877727E+02 -0.58793149189E+01  0.95356376955E+02  0.90631640384E+02 0.  0.
         11    1    3    3    0    0 -0.24347105811E+02 -0.12940146320E+02  0.35779620228E+02  0.45170899615E+02  0.51100000000E-03 0.  1.
         22    1    1    0    0    0  0.14431835630E+01  0.29018877727E+02  0.58793149189E+01  0.29643623045E+02  0.00000000000E+00 0.  1.
</event>
<event>
 5    1  0.1094625E-009  0.9118800E+02  0.7818608E-02  0.1130116E+00
         25   -1    0    0    0    0  0.00000000000E+00  0.00000000000E+00  0.99999998245E-14  0.12500000000E+03  0.12500000000E+03 0.  0.
        -11    1    3    3    0    0  0.34416332614E+02 -0.11341231368E+02 -0.22542844428E+02  0.42676542910E+02  0.51100000000E-03 0.  1.
         23    2    1    0    0    0 -0.61617622726E+01  0.13996774758E+02 -0.30222711549E+02  0.91128340588E+02  0.84599557606E+02 0.  0.
         11    1    3    3    0    0 -0.40578094887E+02  0.25338006125E+02 -0.76798671206E+01  0.48451797679E+02  0.51100000000E-03 0. -1.
         22    1    1    0    0    0  0.61617622726E+01 -0.13996774758E+02  0.30222711549E+02  0.33871659412E+02  0.00000000000E+00 0.  1.
</event>
<event>
 5    1  0.1094625E-009  0.9118800E+02  0.7818608E-02  0.1130116E+00
         25   -1    0    0    0    0  0.00000000000E+00  0.00000000000E+00  0.99999998245E-14  0.12500000000E+03  0.12500000000E+03 0.  0.
        -11    1    3    3    0    0 -0.10779458473E+01 -0.19190175312E+02 -0.35898116096E+02  0.40719768360E+02  0.51100000000E-03 0. -1.
         23    2    1    0    0    0 -0.13325618623E+02  0.25298272749E+02 -0.57635805631E+01  0.95831633973E+02  0.91284765943E+02 0.  0.
         11    1    3    3    0    0 -0.12247672776E+02  0.44488448061E+02  0.30134535533E+02  0.55111865613E+02  0.51100000000E-03 0.  1.
         22    1    1    0    0    0  0.13325618623E+02 -0.25298272749E+02  0.57635805631E+01  0.29168366027E+02  0.00000000000E+00 0.  1.
</event>
<event>
 5    1  0.1094625E-009  0.9118800E+02  0.7818608E-02  0.1130116E+00
         25   -1    0    0    0    0  0.00000000000E+00  0.00000000000E+00  0.99999998245E-14  0.12500000000E+03  0.12500000000E+03 0.  0.
        -11    1    3    3    0    0 -0.28789159871E+02  0.27384635308E+02  0.64068142246E+01  0.40246506007E+02  0.51100000000E-03 0. -1.
         23    2    1    0    0    0 -0.14441305729E+02 -0.22889927858E+02 -0.11616246541E+02  0.95547711596E+02  0.90895147830E+02 0.  0.
         11    1    3    3    0    0  0.14347854142E+02 -0.50274563166E+02 -0.18023060766E+02  0.55301205589E+02  0.51100000000E-03 0.  1.
         22    1    1    0    0    0  0.14441305729E+02  0.22889927858E+02  0.11616246541E+02  0.29452288404E+02  0.00000000000E+00 0. -1.
</event>
<event>
 5    1  0.1094625E-009  0.9118800E+02  0.7818608E-02  0.1130116E+00
         25   -1    0    0    0    0  0.00000000000E+00  0.00000000000E+00  0.99999998245E-14  0.12500000000E+03  0.12500000000E+03 0.  0.
        -11    1    3    3    0    0 -0.24796364661E+02 -0.29498108328E+02  0.28247572307E+02  0.47779948063E+02  0.51100000000E-03 0.  1.
         23    2    1    0    0    0  0.11792814176E+02 -0.23102797819E+02 -0.60813858068E+01  0.98358059632E+02  0.94681122237E+02 0.  0.
         11    1    3    3    0    0  0.36589178837E+02  0.63953105098E+01 -0.34328958114E+02  0.50578111569E+02  0.51100000000E-03 0. -1.
         22    1    1    0    0    0 -0.11792814176E+02  0.23102797819E+02  0.60813858068E+01  0.26641940368E+02  0.00000000000E+00 0. -1.
</event>
<event>
 5    1  0.1094625E-009  0.9118800E+02  0.7818608E-02  0.1130116E+00
         25   -1    0    0    0    0  0.00000000000E+00  0.00000000000E+00  0.99999998245E-14  0.12500000000E+03  0.12500000000E+03 0.  0.
        -11    1    3    3    0    0 -0.12110014314E+02 -0.37181958275E+02  0.32184987758E+02  0.50646065050E+02  0.51100000000E-03 0.  1.
         23    2    1    0    0    0 -0.19506334608E+02  0.60907733045E+01  0.20454709467E+02  0.96086512686E+02  0.91633117220E+02 0.  0.
         11    1    3    3    0    0 -0.73963202942E+01  0.43272731580E+02 -0.11730278291E+02  0.45440447635E+02  0.51100000000E-03 0. -1.
         22    1    1    0    0    0  0.19506334608E+02 -0.60907733045E+01 -0.20454709467E+02  0.28913487314E+02  0.00000000000E+00 0. -1.
</event>
<event>
 5    1  0.1094625E-009  0.9118800E+02  0.7818608E-02  0.1130116E+00
         25   -1    0    0    0    0  0.00000000000E+00  0.00000000000E+00  0.99999998245E-14  0.12500000000E+03  0.12500000000E+03 0.  0.
        -11    1    3    3    0    0  0.10675496373E+02  0.65610206213E+01  0.52564068778E+02  0.54036973834E+02  0.51100000000E-03 0.  1.
         23    2    1    0    0    0  0.85342224911E+00 -0.19657097452E+02  0.21839074858E+02  0.95604847331E+02  0.90973687584E+02 0.  0.
         11    1    3    3    0    0 -0.98220741243E+01 -0.26218118074E+02 -0.30724993920E+02  0.41567873497E+02  0.51100000000E-03 0. -1.
         22    1    1    0    0    0 -0.85342224911E+00  0.19657097452E+02 -0.21839074858E+02  0.29395152669E+02  0.00000000000E+00 0.  1.
</event>
<event>
 5    1  0.1094625E-009  0.9118800E+02  0.7818608E-02  0.1130116E+00
         25   -1    0    0    0    0  0.00000000000E+00  0.00000000000E+00  0.99999998245E-14  0.12500000000E+03  0.12500000000E+03 0.  0.
        -11    1    3    3    0    0  0.42571933448E+02 -0.14555401261E+02  0.38313981857E+02  0.59094758053E+02  0.51100000000E-03 0.  1.
         23    2    1    0    0    0  0.30033066087E+02 -0.66182892904E+01  0.74262447244E+01  0.93362428627E+02  0.87838528885E+02 0.  0.
         11    1    3    3    0    0 -0.12538867361E+02  0.79371119710E+01 -0.30887737132E+02  0.34267670574E+02  0.51100000000E-03 0. -1.
         22    1    1    0    0    0 -0.30033066087E+02  0.66182892904E+01 -0.74262447244E+01  0.31637571373E+02  0.00000000000E+00 0.  1.
</event>
<event>
 5    1  0.1094625E-009  0.9118800E+02  0.7818608E-02  0.1130116E+00
         25   -1    0    0    0    0  0.00000000000E+00  0.00000000000E+00  0.99999998245E-14  0.12500000000E+03  0.12500000000E+03 0.  0.
        -11    1    3    3    0    0  0.21798058080E+02 -0.43391140653E+00 -0.26696266285E+02  0.34467872708E+02  0.51100000000E-03 0.  1.
         23    2    1    0    0    0 -0.27271983734E+02  0.41371357001E+01  0.97290248033E+01  0.95750539967E+02  0.91173652948E+02 0.  0.
         11    1    3    3    0    0 -0.49070041814E+02  0.45710471067E+01  0.36425291089E+02  0.61282667259E+02  0.51100000000E-03 0. -1.
         22    1    1    0    0    0  0.27271983734E+02 -0.41371357001E+01 -0.97290248033E+01  0.29249460033E+02  0.00000000000E+00 0. -1.
</event>
<event>
 5    1  0.1094625E-009  0.9118800E+02  0.7818608E-02  0.1130116E+00
         25   -1    0    0    0    0  0.00000000000E+00  0.00000000000E+00  0.99999998245E-14  0.12500000000E+03  0.12500000000E+03 0.  0.
        -11    1    3    3    0    0 -0.16014758618E+02 -0.60088479105E+02  0.40925083046E+01  0.62320513792E+02  0.51100000000E-03 0.  1.
         23    2    1    0    0    0 -0.47390395530E+01 -0.30012611636E+02  0.31263716886E+01  0.94455122311E+02  0.89379978617E+02 0.  0.
         11    1    3    3    0    0  0.11275719065E+02  0.30075867469E+02 -0.96613661594E+00  0.32134608519E+02  0.51100000000E-03 0. -1.
         22    1    1    0    0    0  0.47390395530E+01  0.30012611636E+02 -0.31263716886E+01  0.30544877689E+02  0.00000000000E+00 0.  1.
</event>
<event>
 5    1  0.1094625E-009  0.9118800E+02  0.7818608E-02  0.1130116E+00
         25   -1    0    0    0    0  0.00000000000E+00  0.00000000000E+00  0.99999998245E-14  0.12500000000E+03  0.12500000000E+03 0.  0.
        -11    1    3    3    0    0 -0.56080821086E+02  0.26823338319E+02  0.59752372095E+01  0.62452009033E+02  0.51100000000E-03 0.  1.
         23    2    1    0    0    0 -0.26168450969E+02  0.11285677718E+02  0.14105049407E+01  0.96466793523E+02  0.92150411723E+02 0.  0.
         11    1    3    3    0    0  0.29912370117E+02 -0.15537660601E+02 -0.45647322688E+01  0.34014784490E+02  0.51100000000E-03 0. -1.
         22    1    1    0    0    0  0.26168450969E+02 -0.11285677718E+02 -0.14105049407E+01  0.28533206477E+02  0.00000000000E+00 0.  1.
</event>
<event>
 5    1  0.1094625E-009  0.9118800E+02  0.7818608E-02  0.1130116E+00
         25   -1    0    0    0    0  0.00000000000E+00  0.00000000000E+00  0.99999998245E-14  0.12500000000E+03  0.12500000000E+03 0.  0.
        -11    1    3    3    0    0 -0.63332010400E+01 -0.53906126588E+02 -0.72869416901E+01  0.54763851569E+02  0.51100000000E-03 0.  1.
         23    2    1    0    0    0  0.15050394566E+02 -0.14846989244E+02 -0.13780234044E+02  0.99764265088E+02  0.96519771405E+02 0.  0.
         11    1    3    3    0    0  0.21383595606E+02  0.39059137344E+02 -0.64932923535E+01  0.45000413520E+02  0.51100000000E-03 0. -1.
         22    1    1    0    0    0 -0.15050394566E+02  0.14846989244E+02  0.13780234044E+02  0.25235734912E+02  0.00000000000E+00 0.  1.
</event>
<event>
 5    1  0.1094625E-009  0.9118800E+02  0.7818608E-02  0.1130116E+00
         25   -1    0    0    0    0  0.00000000000E+00  0.00000000000E+00  0.99999998245E-14  0.12500000000E+03  0.12500000000E+03 0.  0.
        -11    1    3    3    0    0  0.11225839563E+02  0.47532416967E+02 -0.20848037806E+02  0.53103585728E+02  0.51100000000E-03 0. -1.
         23    2    1    0    0    0 -0.11927023332E+02  0.11727043356E+02 -0.23873818598E+02  0.95849757362E+02  0.91309579675E+02 0.  0.
         11    1    3    3    0    0 -0.23152862894E+02 -0.35805373611E+02 -0.30257807920E+01  0.42746171633E+02  0.51100000000E-03 0.  1.
         22    1    1    0    0    0  0.11927023332E+02 -0.11727043356E+02  0.23873818598E+02  0.29150242638E+02  0.00000000000E+00 0.  1.
</event>
<event>
 5    1  0.1094625E-009  0.9118800E+02  0.7818608E-02  0.1130116E+00
         25   -1    0    0    0    0  0.00000000000E+00  0.00000000000E+00  0.99999998245E-14  0.12500000000E+03  0.12500000000E+03 0.  0.
        -11    1    3    3    0    0 -0.82045778291E+01 -0.13914644592E+02 -0.29189648065E+02  0.33361174828E+02  0.51100000000E-03 0.  1.
         23    2    1    0    0    0  0.14253383439E+02  0.27735787609E+01  0.25989712527E+02  0.95228926190E+02  0.90455688309E+02 0.  0.
         11    1    3    3    0    0  0.22457961268E+02  0.16688223353E+02  0.55179360592E+02  0.61867751362E+02  0.51100000000E-03 0. -1.
         22    1    1    0    0    0 -0.14253383439E+02 -0.27735787609E+01 -0.25989712527E+02  0.29771073810E+02  0.00000000000E+00 0. -1.
</event>
<event>
 5    1  0.1094625E-009  0.9118800E+02  0.7818608E-02  0.1130116E+00
         25   -1    0    0    0    0  0.00000000000E+00  0.00000000000E+00  0.99999998245E-14  0.12500000000E+03  0.12500000000E+03 0.  0.
        -11    1    3    3    0    0 -0.10165504085E+01 -0.15199770997E+02 -0.45873206472E+02  0.48336502619E+02  0.51100000000E-03 0.  1.
         23    2    1    0    0    0  0.62773506205E+01  0.21475769558E+02 -0.89068670308E+01  0.10091793013E+03  0.98002461870E+02 0.  0.
         11    1    3    3    0    0  0.72939010290E+01  0.36675540555E+02  0.36966339441E+02  0.52581427512E+02  0.51100000000E-03 0. -1.
         22    1    1    0    0    0 -0.62773506205E+01 -0.21475769558E+02  0.89068670308E+01  0.24082069870E+02  0.00000000000E+00 0.  1.
</event>
<event>
 5    1  0.1094625E-009  0.9118800E+02  0.7818608E-02  0.1130116E+00
         25   -1    0    0    0    0  0.00000000000E+00  0.00000000000E+00  0.99999998245E-14  0.12500000000E+03  0.12500000000E+03 0.  0.
        -11    1    3    3    0    0  0.21872343436E+02 -0.55207080124E+01  0.55718815906E+02  0.60112095875E+02  0.51100000000E-03 0.  1.
         23    2    1    0    0    0  0.42660267008E+01  0.78876581631E+01  0.28100743802E+02  0.95503119871E+02  0.90833804103E+02 0.  0.
         11    1    3    3    0    0 -0.17606316735E+02  0.13408366175E+02 -0.27618072104E+02  0.35391023996E+02  0.51100000000E-03 0. -1.
         22    1    1    0    0    0 -0.42660267008E+01 -0.78876581631E+01 -0.28100743802E+02  0.29496880129E+02  0.00000000000E+00 0.  1.
</event>
<event>
 5    1  0.1094625E-009  0.9118800E+02  0.7818608E-02  0.1130116E+00
         25   -1    0    0    0    0  0.00000000000E+00  0.00000000000E+00  0.99999998245E-14  0.12500000000E+03  0.12500000000E+03 0.  0.
        -11    1    3    3    0    0  0.17688692285E+02 -0.27278524099E+02  0.29632360677E+02  0.43989595489E+02  0.51100000000E-03 0. -1.
         23    2    1    0    0    0 -0.13662536991E+02 -0.11777808563E+02 -0.15590118632E+02  0.10115815673E+03  0.98308388159E+02 0.  0.
         11    1    3    3    0    0 -0.31351229276E+02  0.15500715536E+02 -0.45222479309E+02  0.57168561241E+02  0.51100000000E-03 0.  1.
         22    1    1    0    0    0  0.13662536991E+02  0.11777808563E+02  0.15590118632E+02  0.23841843270E+02  0.00000000000E+00 0.  1.
</event>
<event>
 5    1  0.1094625E-009  0.9118800E+02  0.7818608E-02  0.1130116E+00
         25   -1    0    0    0    0  0.00000000000E+00  0.00000000000E+00  0.99999998245E-14  0.12500000000E+03  0.12500000000E+03 0.  0.
        -11    1    3    3    0    0  0.56128175144E+02 -0.16017583497E+01  0.26477957019E+02  0.62080752919E+02  0.51100000000E-03 0. -1.
         23    2    1    0    0    0  0.25072340060E+02  0.42965121457E+01  0.12785561322E+02  0.96529790464E+02  0.92235826098E+02 0.  0.
         11    1    3    3    0    0 -0.31055835084E+02  0.58982704955E+01 -0.13692395696E+02  0.34449037545E+02  0.51100000000E-03 0.  1.
         22    1    1    0    0    0 -0.25072340060E+02 -0.42965121457E+01 -0.12785561322E+02  0.28470209536E+02  0.00000000000E+00 0. -1.
</event>
<event>
 5    1  0.1094625E-009  0.9118800E+02  0.7818608E-02  0.1130116E+00
         25   -1    0    0    0    0  0.00000000000E+00  0.00000000000E+00  0.99999998245E-14  0.12500000000E+03  0.12500000000E+03 0.  0.
        -11    1    3    3    0    0 -0.25757593480E+02  0.24654217751E+02  0.65016192482E+01  0.36243001089E+02  0.51100000000E-03 0.  1.
         23    2    1    0    0    0  0.29299370509E+02  0.62532244383E+01 -0.22805263575E+01  0.94954089653E+02  0.90075093190E+02 0.  0.
         11    1    3    3    0    0  0.55056963990E+02 -0.18400993312E+02 -0.87821456057E+01  0.58711088564E+02  0.51100000000E-03 0. -1.
         22    1    1    0    0    0 -0.29299370509E+02 -0.62532244383E+01  0.22805263575E+01  0.30045910347E+02  0.00000000000E+00 0. -1.
</event>
<event>
 5    1  0.1094625E-009  0.9118800E+02  0.7818608E-02  0.1130116E+00
         25   -1    0    0    0    0  0.00000000000E+00  0.00000000000E+00  0.99999998245E-14  0.12500000000E+03  0.12500000000E+03 0.  0.
        -11    1    3    3    0    0 -0.94881957915E+01  0.13866434988E+02  0.22117272499E+02  0.27775485985E+02  0.51100000000E-03 0.  1.
         23    2    1    0    0    0  0.12331926876E+02 -0.29607542282E+02 -0.15606102620E+02  0.89331618771E+02  0.81901799082E+02 0.  0.
         11    1    3    3    0    0  0.21820122668E+02 -0.43473977271E+02 -0.37723375119E+02  0.61556132786E+02  0.51100000000E-03 0. -1.
         22    1    1    0    0    0 -0.12331926876E+02  0.29607542282E+02  0.15606102620E+02  0.35668381229E+02  0.00000000000E+00 0.  1.
</event>
<event>
 5    1  0.1094625E-009  0.9118800E+02  0.7818608E-02  0.1130116E+00
         25   -1    0    0    0    0  0.00000000000E+00  0.00000000000E+00  0.99999998245E-14  0.12500000000E+03  0.12500000000E+03 0.  0.
        -11    1    3    3    0    0  0.32584668646E+01 -0.19276121422E+02  0.52392249517E+02  0.55920785699E+02  0.51100000000E-03 0.  1.
         23    2    1    0    0    0 -0.60216637861E+01 -0.26248999525E+02  0.17037477368E+02  0.93132366798E+02  0.87510523364E+02 0.  0.
         11    1    3    3    0    0 -0.92801306506E+01 -0.69728781026E+01 -0.35354772149E+02  0.37211581099E+02  0.51100000000E-03 0. -1.
         22    1    1    0    0    0  0.60216637861E+01  0.26248999525E+02 -0.17037477368E+02  0.31867633202E+02  0.00000000000E+00 0.  1.
</event>
<event>
 5    1  0.1094625E-009  0.9118800E+02  0.7818608E-02  0.1130116E+00
         25   -1    0    0    0    0  0.00000000000E+00  0.00000000000E+00  0.99999998245E-14  0.12500000000E+03  0.12500000000E+03 0.  0.
        -11    1    3    3    0    0  0.19144928898E+01 -0.14911127997E+02 -0.51368765310E+02  0.53523425441E+02  0.51100000000E-03 0.  1.
         23    2    1    0    0    0  0.13455857040E+02  0.13462305524E+02 -0.21011600146E+02  0.96648966519E+02  0.92397194924E+02 0.  0.
         11    1    3    3    0    0  0.11541364151E+02  0.28373433522E+02  0.30357165164E+02  0.43125541079E+02  0.51100000000E-03 0. -1.
         22    1    1    0    0    0 -0.13455857040E+02 -0.13462305524E+02  0.21011600146E+02  0.28351033481E+02  0.00000000000E+00 0.  1.
</event>
<event>
 5    1  0.1094625E-009  0.9118800E+02  0.7818608E-02  0.1130116E+00
         25   -1    0    0    0    0  0.00000000000E+00  0.00000000000E+00  0.99999998245E-14  0.12500000000E+03  0.12500000000E+03 0.  0.
        -11    1    3    3    0    0 -0.28633297167E+02 -0.15088837093E+02  0.17314086597E+02  0.36705807530E+02  0.51100000000E-03 0. -1.
         23    2    1    0    0    0  0.25109017907E+02 -0.20615709697E+02  0.48335723143E+01  0.92154396217E+02  0.86102259286E+02 0.  0.
         11    1    3    3    0    0  0.53742315074E+02 -0.55268726044E+01 -0.12480514283E+02  0.55448588687E+02  0.51100000000E-03 0.  1.
         22    1    1    0    0    0 -0.25109017907E+02  0.20615709697E+02 -0.48335723143E+01  0.32845603783E+02  0.00000000000E+00 0. -1.
</event>
<event>
 5    1  0.1094625E-009  0.9118800E+02  0.7818608E-02  0.1130116E+00
         25   -1    0    0    0    0  0.00000000000E+00  0.00000000000E+00  0.99999998245E-14  0.12500000000E+03  0.12500000000E+03 0.  0.
        -11    1    3    3    0    0 -0.51162912002E+02 -0.26500393154E+02 -0.20626467368E+02  0.61199391812E+02  0.51100000000E-03 0.  1.
         23    2    1    0    0    0 -0.23458953728E+02 -0.59853087600E+01 -0.15997431104E+02  0.95981656958E+02  0.91489967972E+02 0.  0.
         11    1    3    3    0    0  0.27703958274E+02  0.20515084394E+02  0.46290362638E+01  0.34782265146E+02  0.51100000000E-03 0. -1.
         22    1    1    0    0    0  0.23458953728E+02  0.59853087600E+01  0.15997431104E+02  0.29018343042E+02  0.00000000000E+00 0.  1.
</event>
<event>
 5    1  0.1094625E-009  0.9118800E+02  0.7818608E-02  0.1130116E+00
         25   -1    0    0    0    0  0.00000000000E+00  0.00000000000E+00  0.99999998245E-14  0.12500000000E+03  0.12500000000E+03 0.  0.
        -11    1    3    3    0    0 -0.84904741980E+01  0.11196209777E+02 -0.42043576957E+02  0.44329511942E+02  0.51100000000E-03 0.  1.
         23    2    1    0    0    0 -0.16461904077E+02 -0.23832793444E+02 -0.56088821064E+01  0.95496510585E+02  0.90824708346E+02 0.  0.
         11    1    3    3    0    0 -0.79714298789E+01 -0.35029003221E+02  0.36434694850E+02  0.51166998642E+02  0.51100000000E-03 0. -1.
         22    1    1    0    0    0  0.16461904077E+02  0.23832793444E+02  0.56088821064E+01  0.29503489415E+02  0.00000000000E+00 0. -1.
</event>
<event>
 5    1  0.1094625E-009  0.9118800E+02  0.7818608E-02  0.1130116E+00
         25   -1    0    0    0    0  0.00000000000E+00  0.00000000000E+00  0.99999998245E-14  0.12500000000E+03  0.12500000000E+03 0.  0.
        -11    1    3    3    0    0  0.30928558608E+02 -0.10164447504E+02  0.36481498030E+02  0.48895719950E+02  0.51100000000E-03 0. -1.
         23    2    1    0    0    0 -0.10085684831E+02 -0.21907805925E+02  0.12538078418E+02  0.97817718835E+02  0.93965045143E+02 0.  0.
         11    1    3    3    0    0 -0.41014243439E+02 -0.11743358421E+02 -0.23943419612E+02  0.48921998885E+02  0.51100000000E-03 0.  1.
         22    1    1    0    0    0  0.10085684831E+02  0.21907805925E+02 -0.12538078418E+02  0.27182281165E+02  0.00000000000E+00 0. -1.
</event>
<event>
 5    1  0.1094625E-009  0.9118800E+02  0.7818608E-02  0.1130116E+00
         25   -1    0    0    0    0  0.00000000000E+00  0.00000000000E+00  0.99999998245E-14  0.12500000000E+03  0.12500000000E+03 0.  0.
        -11    1    3    3    0    0  0.26479700560E+02  0.20430643868E+01 -0.42351829672E+02  0.49990260358E+02  0.51100000000E-03 0.  1.
         23    2    1    0    0    0 -0.63433172078E+01  0.22316983109E+02 -0.18270185988E+02  0.95468912917E+02  0.90786718352E+02 0.  0.
         11    1    3    3    0    0 -0.32823017768E+02  0.20273918722E+02  0.24081643684E+02  0.45478652559E+02  0.51100000000E-03 0. -1.
         22    1    1    0    0    0  0.63433172078E+01 -0.22316983109E+02  0.18270185988E+02  0.29531087083E+02  0.00000000000E+00 0.  1.
</event>
<event>
 5    1  0.1094625E-009  0.9118800E+02  0.7818608E-02  0.1130116E+00
         25   -1    0    0    0    0  0.00000000000E+00  0.00000000000E+00  0.99999998245E-14  0.12500000000E+03  0.12500000000E+03 0.  0.
        -11    1    3    3    0    0 -0.50086336548E+02  0.92496336241E+01  0.17364247080E+02  0.53811837991E+02  0.51100000000E-03 0.  1.
         23    2    1    0    0    0 -0.19350418716E+02  0.32925098933E+01 -0.16081802587E+02  0.99624742359E+02  0.96338910051E+02 0.  0.
         11    1    3    3    0    0  0.30735917832E+02 -0.59571237308E+01 -0.33446049667E+02  0.45812904369E+02  0.51100000000E-03 0. -1.
         22    1    1    0    0    0  0.19350418716E+02 -0.32925098933E+01  0.16081802587E+02  0.25375257641E+02  0.00000000000E+00 0.  1.
</event>
<event>
 5    1  0.1094625E-009  0.9118800E+02  0.7818608E-02  0.1130116E+00
         25   -1    0    0    0    0  0.00000000000E+00  0.00000000000E+00  0.99999998245E-14  0.12500000000E+03  0.12500000000E+03 0.  0.
        -11    1    3    3    0    0  0.46030082008E+02  0.31131301935E+02 -0.15331407375E+02  0.57645281353E+02  0.51100000000E-03 0. -1.
         23    2    1    0    0    0  0.28846747162E+02 -0.10786015289E+00 -0.81188651283E+00  0.96141628332E+02  0.91708271617E+02 0.  0.
         11    1    3    3    0    0 -0.17183334847E+02 -0.31239162088E+02  0.14519520862E+02  0.38496346979E+02  0.51100000000E-03 0.  1.
         22    1    1    0    0    0 -0.28846747162E+02  0.10786015289E+00  0.81188651283E+00  0.28858371668E+02  0.00000000000E+00 0. -1.
</event>
<event>
 5    1  0.1094625E-009  0.9118800E+02  0.7818608E-02  0.1130116E+00
         25   -1    0    0    0    0  0.00000000000E+00  0.00000000000E+00  0.99999998245E-14  0.12500000000E+03  0.12500000000E+03 0.  0.
        -11    1    3    3    0    0 -0.26191328178E+02  0.67845019998E+01  0.45862170183E+02  0.53248040276E+02  0.51100000000E-03 0. -1.
         23    2    1    0    0    0 -0.18726477858E+02 -0.17944447412E+02  0.10548392798E+02  0.97000843646E+02  0.92872013608E+02 0.  0.
         11    1    3    3    0    0  0.74648503192E+01 -0.24728949412E+02 -0.35313777385E+02  0.43752803370E+02  0.51100000000E-03 0.  1.
         22    1    1    0    0    0  0.18726477858E+02  0.17944447412E+02 -0.10548392798E+02  0.27999156354E+02  0.00000000000E+00 0. -1.
</event>
<event>
 5    1  0.1094625E-009  0.9118800E+02  0.7818608E-02  0.1130116E+00
         25   -1    0    0    0    0  0.00000000000E+00  0.00000000000E+00  0.99999998245E-14  0.12500000000E+03  0.12500000000E+03 0.  0.
        -11    1    3    3    0    0  0.48991475557E+01 -0.34437386476E+02  0.50658609204E+02  0.61451036776E+02  0.51100000000E-03 0. -1.
         23    2    1    0    0    0 -0.57324676592E+00 -0.97079729104E+01  0.27725081835E+02  0.95618823839E+02  0.90992889611E+02 0.  0.
         11    1    3    3    0    0 -0.54723943216E+01  0.24729413566E+02 -0.22933527370E+02  0.34167787063E+02  0.51100000000E-03 0.  1.
         22    1    1    0    0    0  0.57324676592E+00  0.97079729104E+01 -0.27725081835E+02  0.29381176161E+02  0.00000000000E+00 0. -1.
</event>
<event>
 5    1  0.1094625E-009  0.9118800E+02  0.7818608E-02  0.1130116E+00
         25   -1    0    0    0    0  0.00000000000E+00  0.00000000000E+00  0.99999998245E-14  0.12500000000E+03  0.12500000000E+03 0.  0.
        -11    1    3    3    0    0  0.20956143120E+01 -0.22612771100E+01  0.49358257407E+02  0.49454449224E+02  0.51100000000E-03 0. -1.
         23    2    1    0    0    0  0.26178046589E+02  0.58558227977E+01  0.98637335586E+01  0.96418991908E+02  0.92085547058E+02 0.  0.
         11    1    3    3    0    0  0.24082432277E+02  0.81170999076E+01 -0.39494523848E+02  0.46964542684E+02  0.51100000000E-03 0.  1.
         22    1    1    0    0    0 -0.26178046589E+02 -0.58558227977E+01 -0.98637335586E+01  0.28581008092E+02  0.00000000000E+00 0. -1.
</event>
<event>
 5    1  0.1094625E-009  0.9118800E+02  0.7818608E-02  0.1130116E+00
         25   -1    0    0    0    0  0.00000000000E+00  0.00000000000E+00  0.99999998245E-14  0.12500000000E+03  0.12500000000E+03 0.  0.
        -11    1    3    3    0    0  0.41287892866E+02 -0.57506587387E+01  0.21627457873E+02  0.46962826869E+02  0.51100000000E-03 0. -1.
         23    2    1    0    0    0 -0.11477128846E+01 -0.27123042186E+02  0.11350578523E+02  0.95575311469E+02  0.90933095556E+02 0.  0.
         11    1    3    3    0    0 -0.42435605750E+02 -0.21372383448E+02 -0.10276879349E+02  0.48612484601E+02  0.51100000000E-03 0.  1.
         22    1    1    0    0    0  0.11477128846E+01  0.27123042186E+02 -0.11350578523E+02  0.29424688531E+02  0.00000000000E+00 0.  1.
</event>
<event>
 5    1  0.1094625E-009  0.9118800E+02  0.7818608E-02  0.1130116E+00
         25   -1    0    0    0    0  0.00000000000E+00  0.00000000000E+00  0.99999998245E-14  0.12500000000E+03  0.12500000000E+03 0.  0.
        -11    1    3    3    0    0  0.80242458683E+01 -0.69763966768E-01  0.40861479314E+02  0.41641972585E+02  0.51100000000E-03 0. -1.
         23    2    1    0    0    0 -0.19614739802E+02 -0.25157686662E+02  0.63603757801E+01  0.92471526384E+02  0.86561432498E+02 0.  0.
         11    1    3    3    0    0 -0.27638985671E+02 -0.25087922696E+02 -0.34501103534E+02  0.50829553799E+02  0.51100000000E-03 0.  1.
         22    1    1    0    0    0  0.19614739802E+02  0.25157686662E+02 -0.63603757801E+01  0.32528473616E+02  0.00000000000E+00 0.  1.
</event>
<event>
 5    1  0.1094625E-009  0.9118800E+02  0.7818608E-02  0.1130116E+00
         25   -1    0    0    0    0  0.00000000000E+00  0.00000000000E+00  0.99999998245E-14  0.12500000000E+03  0.12500000000E+03 0.  0.
        -11    1    3    3    0    0 -0.31225794196E+02  0.31360523752E+02  0.20749235128E+02  0.48878046523E+02  0.51100000000E-03 0.  1.
         23    2    1    0    0    0 -0.25497537491E+02 -0.12521860903E+02  0.12808360225E+02  0.93839520058E+02  0.88514857591E+02 0.  0.
         11    1    3    3    0    0  0.57282567051E+01 -0.43882384656E+02 -0.79408749028E+01  0.44961473535E+02  0.51100000000E-03 0. -1.
         22    1    1    0    0    0  0.25497537491E+02  0.12521860903E+02 -0.12808360225E+02  0.31160479942E+02  0.00000000000E+00 0. -1.
</event>
<event>
 5    1  0.1094625E-009  0.9118800E+02  0.7818608E-02  0.1130116E+00
         25   -1    0    0    0    0  0.00000000000E+00  0.00000000000E+00  0.99999998245E-14  0.12500000000E+03  0.12500000000E+03 0.  0.
        -11    1    3    3    0    0  0.23337149908E+02  0.26876594903E+02  0.26870186677E+02  0.44597991566E+02  0.51100000000E-03 0.  1.
         23    2    1    0    0    0  0.26417247988E+02 -0.10046463168E+02 -0.81550081705E+01  0.95583906246E+02  0.90944909487E+02 0.  0.
         11    1    3    3    0    0  0.30800980809E+01 -0.36923058071E+02 -0.35025194847E+02  0.50985914681E+02  0.51100000000E-03 0. -1.
         22    1    1    0    0    0 -0.26417247988E+02  0.10046463168E+02  0.81550081705E+01  0.29416093754E+02  0.00000000000E+00 0. -1.
</event>
<event>
 5    1  0.1094625E-009  0.9118800E+02  0.7818608E-02  0.1130116E+00
         25   -1    0    0    0    0  0.00000000000E+00  0.00000000000E+00  0.99999998245E-14  0.12500000000E+03  0.12500000000E+03 0.  0.
        -11    1    3    3    0    0  0.61457674820E+01 -0.45285207608E+02 -0.27348312169E+02  0.53258338922E+02  0.51100000000E-03 0. -1.
         23    2    1    0    0    0 -0.16602341624E+02 -0.38477042957E+02 -0.12476945619E+02  0.81275924777E+02  0.68512635289E+02 0.  0.
         11    1    3    3    0    0 -0.22748109106E+02  0.68081646506E+01  0.14871366550E+02  0.28017585854E+02  0.51100000000E-03 0.  1.
         22    1    1    0    0    0  0.16602341624E+02  0.38477042957E+02  0.12476945619E+02  0.43724075223E+02  0.00000000000E+00 0. -1.
</event>
<event>
 5    1  0.1094625E-009  0.9118800E+02  0.7818608E-02  0.1130116E+00
         25   -1    0    0    0    0  0.00000000000E+00  0.00000000000E+00  0.99999998245E-14  0.12500000000E+03  0.12500000000E+03 0.  0.
        -11    1    3    3    0    0  0.30677020817E+01  0.24583209409E+02  0.20964465734E+02  0.32453871952E+02  0.51100000000E-03 0.  1.
         23    2    1    0    0    0 -0.22643902689E+02 -0.99464556602E+01 -0.20986050613E+02  0.92564022606E+02  0.86694899801E+02 0.  0.
         11    1    3    3    0    0 -0.25711604771E+02 -0.34529665069E+02 -0.41950516346E+02  0.60110150654E+02  0.51100000000E-03 0. -1.
         22    1    1    0    0    0  0.22643902689E+02  0.99464556602E+01  0.20986050613E+02  0.32435977394E+02  0.00000000000E+00 0. -1.
</event>
<event>
 5    1  0.1094625E-009  0.9118800E+02  0.7818608E-02  0.1130116E+00
         25   -1    0    0    0    0  0.00000000000E+00  0.00000000000E+00  0.99999998245E-14  0.12500000000E+03  0.12500000000E+03 0.  0.
        -11    1    3    3    0    0 -0.10389664932E+02 -0.28254142855E+02  0.18069744330E+02  0.35110644914E+02  0.51100000000E-03 0. -1.
         23    2    1    0    0    0 -0.87004443297E+01  0.28595504478E+02 -0.98927185548E+00  0.95093825610E+02  0.90268800825E+02 0.  0.
         11    1    3    3    0    0  0.16892206025E+01  0.56849647333E+02 -0.19059016185E+02  0.59983180695E+02  0.51100000000E-03 0.  1.
         22    1    1    0    0    0  0.87004443297E+01 -0.28595504478E+02  0.98927185548E+00  0.29906174390E+02  0.00000000000E+00 0.  1.
</event>
<event>
 5    1  0.1094625E-009  0.9118800E+02  0.7818608E-02  0.1130116E+00
         25   -1    0    0    0    0  0.00000000000E+00  0.00000000000E+00  0.99999998245E-14  0.12500000000E+03  0.12500000000E+03 0.  0.
        -11    1    3    3    0    0  0.26414136671E+02  0.52214214444E+02 -0.19236265925E+02  0.61595979845E+02  0.51100000000E-03 0.  1.
         23    2    1    0    0    0  0.89009660349E+01  0.24565645240E+02 -0.15705998242E+02  0.94514322982E+02  0.89462733837E+02 0.  0.
         11    1    3    3    0    0 -0.17513170636E+02 -0.27648569204E+02  0.35302676826E+01  0.32918343137E+02  0.51100000000E-03 0. -1.
         22    1    1    0    0    0 -0.89009660349E+01 -0.24565645240E+02  0.15705998242E+02  0.30485677018E+02  0.00000000000E+00 0.  1.
</event>
<event>
 5    1  0.1094625E-009  0.9118800E+02  0.7818608E-02  0.1130116E+00
         25   -1    0    0    0    0  0.00000000000E+00  0.00000000000E+00  0.99999998245E-14  0.12500000000E+03  0.12500000000E+03 0.  0.
        -11    1    3    3    0    0  0.15095125590E+02  0.32825536166E+02  0.78503284254E+01  0.36973048262E+02  0.51100000000E-03 0. -1.
         23    2    1    0    0    0  0.15439593820E+02 -0.24986316365E+02 -0.17436916654E+01  0.95576582057E+02  0.90934842136E+02 0.  0.
         11    1    3    3    0    0  0.34446823038E+00 -0.57811852531E+02 -0.95940200909E+01  0.58603533795E+02  0.51100000000E-03 0.  1.
         22    1    1    0    0    0 -0.15439593820E+02  0.24986316365E+02  0.17436916654E+01  0.29423417943E+02  0.00000000000E+00 0.  1.
</event>
<event>
 5    1  0.1094625E-009  0.9118800E+02  0.7818608E-02  0.1130116E+00
         25   -1    0    0    0    0  0.00000000000E+00  0.00000000000E+00  0.99999998245E-14  0.12500000000E+03  0.12500000000E+03 0.  0.
        -11    1    3    3    0    0 -0.39371058641E+02 -0.24887755038E+01 -0.40973525632E+02  0.56877975219E+02  0.51100000000E-03 0. -1.
         23    2    1    0    0    0 -0.20505776057E+02  0.16791299299E+02 -0.13995180508E+02  0.95028352376E+02  0.90178090987E+02 0.  0.
         11    1    3    3    0    0  0.18865282584E+02  0.19280074802E+02  0.26978345124E+02  0.38150377157E+02  0.51100000000E-03 0.  1.
         22    1    1    0    0    0  0.20505776057E+02 -0.16791299299E+02  0.13995180508E+02  0.29971647624E+02  0.00000000000E+00 0. -1.
</event>
<event>
 5    1  0.1094625E-009  0.9118800E+02  0.7818608E-02  0.1130116E+00
         25   -1    0    0    0    0  0.00000000000E+00  0.00000000000E+00  0.99999998245E-14  0.12500000000E+03  0.12500000000E+03 0.  0.
        -11    1    3    3    0    0 -0.10393460418E+02 -0.45857550454E+01  0.39514323876E+02  0.41114899495E+02  0.51100000000E-03 0.  1.
         23    2    1    0    0    0 -0.12750089287E+02 -0.14890507068E+02 -0.17269807742E+02  0.98874567238E+02  0.95360588345E+02 0.  0.
         11    1    3    3    0    0 -0.23566288687E+01 -0.10304752022E+02 -0.56784131619E+02  0.57759667743E+02  0.51100000000E-03 0. -1.
         22    1    1    0    0    0  0.12750089287E+02  0.14890507068E+02  0.17269807742E+02  0.26125432762E+02  0.00000000000E+00 0. -1.
</event>
<event>
 5    1  0.1094625E-009  0.9118800E+02  0.7818608E-02  0.1130116E+00
         25   -1    0    0    0    0  0.00000000000E+00  0.00000000000E+00  0.99999998245E-14  0.12500000000E+03  0.12500000000E+03 0.  0.
        -11    1    3    3    0    0 -0.27577768785E+02 -0.49734733038E+02  0.21092344692E+02  0.60654464027E+02  0.51100000000E-03 0. -1.
         23    2    1    0    0    0 -0.97894669182E+01 -0.27915835737E+02  0.71141443836E+00  0.95408892249E+02  0.90704041047E+02 0.  0.
         11    1    3    3    0    0  0.17788301867E+02  0.21818897301E+02 -0.20380930254E+02  0.34754428222E+02  0.51100000000E-03 0.  1.
         22    1    1    0    0    0  0.97894669182E+01  0.27915835737E+02 -0.71141443836E+00  0.29591107751E+02  0.00000000000E+00 0. -1.
</event>
<event>
 5    1  0.1094625E-009  0.9118800E+02  0.7818608E-02  0.1130116E+00
         25   -1    0    0    0    0  0.00000000000E+00  0.00000000000E+00  0.99999998245E-14  0.12500000000E+03  0.12500000000E+03 0.  0.
        -11    1    3    3    0    0 -0.16488845935E+02  0.47708786187E+01  0.46621649922E+02  0.49681199309E+02  0.51100000000E-03 0. -1.
         23    2    1    0    0    0  0.55526670266E+01 -0.22885407202E+02  0.15348598486E+02  0.96890331745E+02  0.92723152105E+02 0.  0.
         11    1    3    3    0    0  0.22041512962E+02 -0.27656285821E+02 -0.31273051435E+02  0.47209132436E+02  0.51100000000E-03 0.  1.
         22    1    1    0    0    0 -0.55526670266E+01  0.22885407202E+02 -0.15348598486E+02  0.28109668255E+02  0.00000000000E+00 0.  1.
</event>
<event>
 5    1  0.1094625E-009  0.9118800E+02  0.7818608E-02  0.1130116E+00
         25   -1    0    0    0    0  0.00000000000E+00  0.00000000000E+00  0.99999998245E-14  0.12500000000E+03  0.12500000000E+03 0.  0.
        -11    1    3    3    0    0  0.44407950917E+02  0.70568792349E+01  0.31414462233E+02  0.54851928744E+02  0.51100000000E-03 0.  1.
         23    2    1    0    0    0  0.29489518047E+02 -0.20899609984E+01 -0.47779919160E+01  0.95052899667E+02  0.90212110699E+02 0.  0.
         11    1    3    3    0    0 -0.14918432870E+02 -0.91468402333E+01 -0.36192454149E+02  0.40200970923E+02  0.51100000000E-03 0. -1.
         22    1    1    0    0    0 -0.29489518047E+02  0.20899609984E+01  0.47779919160E+01  0.29947100333E+02  0.00000000000E+00 0. -1.
</event>
<event>
 5    1  0.1094625E-009  0.9118800E+02  0.7818608E-02  0.1130116E+00
         25   -1    0    0    0    0  0.00000000000E+00  0.00000000000E+00  0.99999998245E-14  0.12500000000E+03  0.12500000000E+03 0.  0.
        -11    1    3    3    0    0 -0.74772999829E+01 -0.20658690035E+02  0.33721132516E+02  0.40246816861E+02  0.51100000000E-03 0.  1.
         23    2    1    0    0    0 -0.73913151138E+01 -0.16872990188E+02 -0.22118857576E+02  0.96215052589E+02  0.91808295634E+02 0.  0.
         11    1    3    3    0    0  0.85984869110E-01  0.37856998467E+01 -0.55839990092E+02  0.55968235728E+02  0.51100000000E-03 0. -1.
         22    1    1    0    0    0  0.73913151138E+01  0.16872990188E+02  0.22118857576E+02  0.28784947411E+02  0.00000000000E+00 0. -1.
</event>
<event>
 5    1  0.1094625E-009  0.9118800E+02  0.7818608E-02  0.1130116E+00
         25   -1    0    0    0    0  0.00000000000E+00  0.00000000000E+00  0.99999998245E-14  0.12500000000E+03  0.12500000000E+03 0.  0.
        -11    1    3    3    0    0 -0.32001739346E+02 -0.44933059714E+01  0.34546537683E+01  0.32499780809E+02  0.51100000000E-03 0.  1.
         23    2    1    0    0    0 -0.15610011721E+02  0.36858090342E+01 -0.41211884158E+02  0.80776962452E+02  0.67596158271E+02 0.  0.
         11    1    3    3    0    0  0.16391727626E+02  0.81791150056E+01 -0.44666537926E+02  0.48277181643E+02  0.51100000000E-03 0. -1.
         22    1    1    0    0    0  0.15610011721E+02 -0.36858090342E+01  0.41211884158E+02  0.44223037548E+02  0.00000000000E+00 0. -1.
</event>
<event>
 5    1  0.1094625E-009  0.9118800E+02  0.7818608E-02  0.1130116E+00
         25   -1    0    0    0    0  0.00000000000E+00  0.00000000000E+00  0.99999998245E-14  0.12500000000E+03  0.12500000000E+03 0.  0.
        -11    1    3    3    0    0  0.15122453045E+02  0.18495414810E+02  0.28143978500E+02  0.36916831949E+02  0.51100000000E-03 0. -1.
         23    2    1    0    0    0 -0.26183926583E+02 -0.13168507374E+02  0.86580145701E+00  0.95678383231E+02  0.91074671604E+02 0.  0.
         11    1    3    3    0    0 -0.41306379628E+02 -0.31663922184E+02 -0.27278177043E+02  0.58761551282E+02  0.51100000000E-03 0.  1.
         22    1    1    0    0    0  0.26183926583E+02  0.13168507374E+02 -0.86580145701E+00  0.29321616769E+02  0.00000000000E+00 0.  1.
</event>
<event>
 5    1  0.1094625E-009  0.9118800E+02  0.7818608E-02  0.1130116E+00
         25   -1    0    0    0    0  0.00000000000E+00  0.00000000000E+00  0.99999998245E-14  0.12500000000E+03  0.12500000000E+03 0.  0.
        -11    1    3    3    0    0  0.51009629527E+02 -0.12080068091E+02  0.17585092562E+02  0.55291462543E+02  0.51100000000E-03 0.  1.
         23    2    1    0    0    0  0.18720857483E+02  0.11931445612E+02  0.19324927174E+02  0.95567319022E+02  0.90922108178E+02 0.  0.
         11    1    3    3    0    0 -0.32288772044E+02  0.24011513702E+02  0.17398346119E+01  0.40275856479E+02  0.51100000000E-03 0. -1.
         22    1    1    0    0    0 -0.18720857483E+02 -0.11931445612E+02 -0.19324927174E+02  0.29432680978E+02  0.00000000000E+00 0.  1.
</event>
<event>
 5    1  0.1094625E-009  0.9118800E+02  0.7818608E-02  0.1130116E+00
         25   -1    0    0    0    0  0.00000000000E+00  0.00000000000E+00  0.99999998245E-14  0.12500000000E+03  0.12500000000E+03 0.  0.
        -11    1    3    3    0    0 -0.10606597144E+02  0.31964748222E+02  0.52363477619E+02  0.62258965784E+02  0.51100000000E-03 0. -1.
         23    2    1    0    0    0 -0.15142457850E+01  0.14817447743E+02  0.26582191773E+02  0.94529315443E+02  0.89483679299E+02 0.  0.
         11    1    3    3    0    0  0.90923513592E+01 -0.17147300479E+02 -0.25781285847E+02  0.32270349659E+02  0.51100000000E-03 0.  1.
         22    1    1    0    0    0  0.15142457850E+01 -0.14817447743E+02 -0.26582191773E+02  0.30470684557E+02  0.00000000000E+00 0. -1.
</event>
<event>
 5    1  0.1094625E-009  0.9118800E+02  0.7818608E-02  0.1130116E+00
         25   -1    0    0    0    0  0.00000000000E+00  0.00000000000E+00  0.99999998245E-14  0.12500000000E+03  0.12500000000E+03 0.  0.
        -11    1    3    3    0    0 -0.21238792949E+02  0.24774684554E+02 -0.13274763157E+02  0.35229116620E+02  0.51100000000E-03 0.  1.
         23    2    1    0    0    0  0.84639543718E+01 -0.74728247382E+01  0.27606166958E+02  0.95174137275E+02  0.90379944228E+02 0.  0.
         11    1    3    3    0    0  0.29702747321E+02 -0.32247509292E+02  0.40880930115E+02  0.59945020655E+02  0.51100000000E-03 0. -1.
         22    1    1    0    0    0 -0.84639543718E+01  0.74728247382E+01 -0.27606166958E+02  0.29825862725E+02  0.00000000000E+00 0. -1.
</event>
<event>
 5    1  0.1094625E-009  0.9118800E+02  0.7818608E-02  0.1130116E+00
         25   -1    0    0    0    0  0.00000000000E+00  0.00000000000E+00  0.99999998245E-14  0.12500000000E+03  0.12500000000E+03 0.  0.
        -11    1    3    3    0    0 -0.75590247376E+01  0.49628519610E+02 -0.25452627437E+02  0.56284678708E+02  0.51100000000E-03 0.  1.
         23    2    1    0    0    0 -0.20854835481E+02  0.20015358928E+02 -0.26111793543E+01  0.95976612645E+02  0.91483075819E+02 0.  0.
         11    1    3    3    0    0 -0.13295810743E+02 -0.29613160682E+02  0.22841448082E+02  0.39691933937E+02  0.51100000000E-03 0. -1.
         22    1    1    0    0    0  0.20854835481E+02 -0.20015358928E+02  0.26111793543E+01  0.29023387355E+02  0.00000000000E+00 0.  1.
</event>
<event>
 5    1  0.1094625E-009  0.9118800E+02  0.7818608E-02  0.1130116E+00
         25   -1    0    0    0    0  0.00000000000E+00  0.00000000000E+00  0.99999998245E-14  0.12500000000E+03  0.12500000000E+03 0.  0.
        -11    1    3    3    0    0 -0.23142056337E+02  0.37534844429E+02 -0.17379777142E+02  0.47397003825E+02  0.51100000000E-03 0. -1.
         23    2    1    0    0    0 -0.71731490753E+01 -0.16220428123E+02  0.29006471920E+01  0.10702863082E+03  0.10550904087E+03 0.  0.
         11    1    3    3    0    0  0.15968907262E+02 -0.53755272552E+02  0.20280424334E+02  0.59631626992E+02  0.51100000000E-03 0.  1.
         22    1    1    0    0    0  0.71731490753E+01  0.16220428123E+02 -0.29006471920E+01  0.17971369182E+02  0.00000000000E+00 0.  1.
</event>
<event>
 5    1  0.1094625E-009  0.9118800E+02  0.7818608E-02  0.1130116E+00
         25   -1    0    0    0    0  0.00000000000E+00  0.00000000000E+00  0.99999998245E-14  0.12500000000E+03  0.12500000000E+03 0.  0.
        -11    1    3    3    0    0 -0.45535912969E+01 -0.15331176234E+02 -0.21068087107E+02  0.26450793051E+02  0.51100000000E-03 0.  1.
         23    2    1    0    0    0  0.18501406846E+02 -0.54789248400E+01  0.33408300181E+02  0.86419756433E+02  0.77330066004E+02 0.  0.
         11    1    3    3    0    0  0.23054998143E+02  0.98522513938E+01  0.54476387288E+02  0.59968963382E+02  0.51100000000E-03 0. -1.
         22    1    1    0    0    0 -0.18501406846E+02  0.54789248400E+01 -0.33408300181E+02  0.38580243567E+02  0.00000000000E+00 0. -1.
</event>
<event>
 5    1  0.1094625E-009  0.9118800E+02  0.7818608E-02  0.1130116E+00
         25   -1    0    0    0    0  0.00000000000E+00  0.00000000000E+00  0.99999998245E-14  0.12500000000E+03  0.12500000000E+03 0.  0.
        -11    1    3    3    0    0  0.28049283566E+02  0.40451555910E+02 -0.26953932528E+02  0.56121343204E+02  0.51100000000E-03 0.  1.
         23    2    1    0    0    0  0.27542788771E+02  0.86180621314E+01 -0.29576459745E+01  0.95989245478E+02  0.91500335352E+02 0.  0.
         11    1    3    3    0    0 -0.50649479430E+00 -0.31833493779E+02  0.23996286553E+02  0.39867902274E+02  0.51100000000E-03 0. -1.
         22    1    1    0    0    0 -0.27542788771E+02 -0.86180621314E+01  0.29576459745E+01  0.29010754522E+02  0.00000000000E+00 0.  1.
</event>
<event>
 5    1  0.1094625E-009  0.9118800E+02  0.7818608E-02  0.1130116E+00
         25   -1    0    0    0    0  0.00000000000E+00  0.00000000000E+00  0.99999998245E-14  0.12500000000E+03  0.12500000000E+03 0.  0.
        -11    1    3    3    0    0 -0.32938221898E+02 -0.19735784041E+01  0.24637513443E+02  0.41180438832E+02  0.51100000000E-03 0.  1.
         23    2    1    0    0    0  0.22691728925E+02 -0.70565072565E+01  0.11660855107E+02  0.98529556141E+02  0.94907265450E+02 0.  0.
         11    1    3    3    0    0  0.55629950823E+02 -0.50829288524E+01 -0.12976658336E+02  0.57349117309E+02  0.51100000000E-03 0. -1.
         22    1    1    0    0    0 -0.22691728925E+02  0.70565072565E+01 -0.11660855107E+02  0.26470443859E+02  0.00000000000E+00 0. -1.
</event>
<event>
 5    1  0.1094625E-009  0.9118800E+02  0.7818608E-02  0.1130116E+00
         25   -1    0    0    0    0  0.00000000000E+00  0.00000000000E+00  0.99999998245E-14  0.12500000000E+03  0.12500000000E+03 0.  0.
        -11    1    3    3    0    0 -0.20919943041E+02 -0.37314133489E+02 -0.46074082233E+00  0.42780846851E+02  0.51100000000E-03 0. -1.
         23    2    1    0    0    0  0.56358244051E+01 -0.71584626783E+01  0.30283862100E+02  0.93375351254E+02  0.87856916708E+02 0.  0.
         11    1    3    3    0    0  0.26555767446E+02  0.30155670811E+02  0.30744602922E+02  0.50594504403E+02  0.51100000000E-03 0.  1.
         22    1    1    0    0    0 -0.56358244051E+01  0.71584626783E+01 -0.30283862100E+02  0.31624648746E+02  0.00000000000E+00 0.  1.
</event>
<event>
 5    1  0.1094625E-009  0.9118800E+02  0.7818608E-02  0.1130116E+00
         25   -1    0    0    0    0  0.00000000000E+00  0.00000000000E+00  0.99999998245E-14  0.12500000000E+03  0.12500000000E+03 0.  0.
        -11    1    3    3    0    0  0.22876965853E+02 -0.32280439766E+02 -0.31221933920E+01  0.39687913147E+02  0.51100000000E-03 0.  1.
         23    2    1    0    0    0  0.15842449575E+02  0.22438395197E+02 -0.10990385079E+02  0.95415318969E+02  0.90712897331E+02 0.  0.
         11    1    3    3    0    0 -0.70345162782E+01  0.54718834963E+02 -0.78681916865E+01  0.55727405822E+02  0.51100000000E-03 0. -1.
         22    1    1    0    0    0 -0.15842449575E+02 -0.22438395197E+02  0.10990385079E+02  0.29584681031E+02  0.00000000000E+00 0. -1.
</event>
<event>
 5    1  0.1094625E-009  0.9118800E+02  0.7818608E-02  0.1130116E+00
         25   -1    0    0    0    0  0.00000000000E+00  0.00000000000E+00  0.99999998245E-14  0.12500000000E+03  0.12500000000E+03 0.  0.
        -11    1    3    3    0    0 -0.56521332556E+02  0.19927780982E+02 -0.11777389846E+02  0.61077691513E+02  0.51100000000E-03 0. -1.
         23    2    1    0    0    0 -0.30768721480E+02  0.17835459445E+02 -0.13469402278E+02  0.86970503121E+02  0.78215252862E+02 0.  0.
         11    1    3    3    0    0  0.25752611076E+02 -0.20923215369E+01 -0.16920124321E+01  0.25892811608E+02  0.51100000000E-03 0.  1.
         22    1    1    0    0    0  0.30768721480E+02 -0.17835459445E+02  0.13469402278E+02  0.38029496879E+02  0.00000000000E+00 0. -1.
</event>
<event>
 5    1  0.1094625E-009  0.9118800E+02  0.7818608E-02  0.1130116E+00
         25   -1    0    0    0    0  0.00000000000E+00  0.00000000000E+00  0.99999998245E-14  0.12500000000E+03  0.12500000000E+03 0.  0.
        -11    1    3    3    0    0 -0.38457385019E+02  0.17471178208E+02 -0.38871433536E+02  0.57403840254E+02  0.51100000000E-03 0.  1.
         23    2    1    0    0    0 -0.28710739752E+00  0.13805966574E+01 -0.23300493855E+02  0.10165687485E+03  0.98940480658E+02 0.  0.
         11    1    3    3    0    0  0.38170277621E+02 -0.16090581551E+02  0.15570939681E+02  0.44253034598E+02  0.51100000000E-03 0. -1.
         22    1    1    0    0    0  0.28710739752E+00 -0.13805966574E+01  0.23300493855E+02  0.23343125148E+02  0.00000000000E+00 0.  1.
</event>
<event>
 5    1  0.1094625E-009  0.9118800E+02  0.7818608E-02  0.1130116E+00
         25   -1    0    0    0    0  0.00000000000E+00  0.00000000000E+00  0.99999998245E-14  0.12500000000E+03  0.12500000000E+03 0.  0.
        -11    1    3    3    0    0  0.50011845571E+02  0.33624590777E+01  0.80817293737E+01  0.50772090546E+02  0.51100000000E-03 0. -1.
         23    2    1    0    0    0  0.17100919770E+02 -0.20727535660E+02 -0.11202697229E+02  0.95886899569E+02  0.91360412062E+02 0.  0.
         11    1    3    3    0    0 -0.32910925801E+02 -0.24089994738E+02 -0.19284426602E+02  0.45114809023E+02  0.51100000000E-03 0.  1.
         22    1    1    0    0    0 -0.17100919770E+02  0.20727535660E+02  0.11202697229E+02  0.29113100431E+02  0.00000000000E+00 0.  1.
</event>
<event>
 5    1  0.1094625E-009  0.9118800E+02  0.7818608E-02  0.1130116E+00
         25   -1    0    0    0    0  0.00000000000E+00  0.00000000000E+00  0.99999998245E-14  0.12500000000E+03  0.12500000000E+03 0.  0.
        -11    1    3    3    0    0 -0.34398074070E+02 -0.83523916087E+01 -0.14781274418E+02  0.38359822979E+02  0.51100000000E-03 0. -1.
         23    2    1    0    0    0 -0.35123743843E+01  0.14023387525E+02  0.26655348965E+02  0.94676744899E+02  0.89689387470E+02 0.  0.
         11    1    3    3    0    0  0.30885699686E+02  0.22375779134E+02  0.41436623382E+02  0.56316921920E+02  0.51100000000E-03 0.  1.
         22    1    1    0    0    0  0.35123743843E+01 -0.14023387525E+02 -0.26655348965E+02  0.30323255101E+02  0.00000000000E+00 0.  1.
</event>
<event>
 5    1  0.1094625E-009  0.9118800E+02  0.7818608E-02  0.1130116E+00
         25   -1    0    0    0    0  0.00000000000E+00  0.00000000000E+00  0.99999998245E-14  0.12500000000E+03  0.12500000000E+03 0.  0.
        -11    1    3    3    0    0  0.49954399682E+02  0.20602514604E+02 -0.28801480198E+02  0.61232596854E+02  0.51100000000E-03 0.  1.
         23    2    1    0    0    0  0.17451490059E+02  0.94650063040E+01 -0.20255402935E+02  0.96637662338E+02  0.92381900741E+02 0.  0.
         11    1    3    3    0    0 -0.32502909623E+02 -0.11137508300E+02  0.85460772637E+01  0.35405065484E+02  0.51100000000E-03 0. -1.
         22    1    1    0    0    0 -0.17451490059E+02 -0.94650063040E+01  0.20255402935E+02  0.28362337662E+02  0.00000000000E+00 0.  1.
</event>
<event>
 5    1  0.1094625E-009  0.9118800E+02  0.7818608E-02  0.1130116E+00
         25   -1    0    0    0    0  0.00000000000E+00  0.00000000000E+00  0.99999998245E-14  0.12500000000E+03  0.12500000000E+03 0.  0.
        -11    1    3    3    0    0  0.33479207620E+02 -0.25412542857E+02 -0.11649969102E+02  0.43616240756E+02  0.51100000000E-03 0.  1.
         23    2    1    0    0    0  0.19350578454E+02  0.22936178671E+02 -0.18271519740E+01  0.94935874154E+02  0.90049811429E+02 0.  0.
         11    1    3    3    0    0 -0.14128629165E+02  0.48348721528E+02  0.98228171280E+01  0.51319633398E+02  0.51100000000E-03 0. -1.
         22    1    1    0    0    0 -0.19350578454E+02 -0.22936178671E+02  0.18271519740E+01  0.30064125846E+02  0.00000000000E+00 0.  1.
</event>
<event>
 5    1  0.1094625E-009  0.9118800E+02  0.7818608E-02  0.1130116E+00
         25   -1    0    0    0    0  0.00000000000E+00  0.00000000000E+00  0.99999998245E-14  0.12500000000E+03  0.12500000000E+03 0.  0.
        -11    1    3    3    0    0 -0.27173716221E+02 -0.69180911333E+01  0.55422553007E+02  0.62112238892E+02  0.51100000000E-03 0.  1.
         23    2    1    0    0    0 -0.13886131562E+02 -0.78707720550E+01  0.24794445815E+02  0.95512066099E+02  0.90846114527E+02 0.  0.
         11    1    3    3    0    0  0.13287584659E+02 -0.95268092178E+00 -0.30628107192E+02  0.33399827207E+02  0.51100000000E-03 0. -1.
         22    1    1    0    0    0  0.13886131562E+02  0.78707720550E+01 -0.24794445815E+02  0.29487933901E+02  0.00000000000E+00 0.  1.
</event>
<event>
 5    1  0.1094625E-009  0.9118800E+02  0.7818608E-02  0.1130116E+00
         25   -1    0    0    0    0  0.00000000000E+00  0.00000000000E+00  0.99999998245E-14  0.12500000000E+03  0.12500000000E+03 0.  0.
        -11    1    3    3    0    0  0.88646751328E+01  0.51085881258E+02 -0.32737259933E+02  0.61319474209E+02  0.51100000000E-03 0.  1.
         23    2    1    0    0    0 -0.31718697400E-01  0.19557629386E+02 -0.21458488821E+02  0.95966078189E+02  0.91468680690E+02 0.  0.
         11    1    3    3    0    0 -0.88963938302E+01 -0.31528251872E+02  0.11278771112E+02  0.34646603980E+02  0.51100000000E-03 0. -1.
         22    1    1    0    0    0  0.31718697400E-01 -0.19557629386E+02  0.21458488821E+02  0.29033921811E+02  0.00000000000E+00 0.  1.
</event>
<event>
 5    1  0.1094625E-009  0.9118800E+02  0.7818608E-02  0.1130116E+00
         25   -1    0    0    0    0  0.00000000000E+00  0.00000000000E+00  0.99999998245E-14  0.12500000000E+03  0.12500000000E+03 0.  0.
        -11    1    3    3    0    0  0.36611593350E+01 -0.42028275161E+02 -0.45230750926E+02  0.61851441618E+02  0.51100000000E-03 0.  1.
         23    2    1    0    0    0  0.76558593639E+01 -0.21033492773E+02 -0.19379696183E+02  0.95392693047E+02  0.90681714043E+02 0.  0.
         11    1    3    3    0    0  0.39947000288E+01  0.20994782387E+02  0.25851054744E+02  0.33541251429E+02  0.51100000000E-03 0. -1.
         22    1    1    0    0    0 -0.76558593639E+01  0.21033492773E+02  0.19379696183E+02  0.29607306953E+02  0.00000000000E+00 0.  1.
</event>
<event>
 5    1  0.1094625E-009  0.9118800E+02  0.7818608E-02  0.1130116E+00
         25   -1    0    0    0    0  0.00000000000E+00  0.00000000000E+00  0.99999998245E-14  0.12500000000E+03  0.12500000000E+03 0.  0.
        -11    1    3    3    0    0 -0.24284832253E+02  0.28638174259E+02 -0.93486229260E+01  0.38694894409E+02  0.51100000000E-03 0.  1.
         23    2    1    0    0    0 -0.31305032343E+01  0.10795476308E+01  0.32072598918E+02  0.92756906554E+02  0.86972562562E+02 0.  0.
         11    1    3    3    0    0  0.21154329019E+02 -0.27558626629E+02  0.41421221844E+02  0.54062012145E+02  0.51100000000E-03 0. -1.
         22    1    1    0    0    0  0.31305032343E+01 -0.10795476308E+01 -0.32072598918E+02  0.32243093446E+02  0.00000000000E+00 0.  1.
</event>
<event>
 5    1  0.1094625E-009  0.9118800E+02  0.7818608E-02  0.1130116E+00
         25   -1    0    0    0    0  0.00000000000E+00  0.00000000000E+00  0.99999998245E-14  0.12500000000E+03  0.12500000000E+03 0.  0.
        -11    1    3    3    0    0 -0.15571286249E+02  0.83637642562E+00 -0.54940950914E+02  0.57111054697E+02  0.51100000000E-03 0. -1.
         23    2    1    0    0    0 -0.24068427351E+02 -0.23170641844E+01 -0.18798665906E+02  0.94372433635E+02  0.89264261655E+02 0.  0.
         11    1    3    3    0    0 -0.84971411014E+01 -0.31534406101E+01  0.36142285008E+02  0.37261378939E+02  0.51100000000E-03 0.  1.
         22    1    1    0    0    0  0.24068427351E+02  0.23170641844E+01  0.18798665906E+02  0.30627566365E+02  0.00000000000E+00 0. -1.
</event>
<event>
 5    1  0.1094625E-009  0.9118800E+02  0.7818608E-02  0.1130116E+00
         25   -1    0    0    0    0  0.00000000000E+00  0.00000000000E+00  0.99999998245E-14  0.12500000000E+03  0.12500000000E+03 0.  0.
        -11    1    3    3    0    0  0.33755985275E+02  0.48875855431E+01  0.23519565320E+02  0.41430966527E+02  0.51100000000E-03 0.  1.
         23    2    1    0    0    0  0.77892461772E+01  0.12604870834E+02 -0.24386004330E+02  0.96465243440E+02  0.92148309046E+02 0.  0.
         11    1    3    3    0    0 -0.25966739097E+02  0.77172852904E+01 -0.47905569650E+02  0.55034276913E+02  0.51100000000E-03 0. -1.
         22    1    1    0    0    0 -0.77892461772E+01 -0.12604870834E+02  0.24386004330E+02  0.28534756560E+02  0.00000000000E+00 0. -1.
</event>
<event>
 5    1  0.1094625E-009  0.9118800E+02  0.7818608E-02  0.1130116E+00
         25   -1    0    0    0    0  0.00000000000E+00  0.00000000000E+00  0.99999998245E-14  0.12500000000E+03  0.12500000000E+03 0.  0.
        -11    1    3    3    0    0 -0.38215532895E+02  0.13667230906E+02 -0.16332433406E+02  0.43748926116E+02  0.51100000000E-03 0. -1.
         23    2    1    0    0    0  0.12846687799E+02  0.23902699160E+02 -0.93768620870E+01  0.96289340706E+02  0.91909385682E+02 0.  0.
         11    1    3    3    0    0  0.51062220694E+02  0.10235468254E+02  0.69555713185E+01  0.52540414590E+02  0.51100000000E-03 0.  1.
         22    1    1    0    0    0 -0.12846687799E+02 -0.23902699160E+02  0.93768620870E+01  0.28710659294E+02  0.00000000000E+00 0.  1.
</event>
<event>
 5    1  0.1094625E-009  0.9118800E+02  0.7818608E-02  0.1130116E+00
         25   -1    0    0    0    0  0.00000000000E+00  0.00000000000E+00  0.99999998245E-14  0.12500000000E+03  0.12500000000E+03 0.  0.
        -11    1    3    3    0    0 -0.37658258476E+02  0.46952154584E+02 -0.81112151831E+01  0.60732537108E+02  0.51100000000E-03 0.  1.
         23    2    1    0    0    0 -0.27209431055E+02  0.17841182643E+02 -0.72025788346E+01  0.91675263267E+02  0.85403839590E+02 0.  0.
         11    1    3    3    0    0  0.10448827421E+02 -0.29110971942E+02  0.90863634847E+00  0.30942726159E+02  0.51100000000E-03 0. -1.
         22    1    1    0    0    0  0.27209431055E+02 -0.17841182643E+02  0.72025788346E+01  0.33324736733E+02  0.00000000000E+00 0.  1.
</event>
<event>
 5    1  0.1094625E-009  0.9118800E+02  0.7818608E-02  0.1130116E+00
         25   -1    0    0    0    0  0.00000000000E+00  0.00000000000E+00  0.99999998245E-14  0.12500000000E+03  0.12500000000E+03 0.  0.
        -11    1    3    3    0    0 -0.27747445317E+02  0.46079017315E+01  0.21485407314E+02  0.35394578789E+02  0.51100000000E-03 0.  1.
         23    2    1    0    0    0  0.26386132287E+02 -0.23056237100E+01 -0.78788106769E+01  0.97366333297E+02  0.93362644158E+02 0.  0.
         11    1    3    3    0    0  0.54133577604E+02 -0.69135254416E+01 -0.29364217990E+02  0.61971754507E+02  0.51100000000E-03 0. -1.
         22    1    1    0    0    0 -0.26386132287E+02  0.23056237100E+01  0.78788106769E+01  0.27633666703E+02  0.00000000000E+00 0. -1.
</event>
<event>
 5    1  0.1094625E-009  0.9118800E+02  0.7818608E-02  0.1130116E+00
         25   -1    0    0    0    0  0.00000000000E+00  0.00000000000E+00  0.99999998245E-14  0.12500000000E+03  0.12500000000E+03 0.  0.
        -11    1    3    3    0    0  0.11202177251E+02 -0.50360195317E+02 -0.55362606871E+01  0.51887264624E+02  0.51100000000E-03 0. -1.
         23    2    1    0    0    0 -0.97182967755E+01 -0.16262167043E+02 -0.22713004699E+02  0.95423253194E+02  0.90723829828E+02 0.  0.
         11    1    3    3    0    0 -0.20920474026E+02  0.34098028274E+02 -0.17176744012E+02  0.43535988570E+02  0.51100000000E-03 0.  1.
         22    1    1    0    0    0  0.97182967755E+01  0.16262167043E+02  0.22713004699E+02  0.29576746806E+02  0.00000000000E+00 0. -1.
</event>
<event>
 5    1  0.1094625E-009  0.9118800E+02  0.7818608E-02  0.1130116E+00
         25   -1    0    0    0    0  0.00000000000E+00  0.00000000000E+00  0.99999998245E-14  0.12500000000E+03  0.12500000000E+03 0.  0.
        -11    1    3    3    0    0  0.17561819688E+02 -0.40527633437E+02 -0.30575105448E+02  0.53719118163E+02  0.51100000000E-03 0.  1.
         23    2    1    0    0    0  0.18363463116E+02 -0.20629474821E+02  0.72318423182E+01  0.96450191729E+02  0.92127889004E+02 0.  0.
         11    1    3    3    0    0  0.80164342782E+00  0.19898158616E+02  0.37806947766E+02  0.42731073566E+02  0.51100000000E-03 0. -1.
         22    1    1    0    0    0 -0.18363463116E+02  0.20629474821E+02 -0.72318423182E+01  0.28549808271E+02  0.00000000000E+00 0.  1.
</event>
<event>
 5    1  0.1094625E-009  0.9118800E+02  0.7818608E-02  0.1130116E+00
         25   -1    0    0    0    0  0.00000000000E+00  0.00000000000E+00  0.99999998245E-14  0.12500000000E+03  0.12500000000E+03 0.  0.
        -11    1    3    3    0    0  0.28198788177E+02 -0.52570326545E+01  0.16288901472E+02  0.32986911926E+02  0.51100000000E-03 0.  1.
         23    2    1    0    0    0 -0.29999580937E+02 -0.17300842998E+01 -0.39220958342E+01  0.94695695293E+02  0.89715794725E+02 0.  0.
         11    1    3    3    0    0 -0.58198369114E+02  0.35269483547E+01 -0.20210997306E+02  0.61708783367E+02  0.51100000000E-03 0. -1.
         22    1    1    0    0    0  0.29999580937E+02  0.17300842998E+01  0.39220958342E+01  0.30304304707E+02  0.00000000000E+00 0. -1.
</event>
<event>
 5    1  0.1094625E-009  0.9118800E+02  0.7818608E-02  0.1130116E+00
         25   -1    0    0    0    0  0.00000000000E+00  0.00000000000E+00  0.99999998245E-14  0.12500000000E+03  0.12500000000E+03 0.  0.
        -11    1    3    3    0    0  0.23346812464E+02  0.14402649057E+02 -0.44075842965E+02  0.51915218245E+02  0.51100000000E-03 0. -1.
         23    2    1    0    0    0  0.48786939624E+01 -0.18837879118E+02 -0.20880768567E+02  0.96457508161E+02  0.92137815474E+02 0.  0.
         11    1    3    3    0    0 -0.18468118502E+02 -0.33240528175E+02  0.23195074398E+02  0.44542289916E+02  0.51100000000E-03 0.  1.
         22    1    1    0    0    0 -0.48786939624E+01  0.18837879118E+02  0.20880768567E+02  0.28542491839E+02  0.00000000000E+00 0. -1.
</event>
<event>
 5    1  0.1094625E-009  0.9118800E+02  0.7818608E-02  0.1130116E+00
         25   -1    0    0    0    0  0.00000000000E+00  0.00000000000E+00  0.99999998245E-14  0.12500000000E+03  0.12500000000E+03 0.  0.
        -11    1    3    3    0    0 -0.24144900860E+02 -0.34555050662E+02  0.12269604252E+02  0.43904110885E+02  0.51100000000E-03 0.  1.
         23    2    1    0    0    0 -0.49406069987E+01 -0.53023217535E+01 -0.27315840108E+02  0.96739084688E+02  0.92519031404E+02 0.  0.
         11    1    3    3    0    0  0.19204293862E+02  0.29252728909E+02 -0.39585444360E+02  0.52834973803E+02  0.51100000000E-03 0. -1.
         22    1    1    0    0    0  0.49406069987E+01  0.53023217535E+01  0.27315840108E+02  0.28260915312E+02  0.00000000000E+00 0. -1.
</event>
<event>
 5    1  0.1094625E-009  0.9118800E+02  0.7818608E-02  0.1130116E+00
         25   -1    0    0    0    0  0.00000000000E+00  0.00000000000E+00  0.99999998245E-14  0.12500000000E+03  0.12500000000E+03 0.  0.
        -11    1    3    3    0    0  0.89062313655E+01 -0.27887728611E+02 -0.36035460341E+01  0.29496303302E+02  0.51100000000E-03 0.  1.
         23    2    1    0    0    0 -0.27362702896E+01  0.32416940437E+02  0.67331597484E+01  0.91778310660E+02  0.85554530359E+02 0.  0.
         11    1    3    3    0    0 -0.11642501655E+02  0.60304669048E+02  0.10336705783E+02  0.62282007358E+02  0.51100000000E-03 0. -1.
         22    1    1    0    0    0  0.27362702896E+01 -0.32416940437E+02 -0.67331597484E+01  0.33221689340E+02  0.00000000000E+00 0. -1.
</event>
<event>
 5    1  0.1094625E-009  0.9118800E+02  0.7818608E-02  0.1130116E+00
         25   -1    0    0    0    0  0.00000000000E+00  0.00000000000E+00  0.99999998245E-14  0.12500000000E+03  0.12500000000E+03 0.  0.
        -11    1    3    3    0    0  0.34002564510E+01 -0.13904730122E+01 -0.59984226904E+02  0.60096610858E+02  0.51100000000E-03 0. -1.
         23    2    1    0    0    0 -0.10672678169E+02 -0.48024742239E+00 -0.25757487820E+02  0.97114791095E+02  0.93025253420E+02 0.  0.
         11    1    3    3    0    0 -0.14072934620E+02  0.91022558984E+00  0.34226739084E+02  0.37018180237E+02  0.51100000000E-03 0.  1.
         22    1    1    0    0    0  0.10672678169E+02  0.48024742239E+00  0.25757487820E+02  0.27885208905E+02  0.00000000000E+00 0. -1.
</event>
<event>
 5    1  0.1094625E-009  0.9118800E+02  0.7818608E-02  0.1130116E+00
         25   -1    0    0    0    0  0.00000000000E+00  0.00000000000E+00  0.99999998245E-14  0.12500000000E+03  0.12500000000E+03 0.  0.
        -11    1    3    3    0    0 -0.35186904427E+02 -0.36500193126E+01 -0.81692190178E+00  0.35385141597E+02  0.51100000000E-03 0. -1.
         23    2    1    0    0    0  0.11501129032E+02  0.27933973884E+02  0.10764658236E+02  0.92930376789E+02  0.87221523704E+02 0.  0.
         11    1    3    3    0    0  0.46688033459E+02  0.31583993197E+02  0.11581580138E+02  0.57545235192E+02  0.51100000000E-03 0.  1.
         22    1    1    0    0    0 -0.11501129032E+02 -0.27933973884E+02 -0.10764658236E+02  0.32069623211E+02  0.00000000000E+00 0.  1.
</event>
<event>
 5    1  0.1094625E-009  0.9118800E+02  0.7818608E-02  0.1130116E+00
         25   -1    0    0    0    0  0.00000000000E+00  0.00000000000E+00  0.99999998245E-14  0.12500000000E+03  0.12500000000E+03 0.  0.
        -11    1    3    3    0    0  0.68466209370E+00  0.38019517877E+02 -0.68322424532E+01  0.38634596400E+02  0.51100000000E-03 0. -1.
         23    2    1    0    0    0  0.13583454402E+02 -0.17382797129E+02 -0.17906645285E+02  0.96586626126E+02  0.92312818891E+02 0.  0.
         11    1    3    3    0    0  0.12898792308E+02 -0.55402315006E+02 -0.11074402832E+02  0.57952029726E+02  0.51100000000E-03 0.  1.
         22    1    1    0    0    0 -0.13583454402E+02  0.17382797129E+02  0.17906645285E+02  0.28413373874E+02  0.00000000000E+00 0.  1.
</event>
<event>
 5    1  0.1094625E-009  0.9118800E+02  0.7818608E-02  0.1130116E+00
         25   -1    0    0    0    0  0.00000000000E+00  0.00000000000E+00  0.99999998245E-14  0.12500000000E+03  0.12500000000E+03 0.  0.
        -11    1    3    3    0    0  0.38521630366E+02  0.76143216102E+01 -0.97452909055E+01  0.40458183285E+02  0.51100000000E-03 0.  1.
         23    2    1    0    0    0 -0.68185670708E+01 -0.22671727435E+02  0.11125738674E+02  0.98841212894E+02  0.95316856975E+02 0.  0.
         11    1    3    3    0    0 -0.45340197437E+02 -0.30286049045E+02  0.20871029580E+02  0.58383029609E+02  0.51100000000E-03 0. -1.
         22    1    1    0    0    0  0.68185670708E+01  0.22671727435E+02 -0.11125738674E+02  0.26158787106E+02  0.00000000000E+00 0.  1.
</event>
<event>
 5    1  0.1094625E-009  0.9118800E+02  0.7818608E-02  0.1130116E+00
         25   -1    0    0    0    0  0.00000000000E+00  0.00000000000E+00  0.99999998245E-14  0.12500000000E+03  0.12500000000E+03 0.  0.
        -11    1    3    3    0    0 -0.49432324540E+02 -0.24178539169E+01  0.21087177514E+02  0.53796559209E+02  0.51100000000E-03 0. -1.
         23    2    1    0    0    0 -0.18330831684E+02 -0.22104871130E+02 -0.13126428657E+00  0.96283072096E+02  0.91900859757E+02 0.  0.
         11    1    3    3    0    0  0.31101492856E+02 -0.19687017213E+02 -0.21218441801E+02  0.42486512887E+02  0.51100000000E-03 0.  1.
         22    1    1    0    0    0  0.18330831684E+02  0.22104871130E+02  0.13126428657E+00  0.28716927904E+02  0.00000000000E+00 0.  1.
</event>
<event>
 5    1  0.1094625E-009  0.9118800E+02  0.7818608E-02  0.1130116E+00
         25   -1    0    0    0    0  0.00000000000E+00  0.00000000000E+00  0.99999998245E-14  0.12500000000E+03  0.12500000000E+03 0.  0.
        -11    1    3    3    0    0  0.79696396951E+01 -0.19569874249E+02 -0.21570419747E+02  0.30195664313E+02  0.51100000000E-03 0.  1.
         23    2    1    0    0    0  0.77347612280E+01  0.23625316185E+02  0.22185171611E+02  0.91680877330E+02  0.85412056131E+02 0.  0.
         11    1    3    3    0    0 -0.23487846705E+00  0.43195190434E+02  0.43755591357E+02  0.61485213017E+02  0.51100000000E-03 0. -1.
         22    1    1    0    0    0 -0.77347612280E+01 -0.23625316185E+02 -0.22185171611E+02  0.33319122670E+02  0.00000000000E+00 0. -1.
</event>
<event>
 5    1  0.1094625E-009  0.9118800E+02  0.7818608E-02  0.1130116E+00
         25   -1    0    0    0    0  0.00000000000E+00  0.00000000000E+00  0.99999998245E-14  0.12500000000E+03  0.12500000000E+03 0.  0.
        -11    1    3    3    0    0 -0.20355742206E+02 -0.35523801666E+02  0.43731099086E+02  0.59905807340E+02  0.51100000000E-03 0. -1.
         23    2    1    0    0    0  0.15981911853E+01 -0.22577877107E+02  0.18530010443E+02  0.95748059266E+02  0.91170251817E+02 0.  0.
         11    1    3    3    0    0  0.21953933391E+02  0.12945924559E+02 -0.25201088643E+02  0.35842251926E+02  0.51100000000E-03 0.  1.
         22    1    1    0    0    0 -0.15981911853E+01  0.22577877107E+02 -0.18530010443E+02  0.29251940734E+02  0.00000000000E+00 0. -1.
</event>
<event>
 5    1  0.1094625E-009  0.9118800E+02  0.7818608E-02  0.1130116E+00
         25   -1    0    0    0    0  0.00000000000E+00  0.00000000000E+00  0.99999998245E-14  0.12500000000E+03  0.12500000000E+03 0.  0.
        -11    1    3    3    0    0  0.36652316637E+02  0.62989347171E+01 -0.93954169201E+01  0.38358085886E+02  0.51100000000E-03 0.  1.
         23    2    1    0    0    0 -0.84204131103E+01 -0.27584539415E+02  0.27122866564E+01  0.96031626373E+02  0.91558214231E+02 0.  0.
         11    1    3    3    0    0 -0.45072729748E+02 -0.33883474132E+02  0.12107703577E+02  0.57673540487E+02  0.51100000000E-03 0. -1.
         22    1    1    0    0    0  0.84204131103E+01  0.27584539415E+02 -0.27122866564E+01  0.28968373627E+02  0.00000000000E+00 0. -1.
</event>
<event>
 5    1  0.1094625E-009  0.9118800E+02  0.7818608E-02  0.1130116E+00
         25   -1    0    0    0    0  0.00000000000E+00  0.00000000000E+00  0.99999998245E-14  0.12500000000E+03  0.12500000000E+03 0.  0.
        -11    1    3    3    0    0  0.18675248764E+02  0.17241189268E+02  0.16278289084E+02  0.30182879577E+02  0.51100000000E-03 0. -1.
         23    2    1    0    0    0 -0.36500062366E+02  0.92849967755E+01  0.63692117938E+01  0.86802715061E+02  0.77946640500E+02 0.  0.
         11    1    3    3    0    0 -0.55175311130E+02 -0.79561924923E+01 -0.99090772906E+01  0.56619835484E+02  0.51100000000E-03 0.  1.
         22    1    1    0    0    0  0.36500062366E+02 -0.92849967755E+01 -0.63692117938E+01  0.38197284939E+02  0.00000000000E+00 0.  1.
</event>
<event>
 5    1  0.1094625E-009  0.9118800E+02  0.7818608E-02  0.1130116E+00
         25   -1    0    0    0    0  0.00000000000E+00  0.00000000000E+00  0.99999998245E-14  0.12500000000E+03  0.12500000000E+03 0.  0.
        -11    1    3    3    0    0  0.19157955722E+02  0.22749250416E+02  0.53847946065E+02  0.61515501767E+02  0.51100000000E-03 0.  1.
         23    2    1    0    0    0  0.15307033212E+02  0.14796205653E+02  0.22758934273E+02  0.93835885112E+02  0.88509724201E+02 0.  0.
         11    1    3    3    0    0 -0.38509225100E+01 -0.79530447631E+01 -0.31089011792E+02  0.32320383346E+02  0.51100000000E-03 0. -1.
         22    1    1    0    0    0 -0.15307033212E+02 -0.14796205653E+02 -0.22758934273E+02  0.31164114888E+02  0.00000000000E+00 0.  1.
</event>
<event>
 5    1  0.1094625E-009  0.9118800E+02  0.7818608E-02  0.1130116E+00
         25   -1    0    0    0    0  0.00000000000E+00  0.00000000000E+00  0.99999998245E-14  0.12500000000E+03  0.12500000000E+03 0.  0.
        -11    1    3    3    0    0  0.16551650094E+02 -0.38592575607E+02  0.24388015190E+02  0.48560470529E+02  0.51100000000E-03 0.  1.
         23    2    1    0    0    0  0.25610182969E+02  0.63418253270E+01  0.11812959088E+02  0.96092453881E+02  0.91641221458E+02 0.  0.
         11    1    3    3    0    0  0.90585328748E+01  0.44934400934E+02 -0.12575056102E+02  0.47531983352E+02  0.51100000000E-03 0. -1.
         22    1    1    0    0    0 -0.25610182969E+02 -0.63418253270E+01 -0.11812959088E+02  0.28907546119E+02  0.00000000000E+00 0.  1.
</event>
<event>
 5    1  0.1094625E-009  0.9118800E+02  0.7818608E-02  0.1130116E+00
         25   -1    0    0    0    0  0.00000000000E+00  0.00000000000E+00  0.99999998245E-14  0.12500000000E+03  0.12500000000E+03 0.  0.
        -11    1    3    3    0    0  0.35669962247E+01  0.36849457065E+02  0.85467749167E+01  0.37995438013E+02  0.51100000000E-03 0.  1.
         23    2    1    0    0    0  0.13271319388E+02 -0.19240673374E+02  0.17740112552E+02  0.95656465387E+02  0.91044584391E+02 0.  0.
         11    1    3    3    0    0  0.97043231635E+01 -0.56090130439E+02  0.91933376356E+01  0.57661027375E+02  0.51100000000E-03 0. -1.
         22    1    1    0    0    0 -0.13271319388E+02  0.19240673374E+02 -0.17740112552E+02  0.29343534613E+02  0.00000000000E+00 0. -1.
</event>
<event>
 5    1  0.1094625E-009  0.9118800E+02  0.7818608E-02  0.1130116E+00
         25   -1    0    0    0    0  0.00000000000E+00  0.00000000000E+00  0.99999998245E-14  0.12500000000E+03  0.12500000000E+03 0.  0.
        -11    1    3    3    0    0  0.20244138244E+02  0.39678273286E+01 -0.11784886373E+02  0.23758205614E+02  0.51100000000E-03 0. -1.
         23    2    1    0    0    0 -0.23453104202E+02  0.17025705272E+02  0.28311914171E+02  0.84484728550E+02  0.74136240378E+02 0.  0.
         11    1    3    3    0    0 -0.43697242445E+02  0.13057877944E+02  0.40096800543E+02  0.60726522935E+02  0.51100000000E-03 0.  1.
         22    1    1    0    0    0  0.23453104202E+02 -0.17025705272E+02 -0.28311914171E+02  0.40515271450E+02  0.00000000000E+00 0.  1.
</event>
<event>
 5    1  0.1094625E-009  0.9118800E+02  0.7818608E-02  0.1130116E+00
         25   -1    0    0    0    0  0.00000000000E+00  0.00000000000E+00  0.99999998245E-14  0.12500000000E+03  0.12500000000E+03 0.  0.
        -11    1    3    3    0    0 -0.24082276680E+02  0.97663919985E+01  0.54119057603E+02  0.60035080235E+02  0.51100000000E-03 0. -1.
         23    2    1    0    0    0 -0.79549654770E+00  0.10781118701E+02  0.27691755434E+02  0.95272930615E+02  0.90516477250E+02 0.  0.
         11    1    3    3    0    0  0.23286780133E+02  0.10147267029E+01 -0.26427302169E+02  0.35237850380E+02  0.51100000000E-03 0.  1.
         22    1    1    0    0    0  0.79549654770E+00 -0.10781118701E+02 -0.27691755434E+02  0.29727069385E+02  0.00000000000E+00 0. -1.
</event>
<event>
 5    1  0.1094625E-009  0.9118800E+02  0.7818608E-02  0.1130116E+00
         25   -1    0    0    0    0  0.00000000000E+00  0.00000000000E+00  0.99999998245E-14  0.12500000000E+03  0.12500000000E+03 0.  0.
        -11    1    3    3    0    0 -0.73806488572E+01 -0.22414006307E+02 -0.24212998840E+02  0.33810219895E+02  0.51100000000E-03 0. -1.
         23    2    1    0    0    0 -0.22043793970E+01  0.58724506693E+01  0.29555956809E+02  0.94785772420E+02  0.89841210504E+02 0.  0.
         11    1    3    3    0    0  0.51762694602E+01  0.28286456976E+02  0.53768955649E+02  0.60975552524E+02  0.51100000000E-03 0.  1.
         22    1    1    0    0    0  0.22043793970E+01 -0.58724506693E+01 -0.29555956809E+02  0.30214227580E+02  0.00000000000E+00 0.  1.
</event>
<event>
 5    1  0.1094625E-009  0.9118800E+02  0.7818608E-02  0.1130116E+00
         25   -1    0    0    0    0  0.00000000000E+00  0.00000000000E+00  0.99999998245E-14  0.12500000000E+03  0.12500000000E+03 0.  0.
        -11    1    3    3    0    0 -0.50417436859E+01 -0.18241376198E+02  0.26469508877E+02  0.32539236092E+02  0.51100000000E-03 0. -1.
         23    2    1    0    0    0 -0.14804428645E+02  0.61867261411E+01 -0.27830179701E+02  0.92875778764E+02  0.87143242371E+02 0.  0.
         11    1    3    3    0    0 -0.97626849587E+01  0.24428102340E+02 -0.54299688579E+02  0.60336542671E+02  0.51100000000E-03 0.  1.
         22    1    1    0    0    0  0.14804428645E+02 -0.61867261411E+01  0.27830179701E+02  0.32124221236E+02  0.00000000000E+00 0.  1.
</event>
<event>
 5    1  0.1094625E-009  0.9118800E+02  0.7818608E-02  0.1130116E+00
         25   -1    0    0    0    0  0.00000000000E+00  0.00000000000E+00  0.99999998245E-14  0.12500000000E+03  0.12500000000E+03 0.  0.
        -11    1    3    3    0    0  0.38796326847E+02  0.22745144206E+02 -0.16696710253E+02  0.47971623855E+02  0.51100000000E-03 0.  1.
         23    2    1    0    0    0  0.11179661342E+02 -0.18883376849E+02 -0.15841203561E+02  0.97935069200E+02  0.94121024750E+02 0.  0.
         11    1    3    3    0    0 -0.27616665505E+02 -0.41628521054E+02  0.85550669238E+00  0.49963445345E+02  0.51100000000E-03 0. -1.
         22    1    1    0    0    0 -0.11179661342E+02  0.18883376849E+02  0.15841203561E+02  0.27064930800E+02  0.00000000000E+00 0. -1.
</event>
<event>
 5    1  0.1094625E-009  0.9118800E+02  0.7818608E-02  0.1130116E+00
         25   -1    0    0    0    0  0.00000000000E+00  0.00000000000E+00  0.99999998245E-14  0.12500000000E+03  0.12500000000E+03 0.  0.
        -11    1    3    3    0    0  0.34994928907E+02 -0.44241182049E+02  0.23211316399E+02  0.60997479026E+02  0.51100000000E-03 0.  1.
         23    2    1    0    0    0  0.23830324872E+02 -0.15124042443E+02  0.81882574406E+01  0.95611760801E+02  0.90983186360E+02 0.  0.
         11    1    3    3    0    0 -0.11164604035E+02  0.29117139606E+02 -0.15023058959E+02  0.34614281775E+02  0.51100000000E-03 0. -1.
         22    1    1    0    0    0 -0.23830324872E+02  0.15124042443E+02 -0.81882574406E+01  0.29388239199E+02  0.00000000000E+00 0.  1.
</event>
<event>
 5    1  0.1094625E-009  0.9118800E+02  0.7818608E-02  0.1130116E+00
         25   -1    0    0    0    0  0.00000000000E+00  0.00000000000E+00  0.99999998245E-14  0.12500000000E+03  0.12500000000E+03 0.  0.
        -11    1    3    3    0    0  0.11354068501E+02 -0.30274291438E+02  0.12883113020E+02  0.34805490873E+02  0.51100000000E-03 0.  1.
         23    2    1    0    0    0 -0.20746424035E+02  0.18049139914E+02 -0.78334276885E+01  0.96407201060E+02  0.92069540376E+02 0.  0.
         11    1    3    3    0    0 -0.32100492536E+02  0.48323431352E+02 -0.20716540709E+02  0.61601710186E+02  0.51100000000E-03 0. -1.
         22    1    1    0    0    0  0.20746424035E+02 -0.18049139914E+02  0.78334276885E+01  0.28592798940E+02  0.00000000000E+00 0. -1.
</event>
<event>
 5    1  0.1094625E-009  0.9118800E+02  0.7818608E-02  0.1130116E+00
         25   -1    0    0    0    0  0.00000000000E+00  0.00000000000E+00  0.99999998245E-14  0.12500000000E+03  0.12500000000E+03 0.  0.
        -11    1    3    3    0    0 -0.45374471432E+02 -0.10497131641E+02  0.14742551897E+01  0.46596200050E+02  0.51100000000E-03 0.  1.
         23    2    1    0    0    0 -0.13573318837E+02  0.26331624740E+02  0.25454600581E+01  0.95266705319E+02  0.90507879931E+02 0.  0.
         11    1    3    3    0    0  0.31801152596E+02  0.36828756381E+02  0.10712048684E+01  0.48670505269E+02  0.51100000000E-03 0. -1.
         22    1    1    0    0    0  0.13573318837E+02 -0.26331624740E+02 -0.25454600581E+01  0.29733294681E+02  0.00000000000E+00 0.  1.
</event>
<event>
 5    1  0.1094625E-009  0.9118800E+02  0.7818608E-02  0.1130116E+00
         25   -1    0    0    0    0  0.00000000000E+00  0.00000000000E+00  0.99999998245E-14  0.12500000000E+03  0.12500000000E+03 0.  0.
        -11    1    3    3    0    0 -0.13318179464E+02  0.55450141728E+02 -0.18889240098E+02  0.60074083544E+02  0.51100000000E-03 0.  1.
         23    2    1    0    0    0 -0.49833369939E+00  0.27620439122E+02 -0.20255043971E+02  0.90745017880E+02  0.84031270787E+02 0.  0.
         11    1    3    3    0    0  0.12819845765E+02 -0.27829702606E+02 -0.13658038734E+01  0.30670934337E+02  0.51100000000E-03 0. -1.
         22    1    1    0    0    0  0.49833369939E+00 -0.27620439122E+02  0.20255043971E+02  0.34254982120E+02  0.00000000000E+00 0.  1.
</event>
<event>
 5    1  0.1094625E-009  0.9118800E+02  0.7818608E-02  0.1130116E+00
         25   -1    0    0    0    0  0.00000000000E+00  0.00000000000E+00  0.99999998245E-14  0.12500000000E+03  0.12500000000E+03 0.  0.
        -11    1    3    3    0    0  0.14470142858E+02 -0.27464717625E+02  0.26254824641E+02  0.40657244936E+02  0.51100000000E-03 0.  1.
         23    2    1    0    0    0 -0.23660469246E+02 -0.17075395823E+02 -0.98667834266E+01  0.94198370780E+02  0.89020181391E+02 0.  0.
         11    1    3    3    0    0 -0.38130612104E+02  0.10389321803E+02 -0.36121608068E+02  0.53541125844E+02  0.51100000000E-03 0. -1.
         22    1    1    0    0    0  0.23660469246E+02  0.17075395823E+02  0.98667834266E+01  0.30801629220E+02  0.00000000000E+00 0.  1.
</event>
<event>
 5    1  0.1094625E-009  0.9118800E+02  0.7818608E-02  0.1130116E+00
         25   -1    0    0    0    0  0.00000000000E+00  0.00000000000E+00  0.99999998245E-14  0.12500000000E+03  0.12500000000E+03 0.  0.
        -11    1    3    3    0    0 -0.14263658158E+02 -0.65711189118E+01 -0.56280956722E+02  0.58430964716E+02  0.51100000000E-03 0.  1.
         23    2    1    0    0    0  0.72060270359E+01  0.46377482890E+01 -0.28265189815E+02  0.95464318358E+02  0.90780392098E+02 0.  0.
         11    1    3    3    0    0  0.21469685194E+02  0.11208867201E+02  0.28015766908E+02  0.37033353642E+02  0.51100000000E-03 0. -1.
         22    1    1    0    0    0 -0.72060270359E+01 -0.46377482890E+01  0.28265189815E+02  0.29535681642E+02  0.00000000000E+00 0.  1.
</event>
<event>
 5    1  0.1094625E-009  0.9118800E+02  0.7818608E-02  0.1130116E+00
         25   -1    0    0    0    0  0.00000000000E+00  0.00000000000E+00  0.99999998245E-14  0.12500000000E+03  0.12500000000E+03 0.  0.
        -11    1    3    3    0    0  0.84381522434E+00 -0.46939781023E+02  0.16241049253E+02  0.49677225644E+02  0.51100000000E-03 0. -1.
         23    2    1    0    0    0  0.92479931702E+01 -0.25591577672E+02 -0.19059065008E+02  0.91777986449E+02  0.85554056667E+02 0.  0.
         11    1    3    3    0    0  0.84041779458E+01  0.21348203351E+02 -0.35300114261E+02  0.42100760805E+02  0.51100000000E-03 0.  1.
         22    1    1    0    0    0 -0.92479931702E+01  0.25591577672E+02  0.19059065008E+02  0.33222013551E+02  0.00000000000E+00 0. -1.
</event>
<event>
 5    1  0.1094625E-009  0.9118800E+02  0.7818608E-02  0.1130116E+00
         25   -1    0    0    0    0  0.00000000000E+00  0.00000000000E+00  0.99999998245E-14  0.12500000000E+03  0.12500000000E+03 0.  0.
        -11    1    3    3    0    0 -0.48030679180E+02 -0.22582544318E+02  0.21970995728E+02  0.57442511296E+02  0.51100000000E-03 0. -1.
         23    2    1    0    0    0 -0.32784204867E+02 -0.31524572935E+01 -0.21884804407E+01  0.91991947613E+02  0.85866098684E+02 0.  0.
         11    1    3    3    0    0  0.15246474313E+02  0.19430087025E+02 -0.24159476169E+02  0.34549436317E+02  0.51100000000E-03 0.  1.
         22    1    1    0    0    0  0.32784204867E+02  0.31524572935E+01  0.21884804407E+01  0.33008052387E+02  0.00000000000E+00 0. -1.
</event>
<event>
 5    1  0.1094625E-009  0.9118800E+02  0.7818608E-02  0.1130116E+00
         25   -1    0    0    0    0  0.00000000000E+00  0.00000000000E+00  0.99999998245E-14  0.12500000000E+03  0.12500000000E+03 0.  0.
        -11    1    3    3    0    0 -0.24056604585E+02  0.56854841783E+01  0.49235650641E+02  0.55092597041E+02  0.51100000000E-03 0.  1.
         23    2    1    0    0    0  0.98339507827E+01 -0.17031094566E+01  0.26798311407E+02  0.96403555044E+02  0.92064590159E+02 0.  0.
         11    1    3    3    0    0  0.33890555367E+02 -0.73885936349E+01 -0.22437339233E+02  0.41310958003E+02  0.51100000000E-03 0. -1.
         22    1    1    0    0    0 -0.98339507827E+01  0.17031094566E+01 -0.26798311407E+02  0.28596444956E+02  0.00000000000E+00 0.  1.
</event>
<event>
 5    1  0.1094625E-009  0.9118800E+02  0.7818608E-02  0.1130116E+00
         25   -1    0    0    0    0  0.00000000000E+00  0.00000000000E+00  0.99999998245E-14  0.12500000000E+03  0.12500000000E+03 0.  0.
        -11    1    3    3    0    0  0.23641549343E+02 -0.20195350604E+02  0.26416463172E+02  0.40799565784E+02  0.51100000000E-03 0.  1.
         23    2    1    0    0    0 -0.24687343298E+02  0.40700897744E+01  0.14162893050E+02  0.96249033244E+02  0.91854549757E+02 0.  0.
         11    1    3    3    0    0 -0.48328892641E+02  0.24265440379E+02 -0.12253570122E+02  0.55449467460E+02  0.51100000000E-03 0. -1.
         22    1    1    0    0    0  0.24687343298E+02 -0.40700897744E+01 -0.14162893050E+02  0.28750966756E+02  0.00000000000E+00 0. -1.
</event>
<event>
 5    1  0.1094625E-009  0.9118800E+02  0.7818608E-02  0.1130116E+00
         25   -1    0    0    0    0  0.00000000000E+00  0.00000000000E+00  0.99999998245E-14  0.12500000000E+03  0.12500000000E+03 0.  0.
        -11    1    3    3    0    0 -0.46048591833E+02 -0.12807950834E+02  0.84052007775E+01  0.48530030031E+02  0.51100000000E-03 0.  1.
         23    2    1    0    0    0 -0.12257743366E+02  0.18487889281E+02  0.19003370012E+02  0.95790713903E+02  0.91228715192E+02 0.  0.
         11    1    3    3    0    0  0.33790848467E+02  0.31295840115E+02  0.10598169235E+02  0.47260683872E+02  0.51100000000E-03 0. -1.
         22    1    1    0    0    0  0.12257743366E+02 -0.18487889281E+02 -0.19003370012E+02  0.29209286097E+02  0.00000000000E+00 0.  1.
</event>
<event>
 5    1  0.1094625E-009  0.9118800E+02  0.7818608E-02  0.1130116E+00
         25   -1    0    0    0    0  0.00000000000E+00  0.00000000000E+00  0.99999998245E-14  0.12500000000E+03  0.12500000000E+03 0.  0.
        -11    1    3    3    0    0  0.48623146306E+02 -0.23233938994E+02 -0.40588588972E+01  0.54041656282E+02  0.51100000000E-03 0.  1.
         23    2    1    0    0    0  0.18828284431E+02 -0.12147708071E+02  0.20822647617E+02  0.94411542050E+02  0.89319009805E+02 0.  0.
         11    1    3    3    0    0 -0.29794861875E+02  0.11086230924E+02  0.24881506514E+02  0.40369885768E+02  0.51100000000E-03 0. -1.
         22    1    1    0    0    0 -0.18828284431E+02  0.12147708071E+02 -0.20822647617E+02  0.30588457950E+02  0.00000000000E+00 0.  1.
</event>
<event>
 5    1  0.1094625E-009  0.9118800E+02  0.7818608E-02  0.1130116E+00
         25   -1    0    0    0    0  0.00000000000E+00  0.00000000000E+00  0.99999998245E-14  0.12500000000E+03  0.12500000000E+03 0.  0.
        -11    1    3    3    0    0 -0.40649075254E+02  0.13093881228E+02 -0.39493391069E+02  0.58168075291E+02  0.51100000000E-03 0. -1.
         23    2    1    0    0    0 -0.17632920844E+02 -0.10848332490E+02 -0.14999647212E+02  0.99434483542E+02  0.96091731619E+02 0.  0.
         11    1    3    3    0    0  0.23016154410E+02 -0.23942213718E+02  0.24493743858E+02  0.41266408251E+02  0.51100000000E-03 0.  1.
         22    1    1    0    0    0  0.17632920844E+02  0.10848332490E+02  0.14999647212E+02  0.25565516458E+02  0.00000000000E+00 0. -1.
</event>
<event>
 5    1  0.1094625E-009  0.9118800E+02  0.7818608E-02  0.1130116E+00
         25   -1    0    0    0    0  0.00000000000E+00  0.00000000000E+00  0.99999998245E-14  0.12500000000E+03  0.12500000000E+03 0.  0.
        -11    1    3    3    0    0  0.15547114352E+02  0.39968465138E+02  0.21614856781E+02  0.48024920657E+02  0.51100000000E-03 0. -1.
         23    2    1    0    0    0  0.27390096289E+02  0.59325704458E+01 -0.92650641056E+01  0.95482984912E+02  0.90806091359E+02 0.  0.
         11    1    3    3    0    0  0.11842981937E+02 -0.34035894692E+02 -0.30879920886E+02  0.47458064255E+02  0.51100000000E-03 0.  1.
         22    1    1    0    0    0 -0.27390096289E+02 -0.59325704458E+01  0.92650641056E+01  0.29517015088E+02  0.00000000000E+00 0. -1.
</event>
<event>
 5    1  0.1094625E-009  0.9118800E+02  0.7818608E-02  0.1130116E+00
         25   -1    0    0    0    0  0.00000000000E+00  0.00000000000E+00  0.99999998245E-14  0.12500000000E+03  0.12500000000E+03 0.  0.
        -11    1    3    3    0    0  0.36518925968E+02  0.19960113408E+02 -0.39374363297E+02  0.57292046275E+02  0.51100000000E-03 0.  1.
         23    2    1    0    0    0  0.11117681934E+01  0.12016332313E+02 -0.26648998871E+02  0.95745984692E+02  0.91167407406E+02 0.  0.
         11    1    3    3    0    0 -0.35407157775E+02 -0.79437810953E+01  0.12725364425E+02  0.38453938417E+02  0.51100000000E-03 0. -1.
         22    1    1    0    0    0 -0.11117681934E+01 -0.12016332313E+02  0.26648998871E+02  0.29254015308E+02  0.00000000000E+00 0.  1.
</event>
<event>
 5    1  0.1094625E-009  0.9118800E+02  0.7818608E-02  0.1130116E+00
         25   -1    0    0    0    0  0.00000000000E+00  0.00000000000E+00  0.99999998245E-14  0.12500000000E+03  0.12500000000E+03 0.  0.
        -11    1    3    3    0    0 -0.36057389723E+02 -0.25116264537E+02  0.14233342060E+02  0.46190368307E+02  0.51100000000E-03 0.  1.
         23    2    1    0    0    0  0.28989821516E+01 -0.24269484791E+02 -0.16238051731E+02  0.95655727756E+02  0.91043571651E+02 0.  0.
         11    1    3    3    0    0  0.38956371874E+02  0.84677974627E+00 -0.30471393790E+02  0.49465359448E+02  0.51100000000E-03 0. -1.
         22    1    1    0    0    0 -0.28989821516E+01  0.24269484791E+02  0.16238051731E+02  0.29344272244E+02  0.00000000000E+00 0. -1.
</event>
<event>
 5    1  0.1094625E-009  0.9118800E+02  0.7818608E-02  0.1130116E+00
         25   -1    0    0    0    0  0.00000000000E+00  0.00000000000E+00  0.99999998245E-14  0.12500000000E+03  0.12500000000E+03 0.  0.
        -11    1    3    3    0    0 -0.24906511138E+02  0.34466644104E+02  0.17101772019E+01  0.42558296009E+02  0.51100000000E-03 0.  1.
         23    2    1    0    0    0 -0.18622507855E+02 -0.13189271681E+02  0.20650260007E+02  0.94223581680E+02  0.89055574895E+02 0.  0.
         11    1    3    3    0    0  0.62840032832E+01 -0.47655915785E+02  0.18940082805E+02  0.51665285671E+02  0.51100000000E-03 0. -1.
         22    1    1    0    0    0  0.18622507855E+02  0.13189271681E+02 -0.20650260007E+02  0.30776418320E+02  0.00000000000E+00 0.  1.
</event>
<event>
 5    1  0.1094625E-009  0.9118800E+02  0.7818608E-02  0.1130116E+00
         25   -1    0    0    0    0  0.00000000000E+00  0.00000000000E+00  0.99999998245E-14  0.12500000000E+03  0.12500000000E+03 0.  0.
        -11    1    3    3    0    0 -0.32620752189E+02  0.69322597813E+01 -0.23733048212E+02  0.40931983542E+02  0.51100000000E-03 0.  1.
         23    2    1    0    0    0  0.98093981721E+01  0.26612934524E+02  0.55279437008E+01  0.96103101584E+02  0.91655743934E+02 0.  0.
         11    1    3    3    0    0  0.42430150361E+02  0.19680674743E+02  0.29260991913E+02  0.55171118042E+02  0.51100000000E-03 0. -1.
         22    1    1    0    0    0 -0.98093981721E+01 -0.26612934524E+02 -0.55279437008E+01  0.28896898416E+02  0.00000000000E+00 0. -1.
</event>
<event>
 5    1  0.1094625E-009  0.9118800E+02  0.7818608E-02  0.1130116E+00
         25   -1    0    0    0    0  0.00000000000E+00  0.00000000000E+00  0.99999998245E-14  0.12500000000E+03  0.12500000000E+03 0.  0.
        -11    1    3    3    0    0  0.54308213280E+02  0.16450899595E+02 -0.87614476203E+01  0.57417567798E+02  0.51100000000E-03 0.  1.
         23    2    1    0    0    0  0.29667991507E+02 -0.94551416330E+01 -0.20541655934E+01  0.93794086784E+02  0.88450673801E+02 0.  0.
         11    1    3    3    0    0 -0.24640221772E+02 -0.25906041228E+02  0.67072820269E+01  0.36376518986E+02  0.51100000000E-03 0. -1.
         22    1    1    0    0    0 -0.29667991507E+02  0.94551416330E+01  0.20541655934E+01  0.31205913216E+02  0.00000000000E+00 0.  1.
</event>
<event>
 5    1  0.1094625E-009  0.9118800E+02  0.7818608E-02  0.1130116E+00
         25   -1    0    0    0    0  0.00000000000E+00  0.00000000000E+00  0.99999998245E-14  0.12500000000E+03  0.12500000000E+03 0.  0.
        -11    1    3    3    0    0 -0.38391710263E+02  0.48125383102E+02 -0.47198624747E+01  0.61743445139E+02  0.51100000000E-03 0. -1.
         23    2    1    0    0    0 -0.23369746741E+02  0.19968871031E+02  0.13605157801E+01  0.94230666627E+02  0.89065518900E+02 0.  0.
         11    1    3    3    0    0  0.15021963522E+02 -0.28156512071E+02  0.60803782548E+01  0.32487221488E+02  0.51100000000E-03 0.  1.
         22    1    1    0    0    0  0.23369746741E+02 -0.19968871031E+02 -0.13605157801E+01  0.30769333373E+02  0.00000000000E+00 0. -1.
</event>
<event>
 5    1  0.1094625E-009  0.9118800E+02  0.7818608E-02  0.1130116E+00
         25   -1    0    0    0    0  0.00000000000E+00  0.00000000000E+00  0.99999998245E-14  0.12500000000E+03  0.12500000000E+03 0.  0.
        -11    1    3    3    0    0  0.24276816623E+02 -0.34083321627E+02 -0.40842437844E+02  0.58473424458E+02  0.51100000000E-03 0. -1.
         23    2    1    0    0    0  0.74582130799E+01 -0.30842945178E+01 -0.27762039948E+02  0.96088606449E+02  0.91635973352E+02 0.  0.
         11    1    3    3    0    0 -0.16818603544E+02  0.30999027109E+02  0.13080397897E+02  0.37615181991E+02  0.51100000000E-03 0.  1.
         22    1    1    0    0    0 -0.74582130799E+01  0.30842945178E+01  0.27762039948E+02  0.28911393551E+02  0.00000000000E+00 0. -1.
</event>
<event>
 5    1  0.1094625E-009  0.9118800E+02  0.7818608E-02  0.1130116E+00
         25   -1    0    0    0    0  0.00000000000E+00  0.00000000000E+00  0.99999998245E-14  0.12500000000E+03  0.12500000000E+03 0.  0.
        -11    1    3    3    0    0  0.59144201337E+02  0.26584546422E+01  0.14439083958E+01  0.59221523153E+02  0.51100000000E-03 0.  1.
         23    2    1    0    0    0  0.25355898643E+02  0.96791195478E+01  0.12021632432E+02  0.95316223327E+02  0.90576243198E+02 0.  0.
         11    1    3    3    0    0 -0.33788302694E+02  0.70206649056E+01  0.10577724036E+02  0.36094700174E+02  0.51100000000E-03 0. -1.
         22    1    1    0    0    0 -0.25355898643E+02 -0.96791195478E+01 -0.12021632432E+02  0.29683776673E+02  0.00000000000E+00 0.  1.
</event>
<event>
 5    1  0.1094625E-009  0.9118800E+02  0.7818608E-02  0.1130116E+00
         25   -1    0    0    0    0  0.00000000000E+00  0.00000000000E+00  0.99999998245E-14  0.12500000000E+03  0.12500000000E+03 0.  0.
        -11    1    3    3    0    0 -0.28847239038E+01 -0.52686343151E+02 -0.36091585343E+01  0.52888547080E+02  0.51100000000E-03 0.  1.
         23    2    1    0    0    0 -0.24525530331E+02 -0.15602431364E+02 -0.22211484379E+01  0.95847452892E+02  0.91306424873E+02 0.  0.
         11    1    3    3    0    0 -0.21640806428E+02  0.37083911787E+02  0.13880100964E+01  0.42958905812E+02  0.51100000000E-03 0. -1.
         22    1    1    0    0    0  0.24525530331E+02  0.15602431364E+02  0.22211484379E+01  0.29152547108E+02  0.00000000000E+00 0.  1.
</event>
<event>
 5    1  0.1094625E-009  0.9118800E+02  0.7818608E-02  0.1130116E+00
         25   -1    0    0    0    0  0.00000000000E+00  0.00000000000E+00  0.99999998245E-14  0.12500000000E+03  0.12500000000E+03 0.  0.
        -11    1    3    3    0    0 -0.69247673746E+01  0.57299850684E+02  0.10821282404E+02  0.58722444132E+02  0.51100000000E-03 0. -1.
         23    2    1    0    0    0 -0.14970340284E+02  0.21439873902E+02 -0.43670135975E+01  0.98488679985E+02  0.94853413203E+02 0.  0.
         11    1    3    3    0    0 -0.80455729098E+01 -0.35859976782E+02 -0.15188296001E+02  0.39766235854E+02  0.51100000000E-03 0.  1.
         22    1    1    0    0    0  0.14970340284E+02 -0.21439873902E+02  0.43670135975E+01  0.26511320015E+02  0.00000000000E+00 0. -1.
</event>
<event>
 5    1  0.1094625E-009  0.9118800E+02  0.7818608E-02  0.1130116E+00
         25   -1    0    0    0    0  0.00000000000E+00  0.00000000000E+00  0.99999998245E-14  0.12500000000E+03  0.12500000000E+03 0.  0.
        -11    1    3    3    0    0  0.38270970397E+01  0.31911129496E+02  0.11420334910E+02  0.34108516637E+02  0.51100000000E-03 0. -1.
         23    2    1    0    0    0 -0.39205189318E+01 -0.20266561300E+02 -0.20617200149E+02  0.95825132089E+02  0.91275862211E+02 0.  0.
         11    1    3    3    0    0 -0.77476159715E+01 -0.52177690796E+02 -0.32037535059E+02  0.61716615453E+02  0.51100000000E-03 0.  1.
         22    1    1    0    0    0  0.39205189318E+01  0.20266561300E+02  0.20617200149E+02  0.29174867911E+02  0.00000000000E+00 0.  1.
</event>
<event>
 5    1  0.1094625E-009  0.9118800E+02  0.7818608E-02  0.1130116E+00
         25   -1    0    0    0    0  0.00000000000E+00  0.00000000000E+00  0.99999998245E-14  0.12500000000E+03  0.12500000000E+03 0.  0.
        -11    1    3    3    0    0 -0.22772568877E+02 -0.39284400465E+02  0.17264827042E+01  0.45440452858E+02  0.51100000000E-03 0. -1.
         23    2    1    0    0    0 -0.86465341981E+01 -0.45542571177E+01 -0.29304319485E+02  0.94109112152E+02  0.88894758215E+02 0.  0.
         11    1    3    3    0    0  0.14126034679E+02  0.34730143348E+02 -0.31030802189E+02  0.48668659294E+02  0.51100000000E-03 0.  1.
         22    1    1    0    0    0  0.86465341981E+01  0.45542571177E+01  0.29304319485E+02  0.30890887848E+02  0.00000000000E+00 0. -1.
</event>
<event>
 5    1  0.1094625E-009  0.9118800E+02  0.7818608E-02  0.1130116E+00
         25   -1    0    0    0    0  0.00000000000E+00  0.00000000000E+00  0.99999998245E-14  0.12500000000E+03  0.12500000000E+03 0.  0.
        -11    1    3    3    0    0  0.39838287492E+02 -0.34249537670E+02  0.10260277385E+02  0.53529368325E+02  0.51100000000E-03 0.  1.
         23    2    1    0    0    0 -0.45995072093E+00 -0.24585932833E+02  0.16428720557E+02  0.95426658845E+02  0.90728522039E+02 0.  0.
         11    1    3    3    0    0 -0.40298238213E+02  0.96636048376E+01  0.61684431714E+01  0.41897290521E+02  0.51100000000E-03 0. -1.
         22    1    1    0    0    0  0.45995072093E+00  0.24585932833E+02 -0.16428720557E+02  0.29573341155E+02  0.00000000000E+00 0.  1.
</event>
<event>
 5    1  0.1094625E-009  0.9118800E+02  0.7818608E-02  0.1130116E+00
         25   -1    0    0    0    0  0.00000000000E+00  0.00000000000E+00  0.99999998245E-14  0.12500000000E+03  0.12500000000E+03 0.  0.
        -11    1    3    3    0    0  0.22502023740E+02 -0.17815452190E+02 -0.30550209458E+02  0.41917140972E+02  0.51100000000E-03 0.  1.
         23    2    1    0    0    0 -0.26180443606E+02 -0.57508172288E+01 -0.14176950355E+02  0.94677179426E+02  0.89689993067E+02 0.  0.
         11    1    3    3    0    0 -0.48682467347E+02  0.12064634961E+02  0.16373259102E+02  0.52760038453E+02  0.51100000000E-03 0. -1.
         22    1    1    0    0    0  0.26180443606E+02  0.57508172288E+01  0.14176950355E+02  0.30322820574E+02  0.00000000000E+00 0. -1.
</event>
<event>
 5    1  0.1094625E-009  0.9118800E+02  0.7818608E-02  0.1130116E+00
         25   -1    0    0    0    0  0.00000000000E+00  0.00000000000E+00  0.99999998245E-14  0.12500000000E+03  0.12500000000E+03 0.  0.
        -11    1    3    3    0    0  0.52334764778E+02  0.29057491839E+02 -0.14703504480E+02  0.61639747570E+02  0.51100000000E-03 0. -1.
         23    2    1    0    0    0  0.25561092307E+02  0.13411079533E+02  0.39775081605E+00  0.96131596860E+02  0.91694597524E+02 0.  0.
         11    1    3    3    0    0 -0.26773672471E+02 -0.15646412307E+02  0.15101255296E+02  0.34491849290E+02  0.51100000000E-03 0.  1.
         22    1    1    0    0    0 -0.25561092307E+02 -0.13411079533E+02 -0.39775081605E+00  0.28868403140E+02  0.00000000000E+00 0. -1.
</event>
<event>
 5    1  0.1094625E-009  0.9118800E+02  0.7818608E-02  0.1130116E+00
         25   -1    0    0    0    0  0.00000000000E+00  0.00000000000E+00  0.99999998245E-14  0.12500000000E+03  0.12500000000E+03 0.  0.
        -11    1    3    3    0    0 -0.19201496163E+02 -0.15709704952E+02  0.32949760567E+02  0.41245351329E+02  0.51100000000E-03 0.  1.
         23    2    1    0    0    0 -0.48588031307E+01 -0.11576766072E+02 -0.22807091751E+02  0.98965543703E+02  0.95479767102E+02 0.  0.
         11    1    3    3    0    0  0.14342693032E+02  0.41329388803E+01 -0.55756852317E+02  0.57720192375E+02  0.51100000000E-03 0. -1.
         22    1    1    0    0    0  0.48588031307E+01  0.11576766072E+02  0.22807091751E+02  0.26034456297E+02  0.00000000000E+00 0. -1.
</event>
<event>
 5    1  0.1094625E-009  0.9118800E+02  0.7818608E-02  0.1130116E+00
         25   -1    0    0    0    0  0.00000000000E+00  0.00000000000E+00  0.99999998245E-14  0.12500000000E+03  0.12500000000E+03 0.  0.
        -11    1    3    3    0    0 -0.28954140455E+02  0.11038578915E+02 -0.14101816971E+02  0.34044877971E+02  0.51100000000E-03 0. -1.
         23    2    1    0    0    0  0.27338607095E+02 -0.76162799727E+01  0.46492852231E+01  0.96241992218E+02  0.91844967496E+02 0.  0.
         11    1    3    3    0    0  0.56292747550E+02 -0.18654858887E+02  0.18751102195E+02  0.62197114246E+02  0.51100000000E-03 0.  1.
         22    1    1    0    0    0 -0.27338607095E+02  0.76162799727E+01 -0.46492852231E+01  0.28758007782E+02  0.00000000000E+00 0.  1.
</event>
<event>
 5    1  0.1094625E-009  0.9118800E+02  0.7818608E-02  0.1130116E+00
         25   -1    0    0    0    0  0.00000000000E+00  0.00000000000E+00  0.99999998245E-14  0.12500000000E+03  0.12500000000E+03 0.  0.
        -11    1    3    3    0    0  0.17643464556E+02 -0.24188594151E+01 -0.54117327141E+02  0.56972167061E+02  0.51100000000E-03 0. -1.
         23    2    1    0    0    0  0.19365681142E+02 -0.14251913598E+02 -0.18152986125E+02  0.94872312526E+02  0.89961536956E+02 0.  0.
         11    1    3    3    0    0  0.17222165857E+01 -0.11833054183E+02  0.35964341016E+02  0.37900145465E+02  0.51100000000E-03 0.  1.
         22    1    1    0    0    0 -0.19365681142E+02  0.14251913598E+02  0.18152986125E+02  0.30127687474E+02  0.00000000000E+00 0. -1.
</event>
<event>
 5    1  0.1094625E-009  0.9118800E+02  0.7818608E-02  0.1130116E+00
         25   -1    0    0    0    0  0.00000000000E+00  0.00000000000E+00  0.99999998245E-14  0.12500000000E+03  0.12500000000E+03 0.  0.
        -11    1    3    3    0    0 -0.73131564571E+01  0.96615118432E+01  0.55195872944E+02  0.56510277462E+02  0.51100000000E-03 0. -1.
         23    2    1    0    0    0  0.15198379683E+02 -0.12329435203E+01  0.24984014498E+02  0.95730359156E+02  0.91145980652E+02 0.  0.
         11    1    3    3    0    0  0.22511536140E+02 -0.10894455364E+02 -0.30211858447E+02  0.39220081694E+02  0.51100000000E-03 0.  1.
         22    1    1    0    0    0 -0.15198379683E+02  0.12329435203E+01 -0.24984014498E+02  0.29269640844E+02  0.00000000000E+00 0. -1.
</event>
<event>
 5    1  0.1094625E-009  0.9118800E+02  0.7818608E-02  0.1130116E+00
         25   -1    0    0    0    0  0.00000000000E+00  0.00000000000E+00  0.99999998245E-14  0.12500000000E+03  0.12500000000E+03 0.  0.
        -11    1    3    3    0    0 -0.27481055760E+02 -0.12303876418E+02 -0.53695051446E+02  0.61560964504E+02  0.51100000000E-03 0.  1.
         23    2    1    0    0    0 -0.71257181043E+01 -0.11511249344E+01 -0.27540572564E+02  0.96529241593E+02  0.92235082253E+02 0.  0.
         11    1    3    3    0    0  0.20355337656E+02  0.11152751484E+02  0.26154478882E+02  0.34968277089E+02  0.51100000000E-03 0. -1.
         22    1    1    0    0    0  0.71257181043E+01  0.11511249344E+01  0.27540572564E+02  0.28470758407E+02  0.00000000000E+00 0.  1.
</event>
<event>
 5    1  0.1094625E-009  0.9118800E+02  0.7818608E-02  0.1130116E+00
         25   -1    0    0    0    0  0.00000000000E+00  0.00000000000E+00  0.99999998245E-14  0.12500000000E+03  0.12500000000E+03 0.  0.
        -11    1    3    3    0    0  0.25684088809E+02 -0.27251600679E+02 -0.88140069481E+01  0.38470883487E+02  0.51100000000E-03 0. -1.
         23    2    1    0    0    0 -0.23276438119E+02 -0.14308845944E+01  0.13388368362E+02  0.98109696736E+02  0.94352658596E+02 0.  0.
         11    1    3    3    0    0 -0.48960526928E+02  0.25820716085E+02  0.22202375310E+02  0.59638813250E+02  0.51100000000E-03 0.  1.
         22    1    1    0    0    0  0.23276438119E+02  0.14308845944E+01 -0.13388368362E+02  0.26890303264E+02  0.00000000000E+00 0.  1.
</event>
<event>
 5    1  0.1094625E-009  0.9118800E+02  0.7818608E-02  0.1130116E+00
         25   -1    0    0    0    0  0.00000000000E+00  0.00000000000E+00  0.99999998245E-14  0.12500000000E+03  0.12500000000E+03 0.  0.
        -11    1    3    3    0    0  0.28252306665E+02 -0.30492815986E+02  0.19506013657E+02  0.45918288598E+02  0.51100000000E-03 0. -1.
         23    2    1    0    0    0 -0.19569518272E+02 -0.13950961905E+02 -0.19640308344E+01  0.10088666758E+03  0.97962579049E+02 0.  0.
         11    1    3    3    0    0 -0.47821824937E+02  0.16541854081E+02 -0.21470044491E+02  0.54968378978E+02  0.51100000000E-03 0.  1.
         22    1    1    0    0    0  0.19569518272E+02  0.13950961905E+02  0.19640308344E+01  0.24113332424E+02  0.00000000000E+00 0.  1.
</event>
<event>
 5    1  0.1094625E-009  0.9118800E+02  0.7818608E-02  0.1130116E+00
         25   -1    0    0    0    0  0.00000000000E+00  0.00000000000E+00  0.99999998245E-14  0.12500000000E+03  0.12500000000E+03 0.  0.
        -11    1    3    3    0    0 -0.34588148859E+02 -0.41280947642E+02  0.42286023509E+01  0.54021641569E+02  0.51100000000E-03 0. -1.
         23    2    1    0    0    0  0.54196783375E+01 -0.28154298171E+02  0.11250684685E+00  0.96328584329E+02  0.91962742904E+02 0.  0.
         11    1    3    3    0    0  0.40007827196E+02  0.13126649471E+02 -0.41160955040E+01  0.42306942761E+02  0.51100000000E-03 0.  1.
         22    1    1    0    0    0 -0.54196783375E+01  0.28154298171E+02 -0.11250684685E+00  0.28671415671E+02  0.00000000000E+00 0. -1.
</event>
<event>
 5    1  0.1094625E-009  0.9118800E+02  0.7818608E-02  0.1130116E+00
         25   -1    0    0    0    0  0.00000000000E+00  0.00000000000E+00  0.99999998245E-14  0.12500000000E+03  0.12500000000E+03 0.  0.
        -11    1    3    3    0    0 -0.50120693287E+02 -0.30295876320E+02  0.14682724042E+02  0.60378029142E+02  0.51100000000E-03 0. -1.
         23    2    1    0    0    0 -0.17875916274E+02 -0.23134556617E+02  0.22264955442E+01  0.95679130727E+02  0.91075697537E+02 0.  0.
         11    1    3    3    0    0  0.32244777012E+02  0.71613197035E+01 -0.12456228497E+02  0.35301101585E+02  0.51100000000E-03 0.  1.
         22    1    1    0    0    0  0.17875916274E+02  0.23134556617E+02 -0.22264955442E+01  0.29320869273E+02  0.00000000000E+00 0. -1.
</event>
<event>
 5    1  0.1094625E-009  0.9118800E+02  0.7818608E-02  0.1130116E+00
         25   -1    0    0    0    0  0.00000000000E+00  0.00000000000E+00  0.99999998245E-14  0.12500000000E+03  0.12500000000E+03 0.  0.
        -11    1    3    3    0    0  0.27880353179E+02 -0.13755999159E+02  0.43762645173E+02  0.53681567778E+02  0.51100000000E-03 0.  1.
         23    2    1    0    0    0  0.20787379907E+02 -0.20233449876E+02  0.26851134514E+01  0.95867243667E+02  0.91333514751E+02 0.  0.
         11    1    3    3    0    0 -0.70929732714E+01 -0.64774507172E+01 -0.41077531722E+02  0.42185675890E+02  0.51100000000E-03 0. -1.
         22    1    1    0    0    0 -0.20787379907E+02  0.20233449876E+02 -0.26851134514E+01  0.29132756333E+02  0.00000000000E+00 0.  1.
</event>
<event>
 5    1  0.1094625E-009  0.9118800E+02  0.7818608E-02  0.1130116E+00
         25   -1    0    0    0    0  0.00000000000E+00  0.00000000000E+00  0.99999998245E-14  0.12500000000E+03  0.12500000000E+03 0.  0.
        -11    1    3    3    0    0  0.10820621927E+02 -0.38908844013E+02 -0.20895240029E+02  0.45470815448E+02  0.51100000000E-03 0.  1.
         23    2    1    0    0    0 -0.64845693013E+01 -0.15281591167E+02  0.22017978202E+02  0.97425228347E+02  0.93441463424E+02 0.  0.
         11    1    3    3    0    0 -0.17305191228E+02  0.23627252847E+02  0.42913218231E+02  0.51954412899E+02  0.51100000000E-03 0. -1.
         22    1    1    0    0    0  0.64845693013E+01  0.15281591167E+02 -0.22017978202E+02  0.27574771653E+02  0.00000000000E+00 0. -1.
</event>
<event>
 5    1  0.1094625E-009  0.9118800E+02  0.7818608E-02  0.1130116E+00
         25   -1    0    0    0    0  0.00000000000E+00  0.00000000000E+00  0.99999998245E-14  0.12500000000E+03  0.12500000000E+03 0.  0.
        -11    1    3    3    0    0 -0.14140221289E+02 -0.43928755111E+02 -0.10412895318E+02  0.47308664881E+02  0.51100000000E-03 0.  1.
         23    2    1    0    0    0 -0.14252418492E+02 -0.83093045063E+01  0.23365109675E+02  0.96397476958E+02  0.92056337313E+02 0.  0.
         11    1    3    3    0    0 -0.11219720339E+00  0.35619450604E+02  0.33778004993E+02  0.49088812077E+02  0.51100000000E-03 0. -1.
         22    1    1    0    0    0  0.14252418492E+02  0.83093045063E+01 -0.23365109675E+02  0.28602523042E+02  0.00000000000E+00 0. -1.
</event>
<event>
 5    1  0.1094625E-009  0.9118800E+02  0.7818608E-02  0.1130116E+00
         25   -1    0    0    0    0  0.00000000000E+00  0.00000000000E+00  0.99999998245E-14  0.12500000000E+03  0.12500000000E+03 0.  0.
        -11    1    3    3    0    0  0.11238081143E+02 -0.22207115556E+02  0.56547727915E+02  0.61782651139E+02  0.51100000000E-03 0.  1.
         23    2    1    0    0    0  0.57023648167E+01 -0.16074027868E+02  0.22801873816E+02  0.96525155208E+02  0.92229544085E+02 0.  0.
         11    1    3    3    0    0 -0.55357163265E+01  0.61330876881E+01 -0.33745854100E+02  0.34742504069E+02  0.51100000000E-03 0. -1.
         22    1    1    0    0    0 -0.57023648167E+01  0.16074027868E+02 -0.22801873816E+02  0.28474844792E+02  0.00000000000E+00 0.  1.
</event>
<event>
 5    1  0.1094625E-009  0.9118800E+02  0.7818608E-02  0.1130116E+00
         25   -1    0    0    0    0  0.00000000000E+00  0.00000000000E+00  0.99999998245E-14  0.12500000000E+03  0.12500000000E+03 0.  0.
        -11    1    3    3    0    0 -0.18309562791E+02  0.39574328700E+02 -0.15851899810E+00  0.43604961990E+02  0.51100000000E-03 0.  1.
         23    2    1    0    0    0 -0.20604604583E+02 -0.11661541442E+02 -0.14970510800E+02  0.96988261882E+02  0.92855077785E+02 0.  0.
         11    1    3    3    0    0 -0.22950417919E+01 -0.51235870141E+02 -0.14811991801E+02  0.53383299892E+02  0.51100000000E-03 0. -1.
         22    1    1    0    0    0  0.20604604583E+02  0.11661541442E+02  0.14970510800E+02  0.28011738118E+02  0.00000000000E+00 0. -1.
</event>
<event>
 5    1  0.1094625E-009  0.9118800E+02  0.7818608E-02  0.1130116E+00
         25   -1    0    0    0    0  0.00000000000E+00  0.00000000000E+00  0.99999998245E-14  0.12500000000E+03  0.12500000000E+03 0.  0.
        -11    1    3    3    0    0  0.43720749988E+02  0.17305052637E+02 -0.39913666080E+02  0.61677139740E+02  0.51100000000E-03 0.  1.
         23    2    1    0    0    0  0.12031444606E+02  0.11312408968E+02 -0.17411652668E+02  0.10100225209E+03  0.98109953742E+02 0.  0.
         11    1    3    3    0    0 -0.31689305382E+02 -0.59926436688E+01  0.22502013412E+02  0.39325112353E+02  0.51100000000E-03 0. -1.
         22    1    1    0    0    0 -0.12031444606E+02 -0.11312408968E+02  0.17411652668E+02  0.23997747907E+02  0.00000000000E+00 0.  1.
</event>
<event>
 5    1  0.1094625E-009  0.9118800E+02  0.7818608E-02  0.1130116E+00
         25   -1    0    0    0    0  0.00000000000E+00  0.00000000000E+00  0.99999998245E-14  0.12500000000E+03  0.12500000000E+03 0.  0.
        -11    1    3    3    0    0 -0.42660185485E+02  0.43680262089E+01  0.53443779555E+01  0.43214967946E+02  0.51100000000E-03 0.  1.
         23    2    1    0    0    0 -0.37874751988E+01 -0.27591280207E+02 -0.93200712485E+01  0.95631863527E+02  0.91010800906E+02 0.  0.
         11    1    3    3    0    0  0.38872710286E+02 -0.31959306416E+02 -0.14664449204E+02  0.52416895581E+02  0.51100000000E-03 0. -1.
         22    1    1    0    0    0  0.37874751988E+01  0.27591280207E+02  0.93200712485E+01  0.29368136473E+02  0.00000000000E+00 0. -1.
</event>
<event>
 5    1  0.1094625E-009  0.9118800E+02  0.7818608E-02  0.1130116E+00
         25   -1    0    0    0    0  0.00000000000E+00  0.00000000000E+00  0.99999998245E-14  0.12500000000E+03  0.12500000000E+03 0.  0.
        -11    1    3    3    0    0 -0.23737748673E+02  0.28960876154E+02 -0.26205215396E+02  0.45704774082E+02  0.51100000000E-03 0.  1.
         23    2    1    0    0    0 -0.16786871233E+02 -0.19455325167E+02 -0.12008937271E+02  0.96635880103E+02  0.92379489205E+02 0.  0.
         11    1    3    3    0    0  0.69508774399E+01 -0.48416201322E+02  0.14196278126E+02  0.50931106021E+02  0.51100000000E-03 0. -1.
         22    1    1    0    0    0  0.16786871233E+02  0.19455325167E+02  0.12008937271E+02  0.28364119897E+02  0.00000000000E+00 0.  1.
</event>
<event>
 5    1  0.1094625E-009  0.9118800E+02  0.7818608E-02  0.1130116E+00
         25   -1    0    0    0    0  0.00000000000E+00  0.00000000000E+00  0.99999998245E-14  0.12500000000E+03  0.12500000000E+03 0.  0.
        -11    1    3    3    0    0  0.52732693923E+01  0.27989005769E+02  0.27128197389E+02  0.39333584986E+02  0.51100000000E-03 0.  1.
         23    2    1    0    0    0 -0.18294436289E+02  0.14385942770E+02 -0.20368018752E+02  0.94072699173E+02  0.88843541090E+02 0.  0.
         11    1    3    3    0    0 -0.23567705682E+02 -0.13603062999E+02 -0.47496216141E+02  0.54739114187E+02  0.51100000000E-03 0. -1.
         22    1    1    0    0    0  0.18294436289E+02 -0.14385942770E+02  0.20368018752E+02  0.30927300827E+02  0.00000000000E+00 0. -1.
</event>
<event>
 5    1  0.1094625E-009  0.9118800E+02  0.7818608E-02  0.1130116E+00
         25   -1    0    0    0    0  0.00000000000E+00  0.00000000000E+00  0.99999998245E-14  0.12500000000E+03  0.12500000000E+03 0.  0.
        -11    1    3    3    0    0 -0.33880508362E+02 -0.11670340003E+02  0.19469488382E+02  0.40781695168E+02  0.51100000000E-03 0.  1.
         23    2    1    0    0    0 -0.71151288264E+01 -0.10030110772E+02 -0.27504899394E+02  0.94871148861E+02  0.89959920049E+02 0.  0.
         11    1    3    3    0    0  0.26765379536E+02  0.16402292309E+01 -0.46974387776E+02  0.54089453693E+02  0.51100000000E-03 0. -1.
         22    1    1    0    0    0  0.71151288264E+01  0.10030110772E+02  0.27504899394E+02  0.30128851139E+02  0.00000000000E+00 0.  1.
</event>
<event>
 5    1  0.1094625E-009  0.9118800E+02  0.7818608E-02  0.1130116E+00
         25   -1    0    0    0    0  0.00000000000E+00  0.00000000000E+00  0.99999998245E-14  0.12500000000E+03  0.12500000000E+03 0.  0.
        -11    1    3    3    0    0 -0.92978197885E+01  0.36263017760E+02  0.11770374360E+02  0.39242803452E+02  0.51100000000E-03 0. -1.
         23    2    1    0    0    0  0.17641324079E+02 -0.14199845777E+02  0.16997610874E+02  0.96684444014E+02  0.92445178368E+02 0.  0.
         11    1    3    3    0    0  0.26939143867E+02 -0.50462863537E+02  0.52272365139E+01  0.57441640563E+02  0.51100000000E-03 0.  1.
         22    1    1    0    0    0 -0.17641324079E+02  0.14199845777E+02 -0.16997610874E+02  0.28315555986E+02  0.00000000000E+00 0.  1.
</event>
<event>
 5    1  0.1094625E-009  0.9118800E+02  0.7818608E-02  0.1130116E+00
         25   -1    0    0    0    0  0.00000000000E+00  0.00000000000E+00  0.99999998245E-14  0.12500000000E+03  0.12500000000E+03 0.  0.
        -11    1    3    3    0    0  0.27463368560E+02  0.40044280293E+02  0.50847732092E+01  0.48822493952E+02  0.51100000000E-03 0.  1.
         23    2    1    0    0    0  0.22460722435E+01  0.56484424581E+01 -0.23867420881E+02  0.10037067759E+03  0.97301949612E+02 0.  0.
         11    1    3    3    0    0 -0.25217296317E+02 -0.34395837835E+02 -0.28952194090E+02  0.51548183641E+02  0.51100000000E-03 0. -1.
         22    1    1    0    0    0 -0.22460722435E+01 -0.56484424581E+01  0.23867420881E+02  0.24629322407E+02  0.00000000000E+00 0. -1.
</event>
<event>
 5    1  0.1094625E-009  0.9118800E+02  0.7818608E-02  0.1130116E+00
         25   -1    0    0    0    0  0.00000000000E+00  0.00000000000E+00  0.99999998245E-14  0.12500000000E+03  0.12500000000E+03 0.  0.
        -11    1    3    3    0    0 -0.20346852941E+02  0.23920129577E+02 -0.33142965596E+02  0.45657673970E+02  0.51100000000E-03 0.  1.
         23    2    1    0    0    0 -0.89167200799E+01 -0.21891070760E+02 -0.18155177262E+02  0.95195011535E+02  0.90408809768E+02 0.  0.
         11    1    3    3    0    0  0.11430132862E+02 -0.45811200337E+02  0.14987788334E+02  0.49537337565E+02  0.51100000000E-03 0. -1.
         22    1    1    0    0    0  0.89167200799E+01  0.21891070760E+02  0.18155177262E+02  0.29804988465E+02  0.00000000000E+00 0. -1.
</event>
<event>
 5    1  0.1094625E-009  0.9118800E+02  0.7818608E-02  0.1130116E+00
         25   -1    0    0    0    0  0.00000000000E+00  0.00000000000E+00  0.99999998245E-14  0.12500000000E+03  0.12500000000E+03 0.  0.
        -11    1    3    3    0    0  0.51474461295E+02 -0.80551010777E+01  0.78525261252E+01  0.52689344139E+02  0.51100000000E-03 0.  1.
         23    2    1    0    0    0  0.15946711394E+02 -0.23339291146E+02  0.16429951556E+02  0.92304993904E+02  0.86320614433E+02 0.  0.
         11    1    3    3    0    0 -0.35527749901E+02 -0.15284190068E+02  0.85774254307E+01  0.39615649765E+02  0.51100000000E-03 0. -1.
         22    1    1    0    0    0 -0.15946711394E+02  0.23339291146E+02 -0.16429951556E+02  0.32695006096E+02  0.00000000000E+00 0.  1.
</event>
<event>
 5    1  0.1094625E-009  0.9118800E+02  0.7818608E-02  0.1130116E+00
         25   -1    0    0    0    0  0.00000000000E+00  0.00000000000E+00  0.99999998245E-14  0.12500000000E+03  0.12500000000E+03 0.  0.
        -11    1    3    3    0    0  0.37457324332E+02 -0.16146842198E+02 -0.34686382230E+02  0.53543596924E+02  0.51100000000E-03 0. -1.
         23    2    1    0    0    0  0.26374044110E+02 -0.77191125169E+01  0.62796820694E+01  0.96811184707E+02  0.92616392592E+02 0.  0.
         11    1    3    3    0    0 -0.11083280222E+02  0.84277296812E+01  0.40966064300E+02  0.43267587783E+02  0.51100000000E-03 0.  1.
         22    1    1    0    0    0 -0.26374044110E+02  0.77191125169E+01 -0.62796820694E+01  0.28188815293E+02  0.00000000000E+00 0. -1.
</event>
<event>
 5    1  0.1094625E-009  0.9118800E+02  0.7818608E-02  0.1130116E+00
         25   -1    0    0    0    0  0.00000000000E+00  0.00000000000E+00  0.99999998245E-14  0.12500000000E+03  0.12500000000E+03 0.  0.
        -11    1    3    3    0    0 -0.21966519505E+02 -0.23905338159E+02 -0.13627073544E+02  0.35209236079E+02  0.51100000000E-03 0.  1.
         23    2    1    0    0    0 -0.10068836307E+02  0.29247217443E+02  0.67077150759E+01  0.93349176404E+02  0.87819668076E+02 0.  0.
         11    1    3    3    0    0  0.11897683199E+02  0.53152555602E+02  0.20334788620E+02  0.58139940325E+02  0.51100000000E-03 0. -1.
         22    1    1    0    0    0  0.10068836307E+02 -0.29247217443E+02 -0.67077150759E+01  0.31650823596E+02  0.00000000000E+00 0. -1.
</event>
<event>
 5    1  0.1094625E-009  0.9118800E+02  0.7818608E-02  0.1130116E+00
         25   -1    0    0    0    0  0.00000000000E+00  0.00000000000E+00  0.99999998245E-14  0.12500000000E+03  0.12500000000E+03 0.  0.
        -11    1    3    3    0    0  0.14369111633E+02  0.45355875577E+02 -0.31027106381E+01  0.47678649645E+02  0.51100000000E-03 0.  1.
         23    2    1    0    0    0  0.27939989962E+02 -0.69910264061E+00 -0.79688091643E+01  0.95937417474E+02  0.91429504912E+02 0.  0.
         11    1    3    3    0    0  0.13570878329E+02 -0.46054978217E+02 -0.48660985262E+01  0.48258767829E+02  0.51100000000E-03 0. -1.
         22    1    1    0    0    0 -0.27939989962E+02  0.69910264061E+00  0.79688091643E+01  0.29062582526E+02  0.00000000000E+00 0.  1.
</event>
<event>
 5    1  0.1094625E-009  0.9118800E+02  0.7818608E-02  0.1130116E+00
         25   -1    0    0    0    0  0.00000000000E+00  0.00000000000E+00  0.99999998245E-14  0.12500000000E+03  0.12500000000E+03 0.  0.
        -11    1    3    3    0    0 -0.48069246891E+01  0.14044565871E+02 -0.52143814485E+02  0.54215622701E+02  0.51100000000E-03 0.  1.
         23    2    1    0    0    0  0.19369676185E+02 -0.69691959165E-02 -0.26639366832E+02  0.92063086525E+02  0.85969597133E+02 0.  0.
         11    1    3    3    0    0  0.24176600874E+02 -0.14051535067E+02  0.25504447653E+02  0.37847463824E+02  0.51100000000E-03 0. -1.
         22    1    1    0    0    0 -0.19369676185E+02  0.69691959165E-02  0.26639366832E+02  0.32936913475E+02  0.00000000000E+00 0.  1.
</event>
<event>
 5    1  0.1094625E-009  0.9118800E+02  0.7818608E-02  0.1130116E+00
         25   -1    0    0    0    0  0.00000000000E+00  0.00000000000E+00  0.99999998245E-14  0.12500000000E+03  0.12500000000E+03 0.  0.
        -11    1    3    3    0    0  0.32291447391E+02  0.38977315576E+01  0.32960620331E+01  0.32692413663E+02  0.51100000000E-03 0. -1.
         23    2    1    0    0    0 -0.27766811266E+02  0.97855641908E+01  0.11090064456E+02  0.93539825111E+02  0.88090614017E+02 0.  0.
         11    1    3    3    0    0 -0.60058258657E+02  0.58878326331E+01  0.77940024225E+01  0.60847411449E+02  0.51100000000E-03 0.  1.
         22    1    1    0    0    0  0.27766811266E+02 -0.97855641908E+01 -0.11090064456E+02  0.31460174889E+02  0.00000000000E+00 0.  1.
</event>
<event>
 5    1  0.1094625E-009  0.9118800E+02  0.7818608E-02  0.1130116E+00
         25   -1    0    0    0    0  0.00000000000E+00  0.00000000000E+00  0.99999998245E-14  0.12500000000E+03  0.12500000000E+03 0.  0.
        -11    1    3    3    0    0  0.34090043242E+02  0.23077324438E+02  0.41895756559E+01  0.41379300331E+02  0.51100000000E-03 0. -1.
         23    2    1    0    0    0 -0.12991074366E+02  0.59242299336E+01  0.25455435990E+02  0.95813637860E+02  0.91260119796E+02 0.  0.
         11    1    3    3    0    0 -0.47081117608E+02 -0.17153094504E+02  0.21265860334E+02  0.54434337530E+02  0.51100000000E-03 0.  1.
         22    1    1    0    0    0  0.12991074366E+02 -0.59242299336E+01 -0.25455435990E+02  0.29186362140E+02  0.00000000000E+00 0. -1.
</event>
<event>
 5    1  0.1094625E-009  0.9118800E+02  0.7818608E-02  0.1130116E+00
         25   -1    0    0    0    0  0.00000000000E+00  0.00000000000E+00  0.99999998245E-14  0.12500000000E+03  0.12500000000E+03 0.  0.
        -11    1    3    3    0    0  0.57614623982E+02  0.74908130355E+01  0.77849323181E+01  0.58618788353E+02  0.51100000000E-03 0.  1.
         23    2    1    0    0    0  0.29490119117E+02  0.62043067965E+01 -0.11500315251E+02  0.92744491955E+02  0.86954718036E+02 0.  0.
         11    1    3    3    0    0 -0.28124504865E+02 -0.12865062390E+01 -0.19285247570E+02  0.34125703602E+02  0.51100000000E-03 0. -1.
         22    1    1    0    0    0 -0.29490119117E+02 -0.62043067965E+01  0.11500315251E+02  0.32255508045E+02  0.00000000000E+00 0.  1.
</event>
<event>
 5    1  0.1094625E-009  0.9118800E+02  0.7818608E-02  0.1130116E+00
         25   -1    0    0    0    0  0.00000000000E+00  0.00000000000E+00  0.99999998245E-14  0.12500000000E+03  0.12500000000E+03 0.  0.
        -11    1    3    3    0    0 -0.53757247032E+02 -0.63011134504E+01  0.20613156340E+02  0.57917595372E+02  0.51100000000E-03 0.  1.
         23    2    1    0    0    0 -0.11397605082E+02 -0.92780325573E+01  0.19739045376E+02  0.10039070903E+03  0.97327679810E+02 0.  0.
         11    1    3    3    0    0  0.42359641949E+02 -0.29769191069E+01 -0.87411096398E+00  0.42473113656E+02  0.51100000000E-03 0. -1.
         22    1    1    0    0    0  0.11397605082E+02  0.92780325573E+01 -0.19739045376E+02  0.24609290971E+02  0.00000000000E+00 0.  1.
</event>
<event>
 5    1  0.1094625E-009  0.9118800E+02  0.7818608E-02  0.1130116E+00
         25   -1    0    0    0    0  0.00000000000E+00  0.00000000000E+00  0.99999998245E-14  0.12500000000E+03  0.12500000000E+03 0.  0.
        -11    1    3    3    0    0 -0.50722022985E+02 -0.98544217715E+00 -0.12896744905E+01  0.50747984911E+02  0.51100000000E-03 0. -1.
         23    2    1    0    0    0 -0.13061249762E+02  0.99517895576E+00 -0.26035698346E+02  0.95854773721E+02  0.91316446658E+02 0.  0.
         11    1    3    3    0    0  0.37660773223E+02  0.19806211329E+01 -0.24746023855E+02  0.45106788810E+02  0.51100000000E-03 0.  1.
         22    1    1    0    0    0  0.13061249762E+02 -0.99517895576E+00  0.26035698346E+02  0.29145226279E+02  0.00000000000E+00 0. -1.
</event>
<event>
 5    1  0.1094625E-009  0.9118800E+02  0.7818608E-02  0.1130116E+00
         25   -1    0    0    0    0  0.00000000000E+00  0.00000000000E+00  0.99999998245E-14  0.12500000000E+03  0.12500000000E+03 0.  0.
        -11    1    3    3    0    0 -0.58924615702E+02 -0.49922277216E+01 -0.27271542757E+01  0.59198564543E+02  0.51100000000E-03 0.  1.
         23    2    1    0    0    0 -0.25194611376E+02  0.55944546740E+01  0.10763001640E+02  0.97037371909E+02  0.92921165388E+02 0.  0.
         11    1    3    3    0    0  0.33730004326E+02  0.10586682396E+02  0.13490155916E+02  0.37838807366E+02  0.51100000000E-03 0. -1.
         22    1    1    0    0    0  0.25194611376E+02 -0.55944546740E+01 -0.10763001640E+02  0.27962628091E+02  0.00000000000E+00 0.  1.
</event>
<event>
 5    1  0.1094625E-009  0.9118800E+02  0.7818608E-02  0.1130116E+00
         25   -1    0    0    0    0  0.00000000000E+00  0.00000000000E+00  0.99999998245E-14  0.12500000000E+03  0.12500000000E+03 0.  0.
        -11    1    3    3    0    0  0.61786078232E+01  0.29770661184E+02 -0.48473199825E+02  0.57219914047E+02  0.51100000000E-03 0. -1.
         23    2    1    0    0    0  0.13982598110E+02  0.24178058859E+02 -0.12593468942E+02  0.94362000064E+02  0.89249649949E+02 0.  0.
         11    1    3    3    0    0  0.78039902867E+01 -0.55926023247E+01  0.35879730883E+02  0.37142086017E+02  0.51100000000E-03 0.  1.
         22    1    1    0    0    0 -0.13982598110E+02 -0.24178058859E+02  0.12593468942E+02  0.30637999936E+02  0.00000000000E+00 0. -1.
</event>
<event>
 5    1  0.1094625E-009  0.9118800E+02  0.7818608E-02  0.1130116E+00
         25   -1    0    0    0    0  0.00000000000E+00  0.00000000000E+00  0.99999998245E-14  0.12500000000E+03  0.12500000000E+03 0.  0.
        -11    1    3    3    0    0 -0.51384047464E+02  0.34328273525E+02 -0.33045056040E+01  0.61884331252E+02  0.51100000000E-03 0.  1.
         23    2    1    0    0    0 -0.22092918109E+02  0.11312567858E+02 -0.67009163551E+01  0.99290595065E+02  0.95904373030E+02 0.  0.
         11    1    3    3    0    0  0.29291129355E+02 -0.23015705667E+02 -0.33964107511E+01  0.37406263813E+02  0.51100000000E-03 0. -1.
         22    1    1    0    0    0  0.22092918109E+02 -0.11312567858E+02  0.67009163551E+01  0.25709404935E+02  0.00000000000E+00 0.  1.
</event>
<event>
 5    1  0.1094625E-009  0.9118800E+02  0.7818608E-02  0.1130116E+00
         25   -1    0    0    0    0  0.00000000000E+00  0.00000000000E+00  0.99999998245E-14  0.12500000000E+03  0.12500000000E+03 0.  0.
        -11    1    3    3    0    0 -0.19866215337E+02 -0.40631733813E+02 -0.68214138094E+01  0.45739873099E+02  0.51100000000E-03 0.  1.
         23    2    1    0    0    0  0.22953845044E+02 -0.23210756912E+02 -0.92019995676E+00  0.92343224184E+02  0.86375957570E+02 0.  0.
         11    1    3    3    0    0  0.42820060380E+02  0.17420976902E+02  0.59012138526E+01  0.46603351085E+02  0.51100000000E-03 0. -1.
         22    1    1    0    0    0 -0.22953845044E+02  0.23210756912E+02  0.92019995676E+00  0.32656775816E+02  0.00000000000E+00 0.  1.
</event>
<event>
 5    1  0.1094625E-009  0.9118800E+02  0.7818608E-02  0.1130116E+00
         25   -1    0    0    0    0  0.00000000000E+00  0.00000000000E+00  0.99999998245E-14  0.12500000000E+03  0.12500000000E+03 0.  0.
        -11    1    3    3    0    0  0.47720553137E+02 -0.17641074499E+02  0.99966393767E+01  0.51849701062E+02  0.51100000000E-03 0.  1.
         23    2    1    0    0    0  0.14499583923E+02  0.58169373554E+01  0.25269294263E+02  0.95291214655E+02  0.90541723331E+02 0.  0.
         11    1    3    3    0    0 -0.33220969214E+02  0.23458011855E+02  0.15272654886E+02  0.43441513593E+02  0.51100000000E-03 0. -1.
         22    1    1    0    0    0 -0.14499583923E+02 -0.58169373554E+01 -0.25269294263E+02  0.29708785345E+02  0.00000000000E+00 0. -1.
</event>
<event>
 5    1  0.1094625E-009  0.9118800E+02  0.7818608E-02  0.1130116E+00
         25   -1    0    0    0    0  0.00000000000E+00  0.00000000000E+00  0.99999998245E-14  0.12500000000E+03  0.12500000000E+03 0.  0.
        -11    1    3    3    0    0 -0.12605210558E+02 -0.35910034725E+02 -0.12810243391E+01  0.38079692104E+02  0.51100000000E-03 0. -1.
         23    2    1    0    0    0 -0.72813395893E+01  0.20057245477E+02 -0.18374644778E+02  0.96840835007E+02  0.92656401570E+02 0.  0.
         11    1    3    3    0    0  0.53238709687E+01  0.55967280202E+02 -0.17093620439E+02  0.58761142903E+02  0.51100000000E-03 0.  1.
         22    1    1    0    0    0  0.72813395893E+01 -0.20057245477E+02  0.18374644778E+02  0.28159164993E+02  0.00000000000E+00 0.  1.
</event>
<event>
 5    1  0.1094625E-009  0.9118800E+02  0.7818608E-02  0.1130116E+00
         25   -1    0    0    0    0  0.00000000000E+00  0.00000000000E+00  0.99999998245E-14  0.12500000000E+03  0.12500000000E+03 0.  0.
        -11    1    3    3    0    0 -0.32734177877E+02  0.85890962911E+00 -0.76453398627E+01  0.33626111117E+02  0.51100000000E-03 0.  1.
         23    2    1    0    0    0  0.25141196148E+02  0.11199430546E+02  0.11083831491E+02  0.95329167372E+02  0.90594104902E+02 0.  0.
         11    1    3    3    0    0  0.57875374025E+02  0.10340520916E+02  0.18729171354E+02  0.61703056255E+02  0.51100000000E-03 0. -1.
         22    1    1    0    0    0 -0.25141196148E+02 -0.11199430546E+02 -0.11083831491E+02  0.29670832628E+02  0.00000000000E+00 0. -1.
</event>
<event>
 5    1  0.1094625E-009  0.9118800E+02  0.7818608E-02  0.1130116E+00
         25   -1    0    0    0    0  0.00000000000E+00  0.00000000000E+00  0.99999998245E-14  0.12500000000E+03  0.12500000000E+03 0.  0.
        -11    1    3    3    0    0  0.22681852095E+02  0.81582198483E+01  0.26738347483E+02  0.35999474884E+02  0.51100000000E-03 0.  1.
         23    2    1    0    0    0  0.97270358210E+01  0.19093632712E+02 -0.25948831698E+02  0.91347007526E+02  0.84922034134E+02 0.  0.
         11    1    3    3    0    0 -0.12954816274E+02  0.10935412863E+02 -0.52687179181E+02  0.55347532641E+02  0.51100000000E-03 0. -1.
         22    1    1    0    0    0 -0.97270358210E+01 -0.19093632712E+02  0.25948831698E+02  0.33652992474E+02  0.00000000000E+00 0. -1.
</event>
<event>
 5    1  0.1094625E-009  0.9118800E+02  0.7818608E-02  0.1130116E+00
         25   -1    0    0    0    0  0.00000000000E+00  0.00000000000E+00  0.99999998245E-14  0.12500000000E+03  0.12500000000E+03 0.  0.
        -11    1    3    3    0    0  0.23567375351E+01 -0.50032137249E+02 -0.34916795191E+02  0.61056953381E+02  0.51100000000E-03 0.  1.
         23    2    1    0    0    0 -0.70384675650E+01 -0.21782537641E+02 -0.21059643541E+02  0.93894894988E+02  0.88593023128E+02 0.  0.
         11    1    3    3    0    0 -0.93952051001E+01  0.28249599607E+02  0.13857151650E+02  0.32837941607E+02  0.51100000000E-03 0. -1.
         22    1    1    0    0    0  0.70384675650E+01  0.21782537641E+02  0.21059643541E+02  0.31105105012E+02  0.00000000000E+00 0.  1.
</event>
<event>
 5    1  0.1094625E-009  0.9118800E+02  0.7818608E-02  0.1130116E+00
         25   -1    0    0    0    0  0.00000000000E+00  0.00000000000E+00  0.99999998245E-14  0.12500000000E+03  0.12500000000E+03 0.  0.
        -11    1    3    3    0    0  0.11254156981E+02  0.44766383131E+02 -0.88857141184E+01  0.47006818906E+02  0.51100000000E-03 0.  1.
         23    2    1    0    0    0 -0.24260864609E+02  0.11476649797E+02 -0.11603926043E+02  0.95760401136E+02  0.91187171707E+02 0.  0.
         11    1    3    3    0    0 -0.35515021590E+02 -0.33289733334E+02 -0.27182119242E+01  0.48753582230E+02  0.51100000000E-03 0. -1.
         22    1    1    0    0    0  0.24260864609E+02 -0.11476649797E+02  0.11603926043E+02  0.29239598864E+02  0.00000000000E+00 0. -1.
</event>
<event>
 5    1  0.1094625E-009  0.9118800E+02  0.7818608E-02  0.1130116E+00
         25   -1    0    0    0    0  0.00000000000E+00  0.00000000000E+00  0.99999998245E-14  0.12500000000E+03  0.12500000000E+03 0.  0.
        -11    1    3    3    0    0  0.25574683771E+02  0.18976098510E+01  0.55930780866E+02  0.61529810837E+02  0.51100000000E-03 0.  1.
         23    2    1    0    0    0  0.12948211415E+02  0.83850005333E+01  0.24054804143E+02  0.96423820844E+02  0.92092101784E+02 0.  0.
         11    1    3    3    0    0 -0.12626472356E+02  0.64873906823E+01 -0.31875976723E+02  0.34894010007E+02  0.51100000000E-03 0. -1.
         22    1    1    0    0    0 -0.12948211415E+02 -0.83850005333E+01 -0.24054804143E+02  0.28576179156E+02  0.00000000000E+00 0.  1.
</event>
<event>
 5    1  0.1094625E-009  0.9118800E+02  0.7818608E-02  0.1130116E+00
         25   -1    0    0    0    0  0.00000000000E+00  0.00000000000E+00  0.99999998245E-14  0.12500000000E+03  0.12500000000E+03 0.  0.
        -11    1    3    3    0    0  0.11348478933E+02  0.12525505047E+00 -0.34113404530E+02  0.35951745880E+02  0.51100000000E-03 0. -1.
         23    2    1    0    0    0 -0.26668750643E+02  0.20934959731E+01  0.11942908598E+02  0.95704299769E+02  0.91110235112E+02 0.  0.
         11    1    3    3    0    0 -0.38017229576E+02  0.19682409227E+01  0.46056313128E+02  0.59752553889E+02  0.51100000000E-03 0.  1.
         22    1    1    0    0    0  0.26668750643E+02 -0.20934959731E+01 -0.11942908598E+02  0.29295700231E+02  0.00000000000E+00 0.  1.
</event>
<event>
 5    1  0.1094625E-009  0.9118800E+02  0.7818608E-02  0.1130116E+00
         25   -1    0    0    0    0  0.00000000000E+00  0.00000000000E+00  0.99999998245E-14  0.12500000000E+03  0.12500000000E+03 0.  0.
        -11    1    3    3    0    0  0.32977442220E+02 -0.76734445334E+01  0.31619799476E+02  0.46327153653E+02  0.51100000000E-03 0.  1.
         23    2    1    0    0    0  0.20813611470E+02  0.11905807444E+02 -0.13852581633E+02  0.97307967008E+02  0.93284466832E+02 0.  0.
         11    1    3    3    0    0 -0.12163830750E+02  0.19579251977E+02 -0.45472381108E+02  0.50980813356E+02  0.51100000000E-03 0. -1.
         22    1    1    0    0    0 -0.20813611470E+02 -0.11905807444E+02  0.13852581633E+02  0.27692032992E+02  0.00000000000E+00 0. -1.
</event>
<event>
 5    1  0.1094625E-009  0.9118800E+02  0.7818608E-02  0.1130116E+00
         25   -1    0    0    0    0  0.00000000000E+00  0.00000000000E+00  0.99999998245E-14  0.12500000000E+03  0.12500000000E+03 0.  0.
        -11    1    3    3    0    0  0.26119533644E+02  0.24548260023E+02 -0.70851364392E+00  0.35851765644E+02  0.51100000000E-03 0.  1.
         23    2    1    0    0    0  0.15963750035E+02 -0.14538765674E+02  0.31016797543E+02  0.87207689243E+02  0.78593398647E+02 0.  0.
         11    1    3    3    0    0 -0.10155783609E+02 -0.39087025697E+02  0.31725311187E+02  0.51355923599E+02  0.51100000000E-03 0. -1.
         22    1    1    0    0    0 -0.15963750035E+02  0.14538765674E+02 -0.31016797543E+02  0.37792310757E+02  0.00000000000E+00 0. -1.
</event>
<event>
 5    1  0.1094625E-009  0.9118800E+02  0.7818608E-02  0.1130116E+00
         25   -1    0    0    0    0  0.00000000000E+00  0.00000000000E+00  0.99999998245E-14  0.12500000000E+03  0.12500000000E+03 0.  0.
        -11    1    3    3    0    0  0.15191401128E+02  0.48019922775E+02 -0.16260110231E+01  0.50391820404E+02  0.51100000000E-03 0.  1.
         23    2    1    0    0    0  0.21866125478E+02  0.10547806306E+02 -0.20818510970E+02  0.93018848359E+02  0.87348223163E+02 0.  0.
         11    1    3    3    0    0  0.66747243500E+01 -0.37472116468E+02 -0.19192499947E+02  0.42627027955E+02  0.51100000000E-03 0. -1.
         22    1    1    0    0    0 -0.21866125478E+02 -0.10547806306E+02  0.20818510970E+02  0.31981151641E+02  0.00000000000E+00 0.  1.
</event>
<event>
 5    1  0.1094625E-009  0.9118800E+02  0.7818608E-02  0.1130116E+00
         25   -1    0    0    0    0  0.00000000000E+00  0.00000000000E+00  0.99999998245E-14  0.12500000000E+03  0.12500000000E+03 0.  0.
        -11    1    3    3    0    0 -0.87755023838E+01 -0.31284525661E+02 -0.19165062001E+02  0.37723077681E+02  0.51100000000E-03 0. -1.
         23    2    1    0    0    0 -0.20743734548E+02  0.10228871291E+01  0.24200854947E+02  0.93109089050E+02  0.87477267118E+02 0.  0.
         11    1    3    3    0    0 -0.11968232164E+02  0.32307412791E+02  0.43365916948E+02  0.55386011369E+02  0.51100000000E-03 0.  1.
         22    1    1    0    0    0  0.20743734548E+02 -0.10228871291E+01 -0.24200854947E+02  0.31890910950E+02  0.00000000000E+00 0.  1.
</event>
<event>
 5    1  0.1094625E-009  0.9118800E+02  0.7818608E-02  0.1130116E+00
         25   -1    0    0    0    0  0.00000000000E+00  0.00000000000E+00  0.99999998245E-14  0.12500000000E+03  0.12500000000E+03 0.  0.
        -11    1    3    3    0    0  0.58681418154E+02  0.93314422385E+00  0.42875626079E+01  0.58845244396E+02  0.51100000000E-03 0. -1.
         23    2    1    0    0    0  0.26081166901E+02 -0.14327396464E+02 -0.99444665396E+00  0.95226010001E+02  0.90451658360E+02 0.  0.
         11    1    3    3    0    0 -0.32600251253E+02 -0.15260540688E+02 -0.52820092618E+01  0.36380765604E+02  0.51100000000E-03 0.  1.
         22    1    1    0    0    0 -0.26081166901E+02  0.14327396464E+02  0.99444665396E+00  0.29773989999E+02  0.00000000000E+00 0. -1.
</event>
<event>
 5    1  0.1094625E-009  0.9118800E+02  0.7818608E-02  0.1130116E+00
         25   -1    0    0    0    0  0.00000000000E+00  0.00000000000E+00  0.99999998245E-14  0.12500000000E+03  0.12500000000E+03 0.  0.
        -11    1    3    3    0    0 -0.57527923798E+01 -0.45230452856E+02  0.11817433446E+02  0.47101382350E+02  0.51100000000E-03 0. -1.
         23    2    1    0    0    0  0.14222957093E+02 -0.14798084497E+01  0.24313199063E+02  0.96793369748E+02  0.92592345455E+02 0.  0.
         11    1    3    3    0    0  0.19975749472E+02  0.43750644406E+02  0.12495765617E+02  0.49691987398E+02  0.51100000000E-03 0.  1.
         22    1    1    0    0    0 -0.14222957093E+02  0.14798084497E+01 -0.24313199063E+02  0.28206630252E+02  0.00000000000E+00 0.  1.
</event>
<event>
 5    1  0.1094625E-009  0.9118800E+02  0.7818608E-02  0.1130116E+00
         25   -1    0    0    0    0  0.00000000000E+00  0.00000000000E+00  0.99999998245E-14  0.12500000000E+03  0.12500000000E+03 0.  0.
        -11    1    3    3    0    0  0.29228311653E+02 -0.26898882427E+02  0.43797671515E+02  0.59127659419E+02  0.51100000000E-03 0. -1.
         23    2    1    0    0    0  0.69732308240E+01 -0.24555258018E+02  0.15761340895E+02  0.94999891479E+02  0.90138631395E+02 0.  0.
         11    1    3    3    0    0 -0.22255080829E+02  0.23436244086E+01 -0.28036330620E+02  0.35872232061E+02  0.51100000000E-03 0.  1.
         22    1    1    0    0    0 -0.69732308240E+01  0.24555258018E+02 -0.15761340895E+02  0.30000108521E+02  0.00000000000E+00 0. -1.
</event>
<event>
 5    1  0.1094625E-009  0.9118800E+02  0.7818608E-02  0.1130116E+00
         25   -1    0    0    0    0  0.00000000000E+00  0.00000000000E+00  0.99999998245E-14  0.12500000000E+03  0.12500000000E+03 0.  0.
        -11    1    3    3    0    0  0.15301262244E+01  0.22396188580E+02 -0.23304742258E+02  0.32358021589E+02  0.51100000000E-03 0. -1.
         23    2    1    0    0    0 -0.17744386110E+02 -0.14877852328E+02  0.21256131864E+02  0.93566946217E+02  0.88129090284E+02 0.  0.
         11    1    3    3    0    0 -0.19274512334E+02 -0.37274040908E+02  0.44560874122E+02  0.61208924628E+02  0.51100000000E-03 0.  1.
         22    1    1    0    0    0  0.17744386110E+02  0.14877852328E+02 -0.21256131864E+02  0.31433053783E+02  0.00000000000E+00 0.  1.
</event>
<event>
 5    1  0.1094625E-009  0.9118800E+02  0.7818608E-02  0.1130116E+00
         25   -1    0    0    0    0  0.00000000000E+00  0.00000000000E+00  0.99999998245E-14  0.12500000000E+03  0.12500000000E+03 0.  0.
        -11    1    3    3    0    0 -0.13381079931E+02  0.40298706757E+02 -0.81855592659E+00  0.42470096544E+02  0.51100000000E-03 0.  1.
         23    2    1    0    0    0  0.20436926017E+02  0.53769081666E+01  0.20505655035E+02  0.95554100882E+02  0.90903934020E+02 0.  0.
         11    1    3    3    0    0  0.33818005949E+02 -0.34921798590E+02  0.21324210962E+02  0.53084004338E+02  0.51100000000E-03 0. -1.
         22    1    1    0    0    0 -0.20436926017E+02 -0.53769081666E+01 -0.20505655035E+02  0.29445899118E+02  0.00000000000E+00 0.  1.
</event>
<event>
 5    1  0.1094625E-009  0.9118800E+02  0.7818608E-02  0.1130116E+00
         25   -1    0    0    0    0  0.00000000000E+00  0.00000000000E+00  0.99999998245E-14  0.12500000000E+03  0.12500000000E+03 0.  0.
        -11    1    3    3    0    0  0.18727193619E+02 -0.85170970129E+01  0.24871816515E+02  0.32277793905E+02  0.51100000000E-03 0. -1.
         23    2    1    0    0    0  0.72625546001E+01  0.35836731528E+02  0.29078304052E+02  0.78282082746E+02  0.62813379837E+02 0.  0.
         11    1    3    3    0    0 -0.11464639019E+02  0.44353828541E+02  0.42064875375E+01  0.46004288841E+02  0.51100000000E-03 0.  1.
         22    1    1    0    0    0 -0.72625546001E+01 -0.35836731528E+02 -0.29078304052E+02  0.46717917254E+02  0.00000000000E+00 0.  1.
</event>
<event>
 5    1  0.1094625E-009  0.9118800E+02  0.7818608E-02  0.1130116E+00
         25   -1    0    0    0    0  0.00000000000E+00  0.00000000000E+00  0.99999998245E-14  0.12500000000E+03  0.12500000000E+03 0.  0.
        -11    1    3    3    0    0  0.68105164362E+01 -0.41831977469E+02 -0.27155857497E+02  0.50336250057E+02  0.51100000000E-03 0.  1.
         23    2    1    0    0    0  0.25747730097E+02 -0.13274061178E+02  0.28617884071E+01  0.95890961229E+02  0.91365969087E+02 0.  0.
         11    1    3    3    0    0  0.18937213660E+02  0.28557916291E+02  0.30017645904E+02  0.45554711172E+02  0.51100000000E-03 0. -1.
         22    1    1    0    0    0 -0.25747730097E+02  0.13274061178E+02 -0.28617884071E+01  0.29109038771E+02  0.00000000000E+00 0.  1.
</event>
<event>
 5    1  0.1094625E-009  0.9118800E+02  0.7818608E-02  0.1130116E+00
         25   -1    0    0    0    0  0.00000000000E+00  0.00000000000E+00  0.99999998245E-14  0.12500000000E+03  0.12500000000E+03 0.  0.
        -11    1    3    3    0    0  0.23589813731E+02  0.38298233964E+02  0.18445559618E+02  0.48615560333E+02  0.51100000000E-03 0.  1.
         23    2    1    0    0    0 -0.15139776081E+02  0.24249192270E+02 -0.49399846532E+01  0.95988974615E+02  0.91499965320E+02 0.  0.
         11    1    3    3    0    0 -0.38729589812E+02 -0.14049041694E+02 -0.23385544272E+02  0.47373414281E+02  0.51100000000E-03 0. -1.
         22    1    1    0    0    0  0.15139776081E+02 -0.24249192270E+02  0.49399846532E+01  0.29011025385E+02  0.00000000000E+00 0.  1.
</event>
<event>
 5    1  0.1094625E-009  0.9118800E+02  0.7818608E-02  0.1130116E+00
         25   -1    0    0    0    0  0.00000000000E+00  0.00000000000E+00  0.99999998245E-14  0.12500000000E+03  0.12500000000E+03 0.  0.
        -11    1    3    3    0    0  0.18056880293E+02  0.59004371345E+02  0.12755865169E+01  0.61718667233E+02  0.51100000000E-03 0.  1.
         23    2    1    0    0    0  0.34927413970E+01  0.29116276338E+02 -0.40716556171E+01  0.95393663352E+02  0.90683051547E+02 0.  0.
         11    1    3    3    0    0 -0.14564138896E+02 -0.29888095007E+02 -0.53472421340E+01  0.33674996119E+02  0.51100000000E-03 0. -1.
         22    1    1    0    0    0 -0.34927413970E+01 -0.29116276338E+02  0.40716556171E+01  0.29606336648E+02  0.00000000000E+00 0.  1.
</event>
<event>
 5    1  0.1094625E-009  0.9118800E+02  0.7818608E-02  0.1130116E+00
         25   -1    0    0    0    0  0.00000000000E+00  0.00000000000E+00  0.99999998245E-14  0.12500000000E+03  0.12500000000E+03 0.  0.
        -11    1    3    3    0    0  0.14689560577E+02  0.17235010803E+02 -0.55150720204E+02  0.59619046676E+02  0.51100000000E-03 0. -1.
         23    2    1    0    0    0  0.19663471248E+02  0.74412496873E+01 -0.21880667435E+02  0.94655512760E+02  0.89659791378E+02 0.  0.
         11    1    3    3    0    0  0.49739106716E+01 -0.97937611156E+01  0.33270052769E+02  0.35036466084E+02  0.51100000000E-03 0.  1.
         22    1    1    0    0    0 -0.19663471248E+02 -0.74412496873E+01  0.21880667435E+02  0.30344487240E+02  0.00000000000E+00 0. -1.
</event>
<event>
 5    1  0.1094625E-009  0.9118800E+02  0.7818608E-02  0.1130116E+00
         25   -1    0    0    0    0  0.00000000000E+00  0.00000000000E+00  0.99999998245E-14  0.12500000000E+03  0.12500000000E+03 0.  0.
        -11    1    3    3    0    0  0.15977943140E+02  0.58704266653E+02  0.95318619261E+01  0.61581993977E+02  0.51100000000E-03 0.  1.
         23    2    1    0    0    0  0.93257078222E+01  0.26552767064E+02  0.11779691885E+02  0.94491322447E+02  0.89430591028E+02 0.  0.
         11    1    3    3    0    0 -0.66522353178E+01 -0.32151499588E+02  0.22478299589E+01  0.32909328469E+02  0.51100000000E-03 0. -1.
         22    1    1    0    0    0 -0.93257078222E+01 -0.26552767064E+02 -0.11779691885E+02  0.30508677553E+02  0.00000000000E+00 0.  1.
</event>
<event>
 5    1  0.1094625E-009  0.9118800E+02  0.7818608E-02  0.1130116E+00
         25   -1    0    0    0    0  0.00000000000E+00  0.00000000000E+00  0.99999998245E-14  0.12500000000E+03  0.12500000000E+03 0.  0.
        -11    1    3    3    0    0 -0.32090067366E+02  0.19868263169E+02  0.30625469156E+02  0.48604934587E+02  0.51100000000E-03 0.  1.
         23    2    1    0    0    0 -0.57525274773E+01  0.31058296093E+02 -0.35905101128E+01  0.93210047320E+02  0.87621411937E+02 0.  0.
         11    1    3    3    0    0  0.26337539889E+02  0.11190032924E+02 -0.34215979269E+02  0.44605112732E+02  0.51100000000E-03 0. -1.
         22    1    1    0    0    0  0.57525274773E+01 -0.31058296093E+02  0.35905101128E+01  0.31789952680E+02  0.00000000000E+00 0.  1.
</event>
<event>
 5    1  0.1094625E-009  0.9118800E+02  0.7818608E-02  0.1130116E+00
         25   -1    0    0    0    0  0.00000000000E+00  0.00000000000E+00  0.99999998245E-14  0.12500000000E+03  0.12500000000E+03 0.  0.
        -11    1    3    3    0    0  0.11106373062E+02 -0.11144621911E+02 -0.33828080725E+02  0.37308084458E+02  0.51100000000E-03 0.  1.
         23    2    1    0    0    0 -0.27026918654E+02 -0.19750635220E+02  0.34787726915E+01  0.91345226446E+02  0.84919412454E+02 0.  0.
         11    1    3    3    0    0 -0.38133291716E+02 -0.86060133089E+01  0.37306853416E+02  0.54037141988E+02  0.51100000000E-03 0. -1.
         22    1    1    0    0    0  0.27026918654E+02  0.19750635220E+02 -0.34787726915E+01  0.33654773554E+02  0.00000000000E+00 0. -1.
</event>
<event>
 5    1  0.1094625E-009  0.9118800E+02  0.7818608E-02  0.1130116E+00
         25   -1    0    0    0    0  0.00000000000E+00  0.00000000000E+00  0.99999998245E-14  0.12500000000E+03  0.12500000000E+03 0.  0.
        -11    1    3    3    0    0 -0.70283125678E+01  0.31075097373E+02  0.15600404053E+02  0.35474377530E+02  0.51100000000E-03 0. -1.
         23    2    1    0    0    0 -0.44499504068E+01 -0.16259361598E+02 -0.22914368067E+02  0.96552905911E+02  0.92267147337E+02 0.  0.
         11    1    3    3    0    0  0.25783621610E+01 -0.47334458970E+02 -0.38514772120E+02  0.61078528381E+02  0.51100000000E-03 0.  1.
         22    1    1    0    0    0  0.44499504068E+01  0.16259361598E+02  0.22914368067E+02  0.28447094089E+02  0.00000000000E+00 0.  1.
</event>
<event>
 5    1  0.1094625E-009  0.9118800E+02  0.7818608E-02  0.1130116E+00
         25   -1    0    0    0    0  0.00000000000E+00  0.00000000000E+00  0.99999998245E-14  0.12500000000E+03  0.12500000000E+03 0.  0.
        -11    1    3    3    0    0  0.16641636089E+02 -0.38742247371E+02 -0.41497336951E+02  0.59160246427E+02  0.51100000000E-03 0.  1.
         23    2    1    0    0    0  0.12326508093E+02 -0.26649106096E+02 -0.87077997119E+01  0.94374137836E+02  0.89266648077E+02 0.  0.
         11    1    3    3    0    0 -0.43151279963E+01  0.12093141275E+02  0.32789537239E+02  0.35213891409E+02  0.51100000000E-03 0. -1.
         22    1    1    0    0    0 -0.12326508093E+02  0.26649106096E+02  0.87077997119E+01  0.30625862164E+02  0.00000000000E+00 0.  1.
</event>
<event>
 5    1  0.1094625E-009  0.9118800E+02  0.7818608E-02  0.1130116E+00
         25   -1    0    0    0    0  0.00000000000E+00  0.00000000000E+00  0.99999998245E-14  0.12500000000E+03  0.12500000000E+03 0.  0.
        -11    1    3    3    0    0  0.14018422675E+02  0.37521831090E+02 -0.19476627693E+02  0.44539230003E+02  0.51100000000E-03 0.  1.
         23    2    1    0    0    0  0.83848625087E+01 -0.12602483048E+02 -0.25508355746E+02  0.95338497827E+02  0.90606977970E+02 0.  0.
         11    1    3    3    0    0 -0.56335601667E+01 -0.50124314138E+02 -0.60317280530E+01  0.50799267825E+02  0.51100000000E-03 0. -1.
         22    1    1    0    0    0 -0.83848625087E+01  0.12602483048E+02  0.25508355746E+02  0.29661502173E+02  0.00000000000E+00 0. -1.
</event>
<event>
 5    1  0.1094625E-009  0.9118800E+02  0.7818608E-02  0.1130116E+00
         25   -1    0    0    0    0  0.00000000000E+00  0.00000000000E+00  0.99999998245E-14  0.12500000000E+03  0.12500000000E+03 0.  0.
        -11    1    3    3    0    0  0.24205576815E+01  0.50722473739E+01 -0.14484995643E+02  0.15537113373E+02  0.51100000000E-03 0. -1.
         23    2    1    0    0    0  0.21462287332E+00  0.27020657784E+02  0.41368192569E+02  0.75588570487E+02  0.57202645235E+02 0.  0.
         11    1    3    3    0    0 -0.22059348082E+01  0.21948410411E+02  0.55853188212E+02  0.60051457115E+02  0.51100000000E-03 0.  1.
         22    1    1    0    0    0 -0.21462287332E+00 -0.27020657784E+02 -0.41368192569E+02  0.49411429513E+02  0.00000000000E+00 0.  1.
</event>
<event>
 5    1  0.1094625E-009  0.9118800E+02  0.7818608E-02  0.1130116E+00
         25   -1    0    0    0    0  0.00000000000E+00  0.00000000000E+00  0.99999998245E-14  0.12500000000E+03  0.12500000000E+03 0.  0.
        -11    1    3    3    0    0  0.28212232420E+02  0.40031791593E+02 -0.31097422612E+02  0.58013137216E+02  0.51100000000E-03 0.  1.
         23    2    1    0    0    0  0.26414083606E+02  0.21583926319E+02 -0.42675356496E+01  0.90622950263E+02  0.83849493533E+02 0.  0.
         11    1    3    3    0    0 -0.17981488148E+01 -0.18447865273E+02  0.26829886963E+02  0.32609813047E+02  0.51100000000E-03 0. -1.
         22    1    1    0    0    0 -0.26414083606E+02 -0.21583926319E+02  0.42675356496E+01  0.34377049737E+02  0.00000000000E+00 0.  1.
</event>
<event>
 5    1  0.1094625E-009  0.9118800E+02  0.7818608E-02  0.1130116E+00
         25   -1    0    0    0    0  0.00000000000E+00  0.00000000000E+00  0.99999998245E-14  0.12500000000E+03  0.12500000000E+03 0.  0.
        -11    1    3    3    0    0  0.52258227948E+02 -0.23146283492E+02 -0.32901806666E+01  0.57249437699E+02  0.51100000000E-03 0. -1.
         23    2    1    0    0    0  0.15904562618E+02 -0.23551097607E+02 -0.11197031845E+02  0.94455232318E+02  0.89380132466E+02 0.  0.
         11    1    3    3    0    0 -0.36353665330E+02 -0.40481411509E+00 -0.79068511786E+01  0.37205794619E+02  0.51100000000E-03 0.  1.
         22    1    1    0    0    0 -0.15904562618E+02  0.23551097607E+02  0.11197031845E+02  0.30544767682E+02  0.00000000000E+00 0. -1.
</event>
<event>
 5    1  0.1094625E-009  0.9118800E+02  0.7818608E-02  0.1130116E+00
         25   -1    0    0    0    0  0.00000000000E+00  0.00000000000E+00  0.99999998245E-14  0.12500000000E+03  0.12500000000E+03 0.  0.
        -11    1    3    3    0    0  0.89052733825E+01  0.40730732019E+02  0.45205221502E+02  0.61496410270E+02  0.51100000000E-03 0.  1.
         23    2    1    0    0    0  0.52649029580E+01  0.24801695302E+02  0.15831699212E+02  0.95108763944E+02  0.90289484360E+02 0.  0.
         11    1    3    3    0    0 -0.36403704245E+01 -0.15929036717E+02 -0.29373522290E+02  0.33612353674E+02  0.51100000000E-03 0. -1.
         22    1    1    0    0    0 -0.52649029580E+01 -0.24801695302E+02 -0.15831699212E+02  0.29891236056E+02  0.00000000000E+00 0.  1.
</event>
<event>
 5    1  0.1094625E-009  0.9118800E+02  0.7818608E-02  0.1130116E+00
         25   -1    0    0    0    0  0.00000000000E+00  0.00000000000E+00  0.99999998245E-14  0.12500000000E+03  0.12500000000E+03 0.  0.
        -11    1    3    3    0    0  0.35140648451E+02 -0.34340240263E+01 -0.43525923480E+02  0.56046085587E+02  0.51100000000E-03 0.  1.
         23    2    1    0    0    0  0.22741001423E+02  0.17383356260E+02 -0.18288944318E+02  0.91032078296E+02  0.84457205578E+02 0.  0.
         11    1    3    3    0    0 -0.12399647028E+02  0.20817380287E+02  0.25236979162E+02  0.34985992710E+02  0.51100000000E-03 0. -1.
         22    1    1    0    0    0 -0.22741001423E+02 -0.17383356260E+02  0.18288944318E+02  0.33967921704E+02  0.00000000000E+00 0.  1.
</event>
<event>
 5    1  0.1094625E-009  0.9118800E+02  0.7818608E-02  0.1130116E+00
         25   -1    0    0    0    0  0.00000000000E+00  0.00000000000E+00  0.99999998245E-14  0.12500000000E+03  0.12500000000E+03 0.  0.
        -11    1    3    3    0    0 -0.91795089565E+01  0.29412241497E+02 -0.19692910088E+02  0.36567116957E+02  0.51100000000E-03 0. -1.
         23    2    1    0    0    0  0.14861362311E+02 -0.23504193153E+02 -0.30481581564E+01  0.97025038808E+02  0.92904573095E+02 0.  0.
         11    1    3    3    0    0  0.24040871268E+02 -0.52916434650E+02  0.16644751932E+02  0.60457921851E+02  0.51100000000E-03 0.  1.
         22    1    1    0    0    0 -0.14861362311E+02  0.23504193153E+02  0.30481581564E+01  0.27974961192E+02  0.00000000000E+00 0.  1.
</event>
<event>
 5    1  0.1094625E-009  0.9118800E+02  0.7818608E-02  0.1130116E+00
         25   -1    0    0    0    0  0.00000000000E+00  0.00000000000E+00  0.99999998245E-14  0.12500000000E+03  0.12500000000E+03 0.  0.
        -11    1    3    3    0    0  0.29545119090E+02 -0.75820806159E+01  0.15794433684E+02  0.34349179673E+02  0.51100000000E-03 0.  1.
         23    2    1    0    0    0 -0.12963838066E+02  0.11571016244E+02 -0.23809609632E+02  0.95523788826E+02  0.90862243020E+02 0.  0.
         11    1    3    3    0    0 -0.42508957156E+02  0.19153096860E+02 -0.39604043316E+02  0.61174609154E+02  0.51100000000E-03 0. -1.
         22    1    1    0    0    0  0.12963838066E+02 -0.11571016244E+02  0.23809609632E+02  0.29476211174E+02  0.00000000000E+00 0. -1.
</event>
<event>
 5    1  0.1094625E-009  0.9118800E+02  0.7818608E-02  0.1130116E+00
         25   -1    0    0    0    0  0.00000000000E+00  0.00000000000E+00  0.99999998245E-14  0.12500000000E+03  0.12500000000E+03 0.  0.
        -11    1    3    3    0    0  0.23305708597E+02 -0.23440816034E+02  0.12088214423E+02  0.35195920754E+02  0.51100000000E-03 0.  1.
         23    2    1    0    0    0 -0.30068317700E+02 -0.43452351911E+00  0.98361163831E+01  0.93360756559E+02  0.87836149391E+02 0.  0.
         11    1    3    3    0    0 -0.53374026297E+02  0.23006292515E+02 -0.22520980395E+01  0.58164835805E+02  0.51100000000E-03 0. -1.
         22    1    1    0    0    0  0.30068317700E+02  0.43452351911E+00 -0.98361163831E+01  0.31639243441E+02  0.00000000000E+00 0. -1.
</event>
