<event>
 5    1  0.1659417E-003  0.9118800E+02  0.7818608E-02  0.1130116E+00
         25   -1    0    0    0    0  0.00000000000E+00  0.00000000000E+00  0.99999998245E-14  0.12500000000E+03  0.12500000000E+03 0.  0.
        -11    1    3    3    0    0 -0.40370694183E+02 -0.29211302877E+02 -0.28502729473E+02  0.57406434763E+02  0.51100000000E-03 0.  1.
         23    2    1    0    0    0 -0.28523333917E+02 -0.27830849060E+01 -0.26671314652E+01  0.96217371045E+02  0.91811452234E+02 0.  0.
         11    1    3    3    0    0  0.11847360266E+02  0.26428217971E+02  0.25835598008E+02  0.38810936282E+02  0.51100000000E-03 0. -1.
         22    1    1    0    0    0  0.28523333917E+02  0.27830849060E+01  0.26671314652E+01  0.28782628955E+02  0.00000000000E+00 0.  1.
</event>
<event>
 5    1  0.1659417E-003  0.9118800E+02  0.7818608E-02  0.1130116E+00
         25   -1    0    0    0    0  0.00000000000E+00  0.00000000000E+00  0.99999998245E-14  0.12500000000E+03  0.12500000000E+03 0.  0.
        -11    1    3    3    0    0 -0.92017660054E+01 -0.29889026084E+02  0.11669835453E+02  0.33379805835E+02  0.51100000000E-03 0. -1.
         23    2    1    0    0    0  0.22338061235E+02  0.19479726596E+02 -0.63829820025E+01  0.94681834039E+02  0.89696479918E+02 0.  0.
         11    1    3    3    0    0  0.31539827240E+02  0.49368752680E+02 -0.18052817456E+02  0.61302028203E+02  0.51100000000E-03 0.  1.
         22    1    1    0    0    0 -0.22338061235E+02 -0.19479726596E+02  0.63829820025E+01  0.30318165961E+02  0.00000000000E+00 0.  1.
</event>
<event>
 5    1  0.1659417E-003  0.9118800E+02  0.7818608E-02  0.1130116E+00
         25   -1    0    0    0    0  0.00000000000E+00  0.00000000000E+00  0.99999998245E-14  0.12500000000E+03  0.12500000000E+03 0.  0.
        -11    1    3    3    0    0  0.22874427111E+02 -0.19722760898E+02 -0.28780597681E+02  0.41719893531E+02  0.51100000000E-03 0.  1.
         23    2    1    0    0    0 -0.13733686064E+02  0.14779962594E+02  0.72108464859E+01  0.10357436736E+03  0.10133406061E+03 0.  0.
         11    1    3    3    0    0 -0.36608113174E+02  0.34502723493E+02  0.35991444167E+02  0.61854473824E+02  0.51100000000E-03 0. -1.
         22    1    1    0    0    0  0.13733686064E+02 -0.14779962594E+02 -0.72108464859E+01  0.21425632645E+02  0.00000000000E+00 0. -1.
</event>
<event>
 5    1  0.1659417E-003  0.9118800E+02  0.7818608E-02  0.1130116E+00
         25   -1    0    0    0    0  0.00000000000E+00  0.00000000000E+00  0.99999998245E-14  0.12500000000E+03  0.12500000000E+03 0.  0.
        -11    1    3    3    0    0 -0.12367069920E+02 -0.13172539695E+02 -0.37313466093E+02  0.41457869851E+02  0.51100000000E-03 0. -1.
         23    2    1    0    0    0  0.52476008106E+01  0.27788210125E+02 -0.56052508824E+01  0.96170487800E+02  0.91747599151E+02 0.  0.
         11    1    3    3    0    0  0.17614670731E+02  0.40960749820E+02  0.31708215210E+02  0.54712617950E+02  0.51100000000E-03 0.  1.
         22    1    1    0    0    0 -0.52476008106E+01 -0.27788210125E+02  0.56052508824E+01  0.28829512200E+02  0.00000000000E+00 0.  1.
</event>
<event>
 5    1  0.1659417E-003  0.9118800E+02  0.7818608E-02  0.1130116E+00
         25   -1    0    0    0    0  0.00000000000E+00  0.00000000000E+00  0.99999998245E-14  0.12500000000E+03  0.12500000000E+03 0.  0.
        -11    1    3    3    0    0 -0.18444265031E+02 -0.24246963437E+02 -0.30740620089E+02  0.43279231418E+02  0.51100000000E-03 0. -1.
         23    2    1    0    0    0  0.20519957398E+02 -0.21350144768E+02  0.34355904176E+01  0.95188917920E+02  0.90400384292E+02 0.  0.
         11    1    3    3    0    0  0.38964222429E+02  0.28968186687E+01  0.34176210507E+02  0.51909686502E+02  0.51100000000E-03 0.  1.
         22    1    1    0    0    0 -0.20519957398E+02  0.21350144768E+02 -0.34355904176E+01  0.29811082080E+02  0.00000000000E+00 0.  1.
</event>
<event>
 5    1  0.1659417E-003  0.9118800E+02  0.7818608E-02  0.1130116E+00
         25   -1    0    0    0    0  0.00000000000E+00  0.00000000000E+00  0.99999998245E-14  0.12500000000E+03  0.12500000000E+03 0.  0.
        -11    1    3    3    0    0  0.41044197022E+02 -0.45460964100E+02 -0.57473657584E+01  0.61517132407E+02  0.51100000000E-03 0.  1.
         23    2    1    0    0    0  0.10295725085E+02 -0.21950611939E+02 -0.50733222415E+01  0.10022965648E+03  0.97120616350E+02 0.  0.
         11    1    3    3    0    0 -0.30748471937E+02  0.23510352162E+02  0.67404351688E+00  0.38712524074E+02  0.51100000000E-03 0. -1.
         22    1    1    0    0    0 -0.10295725085E+02  0.21950611939E+02  0.50733222415E+01  0.24770343519E+02  0.00000000000E+00 0.  1.
</event>
<event>
 5    1  0.1659417E-003  0.9118800E+02  0.7818608E-02  0.1130116E+00
         25   -1    0    0    0    0  0.00000000000E+00  0.00000000000E+00  0.99999998245E-14  0.12500000000E+03  0.12500000000E+03 0.  0.
        -11    1    3    3    0    0  0.23077524198E+02  0.17694957636E+02 -0.20001059877E+02  0.35294844458E+02  0.51100000000E-03 0.  1.
         23    2    1    0    0    0 -0.25414374405E+02 -0.14315607164E+02 -0.40333360188E+01  0.95553525944E+02  0.90903143433E+02 0.  0.
         11    1    3    3    0    0 -0.48491898603E+02 -0.32010564800E+02  0.15967723858E+02  0.60258681486E+02  0.51100000000E-03 0. -1.
         22    1    1    0    0    0  0.25414374405E+02  0.14315607164E+02  0.40333360188E+01  0.29446474056E+02  0.00000000000E+00 0. -1.
</event>
<event>
 5    1  0.1659417E-003  0.9118800E+02  0.7818608E-02  0.1130116E+00
         25   -1    0    0    0    0  0.00000000000E+00  0.00000000000E+00  0.99999998245E-14  0.12500000000E+03  0.12500000000E+03 0.  0.
        -11    1    3    3    0    0 -0.37351774271E+02  0.20061159218E+02 -0.19064606092E+02  0.46487249393E+02  0.51100000000E-03 0.  1.
         23    2    1    0    0    0 -0.22203001668E+02 -0.11039552514E+02  0.15796515446E+02  0.95599746548E+02  0.90966678718E+02 0.  0.
         11    1    3    3    0    0  0.15148772603E+02 -0.31100711732E+02  0.34861121539E+02  0.49112497155E+02  0.51100000000E-03 0. -1.
         22    1    1    0    0    0  0.22203001668E+02  0.11039552514E+02 -0.15796515446E+02  0.29400253452E+02  0.00000000000E+00 0.  1.
</event>
<event>
 5    1  0.1659417E-003  0.9118800E+02  0.7818608E-02  0.1130116E+00
         25   -1    0    0    0    0  0.00000000000E+00  0.00000000000E+00  0.99999998245E-14  0.12500000000E+03  0.12500000000E+03 0.  0.
        -11    1    3    3    0    0  0.28426595769E+02  0.39638218750E+02  0.30084513125E+02  0.57309141181E+02  0.51100000000E-03 0. -1.
         23    2    1    0    0    0  0.72899435336E+01  0.29165606610E+02  0.78147482602E+00  0.94926979058E+02  0.90037463117E+02 0.  0.
         11    1    3    3    0    0 -0.21136652236E+02 -0.10472612139E+02 -0.29303038299E+02  0.37617837877E+02  0.51100000000E-03 0.  1.
         22    1    1    0    0    0 -0.72899435336E+01 -0.29165606610E+02 -0.78147482602E+00  0.30073020942E+02  0.00000000000E+00 0. -1.
</event>
<event>
 5    1  0.1659417E-003  0.9118800E+02  0.7818608E-02  0.1130116E+00
         25   -1    0    0    0    0  0.00000000000E+00  0.00000000000E+00  0.99999998245E-14  0.12500000000E+03  0.12500000000E+03 0.  0.
        -11    1    3    3    0    0 -0.19366604648E+02  0.22325811015E+02 -0.11380717840E+02  0.31670616538E+02  0.51100000000E-03 0.  1.
         23    2    1    0    0    0  0.21639412109E+02 -0.12239740243E+02  0.19362648844E+02  0.93488294748E+02  0.88017462398E+02 0.  0.
         11    1    3    3    0    0  0.41006016757E+02 -0.34565551258E+02  0.30743366684E+02  0.61817678210E+02  0.51100000000E-03 0. -1.
         22    1    1    0    0    0 -0.21639412109E+02  0.12239740243E+02 -0.19362648844E+02  0.31511705252E+02  0.00000000000E+00 0. -1.
</event>
<event>
 5    1  0.1659417E-003  0.9118800E+02  0.7818608E-02  0.1130116E+00
         25   -1    0    0    0    0  0.00000000000E+00  0.00000000000E+00  0.99999998245E-14  0.12500000000E+03  0.12500000000E+03 0.  0.
        -11    1    3    3    0    0 -0.33654034451E+02 -0.17623924450E+02 -0.14557511843E+02  0.40683140233E+02  0.51100000000E-03 0.  1.
         23    2    1    0    0    0  0.60854172268E+01  0.21416637349E+02 -0.17813667212E+02  0.96486294564E+02  0.92176860659E+02 0.  0.
         11    1    3    3    0    0  0.39739451678E+02  0.39040561799E+02 -0.32561553688E+01  0.55803154331E+02  0.51100000000E-03 0. -1.
         22    1    1    0    0    0 -0.60854172268E+01 -0.21416637349E+02  0.17813667212E+02  0.28513705436E+02  0.00000000000E+00 0. -1.
</event>
<event>
 5    1  0.1659417E-003  0.9118800E+02  0.7818608E-02  0.1130116E+00
         25   -1    0    0    0    0  0.00000000000E+00  0.00000000000E+00  0.99999998245E-14  0.12500000000E+03  0.12500000000E+03 0.  0.
        -11    1    3    3    0    0  0.11487035837E+02  0.75534453093E+01  0.32433960789E+02  0.35227380560E+02  0.51100000000E-03 0. -1.
         23    2    1    0    0    0  0.25159958414E+02 -0.19327516982E+02 -0.13778985311E+02  0.90410451632E+02  0.83532107049E+02 0.  0.
         11    1    3    3    0    0  0.13672922577E+02 -0.26880962291E+02 -0.46212946100E+02  0.55183071072E+02  0.51100000000E-03 0.  1.
         22    1    1    0    0    0 -0.25159958414E+02  0.19327516982E+02  0.13778985311E+02  0.34589548368E+02  0.00000000000E+00 0.  1.
</event>
<event>
 5    1  0.1659417E-003  0.9118800E+02  0.7818608E-02  0.1130116E+00
         25   -1    0    0    0    0  0.00000000000E+00  0.00000000000E+00  0.99999998245E-14  0.12500000000E+03  0.12500000000E+03 0.  0.
        -11    1    3    3    0    0  0.19900335449E+02 -0.37572369457E+02 -0.39175251762E+01  0.42697228263E+02  0.51100000000E-03 0. -1.
         23    2    1    0    0    0  0.26205368756E+02  0.13583410102E+02  0.51669803096E+01  0.95034552111E+02  0.90186684315E+02 0.  0.
         11    1    3    3    0    0  0.63050333078E+01  0.51155779559E+02  0.90845054858E+01  0.52337323848E+02  0.51100000000E-03 0.  1.
         22    1    1    0    0    0 -0.26205368756E+02 -0.13583410102E+02 -0.51669803096E+01  0.29965447889E+02  0.00000000000E+00 0.  1.
</event>
<event>
 5    1  0.1659417E-003  0.9118800E+02  0.7818608E-02  0.1130116E+00
         25   -1    0    0    0    0  0.00000000000E+00  0.00000000000E+00  0.99999998245E-14  0.12500000000E+03  0.12500000000E+03 0.  0.
        -11    1    3    3    0    0 -0.22690376098E+02  0.86849785102E+01  0.44651979814E+02  0.50833859983E+02  0.51100000000E-03 0. -1.
         23    2    1    0    0    0 -0.21499688811E+02 -0.20435107717E+02  0.18153025919E+02  0.90224108978E+02  0.83252791212E+02 0.  0.
         11    1    3    3    0    0  0.11906872874E+01 -0.29120086227E+02 -0.26498953896E+02  0.39390248995E+02  0.51100000000E-03 0.  1.
         22    1    1    0    0    0  0.21499688811E+02  0.20435107717E+02 -0.18153025919E+02  0.34775891022E+02  0.00000000000E+00 0. -1.
</event>
<event>
 5    1  0.1659417E-003  0.9118800E+02  0.7818608E-02  0.1130116E+00
         25   -1    0    0    0    0  0.00000000000E+00  0.00000000000E+00  0.99999998245E-14  0.12500000000E+03  0.12500000000E+03 0.  0.
        -11    1    3    3    0    0  0.12405210770E+02 -0.14673170406E+02  0.31910801546E+02  0.37249032734E+02  0.51100000000E-03 0.  1.
         23    2    1    0    0    0  0.19870502936E+02  0.11059359336E+02 -0.19383213620E+02  0.95119315836E+02  0.90304091596E+02 0.  0.
         11    1    3    3    0    0  0.74652921654E+01  0.25732529743E+02 -0.51294015167E+02  0.57870283102E+02  0.51100000000E-03 0. -1.
         22    1    1    0    0    0 -0.19870502936E+02 -0.11059359336E+02  0.19383213620E+02  0.29880684164E+02  0.00000000000E+00 0. -1.
</event>
<event>
 5    1  0.1659417E-003  0.9118800E+02  0.7818608E-02  0.1130116E+00
         25   -1    0    0    0    0  0.00000000000E+00  0.00000000000E+00  0.99999998245E-14  0.12500000000E+03  0.12500000000E+03 0.  0.
        -11    1    3    3    0    0  0.42398337440E+02 -0.24406080116E+02  0.21420286914E+02  0.53405097659E+02  0.51100000000E-03 0.  1.
         23    2    1    0    0    0  0.11794952850E+01 -0.15211874664E+02  0.24918385450E+02  0.95781542249E+02  0.91216147486E+02 0.  0.
         11    1    3    3    0    0 -0.41218842155E+02  0.91942054510E+01  0.34980985356E+01  0.42376444590E+02  0.51100000000E-03 0. -1.
         22    1    1    0    0    0 -0.11794952850E+01  0.15211874664E+02 -0.24918385450E+02  0.29218457751E+02  0.00000000000E+00 0. -1.
</event>
<event>
 5    1  0.1659417E-003  0.9118800E+02  0.7818608E-02  0.1130116E+00
         25   -1    0    0    0    0  0.00000000000E+00  0.00000000000E+00  0.99999998245E-14  0.12500000000E+03  0.12500000000E+03 0.  0.
        -11    1    3    3    0    0  0.38632303864E+00 -0.89695673717E+01  0.37498804820E+02  0.38558562570E+02  0.51100000000E-03 0. -1.
         23    2    1    0    0    0 -0.23866713929E+02  0.78189103271E+01 -0.12756740575E+02  0.96831048607E+02  0.92643198086E+02 0.  0.
         11    1    3    3    0    0 -0.24253036968E+02  0.16788477699E+02 -0.50255545395E+02  0.58272486036E+02  0.51100000000E-03 0.  1.
         22    1    1    0    0    0  0.23866713929E+02 -0.78189103271E+01  0.12756740575E+02  0.28168951393E+02  0.00000000000E+00 0.  1.
</event>
<event>
 5    1  0.1659417E-003  0.9118800E+02  0.7818608E-02  0.1130116E+00
         25   -1    0    0    0    0  0.00000000000E+00  0.00000000000E+00  0.99999998245E-14  0.12500000000E+03  0.12500000000E+03 0.  0.
        -11    1    3    3    0    0 -0.23560222525E+02 -0.33758147977E+01 -0.53838627699E+02  0.58864913520E+02  0.51100000000E-03 0.  1.
         23    2    1    0    0    0 -0.29469311938E+01 -0.14469426754E+02 -0.24447479174E+02  0.96439048475E+02  0.92112768489E+02 0.  0.
         11    1    3    3    0    0  0.20613291331E+02 -0.11093611956E+02  0.29391148524E+02  0.37574134955E+02  0.51100000000E-03 0. -1.
         22    1    1    0    0    0  0.29469311938E+01  0.14469426754E+02  0.24447479174E+02  0.28560951525E+02  0.00000000000E+00 0.  1.
</event>
<event>
 5    1  0.1659417E-003  0.9118800E+02  0.7818608E-02  0.1130116E+00
         25   -1    0    0    0    0  0.00000000000E+00  0.00000000000E+00  0.99999998245E-14  0.12500000000E+03  0.12500000000E+03 0.  0.
        -11    1    3    3    0    0  0.20506252034E+02  0.15831298110E+00  0.30713845149E+02  0.36930633891E+02  0.51100000000E-03 0.  1.
         23    2    1    0    0    0 -0.23503753605E+02 -0.84596098160E+01 -0.10560937217E+02  0.97879439042E+02  0.94047114578E+02 0.  0.
         11    1    3    3    0    0 -0.44010005640E+02 -0.86179227971E+01 -0.41274782366E+02  0.60948805151E+02  0.51100000000E-03 0. -1.
         22    1    1    0    0    0  0.23503753605E+02  0.84596098160E+01  0.10560937217E+02  0.27120560958E+02  0.00000000000E+00 0. -1.
</event>
<event>
 5    1  0.1659417E-003  0.9118800E+02  0.7818608E-02  0.1130116E+00
         25   -1    0    0    0    0  0.00000000000E+00  0.00000000000E+00  0.99999998245E-14  0.12500000000E+03  0.12500000000E+03 0.  0.
        -11    1    3    3    0    0 -0.65366211258E+01 -0.39097925729E+02 -0.29426046568E+02  0.49368688750E+02  0.51100000000E-03 0.  1.
         23    2    1    0    0    0 -0.27451413431E+02 -0.27693708460E+01 -0.91684019052E+01  0.95925799964E+02  0.91413620380E+02 0.  0.
         11    1    3    3    0    0 -0.20914792305E+02  0.36328554883E+02  0.20257644662E+02  0.46557111214E+02  0.51100000000E-03 0. -1.
         22    1    1    0    0    0  0.27451413431E+02  0.27693708460E+01  0.91684019052E+01  0.29074200036E+02  0.00000000000E+00 0.  1.
</event>
<event>
 5    1  0.1659417E-003  0.9118800E+02  0.7818608E-02  0.1130116E+00
         25   -1    0    0    0    0  0.00000000000E+00  0.00000000000E+00  0.99999998245E-14  0.12500000000E+03  0.12500000000E+03 0.  0.
        -11    1    3    3    0    0 -0.86728984423E+01  0.30409692949E+02 -0.18659167216E+02  0.36716932253E+02  0.51100000000E-03 0. -1.
         23    2    1    0    0    0  0.23313451320E+02 -0.88369785112E+01  0.13450885643E+02  0.96670942016E+02  0.92426919802E+02 0.  0.
         11    1    3    3    0    0  0.31986349762E+02 -0.39246671460E+02  0.32110052858E+02  0.59954009763E+02  0.51100000000E-03 0.  1.
         22    1    1    0    0    0 -0.23313451320E+02  0.88369785112E+01 -0.13450885643E+02  0.28329057984E+02  0.00000000000E+00 0.  1.
</event>
<event>
 5    1  0.1659417E-003  0.9118800E+02  0.7818608E-02  0.1130116E+00
         25   -1    0    0    0    0  0.00000000000E+00  0.00000000000E+00  0.99999998245E-14  0.12500000000E+03  0.12500000000E+03 0.  0.
        -11    1    3    3    0    0 -0.85258607645E+01 -0.10412731906E+02  0.56390541760E+02  0.57974205366E+02  0.51100000000E-03 0.  1.
         23    2    1    0    0    0 -0.52700926475E+01 -0.19945687037E+02  0.18140455086E+02  0.97528552666E+02  0.93579581996E+02 0.  0.
         11    1    3    3    0    0  0.32557681170E+01 -0.95329551307E+01 -0.38250086674E+02  0.39554347301E+02  0.51100000000E-03 0. -1.
         22    1    1    0    0    0  0.52700926475E+01  0.19945687037E+02 -0.18140455086E+02  0.27471447334E+02  0.00000000000E+00 0.  1.
</event>
<event>
 5    1  0.1659417E-003  0.9118800E+02  0.7818608E-02  0.1130116E+00
         25   -1    0    0    0    0  0.00000000000E+00  0.00000000000E+00  0.99999998245E-14  0.12500000000E+03  0.12500000000E+03 0.  0.
        -11    1    3    3    0    0  0.11245309384E+02 -0.33213811341E+02  0.39634503996E+02  0.52919827610E+02  0.51100000000E-03 0.  1.
         23    2    1    0    0    0 -0.12602745866E+02 -0.26805859472E+02  0.57846096550E+01  0.94819791017E+02  0.89888529603E+02 0.  0.
         11    1    3    3    0    0 -0.23848055251E+02  0.64079518693E+01 -0.33849894341E+02  0.41899963408E+02  0.51100000000E-03 0. -1.
         22    1    1    0    0    0  0.12602745866E+02  0.26805859472E+02 -0.57846096550E+01  0.30180208983E+02  0.00000000000E+00 0. -1.
</event>
<event>
 5    1  0.1659417E-003  0.9118800E+02  0.7818608E-02  0.1130116E+00
         25   -1    0    0    0    0  0.00000000000E+00  0.00000000000E+00  0.99999998245E-14  0.12500000000E+03  0.12500000000E+03 0.  0.
        -11    1    3    3    0    0 -0.11021502138E+02  0.12508326741E+02 -0.17930659502E+02  0.24483469886E+02  0.51100000000E-03 0. -1.
         23    2    1    0    0    0 -0.24114323032E+02 -0.27610173496E+02  0.21720854017E+02  0.82389933643E+02  0.70515838013E+02 0.  0.
         11    1    3    3    0    0 -0.13092820893E+02 -0.40118500237E+02  0.39651513519E+02  0.57906463757E+02  0.51100000000E-03 0.  1.
         22    1    1    0    0    0  0.24114323032E+02  0.27610173496E+02 -0.21720854017E+02  0.42610066357E+02  0.00000000000E+00 0.  1.
</event>
<event>
 5    1  0.1659417E-003  0.9118800E+02  0.7818608E-02  0.1130116E+00
         25   -1    0    0    0    0  0.00000000000E+00  0.00000000000E+00  0.99999998245E-14  0.12500000000E+03  0.12500000000E+03 0.  0.
        -11    1    3    3    0    0  0.99507797899E+01 -0.58130306098E+02  0.15012984517E+02  0.60856718691E+02  0.51100000000E-03 0. -1.
         23    2    1    0    0    0  0.15073706952E+02 -0.28031070346E+02  0.79512870429E+01  0.92194809684E+02  0.86160910052E+02 0.  0.
         11    1    3    3    0    0  0.51229271623E+01  0.30099235752E+02 -0.70616974745E+01  0.31338090993E+02  0.51100000000E-03 0.  1.
         22    1    1    0    0    0 -0.15073706952E+02  0.28031070346E+02 -0.79512870429E+01  0.32805190316E+02  0.00000000000E+00 0. -1.
</event>
<event>
 5    1  0.1659417E-003  0.9118800E+02  0.7818608E-02  0.1130116E+00
         25   -1    0    0    0    0  0.00000000000E+00  0.00000000000E+00  0.99999998245E-14  0.12500000000E+03  0.12500000000E+03 0.  0.
        -11    1    3    3    0    0 -0.98120862873E+01 -0.30226096421E+02 -0.30632517893E+02  0.44138929471E+02  0.51100000000E-03 0.  1.
         23    2    1    0    0    0  0.25250000557E+02 -0.15130463834E+02  0.35120868667E+01  0.95354963010E+02  0.90629690238E+02 0.  0.
         11    1    3    3    0    0  0.35062086844E+02  0.15095632587E+02  0.34144604760E+02  0.51216033539E+02  0.51100000000E-03 0. -1.
         22    1    1    0    0    0 -0.25250000557E+02  0.15130463834E+02 -0.35120868667E+01  0.29645036990E+02  0.00000000000E+00 0. -1.
</event>
<event>
 5    1  0.1659417E-003  0.9118800E+02  0.7818608E-02  0.1130116E+00
         25   -1    0    0    0    0  0.00000000000E+00  0.00000000000E+00  0.99999998245E-14  0.12500000000E+03  0.12500000000E+03 0.  0.
        -11    1    3    3    0    0 -0.70772930001E+01  0.43857369335E+02  0.36323703063E+00  0.44426218189E+02  0.51100000000E-03 0.  1.
         23    2    1    0    0    0  0.18031901551E+02  0.24986609974E+01 -0.20906180954E+02  0.97278867584E+02  0.93245465820E+02 0.  0.
         11    1    3    3    0    0  0.25109194551E+02 -0.41358708338E+02 -0.21269417985E+02  0.52852649395E+02  0.51100000000E-03 0. -1.
         22    1    1    0    0    0 -0.18031901551E+02 -0.24986609974E+01  0.20906180954E+02  0.27721132416E+02  0.00000000000E+00 0. -1.
</event>
<event>
 5    1  0.1659417E-003  0.9118800E+02  0.7818608E-02  0.1130116E+00
         25   -1    0    0    0    0  0.00000000000E+00  0.00000000000E+00  0.99999998245E-14  0.12500000000E+03  0.12500000000E+03 0.  0.
        -11    1    3    3    0    0  0.99471876427E+01  0.19960743770E+02  0.33816010985E+02  0.40508029242E+02  0.51100000000E-03 0. -1.
         23    2    1    0    0    0 -0.11336766834E+02 -0.24966147346E+02  0.85198501927E+01  0.96287308680E+02  0.91906622014E+02 0.  0.
         11    1    3    3    0    0 -0.21283954477E+02 -0.44926891116E+02 -0.25296160792E+02  0.55779279438E+02  0.51100000000E-03 0.  1.
         22    1    1    0    0    0  0.11336766834E+02  0.24966147346E+02 -0.85198501927E+01  0.28712691320E+02  0.00000000000E+00 0.  1.
</event>
<event>
 5    1  0.1659417E-003  0.9118800E+02  0.7818608E-02  0.1130116E+00
         25   -1    0    0    0    0  0.00000000000E+00  0.00000000000E+00  0.99999998245E-14  0.12500000000E+03  0.12500000000E+03 0.  0.
        -11    1    3    3    0    0  0.20289942718E+02 -0.48993239802E+01 -0.38293257580E+02  0.43612598264E+02  0.51100000000E-03 0. -1.
         23    2    1    0    0    0 -0.16169053448E+01  0.27763259242E+02 -0.20175817206E+01  0.97116607405E+02  0.93027694001E+02 0.  0.
         11    1    3    3    0    0 -0.21906848063E+02  0.32662583222E+02  0.36275675860E+02  0.53504009141E+02  0.51100000000E-03 0.  1.
         22    1    1    0    0    0  0.16169053448E+01 -0.27763259242E+02  0.20175817206E+01  0.27883392595E+02  0.00000000000E+00 0. -1.
</event>
<event>
 5    1  0.1659417E-003  0.9118800E+02  0.7818608E-02  0.1130116E+00
         25   -1    0    0    0    0  0.00000000000E+00  0.00000000000E+00  0.99999998245E-14  0.12500000000E+03  0.12500000000E+03 0.  0.
        -11    1    3    3    0    0 -0.59973182889E+01 -0.55947329820E+02  0.19212508106E+02  0.59457480679E+02  0.51100000000E-03 0.  1.
         23    2    1    0    0    0 -0.15647851015E+02 -0.23607680540E+02  0.43059468700E+01  0.96351806334E+02  0.91994301908E+02 0.  0.
         11    1    3    3    0    0 -0.96505327257E+01  0.32339649280E+02 -0.14906561236E+02  0.36894325655E+02  0.51100000000E-03 0. -1.
         22    1    1    0    0    0  0.15647851015E+02  0.23607680540E+02 -0.43059468700E+01  0.28648193666E+02  0.00000000000E+00 0.  1.
</event>
<event>
 5    1  0.1659417E-003  0.9118800E+02  0.7818608E-02  0.1130116E+00
         25   -1    0    0    0    0  0.00000000000E+00  0.00000000000E+00  0.99999998245E-14  0.12500000000E+03  0.12500000000E+03 0.  0.
        -11    1    3    3    0    0 -0.57738532818E+02 -0.28199054058E+01  0.10745153928E+02  0.58797520115E+02  0.51100000000E-03 0.  1.
         23    2    1    0    0    0 -0.37678259553E+02 -0.15143892319E+02  0.72182875658E+00  0.84385842934E+02  0.73969322921E+02 0.  0.
         11    1    3    3    0    0  0.20060273265E+02 -0.12323986913E+02 -0.10023325172E+02  0.25588322819E+02  0.51100000000E-03 0. -1.
         22    1    1    0    0    0  0.37678259553E+02  0.15143892319E+02 -0.72182875658E+00  0.40614157066E+02  0.00000000000E+00 0.  1.
</event>
<event>
 5    1  0.1659417E-003  0.9118800E+02  0.7818608E-02  0.1130116E+00
         25   -1    0    0    0    0  0.00000000000E+00  0.00000000000E+00  0.99999998245E-14  0.12500000000E+03  0.12500000000E+03 0.  0.
        -11    1    3    3    0    0  0.39950203199E+02  0.78127519852E+01 -0.52194713016E+01  0.41040232823E+02  0.51100000000E-03 0. -1.
         23    2    1    0    0    0  0.46727727271E+01 -0.29425946030E+02  0.82685070363E+01  0.94079306066E+02  0.88852836289E+02 0.  0.
         11    1    3    3    0    0 -0.35277430472E+02 -0.37238698015E+02  0.13487978338E+02  0.53039073243E+02  0.51100000000E-03 0.  1.
         22    1    1    0    0    0 -0.46727727271E+01  0.29425946030E+02 -0.82685070363E+01  0.30920693934E+02  0.00000000000E+00 0.  1.
</event>
<event>
 5    1  0.1659417E-003  0.9118800E+02  0.7818608E-02  0.1130116E+00
         25   -1    0    0    0    0  0.00000000000E+00  0.00000000000E+00  0.99999998245E-14  0.12500000000E+03  0.12500000000E+03 0.  0.
        -11    1    3    3    0    0  0.49655373115E+02 -0.21066142074E+02 -0.19117774028E+02  0.57226984064E+02  0.51100000000E-03 0.  1.
         23    2    1    0    0    0  0.15472264645E+02 -0.25838500352E+02 -0.12610388699E+02  0.92349717049E+02  0.86385353285E+02 0.  0.
         11    1    3    3    0    0 -0.34183108470E+02 -0.47723582775E+01  0.65073853284E+01  0.35122732984E+02  0.51100000000E-03 0. -1.
         22    1    1    0    0    0 -0.15472264645E+02  0.25838500352E+02  0.12610388699E+02  0.32650282951E+02  0.00000000000E+00 0.  1.
</event>
<event>
 5    1  0.1659417E-003  0.9118800E+02  0.7818608E-02  0.1130116E+00
         25   -1    0    0    0    0  0.00000000000E+00  0.00000000000E+00  0.99999998245E-14  0.12500000000E+03  0.12500000000E+03 0.  0.
        -11    1    3    3    0    0 -0.24521588729E+02  0.19792452109E+01  0.29112372771E+02  0.38115036062E+02  0.51100000000E-03 0.  1.
         23    2    1    0    0    0  0.18428251942E+02  0.19821995629E+02 -0.70541884169E+01  0.97030846373E+02  0.92912386652E+02 0.  0.
         11    1    3    3    0    0  0.42949840672E+02  0.17842750418E+02 -0.36166561188E+02  0.58915810311E+02  0.51100000000E-03 0. -1.
         22    1    1    0    0    0 -0.18428251942E+02 -0.19821995629E+02  0.70541884169E+01  0.27969153627E+02  0.00000000000E+00 0. -1.
</event>
<event>
 5    1  0.1659417E-003  0.9118800E+02  0.7818608E-02  0.1130116E+00
         25   -1    0    0    0    0  0.00000000000E+00  0.00000000000E+00  0.99999998245E-14  0.12500000000E+03  0.12500000000E+03 0.  0.
        -11    1    3    3    0    0 -0.18491326219E+02 -0.41349915323E+02  0.17994097786E+01  0.45331915009E+02  0.51100000000E-03 0. -1.
         23    2    1    0    0    0 -0.33906410364E+02 -0.12190387111E+00 -0.73919799229E+01  0.90296961350E+02  0.83362103725E+02 0.  0.
         11    1    3    3    0    0 -0.15415084145E+02  0.41228011452E+02 -0.91913897016E+01  0.44965046341E+02  0.51100000000E-03 0.  1.
         22    1    1    0    0    0  0.33906410364E+02  0.12190387111E+00  0.73919799229E+01  0.34703038650E+02  0.00000000000E+00 0.  1.
</event>
<event>
 5    1  0.1659417E-003  0.9118800E+02  0.7818608E-02  0.1130116E+00
         25   -1    0    0    0    0  0.00000000000E+00  0.00000000000E+00  0.99999998245E-14  0.12500000000E+03  0.12500000000E+03 0.  0.
        -11    1    3    3    0    0 -0.70831857796E+01 -0.44271482491E+01 -0.39122056078E+02  0.40003830247E+02  0.51100000000E-03 0. -1.
         23    2    1    0    0    0 -0.26248096884E+02  0.40472579821E+01  0.12448357589E+02  0.95669052285E+02  0.91061863979E+02 0.  0.
         11    1    3    3    0    0 -0.19164911104E+02  0.84744062313E+01  0.51570413666E+02  0.55665222038E+02  0.51100000000E-03 0.  1.
         22    1    1    0    0    0  0.26248096884E+02 -0.40472579821E+01 -0.12448357589E+02  0.29330947715E+02  0.00000000000E+00 0. -1.
</event>
<event>
 5    1  0.1659417E-003  0.9118800E+02  0.7818608E-02  0.1130116E+00
         25   -1    0    0    0    0  0.00000000000E+00  0.00000000000E+00  0.99999998245E-14  0.12500000000E+03  0.12500000000E+03 0.  0.
        -11    1    3    3    0    0 -0.26337525467E+02 -0.49341549052E+02  0.16211468022E+02  0.58232855041E+02  0.51100000000E-03 0. -1.
         23    2    1    0    0    0  0.35023567932E+01 -0.27546074825E+02  0.56701360032E+01  0.96659160498E+02  0.92410984869E+02 0.  0.
         11    1    3    3    0    0  0.29839882260E+02  0.21795474226E+02 -0.10541332019E+02  0.38426305457E+02  0.51100000000E-03 0.  1.
         22    1    1    0    0    0 -0.35023567932E+01  0.27546074825E+02 -0.56701360032E+01  0.28340839502E+02  0.00000000000E+00 0. -1.
</event>
<event>
 5    1  0.1659417E-003  0.9118800E+02  0.7818608E-02  0.1130116E+00
         25   -1    0    0    0    0  0.00000000000E+00  0.00000000000E+00  0.99999998245E-14  0.12500000000E+03  0.12500000000E+03 0.  0.
        -11    1    3    3    0    0 -0.28848349861E+02  0.45812697424E+02  0.29639218575E+01  0.54220064257E+02  0.51100000000E-03 0.  1.
         23    2    1    0    0    0 -0.16476326695E+02  0.87361126093E+01 -0.18431958608E+02  0.98779281036E+02  0.95235603946E+02 0.  0.
         11    1    3    3    0    0  0.12372023166E+02 -0.37076584815E+02 -0.21395880466E+02  0.44559216779E+02  0.51100000000E-03 0. -1.
         22    1    1    0    0    0  0.16476326695E+02 -0.87361126093E+01  0.18431958608E+02  0.26220718964E+02  0.00000000000E+00 0.  1.
</event>
<event>
 5    1  0.1659417E-003  0.9118800E+02  0.7818608E-02  0.1130116E+00
         25   -1    0    0    0    0  0.00000000000E+00  0.00000000000E+00  0.99999998245E-14  0.12500000000E+03  0.12500000000E+03 0.  0.
        -11    1    3    3    0    0  0.76679921958E+01 -0.22142065733E+01  0.37453181200E+02  0.38294145732E+02  0.51100000000E-03 0. -1.
         23    2    1    0    0    0 -0.30921548379E+02 -0.38013813928E+01 -0.23520552267E+01  0.93757003690E+02  0.88398251807E+02 0.  0.
         11    1    3    3    0    0 -0.38589540575E+02 -0.15871748195E+01 -0.39805236427E+02  0.55462857958E+02  0.51100000000E-03 0.  1.
         22    1    1    0    0    0  0.30921548379E+02  0.38013813928E+01  0.23520552267E+01  0.31242996310E+02  0.00000000000E+00 0.  1.
</event>
<event>
 5    1  0.1659417E-003  0.9118800E+02  0.7818608E-02  0.1130116E+00
         25   -1    0    0    0    0  0.00000000000E+00  0.00000000000E+00  0.99999998245E-14  0.12500000000E+03  0.12500000000E+03 0.  0.
        -11    1    3    3    0    0  0.28722419778E+02 -0.37169332965E+02  0.23775289425E+02  0.52647897380E+02  0.51100000000E-03 0. -1.
         23    2    1    0    0    0 -0.10260213802E+02 -0.18144618470E+02  0.19872606332E+02  0.96200353316E+02  0.91788279911E+02 0.  0.
         11    1    3    3    0    0 -0.38982633581E+02  0.19024714496E+02 -0.39026830930E+01  0.43552455937E+02  0.51100000000E-03 0.  1.
         22    1    1    0    0    0  0.10260213802E+02  0.18144618470E+02 -0.19872606332E+02  0.28799646684E+02  0.00000000000E+00 0.  1.
</event>
<event>
 5    1  0.1659417E-003  0.9118800E+02  0.7818608E-02  0.1130116E+00
         25   -1    0    0    0    0  0.00000000000E+00  0.00000000000E+00  0.99999998245E-14  0.12500000000E+03  0.12500000000E+03 0.  0.
        -11    1    3    3    0    0  0.20305832920E+02  0.26709559018E+02 -0.57421021392E+01  0.34039669957E+02  0.51100000000E-03 0.  1.
         23    2    1    0    0    0 -0.18084924404E+02 -0.14754577652E+02  0.18192446801E+02  0.95407312170E+02  0.90701863501E+02 0.  0.
         11    1    3    3    0    0 -0.38390757323E+02 -0.41464136670E+02  0.23934548941E+02  0.61367642214E+02  0.51100000000E-03 0. -1.
         22    1    1    0    0    0  0.18084924404E+02  0.14754577652E+02 -0.18192446801E+02  0.29592687830E+02  0.00000000000E+00 0. -1.
</event>
<event>
 5    1  0.1659417E-003  0.9118800E+02  0.7818608E-02  0.1130116E+00
         25   -1    0    0    0    0  0.00000000000E+00  0.00000000000E+00  0.99999998245E-14  0.12500000000E+03  0.12500000000E+03 0.  0.
        -11    1    3    3    0    0  0.15189737405E+02 -0.17901676723E+02  0.34189632292E+02  0.41474439218E+02  0.51100000000E-03 0. -1.
         23    2    1    0    0    0  0.27018880839E+02  0.78292794375E+00 -0.14046277446E+02  0.94538043266E+02  0.89495870388E+02 0.  0.
         11    1    3    3    0    0  0.11829143434E+02  0.18684604667E+02 -0.48235909739E+02  0.53063604048E+02  0.51100000000E-03 0.  1.
         22    1    1    0    0    0 -0.27018880839E+02 -0.78292794375E+00  0.14046277446E+02  0.30461956734E+02  0.00000000000E+00 0.  1.
</event>
<event>
 5    1  0.1659417E-003  0.9118800E+02  0.7818608E-02  0.1130116E+00
         25   -1    0    0    0    0  0.00000000000E+00  0.00000000000E+00  0.99999998245E-14  0.12500000000E+03  0.12500000000E+03 0.  0.
        -11    1    3    3    0    0  0.42065856144E+02  0.38713659743E+02  0.25009309269E+02  0.62399913895E+02  0.51100000000E-03 0. -1.
         23    2    1    0    0    0  0.18959630584E+02  0.20841897078E+02  0.12126043726E+02  0.94326017505E+02  0.89199239773E+02 0.  0.
         11    1    3    3    0    0 -0.23106225560E+02 -0.17871762665E+02 -0.12883265543E+02  0.31926103609E+02  0.51100000000E-03 0.  1.
         22    1    1    0    0    0 -0.18959630584E+02 -0.20841897078E+02 -0.12126043726E+02  0.30673982495E+02  0.00000000000E+00 0. -1.
</event>
<event>
 5    1  0.1659417E-003  0.9118800E+02  0.7818608E-02  0.1130116E+00
         25   -1    0    0    0    0  0.00000000000E+00  0.00000000000E+00  0.99999998245E-14  0.12500000000E+03  0.12500000000E+03 0.  0.
        -11    1    3    3    0    0 -0.84259992631E+01  0.18581762690E+02  0.47304296794E+02  0.51516753234E+02  0.51100000000E-03 0.  1.
         23    2    1    0    0    0  0.38356955879E+01  0.28006278488E+02  0.53502752055E+01  0.96230404241E+02  0.91829195032E+02 0.  0.
         11    1    3    3    0    0  0.12261694851E+02  0.94245157977E+01 -0.41954021589E+02  0.44713651007E+02  0.51100000000E-03 0. -1.
         22    1    1    0    0    0 -0.38356955879E+01 -0.28006278488E+02 -0.53502752055E+01  0.28769595759E+02  0.00000000000E+00 0.  1.
</event>
<event>
 5    1  0.1659417E-003  0.9118800E+02  0.7818608E-02  0.1130116E+00
         25   -1    0    0    0    0  0.00000000000E+00  0.00000000000E+00  0.99999998245E-14  0.12500000000E+03  0.12500000000E+03 0.  0.
        -11    1    3    3    0    0  0.15348114591E+02 -0.58618292478E+01 -0.26999796196E+02  0.31605611187E+02  0.51100000000E-03 0. -1.
         23    2    1    0    0    0 -0.34731595715E+02  0.89584468632E+01 -0.18900850321E+02  0.84456447443E+02  0.74088540684E+02 0.  0.
         11    1    3    3    0    0 -0.50079710306E+02  0.14820276111E+02  0.80989458747E+01  0.52850836256E+02  0.51100000000E-03 0.  1.
         22    1    1    0    0    0  0.34731595715E+02 -0.89584468632E+01  0.18900850321E+02  0.40543552557E+02  0.00000000000E+00 0.  1.
</event>
<event>
 5    1  0.1659417E-003  0.9118800E+02  0.7818608E-02  0.1130116E+00
         25   -1    0    0    0    0  0.00000000000E+00  0.00000000000E+00  0.99999998245E-14  0.12500000000E+03  0.12500000000E+03 0.  0.
        -11    1    3    3    0    0 -0.20663951005E+02 -0.22195482077E+02 -0.29137889435E+02  0.42055378928E+02  0.51100000000E-03 0. -1.
         23    2    1    0    0    0 -0.75234605690E+01  0.26036042055E+02 -0.15088289781E+02  0.93981708085E+02  0.88715427188E+02 0.  0.
         11    1    3    3    0    0  0.13140490436E+02  0.48231524132E+02  0.14049599654E+02  0.51926329157E+02  0.51100000000E-03 0.  1.
         22    1    1    0    0    0  0.75234605690E+01 -0.26036042055E+02  0.15088289781E+02  0.31018291915E+02  0.00000000000E+00 0.  1.
</event>
<event>
 5    1  0.1659417E-003  0.9118800E+02  0.7818608E-02  0.1130116E+00
         25   -1    0    0    0    0  0.00000000000E+00  0.00000000000E+00  0.99999998245E-14  0.12500000000E+03  0.12500000000E+03 0.  0.
        -11    1    3    3    0    0  0.53732360283E+02  0.28678176961E+02 -0.93781398040E+01  0.61624296197E+02  0.51100000000E-03 0.  1.
         23    2    1    0    0    0  0.27030402320E+02  0.66430808101E+01 -0.68400246687E+01  0.96337147565E+02  0.91974381712E+02 0.  0.
         11    1    3    3    0    0 -0.26701957963E+02 -0.22035096150E+02  0.25381151353E+01  0.34712851368E+02  0.51100000000E-03 0. -1.
         22    1    1    0    0    0 -0.27030402320E+02 -0.66430808101E+01  0.68400246687E+01  0.28662852435E+02  0.00000000000E+00 0.  1.
</event>
<event>
 5    1  0.1659417E-003  0.9118800E+02  0.7818608E-02  0.1130116E+00
         25   -1    0    0    0    0  0.00000000000E+00  0.00000000000E+00  0.99999998245E-14  0.12500000000E+03  0.12500000000E+03 0.  0.
        -11    1    3    3    0    0 -0.27015565135E+01  0.48745852770E+02  0.16410680958E+02  0.51505019364E+02  0.51100000000E-03 0. -1.
         23    2    1    0    0    0 -0.23357177976E+02  0.15392076633E+02 -0.55748540585E+01  0.96477153301E+02  0.92164463461E+02 0.  0.
         11    1    3    3    0    0 -0.20655621462E+02 -0.33353776137E+02 -0.21985535017E+02  0.44972133937E+02  0.51100000000E-03 0.  1.
         22    1    1    0    0    0  0.23357177976E+02 -0.15392076633E+02  0.55748540585E+01  0.28522846699E+02  0.00000000000E+00 0. -1.
</event>
<event>
 5    1  0.1659417E-003  0.9118800E+02  0.7818608E-02  0.1130116E+00
         25   -1    0    0    0    0  0.00000000000E+00  0.00000000000E+00  0.99999998245E-14  0.12500000000E+03  0.12500000000E+03 0.  0.
        -11    1    3    3    0    0 -0.24417149590E+02 -0.41574195916E+02  0.20072882149E+02  0.52225774845E+02  0.51100000000E-03 0. -1.
         23    2    1    0    0    0 -0.10904053810E+02 -0.22084051469E+02 -0.16168666783E+02  0.95537659558E+02  0.90881323106E+02 0.  0.
         11    1    3    3    0    0  0.13513095780E+02  0.19490144447E+02 -0.36241548932E+02  0.43311884713E+02  0.51100000000E-03 0.  1.
         22    1    1    0    0    0  0.10904053810E+02  0.22084051469E+02  0.16168666783E+02  0.29462340442E+02  0.00000000000E+00 0. -1.
</event>
<event>
 5    1  0.1659417E-003  0.9118800E+02  0.7818608E-02  0.1130116E+00
         25   -1    0    0    0    0  0.00000000000E+00  0.00000000000E+00  0.99999998245E-14  0.12500000000E+03  0.12500000000E+03 0.  0.
        -11    1    3    3    0    0  0.57655620469E+02  0.80198553940E+00  0.23701184806E+02  0.62342280307E+02  0.51100000000E-03 0.  1.
         23    2    1    0    0    0  0.25773080549E+02  0.68296116079E-01  0.13966078247E+02  0.95686049619E+02  0.91085193115E+02 0.  0.
         11    1    3    3    0    0 -0.31882539920E+02 -0.73368942332E+00 -0.97351065592E+01  0.33343769312E+02  0.51100000000E-03 0. -1.
         22    1    1    0    0    0 -0.25773080549E+02 -0.68296116079E-01 -0.13966078247E+02  0.29313950381E+02  0.00000000000E+00 0.  1.
</event>
<event>
 5    1  0.1659417E-003  0.9118800E+02  0.7818608E-02  0.1130116E+00
         25   -1    0    0    0    0  0.00000000000E+00  0.00000000000E+00  0.99999998245E-14  0.12500000000E+03  0.12500000000E+03 0.  0.
        -11    1    3    3    0    0 -0.81832660786E+01  0.30252925048E+02  0.96049429276E+01  0.32778960425E+02  0.51100000000E-03 0.  1.
         23    2    1    0    0    0 -0.48197135324E+01 -0.24739150635E+02 -0.17633891406E+02  0.94239484094E+02  0.89077893013E+02 0.  0.
         11    1    3    3    0    0  0.33635525462E+01 -0.54992075682E+02 -0.27238834334E+02  0.61460523669E+02  0.51100000000E-03 0. -1.
         22    1    1    0    0    0  0.48197135324E+01  0.24739150635E+02  0.17633891406E+02  0.30760515906E+02  0.00000000000E+00 0. -1.
</event>
<event>
 5    1  0.1659417E-003  0.9118800E+02  0.7818608E-02  0.1130116E+00
         25   -1    0    0    0    0  0.00000000000E+00  0.00000000000E+00  0.99999998245E-14  0.12500000000E+03  0.12500000000E+03 0.  0.
        -11    1    3    3    0    0  0.38090749420E+02 -0.61863240725E+01 -0.60513004727E+01  0.39061413627E+02  0.51100000000E-03 0. -1.
         23    2    1    0    0    0 -0.60534705495E+01 -0.20342720759E+02  0.22946974954E+02  0.93742449662E+02  0.88377669213E+02 0.  0.
         11    1    3    3    0    0 -0.44144219969E+02 -0.14156396687E+02  0.28998275427E+02  0.54681036035E+02  0.51100000000E-03 0.  1.
         22    1    1    0    0    0  0.60534705495E+01  0.20342720759E+02 -0.22946974954E+02  0.31257550338E+02  0.00000000000E+00 0.  1.
</event>
<event>
 5    1  0.1659417E-003  0.9118800E+02  0.7818608E-02  0.1130116E+00
         25   -1    0    0    0    0  0.00000000000E+00  0.00000000000E+00  0.99999998245E-14  0.12500000000E+03  0.12500000000E+03 0.  0.
        -11    1    3    3    0    0  0.55375675959E+02  0.94875875024E+01 -0.14061518404E+02  0.57915508325E+02  0.51100000000E-03 0.  1.
         23    2    1    0    0    0  0.22069896503E+02  0.14502359723E+02  0.70507939887E+01  0.97666641899E+02  0.93763854841E+02 0.  0.
         11    1    3    3    0    0 -0.33305779455E+02  0.50147722209E+01  0.21112312392E+02  0.39751133574E+02  0.51100000000E-03 0. -1.
         22    1    1    0    0    0 -0.22069896503E+02 -0.14502359723E+02 -0.70507939887E+01  0.27333358101E+02  0.00000000000E+00 0.  1.
</event>
<event>
 5    1  0.1659417E-003  0.9118800E+02  0.7818608E-02  0.1130116E+00
         25   -1    0    0    0    0  0.00000000000E+00  0.00000000000E+00  0.99999998245E-14  0.12500000000E+03  0.12500000000E+03 0.  0.
        -11    1    3    3    0    0  0.15233600072E+02  0.30047656602E+02  0.18014371916E+02  0.38202641718E+02  0.51100000000E-03 0.  1.
         23    2    1    0    0    0 -0.26736100835E+02 -0.83552872543E+01  0.53783376701E+01  0.96477089401E+02  0.92164376796E+02 0.  0.
         11    1    3    3    0    0 -0.41969700907E+02 -0.38402943857E+02 -0.12636034246E+02  0.58274447683E+02  0.51100000000E-03 0. -1.
         22    1    1    0    0    0  0.26736100835E+02  0.83552872543E+01 -0.53783376701E+01  0.28522910599E+02  0.00000000000E+00 0. -1.
</event>
<event>
 5    1  0.1659417E-003  0.9118800E+02  0.7818608E-02  0.1130116E+00
         25   -1    0    0    0    0  0.00000000000E+00  0.00000000000E+00  0.99999998245E-14  0.12500000000E+03  0.12500000000E+03 0.  0.
        -11    1    3    3    0    0  0.83781918897E+01 -0.59281754268E+02 -0.13917703294E+02  0.61467251067E+02  0.51100000000E-03 0.  1.
         23    2    1    0    0    0 -0.32534177168E+01 -0.28915334861E+02 -0.30988509381E+01  0.95737665950E+02  0.91156000830E+02 0.  0.
         11    1    3    3    0    0 -0.11631609607E+02  0.30366419408E+02  0.10818852356E+02  0.34270414883E+02  0.51100000000E-03 0. -1.
         22    1    1    0    0    0  0.32534177168E+01  0.28915334861E+02  0.30988509381E+01  0.29262334050E+02  0.00000000000E+00 0.  1.
</event>
<event>
 5    1  0.1659417E-003  0.9118800E+02  0.7818608E-02  0.1130116E+00
         25   -1    0    0    0    0  0.00000000000E+00  0.00000000000E+00  0.99999998245E-14  0.12500000000E+03  0.12500000000E+03 0.  0.
        -11    1    3    3    0    0 -0.37494166831E+02  0.12340055571E+02 -0.35939473978E+02  0.53382912134E+02  0.51100000000E-03 0.  1.
         23    2    1    0    0    0 -0.12962241003E+02 -0.17784280159E+02 -0.19605859130E+02  0.95526452117E+02  0.90865906859E+02 0.  0.
         11    1    3    3    0    0  0.24531925828E+02 -0.30124335730E+02  0.16333614848E+02  0.42143539983E+02  0.51100000000E-03 0. -1.
         22    1    1    0    0    0  0.12962241003E+02  0.17784280159E+02  0.19605859130E+02  0.29473547883E+02  0.00000000000E+00 0.  1.
</event>
<event>
 5    1  0.1659417E-003  0.9118800E+02  0.7818608E-02  0.1130116E+00
         25   -1    0    0    0    0  0.00000000000E+00  0.00000000000E+00  0.99999998245E-14  0.12500000000E+03  0.12500000000E+03 0.  0.
        -11    1    3    3    0    0  0.30958072143E+02 -0.79537094683E+01  0.15503633508E+02  0.35525010589E+02  0.51100000000E-03 0.  1.
         23    2    1    0    0    0 -0.11576666557E+02  0.23964290924E+02 -0.12466698385E+02  0.95610801020E+02  0.90981867726E+02 0.  0.
         11    1    3    3    0    0 -0.42534738699E+02  0.31918000393E+02 -0.27970331893E+02  0.60085790431E+02  0.51100000000E-03 0. -1.
         22    1    1    0    0    0  0.11576666557E+02 -0.23964290924E+02  0.12466698385E+02  0.29389198980E+02  0.00000000000E+00 0. -1.
</event>
<event>
 5    1  0.1659417E-003  0.9118800E+02  0.7818608E-02  0.1130116E+00
         25   -1    0    0    0    0  0.00000000000E+00  0.00000000000E+00  0.99999998245E-14  0.12500000000E+03  0.12500000000E+03 0.  0.
        -11    1    3    3    0    0  0.28136141745E+02  0.56477869966E+01  0.23621896828E+02  0.37168992188E+02  0.51100000000E-03 0.  1.
         23    2    1    0    0    0 -0.21512797982E+02  0.21811998068E+02  0.28041872032E+00  0.94362729048E+02  0.89250670933E+02 0.  0.
         11    1    3    3    0    0 -0.49648939727E+02  0.16164211071E+02 -0.23341478107E+02  0.57193736860E+02  0.51100000000E-03 0. -1.
         22    1    1    0    0    0  0.21512797982E+02 -0.21811998068E+02 -0.28041872032E+00  0.30637270952E+02  0.00000000000E+00 0. -1.
</event>
<event>
 5    1  0.1659417E-003  0.9118800E+02  0.7818608E-02  0.1130116E+00
         25   -1    0    0    0    0  0.00000000000E+00  0.00000000000E+00  0.99999998245E-14  0.12500000000E+03  0.12500000000E+03 0.  0.
        -11    1    3    3    0    0 -0.54160519791E+01  0.95076220348E+01 -0.33768161969E+02  0.35496721804E+02  0.51100000000E-03 0. -1.
         23    2    1    0    0    0 -0.98520919345E+01 -0.14539046858E+02  0.22270312615E+02  0.96637799398E+02  0.92382086193E+02 0.  0.
         11    1    3    3    0    0 -0.44360399554E+01 -0.24046668893E+02  0.56038474584E+02  0.61141077594E+02  0.51100000000E-03 0.  1.
         22    1    1    0    0    0  0.98520919345E+01  0.14539046858E+02 -0.22270312615E+02  0.28362200602E+02  0.00000000000E+00 0.  1.
</event>
<event>
 5    1  0.1659417E-003  0.9118800E+02  0.7818608E-02  0.1130116E+00
         25   -1    0    0    0    0  0.00000000000E+00  0.00000000000E+00  0.99999998245E-14  0.12500000000E+03  0.12500000000E+03 0.  0.
        -11    1    3    3    0    0 -0.49569830743E+02  0.24268923386E+01  0.75401468924E+01  0.50198722511E+02  0.51100000000E-03 0.  1.
         23    2    1    0    0    0 -0.99139282659E+01  0.23458034664E+02  0.14610255313E+02  0.95639739029E+02  0.91021616978E+02 0.  0.
         11    1    3    3    0    0  0.39655902477E+02  0.21031142326E+02  0.70701084207E+01  0.45441016518E+02  0.51100000000E-03 0. -1.
         22    1    1    0    0    0  0.99139282659E+01 -0.23458034664E+02 -0.14610255313E+02  0.29360260971E+02  0.00000000000E+00 0.  1.
</event>
<event>
 5    1  0.1659417E-003  0.9118800E+02  0.7818608E-02  0.1130116E+00
         25   -1    0    0    0    0  0.00000000000E+00  0.00000000000E+00  0.99999998245E-14  0.12500000000E+03  0.12500000000E+03 0.  0.
        -11    1    3    3    0    0 -0.26099816272E+01 -0.29904216741E+02 -0.13687027159E+02  0.32991042659E+02  0.51100000000E-03 0. -1.
         23    2    1    0    0    0  0.17949427797E+02  0.23594223323E+02  0.80388631626E+01  0.94283674481E+02  0.89139882321E+02 0.  0.
         11    1    3    3    0    0  0.20559409424E+02  0.53498440064E+02  0.21725890321E+02  0.61292631822E+02  0.51100000000E-03 0.  1.
         22    1    1    0    0    0 -0.17949427797E+02 -0.23594223323E+02 -0.80388631626E+01  0.30716325519E+02  0.00000000000E+00 0.  1.
</event>
<event>
 5    1  0.1659417E-003  0.9118800E+02  0.7818608E-02  0.1130116E+00
         25   -1    0    0    0    0  0.00000000000E+00  0.00000000000E+00  0.99999998245E-14  0.12500000000E+03  0.12500000000E+03 0.  0.
        -11    1    3    3    0    0  0.41559651400E+02 -0.22553111832E+02  0.72655201289E+01  0.47839682909E+02  0.51100000000E-03 0. -1.
         23    2    1    0    0    0 -0.18358674316E+01 -0.29411957886E+02 -0.81912419598E+01  0.94413563124E+02  0.89321838209E+02 0.  0.
         11    1    3    3    0    0 -0.43395518831E+02 -0.68588460537E+01 -0.15456762089E+02  0.46573880216E+02  0.51100000000E-03 0.  1.
         22    1    1    0    0    0  0.18358674316E+01  0.29411957886E+02  0.81912419598E+01  0.30586436876E+02  0.00000000000E+00 0. -1.
</event>
<event>
 5    1  0.1659417E-003  0.9118800E+02  0.7818608E-02  0.1130116E+00
         25   -1    0    0    0    0  0.00000000000E+00  0.00000000000E+00  0.99999998245E-14  0.12500000000E+03  0.12500000000E+03 0.  0.
        -11    1    3    3    0    0  0.25893996995E+02 -0.19489570042E+02  0.15575983924E+02  0.35957665334E+02  0.51100000000E-03 0. -1.
         23    2    1    0    0    0 -0.92047437968E+01  0.27433445101E+02  0.28312470451E+01  0.95925317228E+02  0.91412960279E+02 0.  0.
         11    1    3    3    0    0 -0.35098740792E+02  0.46923015143E+02 -0.12744736878E+02  0.59967651894E+02  0.51100000000E-03 0.  1.
         22    1    1    0    0    0  0.92047437968E+01 -0.27433445101E+02 -0.28312470451E+01  0.29074682772E+02  0.00000000000E+00 0.  1.
</event>
<event>
 5    1  0.1659417E-003  0.9118800E+02  0.7818608E-02  0.1130116E+00
         25   -1    0    0    0    0  0.00000000000E+00  0.00000000000E+00  0.99999998245E-14  0.12500000000E+03  0.12500000000E+03 0.  0.
        -11    1    3    3    0    0  0.18037625424E+01  0.19863546662E+02 -0.56906123984E+02  0.60300256985E+02  0.51100000000E-03 0.  1.
         23    2    1    0    0    0  0.54274994931E+01 -0.12659489898E+01 -0.28888705804E+02  0.95578618309E+02  0.90937641146E+02 0.  0.
         11    1    3    3    0    0  0.36237369507E+01 -0.21129495651E+02  0.28017418180E+02  0.35278361324E+02  0.51100000000E-03 0. -1.
         22    1    1    0    0    0 -0.54274994931E+01  0.12659489898E+01  0.28888705804E+02  0.29421381691E+02  0.00000000000E+00 0.  1.
</event>
<event>
 5    1  0.1659417E-003  0.9118800E+02  0.7818608E-02  0.1130116E+00
         25   -1    0    0    0    0  0.00000000000E+00  0.00000000000E+00  0.99999998245E-14  0.12500000000E+03  0.12500000000E+03 0.  0.
        -11    1    3    3    0    0 -0.49897244844E+02 -0.25186478473E+02  0.10025174913E+02  0.56785542818E+02  0.51100000000E-03 0. -1.
         23    2    1    0    0    0 -0.13347392353E+02 -0.15180171770E+02  0.20611107650E+02  0.96131188869E+02  0.91694041340E+02 0.  0.
         11    1    3    3    0    0  0.36549852491E+02  0.10006306702E+02  0.10585932737E+02  0.39345646050E+02  0.51100000000E-03 0.  1.
         22    1    1    0    0    0  0.13347392353E+02  0.15180171770E+02 -0.20611107650E+02  0.28868811131E+02  0.00000000000E+00 0. -1.
</event>
<event>
 5    1  0.1659417E-003  0.9118800E+02  0.7818608E-02  0.1130116E+00
         25   -1    0    0    0    0  0.00000000000E+00  0.00000000000E+00  0.99999998245E-14  0.12500000000E+03  0.12500000000E+03 0.  0.
        -11    1    3    3    0    0  0.36841109764E+02  0.12065997313E+01  0.10727402559E+02  0.38390108328E+02  0.51100000000E-03 0. -1.
         23    2    1    0    0    0 -0.21155106407E+02 -0.52491908659E+00  0.18451222873E+02  0.96924001484E+02  0.92768531146E+02 0.  0.
         11    1    3    3    0    0 -0.57996216171E+02 -0.17315188179E+01  0.77238203143E+01  0.58533893156E+02  0.51100000000E-03 0.  1.
         22    1    1    0    0    0  0.21155106407E+02  0.52491908659E+00 -0.18451222873E+02  0.28075998516E+02  0.00000000000E+00 0.  1.
</event>
<event>
 5    1  0.1659417E-003  0.9118800E+02  0.7818608E-02  0.1130116E+00
         25   -1    0    0    0    0  0.00000000000E+00  0.00000000000E+00  0.99999998245E-14  0.12500000000E+03  0.12500000000E+03 0.  0.
        -11    1    3    3    0    0  0.37259567914E+02  0.23034865610E+02  0.70674245499E-01  0.43805084522E+02  0.51100000000E-03 0. -1.
         23    2    1    0    0    0  0.20654381192E+02 -0.23768967551E+02 -0.12683962776E+01  0.93485303270E+02  0.88013213880E+02 0.  0.
         11    1    3    3    0    0 -0.16605186723E+02 -0.46803833162E+02 -0.13390705231E+01  0.49680218748E+02  0.51100000000E-03 0.  1.
         22    1    1    0    0    0 -0.20654381192E+02  0.23768967551E+02  0.12683962776E+01  0.31514696730E+02  0.00000000000E+00 0. -1.
</event>
<event>
 5    1  0.1659417E-003  0.9118800E+02  0.7818608E-02  0.1130116E+00
         25   -1    0    0    0    0  0.00000000000E+00  0.00000000000E+00  0.99999998245E-14  0.12500000000E+03  0.12500000000E+03 0.  0.
        -11    1    3    3    0    0  0.82715460333E+01  0.19936598956E+02 -0.34215877543E+02  0.40455070486E+02  0.51100000000E-03 0. -1.
         23    2    1    0    0    0 -0.29968445174E+02  0.10674626047E+00 -0.71791477658E+00  0.95022766930E+02  0.90170348411E+02 0.  0.
         11    1    3    3    0    0 -0.38239991207E+02 -0.19829852696E+02  0.33497962767E+02  0.54567696444E+02  0.51100000000E-03 0.  1.
         22    1    1    0    0    0  0.29968445174E+02 -0.10674626047E+00  0.71791477658E+00  0.29977233070E+02  0.00000000000E+00 0.  1.
</event>
<event>
 5    1  0.1659417E-003  0.9118800E+02  0.7818608E-02  0.1130116E+00
         25   -1    0    0    0    0  0.00000000000E+00  0.00000000000E+00  0.99999998245E-14  0.12500000000E+03  0.12500000000E+03 0.  0.
        -11    1    3    3    0    0 -0.37416310495E+02 -0.44147620037E+02 -0.57482603825E+01  0.58155267548E+02  0.51100000000E-03 0.  1.
         23    2    1    0    0    0 -0.74285470337E+01 -0.33390668290E+02  0.12363641737E+01  0.90770646570E+02  0.84069385882E+02 0.  0.
         11    1    3    3    0    0  0.29987763461E+02  0.10756951747E+02  0.69846245562E+01  0.32615379022E+02  0.51100000000E-03 0. -1.
         22    1    1    0    0    0  0.74285470337E+01  0.33390668290E+02 -0.12363641737E+01  0.34229353430E+02  0.00000000000E+00 0.  1.
</event>
<event>
 5    1  0.1659417E-003  0.9118800E+02  0.7818608E-02  0.1130116E+00
         25   -1    0    0    0    0  0.00000000000E+00  0.00000000000E+00  0.99999998245E-14  0.12500000000E+03  0.12500000000E+03 0.  0.
        -11    1    3    3    0    0 -0.45658696025E+02 -0.81782157454E+01  0.57190061831E+01  0.46736567776E+02  0.51100000000E-03 0. -1.
         23    2    1    0    0    0 -0.15636567479E+01 -0.28524085568E+02  0.79407596840E+01  0.95349972271E+02  0.90622806555E+02 0.  0.
         11    1    3    3    0    0  0.44095039278E+02 -0.20345869823E+02  0.22217535009E+01  0.48613404495E+02  0.51100000000E-03 0.  1.
         22    1    1    0    0    0  0.15636567479E+01  0.28524085568E+02 -0.79407596840E+01  0.29650027729E+02  0.00000000000E+00 0. -1.
</event>
<event>
 5    1  0.1659417E-003  0.9118800E+02  0.7818608E-02  0.1130116E+00
         25   -1    0    0    0    0  0.00000000000E+00  0.00000000000E+00  0.99999998245E-14  0.12500000000E+03  0.12500000000E+03 0.  0.
        -11    1    3    3    0    0 -0.31800707371E+02 -0.80795590173E+00  0.15595749115E+02  0.35428310329E+02  0.51100000000E-03 0. -1.
         23    2    1    0    0    0  0.27972647945E+02 -0.33459037404E+01  0.21625651687E+01  0.96745074889E+02  0.92527124252E+02 0.  0.
         11    1    3    3    0    0  0.59773355316E+02 -0.25379478387E+01 -0.13433183947E+02  0.61316764560E+02  0.51100000000E-03 0.  1.
         22    1    1    0    0    0 -0.27972647945E+02  0.33459037404E+01 -0.21625651687E+01  0.28254925111E+02  0.00000000000E+00 0.  1.
</event>
<event>
 5    1  0.1659417E-003  0.9118800E+02  0.7818608E-02  0.1130116E+00
         25   -1    0    0    0    0  0.00000000000E+00  0.00000000000E+00  0.99999998245E-14  0.12500000000E+03  0.12500000000E+03 0.  0.
        -11    1    3    3    0    0  0.16346646499E+02 -0.44528442167E+02  0.83643805897E+01  0.48165941042E+02  0.51100000000E-03 0. -1.
         23    2    1    0    0    0 -0.38635085589E+01 -0.40644400223E+01  0.27248699619E+02  0.97180258771E+02  0.93113182165E+02 0.  0.
         11    1    3    3    0    0 -0.20210155058E+02  0.40464002144E+02  0.18884319030E+02  0.49014317729E+02  0.51100000000E-03 0.  1.
         22    1    1    0    0    0  0.38635085589E+01  0.40644400223E+01 -0.27248699619E+02  0.27819741229E+02  0.00000000000E+00 0. -1.
</event>
<event>
 5    1  0.1659417E-003  0.9118800E+02  0.7818608E-02  0.1130116E+00
         25   -1    0    0    0    0  0.00000000000E+00  0.00000000000E+00  0.99999998245E-14  0.12500000000E+03  0.12500000000E+03 0.  0.
        -11    1    3    3    0    0  0.37957598705E+02 -0.14907980765E+02  0.29915668938E+02  0.50576421762E+02  0.51100000000E-03 0.  1.
         23    2    1    0    0    0  0.59672876713E+00 -0.28218438546E+02  0.92528380769E+01  0.95297283430E+02  0.90550101366E+02 0.  0.
         11    1    3    3    0    0 -0.37360869938E+02 -0.13310457781E+02 -0.20662830861E+02  0.44720861668E+02  0.51100000000E-03 0. -1.
         22    1    1    0    0    0 -0.59672876713E+00  0.28218438546E+02 -0.92528380769E+01  0.29702716570E+02  0.00000000000E+00 0.  1.
</event>
<event>
 5    1  0.1659417E-003  0.9118800E+02  0.7818608E-02  0.1130116E+00
         25   -1    0    0    0    0  0.00000000000E+00  0.00000000000E+00  0.99999998245E-14  0.12500000000E+03  0.12500000000E+03 0.  0.
        -11    1    3    3    0    0  0.10937132793E+02  0.56184007721E+02 -0.13248648249E+02  0.58751938504E+02  0.51100000000E-03 0.  1.
         23    2    1    0    0    0  0.67973112721E+01  0.20593671612E+02 -0.20328971706E+02  0.95275097281E+02  0.90519469289E+02 0.  0.
         11    1    3    3    0    0 -0.41398215213E+01 -0.35590336108E+02 -0.70803234569E+01  0.36523158777E+02  0.51100000000E-03 0. -1.
         22    1    1    0    0    0 -0.67973112721E+01 -0.20593671612E+02  0.20328971706E+02  0.29724902719E+02  0.00000000000E+00 0.  1.
</event>
<event>
 5    1  0.1659417E-003  0.9118800E+02  0.7818608E-02  0.1130116E+00
         25   -1    0    0    0    0  0.00000000000E+00  0.00000000000E+00  0.99999998245E-14  0.12500000000E+03  0.12500000000E+03 0.  0.
        -11    1    3    3    0    0 -0.35157054278E+01  0.30830436036E+02 -0.15265649278E+02  0.34582018723E+02  0.51100000000E-03 0. -1.
         23    2    1    0    0    0  0.16102927001E+01 -0.28489433151E+02  0.14606692152E+01  0.96427733755E+02  0.92097412769E+02 0.  0.
         11    1    3    3    0    0  0.51259981279E+01 -0.59319869187E+02  0.16726318493E+02  0.61845715032E+02  0.51100000000E-03 0.  1.
         22    1    1    0    0    0 -0.16102927001E+01  0.28489433151E+02 -0.14606692152E+01  0.28572266245E+02  0.00000000000E+00 0.  1.
</event>
<event>
 5    1  0.1659417E-003  0.9118800E+02  0.7818608E-02  0.1130116E+00
         25   -1    0    0    0    0  0.00000000000E+00  0.00000000000E+00  0.99999998245E-14  0.12500000000E+03  0.12500000000E+03 0.  0.
        -11    1    3    3    0    0  0.55808020577E+02 -0.77861645900E+00 -0.27030223113E+02  0.62014307753E+02  0.51100000000E-03 0.  1.
         23    2    1    0    0    0  0.17614951484E+02  0.88690890136E+00 -0.14256722677E+02  0.10232121554E+03  0.99776269145E+02 0.  0.
         11    1    3    3    0    0 -0.38193069093E+02  0.16655253604E+01  0.12773500435E+02  0.40306907784E+02  0.51100000000E-03 0. -1.
         22    1    1    0    0    0 -0.17614951484E+02 -0.88690890136E+00  0.14256722677E+02  0.22678784462E+02  0.00000000000E+00 0.  1.
</event>
<event>
 5    1  0.1659417E-003  0.9118800E+02  0.7818608E-02  0.1130116E+00
         25   -1    0    0    0    0  0.00000000000E+00  0.00000000000E+00  0.99999998245E-14  0.12500000000E+03  0.12500000000E+03 0.  0.
        -11    1    3    3    0    0  0.20479347293E+02  0.55997551513E+02  0.73626375479E+00  0.59629451831E+02  0.51100000000E-03 0.  1.
         23    2    1    0    0    0  0.17267020335E+02  0.31934586069E+02 -0.11636236872E+02  0.86876912675E+02  0.78065537651E+02 0.  0.
         11    1    3    3    0    0 -0.32123269588E+01 -0.24062965444E+02 -0.12372500626E+02  0.27247460844E+02  0.51100000000E-03 0. -1.
         22    1    1    0    0    0 -0.17267020335E+02 -0.31934586069E+02  0.11636236872E+02  0.38123087325E+02  0.00000000000E+00 0.  1.
</event>
<event>
 5    1  0.1659417E-003  0.9118800E+02  0.7818608E-02  0.1130116E+00
         25   -1    0    0    0    0  0.00000000000E+00  0.00000000000E+00  0.99999998245E-14  0.12500000000E+03  0.12500000000E+03 0.  0.
        -11    1    3    3    0    0  0.37474160221E+02  0.99275517042E+01 -0.11870066114E+02  0.40543401891E+02  0.51100000000E-03 0.  1.
         23    2    1    0    0    0 -0.55866752276E+01  0.15780074911E+02  0.23203626267E+02  0.96388289526E+02  0.92043861183E+02 0.  0.
         11    1    3    3    0    0 -0.43060835449E+02  0.58525232068E+01  0.35073692381E+02  0.55844887635E+02  0.51100000000E-03 0. -1.
         22    1    1    0    0    0  0.55866752276E+01 -0.15780074911E+02 -0.23203626267E+02  0.28611710474E+02  0.00000000000E+00 0. -1.
</event>
<event>
 5    1  0.1659417E-003  0.9118800E+02  0.7818608E-02  0.1130116E+00
         25   -1    0    0    0    0  0.00000000000E+00  0.00000000000E+00  0.99999998245E-14  0.12500000000E+03  0.12500000000E+03 0.  0.
        -11    1    3    3    0    0 -0.17158988047E+02 -0.20796904055E+02  0.25587063368E+02  0.37170417016E+02  0.51100000000E-03 0. -1.
         23    2    1    0    0    0 -0.10143083741E+02  0.27508317696E+02 -0.56773353119E+01  0.95136613948E+02  0.90328032675E+02 0.  0.
         11    1    3    3    0    0  0.70159043057E+01  0.48305221752E+02 -0.31264398680E+02  0.57966196932E+02  0.51100000000E-03 0.  1.
         22    1    1    0    0    0  0.10143083741E+02 -0.27508317696E+02  0.56773353119E+01  0.29863386052E+02  0.00000000000E+00 0.  1.
</event>
<event>
 5    1  0.1659417E-003  0.9118800E+02  0.7818608E-02  0.1130116E+00
         25   -1    0    0    0    0  0.00000000000E+00  0.00000000000E+00  0.99999998245E-14  0.12500000000E+03  0.12500000000E+03 0.  0.
        -11    1    3    3    0    0  0.15613051328E+02  0.37407275949E+02  0.28886487680E+01  0.40637617519E+02  0.51100000000E-03 0. -1.
         23    2    1    0    0    0 -0.81839610360E+01 -0.49426636313E+01  0.28064429752E+02  0.95351739355E+02  0.90625243937E+02 0.  0.
         11    1    3    3    0    0 -0.23797012364E+02 -0.42349939580E+02  0.25175780984E+02  0.54714121836E+02  0.51100000000E-03 0.  1.
         22    1    1    0    0    0  0.81839610360E+01  0.49426636313E+01 -0.28064429752E+02  0.29648260645E+02  0.00000000000E+00 0.  1.
</event>
<event>
 5    1  0.1659417E-003  0.9118800E+02  0.7818608E-02  0.1130116E+00
         25   -1    0    0    0    0  0.00000000000E+00  0.00000000000E+00  0.99999998245E-14  0.12500000000E+03  0.12500000000E+03 0.  0.
        -11    1    3    3    0    0  0.50336859413E+02 -0.16475777300E+02  0.27447656746E+02  0.59654207851E+02  0.51100000000E-03 0. -1.
         23    2    1    0    0    0  0.16271279028E+02 -0.82687603924E+01  0.23977942585E+02  0.94865822556E+02  0.89952518803E+02 0.  0.
         11    1    3    3    0    0 -0.34065580385E+02  0.82070169079E+01 -0.34697141611E+01  0.35211614705E+02  0.51100000000E-03 0.  1.
         22    1    1    0    0    0 -0.16271279028E+02  0.82687603924E+01 -0.23977942585E+02  0.30134177444E+02  0.00000000000E+00 0. -1.
</event>
<event>
 5    1  0.1659417E-003  0.9118800E+02  0.7818608E-02  0.1130116E+00
         25   -1    0    0    0    0  0.00000000000E+00  0.00000000000E+00  0.99999998245E-14  0.12500000000E+03  0.12500000000E+03 0.  0.
        -11    1    3    3    0    0  0.52419167782E+02  0.22257988703E+02 -0.11020399034E+02  0.58005486009E+02  0.51100000000E-03 0. -1.
         23    2    1    0    0    0  0.20214819759E+02  0.37545722187E+01 -0.20106470529E+02  0.96242289598E+02  0.91845372227E+02 0.  0.
         11    1    3    3    0    0 -0.32204348023E+02 -0.18503416484E+02 -0.90860714951E+01  0.38236803589E+02  0.51100000000E-03 0.  1.
         22    1    1    0    0    0 -0.20214819759E+02 -0.37545722187E+01  0.20106470529E+02  0.28757710402E+02  0.00000000000E+00 0. -1.
</event>
<event>
 5    1  0.1659417E-003  0.9118800E+02  0.7818608E-02  0.1130116E+00
         25   -1    0    0    0    0  0.00000000000E+00  0.00000000000E+00  0.99999998245E-14  0.12500000000E+03  0.12500000000E+03 0.  0.
        -11    1    3    3    0    0 -0.51026967145E+01  0.35662396213E+02  0.45412901456E+02  0.57967021973E+02  0.51100000000E-03 0.  1.
         23    2    1    0    0    0 -0.66235524080E+00  0.68861471449E+01  0.35662012245E+02  0.88673193722E+02  0.80890657252E+02 0.  0.
         11    1    3    3    0    0  0.44403414737E+01 -0.28776249069E+02 -0.97508892111E+01  0.30706171750E+02  0.51100000000E-03 0. -1.
         22    1    1    0    0    0  0.66235524080E+00 -0.68861471449E+01 -0.35662012245E+02  0.36326806278E+02  0.00000000000E+00 0.  1.
</event>
<event>
 5    1  0.1659417E-003  0.9118800E+02  0.7818608E-02  0.1130116E+00
         25   -1    0    0    0    0  0.00000000000E+00  0.00000000000E+00  0.99999998245E-14  0.12500000000E+03  0.12500000000E+03 0.  0.
        -11    1    3    3    0    0 -0.29187995666E+02 -0.46964881787E+02  0.28017171358E+02  0.61988717550E+02  0.51100000000E-03 0.  1.
         23    2    1    0    0    0 -0.16145287336E+02 -0.17893499423E+02  0.16142517037E+02  0.95992613336E+02  0.91504936118E+02 0.  0.
         11    1    3    3    0    0  0.13042708330E+02  0.29071382364E+02 -0.11874654321E+02  0.34003895786E+02  0.51100000000E-03 0. -1.
         22    1    1    0    0    0  0.16145287336E+02  0.17893499423E+02 -0.16142517037E+02  0.29007386664E+02  0.00000000000E+00 0.  1.
</event>
<event>
 5    1  0.1659417E-003  0.9118800E+02  0.7818608E-02  0.1130116E+00
         25   -1    0    0    0    0  0.00000000000E+00  0.00000000000E+00  0.99999998245E-14  0.12500000000E+03  0.12500000000E+03 0.  0.
        -11    1    3    3    0    0  0.26998972460E+02 -0.26131774966E+01 -0.53186042944E+02  0.59703671368E+02  0.51100000000E-03 0.  1.
         23    2    1    0    0    0  0.55176240797E+00  0.32531490826E+01 -0.28359813309E+02  0.96448880379E+02  0.92126109734E+02 0.  0.
         11    1    3    3    0    0 -0.26447210052E+02  0.58663265792E+01  0.24826229636E+02  0.36745209011E+02  0.51100000000E-03 0. -1.
         22    1    1    0    0    0 -0.55176240797E+00 -0.32531490826E+01  0.28359813309E+02  0.28551119621E+02  0.00000000000E+00 0.  1.
</event>
<event>
 5    1  0.1659417E-003  0.9118800E+02  0.7818608E-02  0.1130116E+00
         25   -1    0    0    0    0  0.00000000000E+00  0.00000000000E+00  0.99999998245E-14  0.12500000000E+03  0.12500000000E+03 0.  0.
        -11    1    3    3    0    0 -0.28678248253E+02  0.51753022286E+02  0.48211693124E+01  0.59363801364E+02  0.51100000000E-03 0.  1.
         23    2    1    0    0    0 -0.22737466513E+02  0.23971833291E+02 -0.87104355481E+01  0.90831112658E+02  0.84159242894E+02 0.  0.
         11    1    3    3    0    0  0.59407817401E+01 -0.27781188995E+02 -0.13531604860E+02  0.31467311293E+02  0.51100000000E-03 0. -1.
         22    1    1    0    0    0  0.22737466513E+02 -0.23971833291E+02  0.87104355481E+01  0.34168887342E+02  0.00000000000E+00 0. -1.
</event>
<event>
 5    1  0.1659417E-003  0.9118800E+02  0.7818608E-02  0.1130116E+00
         25   -1    0    0    0    0  0.00000000000E+00  0.00000000000E+00  0.99999998245E-14  0.12500000000E+03  0.12500000000E+03 0.  0.
        -11    1    3    3    0    0 -0.19286547586E+02  0.16745834534E+02 -0.30697362680E+02  0.39933970098E+02  0.51100000000E-03 0.  1.
         23    2    1    0    0    0  0.27787371655E+02  0.46427831341E+01 -0.11736681251E+01  0.96802997400E+02  0.92605341909E+02 0.  0.
         11    1    3    3    0    0  0.47073919241E+02 -0.12103051400E+02  0.29523694555E+02  0.56869027302E+02  0.51100000000E-03 0. -1.
         22    1    1    0    0    0 -0.27787371655E+02 -0.46427831341E+01  0.11736681251E+01  0.28197002600E+02  0.00000000000E+00 0. -1.
</event>
<event>
 5    1  0.1659417E-003  0.9118800E+02  0.7818608E-02  0.1130116E+00
         25   -1    0    0    0    0  0.00000000000E+00  0.00000000000E+00  0.99999998245E-14  0.12500000000E+03  0.12500000000E+03 0.  0.
        -11    1    3    3    0    0  0.37569327742E+02  0.47273739781E+02 -0.15771265443E+02  0.62409884424E+02  0.51100000000E-03 0. -1.
         23    2    1    0    0    0  0.15316459255E+02  0.22663795067E+02 -0.82256049377E+01  0.96435999798E+02  0.92108631243E+02 0.  0.
         11    1    3    3    0    0 -0.22252868487E+02 -0.24609944714E+02  0.75456605058E+01  0.34026115374E+02  0.51100000000E-03 0.  1.
         22    1    1    0    0    0 -0.15316459255E+02 -0.22663795067E+02  0.82256049377E+01  0.28564000202E+02  0.00000000000E+00 0. -1.
</event>
<event>
 5    1  0.1659417E-003  0.9118800E+02  0.7818608E-02  0.1130116E+00
         25   -1    0    0    0    0  0.00000000000E+00  0.00000000000E+00  0.99999998245E-14  0.12500000000E+03  0.12500000000E+03 0.  0.
        -11    1    3    3    0    0 -0.20324912136E+02  0.38871514843E+02  0.18419324262E+02  0.47574869690E+02  0.51100000000E-03 0. -1.
         23    2    1    0    0    0 -0.11306708114E+02  0.11581411127E+02 -0.22318005469E+02  0.97430739941E+02  0.93448836190E+02 0.  0.
         11    1    3    3    0    0  0.90182040226E+01 -0.27290103716E+02 -0.40737329731E+02  0.49855870251E+02  0.51100000000E-03 0.  1.
         22    1    1    0    0    0  0.11306708114E+02 -0.11581411127E+02  0.22318005469E+02  0.27569260059E+02  0.00000000000E+00 0. -1.
</event>
<event>
 5    1  0.1659417E-003  0.9118800E+02  0.7818608E-02  0.1130116E+00
         25   -1    0    0    0    0  0.00000000000E+00  0.00000000000E+00  0.99999998245E-14  0.12500000000E+03  0.12500000000E+03 0.  0.
        -11    1    3    3    0    0  0.40222492625E+02  0.89901832642E+01 -0.61930212442E+01  0.41677641734E+02  0.51100000000E-03 0.  1.
         23    2    1    0    0    0  0.69675349503E+01 -0.29720053747E+02  0.53728228804E+01  0.94004913878E+02  0.88748118118E+02 0.  0.
         11    1    3    3    0    0 -0.33254957675E+02 -0.38710237011E+02  0.11565844125E+02  0.52327272144E+02  0.51100000000E-03 0. -1.
         22    1    1    0    0    0 -0.69675349503E+01  0.29720053747E+02 -0.53728228804E+01  0.30995086122E+02  0.00000000000E+00 0. -1.
</event>
<event>
 5    1  0.1659417E-003  0.9118800E+02  0.7818608E-02  0.1130116E+00
         25   -1    0    0    0    0  0.00000000000E+00  0.00000000000E+00  0.99999998245E-14  0.12500000000E+03  0.12500000000E+03 0.  0.
        -11    1    3    3    0    0  0.33991981940E+02 -0.37815605742E+01  0.77521367459E+01  0.35069226695E+02  0.51100000000E-03 0.  1.
         23    2    1    0    0    0 -0.17170570092E+02  0.24643324018E+02 -0.37948951381E+01  0.94725867063E+02  0.89757822867E+02 0.  0.
         11    1    3    3    0    0 -0.51162552032E+02  0.28424884592E+02 -0.11547031884E+02  0.59656640369E+02  0.51100000000E-03 0. -1.
         22    1    1    0    0    0  0.17170570092E+02 -0.24643324018E+02  0.37948951381E+01  0.30274132937E+02  0.00000000000E+00 0. -1.
</event>
<event>
 5    1  0.1659417E-003  0.9118800E+02  0.7818608E-02  0.1130116E+00
         25   -1    0    0    0    0  0.00000000000E+00  0.00000000000E+00  0.99999998245E-14  0.12500000000E+03  0.12500000000E+03 0.  0.
        -11    1    3    3    0    0  0.24015252760E+02 -0.29062284551E+02 -0.34457125132E+02  0.51074868781E+02  0.51100000000E-03 0. -1.
         23    2    1    0    0    0  0.88451357175E+01  0.11272750889E+02 -0.26467633729E+02  0.94902708200E+02  0.90003761311E+02 0.  0.
         11    1    3    3    0    0 -0.15170117042E+02  0.40335035440E+02  0.79894914026E+01  0.43827839419E+02  0.51100000000E-03 0.  1.
         22    1    1    0    0    0 -0.88451357175E+01 -0.11272750889E+02  0.26467633729E+02  0.30097291800E+02  0.00000000000E+00 0.  1.
</event>
<event>
 5    1  0.1659417E-003  0.9118800E+02  0.7818608E-02  0.1130116E+00
         25   -1    0    0    0    0  0.00000000000E+00  0.00000000000E+00  0.99999998245E-14  0.12500000000E+03  0.12500000000E+03 0.  0.
        -11    1    3    3    0    0  0.44612485093E+02 -0.42768164733E+02 -0.53738625527E+01  0.62034410933E+02  0.51100000000E-03 0.  1.
         23    2    1    0    0    0  0.20018632824E+02 -0.22030417821E+02 -0.75890975215E+01  0.94280635248E+02  0.89135620333E+02 0.  0.
         11    1    3    3    0    0 -0.24593852269E+02  0.20737746912E+02 -0.22152349688E+01  0.32246224316E+02  0.51100000000E-03 0. -1.
         22    1    1    0    0    0 -0.20018632824E+02  0.22030417821E+02  0.75890975215E+01  0.30719364752E+02  0.00000000000E+00 0.  1.
</event>
<event>
 5    1  0.1659417E-003  0.9118800E+02  0.7818608E-02  0.1130116E+00
         25   -1    0    0    0    0  0.00000000000E+00  0.00000000000E+00  0.99999998245E-14  0.12500000000E+03  0.12500000000E+03 0.  0.
        -11    1    3    3    0    0  0.34504736658E+02 -0.48397526703E+02  0.21015173426E+01  0.59475321085E+02  0.51100000000E-03 0.  1.
         23    2    1    0    0    0  0.28093838411E+02 -0.15895093206E+02 -0.61723605959E+00  0.92715348460E+02  0.86912813297E+02 0.  0.
         11    1    3    3    0    0 -0.64108982471E+01  0.32502433497E+02 -0.27187534022E+01  0.33240027375E+02  0.51100000000E-03 0. -1.
         22    1    1    0    0    0 -0.28093838411E+02  0.15895093206E+02  0.61723605959E+00  0.32284651540E+02  0.00000000000E+00 0.  1.
</event>
<event>
 5    1  0.1659417E-003  0.9118800E+02  0.7818608E-02  0.1130116E+00
         25   -1    0    0    0    0  0.00000000000E+00  0.00000000000E+00  0.99999998245E-14  0.12500000000E+03  0.12500000000E+03 0.  0.
        -11    1    3    3    0    0 -0.29221690938E+02  0.28503711881E+02 -0.34776976579E+02  0.53626550444E+02  0.51100000000E-03 0. -1.
         23    2    1    0    0    0  0.77062978337E+01  0.12371712270E+02 -0.26485768098E+02  0.94768522984E+02  0.89817207405E+02 0.  0.
         11    1    3    3    0    0  0.36927988772E+02 -0.16131999611E+02  0.82912084806E+01  0.41141972540E+02  0.51100000000E-03 0.  1.
         22    1    1    0    0    0 -0.77062978337E+01 -0.12371712270E+02  0.26485768098E+02  0.30231477016E+02  0.00000000000E+00 0. -1.
</event>
<event>
 5    1  0.1659417E-003  0.9118800E+02  0.7818608E-02  0.1130116E+00
         25   -1    0    0    0    0  0.00000000000E+00  0.00000000000E+00  0.99999998245E-14  0.12500000000E+03  0.12500000000E+03 0.  0.
        -11    1    3    3    0    0 -0.74828833914E+00 -0.48696652194E+02  0.15645048667E+02  0.51153606113E+02  0.51100000000E-03 0.  1.
         23    2    1    0    0    0  0.24259379527E+02 -0.12752202794E+02  0.11962608780E+02  0.95096151085E+02  0.90272020976E+02 0.  0.
         11    1    3    3    0    0  0.25007667866E+02  0.35944449400E+02 -0.36824398865E+01  0.43942544972E+02  0.51100000000E-03 0. -1.
         22    1    1    0    0    0 -0.24259379527E+02  0.12752202794E+02 -0.11962608780E+02  0.29903848915E+02  0.00000000000E+00 0. -1.
</event>
<event>
 5    1  0.1659417E-003  0.9118800E+02  0.7818608E-02  0.1130116E+00
         25   -1    0    0    0    0  0.00000000000E+00  0.00000000000E+00  0.99999998245E-14  0.12500000000E+03  0.12500000000E+03 0.  0.
        -11    1    3    3    0    0 -0.73033239605E+01  0.28348518138E+02 -0.39765672897E+02  0.49379001232E+02  0.51100000000E-03 0. -1.
         23    2    1    0    0    0  0.24666848162E+02  0.64391796852E+01 -0.14052595226E+02  0.95890004022E+02  0.91364659500E+02 0.  0.
         11    1    3    3    0    0  0.31970172122E+02 -0.21909338453E+02  0.25713077670E+02  0.46511002790E+02  0.51100000000E-03 0.  1.
         22    1    1    0    0    0 -0.24666848162E+02 -0.64391796852E+01  0.14052595226E+02  0.29109995978E+02  0.00000000000E+00 0.  1.
</event>
<event>
 5    1  0.1659417E-003  0.9118800E+02  0.7818608E-02  0.1130116E+00
         25   -1    0    0    0    0  0.00000000000E+00  0.00000000000E+00  0.99999998245E-14  0.12500000000E+03  0.12500000000E+03 0.  0.
        -11    1    3    3    0    0  0.19703426236E+02 -0.29164678817E+02 -0.18397569177E+02  0.39714909641E+02  0.51100000000E-03 0. -1.
         23    2    1    0    0    0 -0.20329422790E+02  0.12096156505E+02 -0.14316018956E+02  0.97349487673E+02  0.93340087413E+02 0.  0.
         11    1    3    3    0    0 -0.40032849026E+02  0.41260835322E+02  0.40815502202E+01  0.57634578033E+02  0.51100000000E-03 0.  1.
         22    1    1    0    0    0  0.20329422790E+02 -0.12096156505E+02  0.14316018956E+02  0.27650512327E+02  0.00000000000E+00 0. -1.
</event>
<event>
 5    1  0.1659417E-003  0.9118800E+02  0.7818608E-02  0.1130116E+00
         25   -1    0    0    0    0  0.00000000000E+00  0.00000000000E+00  0.99999998245E-14  0.12500000000E+03  0.12500000000E+03 0.  0.
        -11    1    3    3    0    0 -0.13664944444E+02  0.43281001299E+02 -0.26601170861E+02  0.52607965856E+02  0.51100000000E-03 0.  1.
         23    2    1    0    0    0 -0.20844121666E+02 -0.63386227923E+00 -0.16916941020E+02  0.98147400817E+02  0.94402596385E+02 0.  0.
         11    1    3    3    0    0 -0.71791772214E+01 -0.43914863578E+02  0.96842298408E+01  0.45539434961E+02  0.51100000000E-03 0. -1.
         22    1    1    0    0    0  0.20844121666E+02  0.63386227923E+00  0.16916941020E+02  0.26852599183E+02  0.00000000000E+00 0. -1.
</event>
<event>
 5    1  0.1659417E-003  0.9118800E+02  0.7818608E-02  0.1130116E+00
         25   -1    0    0    0    0  0.00000000000E+00  0.00000000000E+00  0.99999998245E-14  0.12500000000E+03  0.12500000000E+03 0.  0.
        -11    1    3    3    0    0 -0.36427012413E+02 -0.47493816875E+02 -0.72390016648E+01  0.60290903294E+02  0.51100000000E-03 0.  1.
         23    2    1    0    0    0 -0.23801406420E+02 -0.14761268884E+02 -0.94444509612E+01  0.95443280619E+02  0.90751419574E+02 0.  0.
         11    1    3    3    0    0  0.12625605993E+02  0.32732547991E+02 -0.22054492964E+01  0.35152377324E+02  0.51100000000E-03 0. -1.
         22    1    1    0    0    0  0.23801406420E+02  0.14761268884E+02  0.94444509612E+01  0.29556719381E+02  0.00000000000E+00 0.  1.
</event>
<event>
 5    1  0.1659417E-003  0.9118800E+02  0.7818608E-02  0.1130116E+00
         25   -1    0    0    0    0  0.00000000000E+00  0.00000000000E+00  0.99999998245E-14  0.12500000000E+03  0.12500000000E+03 0.  0.
        -11    1    3    3    0    0  0.19879922334E+02  0.22418108473E+02 -0.15468671963E+02  0.33720360498E+02  0.51100000000E-03 0.  1.
         23    2    1    0    0    0 -0.98996494915E+01 -0.23460042352E+02  0.14096388516E+02  0.95895278452E+02  0.91371875394E+02 0.  0.
         11    1    3    3    0    0 -0.29779571826E+02 -0.45878150825E+02  0.29565060479E+02  0.62174917954E+02  0.51100000000E-03 0. -1.
         22    1    1    0    0    0  0.98996494915E+01  0.23460042352E+02 -0.14096388516E+02  0.29104721548E+02  0.00000000000E+00 0. -1.
</event>
<event>
 5    1  0.1659417E-003  0.9118800E+02  0.7818608E-02  0.1130116E+00
         25   -1    0    0    0    0  0.00000000000E+00  0.00000000000E+00  0.99999998245E-14  0.12500000000E+03  0.12500000000E+03 0.  0.
        -11    1    3    3    0    0  0.60646606800E+02  0.10644596200E+02  0.10319711453E+02  0.62432481845E+02  0.51100000000E-03 0.  1.
         23    2    1    0    0    0  0.45941055522E+02  0.91450928117E+01  0.64231311240E+01  0.77719243677E+02  0.61683149395E+02 0.  0.
         11    1    3    3    0    0 -0.14705551278E+02 -0.14995033888E+01 -0.38965803287E+01  0.15286761832E+02  0.51100000000E-03 0. -1.
         22    1    1    0    0    0 -0.45941055522E+02 -0.91450928117E+01 -0.64231311240E+01  0.47280756323E+02  0.00000000000E+00 0.  1.
</event>
<event>
 5    1  0.1659417E-003  0.9118800E+02  0.7818608E-02  0.1130116E+00
         25   -1    0    0    0    0  0.00000000000E+00  0.00000000000E+00  0.99999998245E-14  0.12500000000E+03  0.12500000000E+03 0.  0.
        -11    1    3    3    0    0  0.19242996688E+01  0.48689824519E+02 -0.13398560542E+02  0.50536356871E+02  0.51100000000E-03 0. -1.
         23    2    1    0    0    0 -0.10783116120E+02  0.63673213743E+01 -0.25704864919E+02  0.96407020875E+02  0.92069295743E+02 0.  0.
         11    1    3    3    0    0 -0.12707415789E+02 -0.42322503145E+02 -0.12306304378E+02  0.45870664004E+02  0.51100000000E-03 0.  1.
         22    1    1    0    0    0  0.10783116120E+02 -0.63673213743E+01  0.25704864919E+02  0.28592979125E+02  0.00000000000E+00 0.  1.
</event>
<event>
 5    1  0.1659417E-003  0.9118800E+02  0.7818608E-02  0.1130116E+00
         25   -1    0    0    0    0  0.00000000000E+00  0.00000000000E+00  0.99999998245E-14  0.12500000000E+03  0.12500000000E+03 0.  0.
        -11    1    3    3    0    0  0.31586363746E+02  0.88669000360E+01  0.17142253009E+02  0.37015903737E+02  0.51100000000E-03 0. -1.
         23    2    1    0    0    0 -0.78143756160E+01 -0.12427650974E+02 -0.23366300030E+02  0.97404802010E+02  0.93414134383E+02 0.  0.
         11    1    3    3    0    0 -0.39400739362E+02 -0.21294551010E+02 -0.40508553040E+02  0.60388898273E+02  0.51100000000E-03 0.  1.
         22    1    1    0    0    0  0.78143756160E+01  0.12427650974E+02  0.23366300030E+02  0.27595197990E+02  0.00000000000E+00 0.  1.
</event>
<event>
 5    1  0.1659417E-003  0.9118800E+02  0.7818608E-02  0.1130116E+00
         25   -1    0    0    0    0  0.00000000000E+00  0.00000000000E+00  0.99999998245E-14  0.12500000000E+03  0.12500000000E+03 0.  0.
        -11    1    3    3    0    0  0.44720700100E+02  0.26099361090E+01  0.40771096488E+02  0.60572560562E+02  0.51100000000E-03 0.  1.
         23    2    1    0    0    0  0.25928734549E+02 -0.21018688110E+01  0.96047124464E+01  0.97269734422E+02  0.93233221577E+02 0.  0.
         11    1    3    3    0    0 -0.18791965551E+02 -0.47118049200E+01 -0.31166384041E+02  0.36697173861E+02  0.51100000000E-03 0. -1.
         22    1    1    0    0    0 -0.25928734549E+02  0.21018688110E+01 -0.96047124464E+01  0.27730265578E+02  0.00000000000E+00 0.  1.
</event>
<event>
 5    1  0.1659417E-003  0.9118800E+02  0.7818608E-02  0.1130116E+00
         25   -1    0    0    0    0  0.00000000000E+00  0.00000000000E+00  0.99999998245E-14  0.12500000000E+03  0.12500000000E+03 0.  0.
        -11    1    3    3    0    0 -0.36988267918E+02 -0.23493120199E+02  0.44433774270E+02  0.62405279875E+02  0.51100000000E-03 0.  1.
         23    2    1    0    0    0 -0.15305526771E+02 -0.12544332399E+02  0.19348561108E+02  0.97323543543E+02  0.93305336856E+02 0.  0.
         11    1    3    3    0    0  0.21682741147E+02  0.10948787800E+02 -0.25085213161E+02  0.34918263667E+02  0.51100000000E-03 0. -1.
         22    1    1    0    0    0  0.15305526771E+02  0.12544332399E+02 -0.19348561108E+02  0.27676456457E+02  0.00000000000E+00 0.  1.
</event>
<event>
 5    1  0.1659417E-003  0.9118800E+02  0.7818608E-02  0.1130116E+00
         25   -1    0    0    0    0  0.00000000000E+00  0.00000000000E+00  0.99999998245E-14  0.12500000000E+03  0.12500000000E+03 0.  0.
        -11    1    3    3    0    0 -0.18074884263E+02 -0.14469529511E+02  0.30225493634E+02  0.38074258904E+02  0.51100000000E-03 0. -1.
         23    2    1    0    0    0  0.26970659279E+02 -0.98445588290E+01 -0.55174173629E+01  0.95763486959E+02  0.91191401676E+02 0.  0.
         11    1    3    3    0    0  0.45045543541E+02  0.46249706822E+01 -0.35742910997E+02  0.57689228055E+02  0.51100000000E-03 0.  1.
         22    1    1    0    0    0 -0.26970659279E+02  0.98445588290E+01  0.55174173629E+01  0.29236513041E+02  0.00000000000E+00 0.  1.
</event>
<event>
 5    1  0.1659417E-003  0.9118800E+02  0.7818608E-02  0.1130116E+00
         25   -1    0    0    0    0  0.00000000000E+00  0.00000000000E+00  0.99999998245E-14  0.12500000000E+03  0.12500000000E+03 0.  0.
        -11    1    3    3    0    0 -0.20596486185E+02  0.52209658171E+02 -0.14681939436E+02  0.58013989653E+02  0.51100000000E-03 0.  1.
         23    2    1    0    0    0 -0.10301426240E+02  0.27243511169E+02  0.96018717790E+01  0.94332032590E+02  0.89207668659E+02 0.  0.
         11    1    3    3    0    0  0.10295059945E+02 -0.24966147003E+02  0.24283811215E+02  0.36318042938E+02  0.51100000000E-03 0. -1.
         22    1    1    0    0    0  0.10301426240E+02 -0.27243511169E+02 -0.96018717790E+01  0.30667967410E+02  0.00000000000E+00 0.  1.
</event>
<event>
 5    1  0.1659417E-003  0.9118800E+02  0.7818608E-02  0.1130116E+00
         25   -1    0    0    0    0  0.00000000000E+00  0.00000000000E+00  0.99999998245E-14  0.12500000000E+03  0.12500000000E+03 0.  0.
        -11    1    3    3    0    0  0.28664230097E+02 -0.71973489682E+01  0.23899823739E+02  0.38008439776E+02  0.51100000000E-03 0. -1.
         23    2    1    0    0    0 -0.60482259189E+00  0.29457022108E+02 -0.76767158024E+01  0.94553096588E+02  0.89516893082E+02 0.  0.
         11    1    3    3    0    0 -0.29269052689E+02  0.36654371076E+02 -0.31576539541E+02  0.56544656812E+02  0.51100000000E-03 0.  1.
         22    1    1    0    0    0  0.60482259189E+00 -0.29457022108E+02  0.76767158024E+01  0.30446903412E+02  0.00000000000E+00 0.  1.
</event>
<event>
 5    1  0.1659417E-003  0.9118800E+02  0.7818608E-02  0.1130116E+00
         25   -1    0    0    0    0  0.00000000000E+00  0.00000000000E+00  0.99999998245E-14  0.12500000000E+03  0.12500000000E+03 0.  0.
        -11    1    3    3    0    0 -0.60801863702E+01 -0.35382019880E+02  0.41509811562E+02  0.54880966220E+02  0.51100000000E-03 0.  1.
         23    2    1    0    0    0 -0.53624215506E+01 -0.28621622852E+02  0.10990032546E+01  0.95859638511E+02  0.91323105661E+02 0.  0.
         11    1    3    3    0    0  0.71776481958E+00  0.67603970277E+01 -0.40410808308E+02  0.40978672290E+02  0.51100000000E-03 0. -1.
         22    1    1    0    0    0  0.53624215506E+01  0.28621622852E+02 -0.10990032546E+01  0.29140361489E+02  0.00000000000E+00 0.  1.
</event>
<event>
 5    1  0.1659417E-003  0.9118800E+02  0.7818608E-02  0.1130116E+00
         25   -1    0    0    0    0  0.00000000000E+00  0.00000000000E+00  0.99999998245E-14  0.12500000000E+03  0.12500000000E+03 0.  0.
        -11    1    3    3    0    0 -0.36260809340E+02 -0.46690695197E+02  0.18861994606E+02  0.62053542628E+02  0.51100000000E-03 0. -1.
         23    2    1    0    0    0 -0.17970816533E+02 -0.19633532574E+02  0.13520513181E+02  0.95146522399E+02  0.90341743396E+02 0.  0.
         11    1    3    3    0    0  0.18289992806E+02  0.27057162623E+02 -0.53414814257E+01  0.33092979771E+02  0.51100000000E-03 0.  1.
         22    1    1    0    0    0  0.17970816533E+02  0.19633532574E+02 -0.13520513181E+02  0.29853477601E+02  0.00000000000E+00 0. -1.
</event>
<event>
 5    1  0.1659417E-003  0.9118800E+02  0.7818608E-02  0.1130116E+00
         25   -1    0    0    0    0  0.00000000000E+00  0.00000000000E+00  0.99999998245E-14  0.12500000000E+03  0.12500000000E+03 0.  0.
        -11    1    3    3    0    0 -0.46033987933E+02 -0.23378391304E+02  0.25633422706E+02  0.57643296097E+02  0.51100000000E-03 0. -1.
         23    2    1    0    0    0 -0.12417460352E+02 -0.74770603994E+01  0.26448657044E+02  0.94839906943E+02  0.89916498685E+02 0.  0.
         11    1    3    3    0    0  0.33616527581E+02  0.15901330905E+02  0.81523433782E+00  0.37196610846E+02  0.51100000000E-03 0.  1.
         22    1    1    0    0    0  0.12417460352E+02  0.74770603994E+01 -0.26448657044E+02  0.30160093057E+02  0.00000000000E+00 0. -1.
</event>
<event>
 5    1  0.1659417E-003  0.9118800E+02  0.7818608E-02  0.1130116E+00
         25   -1    0    0    0    0  0.00000000000E+00  0.00000000000E+00  0.99999998245E-14  0.12500000000E+03  0.12500000000E+03 0.  0.
        -11    1    3    3    0    0  0.20847227774E+02 -0.33034906199E+02 -0.79070232470E+01  0.39855149609E+02  0.51100000000E-03 0.  1.
         23    2    1    0    0    0  0.39580900698E+01  0.39136865075E+01  0.29439728849E+02  0.95038674032E+02  0.90192397174E+02 0.  0.
         11    1    3    3    0    0 -0.16889137704E+02  0.36948592706E+02  0.37346752096E+02  0.55183524423E+02  0.51100000000E-03 0. -1.
         22    1    1    0    0    0 -0.39580900698E+01 -0.39136865075E+01 -0.29439728849E+02  0.29961325968E+02  0.00000000000E+00 0. -1.
</event>
<event>
 5    1  0.1659417E-003  0.9118800E+02  0.7818608E-02  0.1130116E+00
         25   -1    0    0    0    0  0.00000000000E+00  0.00000000000E+00  0.99999998245E-14  0.12500000000E+03  0.12500000000E+03 0.  0.
        -11    1    3    3    0    0  0.11808103793E+01 -0.10732501550E+01 -0.46271532152E+02  0.46299037431E+02  0.51100000000E-03 0.  1.
         23    2    1    0    0    0  0.76853456453E+01  0.29341297229E+02 -0.12546566483E+02  0.92176340983E+02  0.86134111975E+02 0.  0.
         11    1    3    3    0    0  0.65045352660E+01  0.30414547384E+02  0.33724965669E+02  0.45877303552E+02  0.51100000000E-03 0. -1.
         22    1    1    0    0    0 -0.76853456453E+01 -0.29341297229E+02  0.12546566483E+02  0.32823659017E+02  0.00000000000E+00 0.  1.
</event>
<event>
 5    1  0.1659417E-003  0.9118800E+02  0.7818608E-02  0.1130116E+00
         25   -1    0    0    0    0  0.00000000000E+00  0.00000000000E+00  0.99999998245E-14  0.12500000000E+03  0.12500000000E+03 0.  0.
        -11    1    3    3    0    0 -0.24434645401E+02 -0.45080442460E+02 -0.64065468789E+01  0.51675352263E+02  0.51100000000E-03 0.  1.
         23    2    1    0    0    0 -0.23582292794E+02 -0.59666879824E+01  0.15148485343E+02  0.96343368881E+02  0.91982836553E+02 0.  0.
         11    1    3    3    0    0  0.85235260762E+00  0.39113754478E+02  0.21555032222E+02  0.44668016619E+02  0.51100000000E-03 0. -1.
         22    1    1    0    0    0  0.23582292794E+02  0.59666879824E+01 -0.15148485343E+02  0.28656631119E+02  0.00000000000E+00 0.  1.
</event>
<event>
 5    1  0.1659417E-003  0.9118800E+02  0.7818608E-02  0.1130116E+00
         25   -1    0    0    0    0  0.00000000000E+00  0.00000000000E+00  0.99999998245E-14  0.12500000000E+03  0.12500000000E+03 0.  0.
        -11    1    3    3    0    0  0.31646425734E+02  0.32681735910E+02 -0.11273525049E+02  0.46868800828E+02  0.51100000000E-03 0. -1.
         23    2    1    0    0    0 -0.15936399140E+02  0.16681178686E+02 -0.15436010881E+02  0.97242100731E+02  0.93196165064E+02 0.  0.
         11    1    3    3    0    0 -0.47582824874E+02 -0.16000557223E+02 -0.41624858323E+01  0.50373299902E+02  0.51100000000E-03 0.  1.
         22    1    1    0    0    0  0.15936399140E+02 -0.16681178686E+02  0.15436010881E+02  0.27757899269E+02  0.00000000000E+00 0.  1.
</event>
<event>
 5    1  0.1659417E-003  0.9118800E+02  0.7818608E-02  0.1130116E+00
         25   -1    0    0    0    0  0.00000000000E+00  0.00000000000E+00  0.99999998245E-14  0.12500000000E+03  0.12500000000E+03 0.  0.
        -11    1    3    3    0    0 -0.79082310757E+01 -0.39140302197E+02  0.66431166645E+01  0.40480049087E+02  0.51100000000E-03 0.  1.
         23    2    1    0    0    0  0.21804428984E+02 -0.26373453884E+01 -0.20620940615E+02  0.94873402019E+02  0.89963050776E+02 0.  0.
         11    1    3    3    0    0  0.29712660060E+02  0.36502956809E+02 -0.27264057280E+02  0.54393352932E+02  0.51100000000E-03 0. -1.
         22    1    1    0    0    0 -0.21804428984E+02  0.26373453884E+01  0.20620940615E+02  0.30126597981E+02  0.00000000000E+00 0. -1.
</event>
<event>
 5    1  0.1659417E-003  0.9118800E+02  0.7818608E-02  0.1130116E+00
         25   -1    0    0    0    0  0.00000000000E+00  0.00000000000E+00  0.99999998245E-14  0.12500000000E+03  0.12500000000E+03 0.  0.
        -11    1    3    3    0    0 -0.33181364654E+02 -0.43251828319E+02 -0.19479611034E+02  0.57889367414E+02  0.51100000000E-03 0. -1.
         23    2    1    0    0    0 -0.60866050322E+01 -0.19061412042E+02 -0.23155047113E+02  0.94397052484E+02  0.89298729672E+02 0.  0.
         11    1    3    3    0    0  0.27094759622E+02  0.24190416276E+02 -0.36754360781E+01  0.36507685071E+02  0.51100000000E-03 0.  1.
         22    1    1    0    0    0  0.60866050322E+01  0.19061412042E+02  0.23155047113E+02  0.30602947516E+02  0.00000000000E+00 0. -1.
</event>
<event>
 5    1  0.1659417E-003  0.9118800E+02  0.7818608E-02  0.1130116E+00
         25   -1    0    0    0    0  0.00000000000E+00  0.00000000000E+00  0.99999998245E-14  0.12500000000E+03  0.12500000000E+03 0.  0.
        -11    1    3    3    0    0  0.41859962171E+02 -0.45045170272E+02  0.91310917998E+01  0.62166716461E+02  0.51100000000E-03 0.  1.
         23    2    1    0    0    0  0.17152414662E+02 -0.24249566595E+02  0.20603561003E+01  0.95225986564E+02  0.90451625973E+02 0.  0.
         11    1    3    3    0    0 -0.24707547509E+02  0.20795603677E+02 -0.70707356995E+01  0.33059270103E+02  0.51100000000E-03 0. -1.
         22    1    1    0    0    0 -0.17152414662E+02  0.24249566595E+02 -0.20603561003E+01  0.29774013436E+02  0.00000000000E+00 0.  1.
</event>
<event>
 5    1  0.1659417E-003  0.9118800E+02  0.7818608E-02  0.1130116E+00
         25   -1    0    0    0    0  0.00000000000E+00  0.00000000000E+00  0.99999998245E-14  0.12500000000E+03  0.12500000000E+03 0.  0.
        -11    1    3    3    0    0  0.42031214117E+02  0.20338489819E+02  0.35503208183E+02  0.58657948480E+02  0.51100000000E-03 0. -1.
         23    2    1    0    0    0  0.31134010896E+02 -0.26315353198E+00  0.12364610477E+02  0.91499560055E+02  0.85146285965E+02 0.  0.
         11    1    3    3    0    0 -0.10897203221E+02 -0.20601643351E+02 -0.23138597706E+02  0.32841611575E+02  0.51100000000E-03 0.  1.
         22    1    1    0    0    0 -0.31134010896E+02  0.26315353198E+00 -0.12364610477E+02  0.33500439945E+02  0.00000000000E+00 0. -1.
</event>
<event>
 5    1  0.1659417E-003  0.9118800E+02  0.7818608E-02  0.1130116E+00
         25   -1    0    0    0    0  0.00000000000E+00  0.00000000000E+00  0.99999998245E-14  0.12500000000E+03  0.12500000000E+03 0.  0.
        -11    1    3    3    0    0 -0.33966696913E+02  0.61175530076E+01  0.19541384042E+02  0.39661399932E+02  0.51100000000E-03 0.  1.
         23    2    1    0    0    0  0.14174186275E+02  0.26236112092E+02  0.58454975867E+00  0.95174124780E+02  0.90379926947E+02 0.  0.
         11    1    3    3    0    0  0.48140883188E+02  0.20118559084E+02 -0.18956834284E+02  0.55512724848E+02  0.51100000000E-03 0. -1.
         22    1    1    0    0    0 -0.14174186275E+02 -0.26236112092E+02 -0.58454975867E+00  0.29825875220E+02  0.00000000000E+00 0. -1.
</event>
<event>
 5    1  0.1659417E-003  0.9118800E+02  0.7818608E-02  0.1130116E+00
         25   -1    0    0    0    0  0.00000000000E+00  0.00000000000E+00  0.99999998245E-14  0.12500000000E+03  0.12500000000E+03 0.  0.
        -11    1    3    3    0    0  0.16815385116E+02  0.35691465491E+02  0.54245181928E+01  0.39825410022E+02  0.51100000000E-03 0.  1.
         23    2    1    0    0    0 -0.24735031422E+02  0.39794719893E+01  0.18680006606E+02  0.93749390029E+02  0.88387485014E+02 0.  0.
         11    1    3    3    0    0 -0.41550416539E+02 -0.31711993502E+02  0.13255488413E+02  0.53923980007E+02  0.51100000000E-03 0. -1.
         22    1    1    0    0    0  0.24735031422E+02 -0.39794719893E+01 -0.18680006606E+02  0.31250609971E+02  0.00000000000E+00 0. -1.
</event>
<event>
 5    1  0.1659417E-003  0.9118800E+02  0.7818608E-02  0.1130116E+00
         25   -1    0    0    0    0  0.00000000000E+00  0.00000000000E+00  0.99999998245E-14  0.12500000000E+03  0.12500000000E+03 0.  0.
        -11    1    3    3    0    0  0.17354106486E+02 -0.26400904182E+02 -0.44815911399E+02  0.54832824734E+02  0.51100000000E-03 0.  1.
         23    2    1    0    0    0 -0.81013437214E+01  0.12416402961E+01 -0.27677778526E+02  0.96134226758E+02  0.91698182586E+02 0.  0.
         11    1    3    3    0    0 -0.25455450207E+02  0.27642544478E+02  0.17138132873E+02  0.41301402024E+02  0.51100000000E-03 0. -1.
         22    1    1    0    0    0  0.81013437214E+01 -0.12416402961E+01  0.27677778526E+02  0.28865773242E+02  0.00000000000E+00 0.  1.
</event>
<event>
 4    1  0.1659417E-003  0.9118800E+02  0.7818608E-02  0.1130116E+00
         25   -1    0    0    0    0  0.00000000000E+00  0.00000000000E+00  0.99999998245E-14  0.12500000000E+03  0.12500000000E+03 0.  0.
        -11    1    1    0    0    0  0.15691559777E+02 -0.40816451260E+01 -0.22933852208E+00  0.16215346792E+02  0.51100000000E-03 0.  1.
         11    1    1    0    0    0 -0.15718610883E+02 -0.32546690842E+02  0.40543856574E+02  0.54315431684E+02  0.51100000000E-03 0. -1.
         22    1    1    0    0    0  0.27051105715E-01  0.36628335969E+02 -0.40314518052E+02  0.54469221523E+02  0.00000000000E+00 0. -1.
</event>
<event>
 5    1  0.1659417E-003  0.9118800E+02  0.7818608E-02  0.1130116E+00
         25   -1    0    0    0    0  0.00000000000E+00  0.00000000000E+00  0.99999998245E-14  0.12500000000E+03  0.12500000000E+03 0.  0.
        -11    1    3    3    0    0 -0.46173407160E+02 -0.38001314581E+02  0.26304266218E+00  0.59800941718E+02  0.51100000000E-03 0.  1.
         23    2    1    0    0    0 -0.28464072418E+02 -0.70301511800E+01 -0.24354102315E+01  0.95579638561E+02  0.90939043541E+02 0.  0.
         11    1    3    3    0    0  0.17709334742E+02  0.30971163401E+02 -0.26984528937E+01  0.35778696842E+02  0.51100000000E-03 0. -1.
         22    1    1    0    0    0  0.28464072418E+02  0.70301511800E+01  0.24354102315E+01  0.29420361439E+02  0.00000000000E+00 0.  1.
</event>
<event>
 5    1  0.1659417E-003  0.9118800E+02  0.7818608E-02  0.1130116E+00
         25   -1    0    0    0    0  0.00000000000E+00  0.00000000000E+00  0.99999998245E-14  0.12500000000E+03  0.12500000000E+03 0.  0.
        -11    1    3    3    0    0  0.47437510290E+01 -0.15417475698E+02 -0.38115035008E+02  0.41387892247E+02  0.51100000000E-03 0. -1.
         23    2    1    0    0    0 -0.20910647543E+02 -0.18427352290E+02  0.94966036272E+01  0.95555000874E+02  0.90905171572E+02 0.  0.
         11    1    3    3    0    0 -0.25654398572E+02 -0.30098765919E+01  0.47611638636E+02  0.54167108627E+02  0.51100000000E-03 0.  1.
         22    1    1    0    0    0  0.20910647543E+02  0.18427352290E+02 -0.94966036272E+01  0.29444999126E+02  0.00000000000E+00 0.  1.
</event>
<event>
 5    1  0.1659417E-003  0.9118800E+02  0.7818608E-02  0.1130116E+00
         25   -1    0    0    0    0  0.00000000000E+00  0.00000000000E+00  0.99999998245E-14  0.12500000000E+03  0.12500000000E+03 0.  0.
        -11    1    3    3    0    0  0.38523179054E+01 -0.55774671022E+02 -0.55497209409E+01  0.56182325367E+02  0.51100000000E-03 0.  1.
         23    2    1    0    0    0  0.96228749119E+01 -0.22032024403E+02  0.15524306286E+02  0.96381580992E+02  0.92034750220E+02 0.  0.
         11    1    3    3    0    0  0.57705570065E+01  0.33742646619E+02  0.21074027227E+02  0.40199255625E+02  0.51100000000E-03 0. -1.
         22    1    1    0    0    0 -0.96228749119E+01  0.22032024403E+02 -0.15524306286E+02  0.28618419008E+02  0.00000000000E+00 0.  1.
</event>
<event>
 5    1  0.1659417E-003  0.9118800E+02  0.7818608E-02  0.1130116E+00
         25   -1    0    0    0    0  0.00000000000E+00  0.00000000000E+00  0.99999998245E-14  0.12500000000E+03  0.12500000000E+03 0.  0.
        -11    1    3    3    0    0 -0.51002768310E+02  0.17731242455E+02  0.13296225474E+01  0.54013398621E+02  0.51100000000E-03 0. -1.
         23    2    1    0    0    0 -0.20519607996E+02  0.67015790464E-01  0.22044405486E+02  0.94883316639E+02  0.89976825682E+02 0.  0.
         11    1    3    3    0    0  0.30483160313E+02 -0.17664226665E+02  0.20714782938E+02  0.40869918018E+02  0.51100000000E-03 0.  1.
         22    1    1    0    0    0  0.20519607996E+02 -0.67015790464E-01 -0.22044405486E+02  0.30116683361E+02  0.00000000000E+00 0. -1.
</event>
<event>
 5    1  0.1659417E-003  0.9118800E+02  0.7818608E-02  0.1130116E+00
         25   -1    0    0    0    0  0.00000000000E+00  0.00000000000E+00  0.99999998245E-14  0.12500000000E+03  0.12500000000E+03 0.  0.
        -11    1    3    3    0    0  0.14392768086E+02  0.30858623627E+02 -0.70450508294E+01  0.34771240512E+02  0.51100000000E-03 0.  1.
         23    2    1    0    0    0  0.30639779599E+01 -0.28830192464E+02  0.57577502847E+00  0.96001733235E+02  0.91517393477E+02 0.  0.
         11    1    3    3    0    0 -0.11328790126E+02 -0.59688816091E+02  0.76208258579E+01  0.61230492723E+02  0.51100000000E-03 0. -1.
         22    1    1    0    0    0 -0.30639779599E+01  0.28830192464E+02 -0.57577502847E+00  0.28998266765E+02  0.00000000000E+00 0. -1.
</event>
<event>
 5    1  0.1659417E-003  0.9118800E+02  0.7818608E-02  0.1130116E+00
         25   -1    0    0    0    0  0.00000000000E+00  0.00000000000E+00  0.99999998245E-14  0.12500000000E+03  0.12500000000E+03 0.  0.
        -11    1    3    3    0    0 -0.27317388323E+01  0.42655202349E+02  0.17762377009E+02  0.46286398885E+02  0.51100000000E-03 0. -1.
         23    2    1    0    0    0  0.20415466146E+02  0.15598779281E+02 -0.15484560870E+02  0.95001920089E+02  0.90141444532E+02 0.  0.
         11    1    3    3    0    0  0.23147204978E+02 -0.27056423068E+02 -0.33246937880E+02  0.48715521204E+02  0.51100000000E-03 0.  1.
         22    1    1    0    0    0 -0.20415466146E+02 -0.15598779281E+02  0.15484560870E+02  0.29998079911E+02  0.00000000000E+00 0.  1.
</event>
<event>
 5    1  0.1659417E-003  0.9118800E+02  0.7818608E-02  0.1130116E+00
         25   -1    0    0    0    0  0.00000000000E+00  0.00000000000E+00  0.99999998245E-14  0.12500000000E+03  0.12500000000E+03 0.  0.
        -11    1    3    3    0    0 -0.30166983633E+01 -0.31249516344E+02  0.24228107702E+02  0.39656448957E+02  0.51100000000E-03 0. -1.
         23    2    1    0    0    0  0.24918449272E+02  0.44071200526E+01 -0.11360912341E+02  0.97261540228E+02  0.93222234778E+02 0.  0.
         11    1    3    3    0    0  0.27935147635E+02  0.35656636397E+02 -0.35589020043E+02  0.57605091272E+02  0.51100000000E-03 0.  1.
         22    1    1    0    0    0 -0.24918449272E+02 -0.44071200526E+01  0.11360912341E+02  0.27738459772E+02  0.00000000000E+00 0.  1.
</event>
<event>
 5    1  0.1659417E-003  0.9118800E+02  0.7818608E-02  0.1130116E+00
         25   -1    0    0    0    0  0.00000000000E+00  0.00000000000E+00  0.99999998245E-14  0.12500000000E+03  0.12500000000E+03 0.  0.
        -11    1    3    3    0    0 -0.34163841141E+02 -0.32778320686E+02 -0.36434532106E+01  0.47485377749E+02  0.51100000000E-03 0. -1.
         23    2    1    0    0    0  0.11745993547E+00 -0.16531356881E+02 -0.27940164340E+02  0.92535367852E+02  0.86653574439E+02 0.  0.
         11    1    3    3    0    0  0.34281301076E+02  0.16246963805E+02 -0.24296711129E+02  0.45049990103E+02  0.51100000000E-03 0.  1.
         22    1    1    0    0    0 -0.11745993547E+00  0.16531356881E+02  0.27940164340E+02  0.32464632148E+02  0.00000000000E+00 0.  1.
</event>
<event>
 5    1  0.1659417E-003  0.9118800E+02  0.7818608E-02  0.1130116E+00
         25   -1    0    0    0    0  0.00000000000E+00  0.00000000000E+00  0.99999998245E-14  0.12500000000E+03  0.12500000000E+03 0.  0.
        -11    1    3    3    0    0  0.36154025943E+01 -0.88901921981E+01 -0.61718823180E+02  0.62460545853E+02  0.51100000000E-03 0. -1.
         23    2    1    0    0    0  0.24798343310E+00 -0.47299077074E+01 -0.27640292397E+02  0.96956831732E+02  0.92812757383E+02 0.  0.
         11    1    3    3    0    0 -0.33674191612E+01  0.41602844908E+01  0.34078530783E+02  0.34496285879E+02  0.51100000000E-03 0.  1.
         22    1    1    0    0    0 -0.24798343310E+00  0.47299077074E+01  0.27640292397E+02  0.28043168268E+02  0.00000000000E+00 0. -1.
</event>
<event>
 5    1  0.1659417E-003  0.9118800E+02  0.7818608E-02  0.1130116E+00
         25   -1    0    0    0    0  0.00000000000E+00  0.00000000000E+00  0.99999998245E-14  0.12500000000E+03  0.12500000000E+03 0.  0.
        -11    1    3    3    0    0  0.47479957451E+02 -0.26030604210E+02 -0.12536277632E+02  0.55579645305E+02  0.51100000000E-03 0.  1.
         23    2    1    0    0    0  0.28169905753E+02  0.73644179931E+01 -0.91152607687E+00  0.95869103648E+02  0.91336060305E+02 0.  0.
         11    1    3    3    0    0 -0.19310051699E+02  0.33395022203E+02  0.11624751555E+02  0.40289458343E+02  0.51100000000E-03 0. -1.
         22    1    1    0    0    0 -0.28169905753E+02 -0.73644179931E+01  0.91152607687E+00  0.29130896352E+02  0.00000000000E+00 0.  1.
</event>
<event>
 5    1  0.1659417E-003  0.9118800E+02  0.7818608E-02  0.1130116E+00
         25   -1    0    0    0    0  0.00000000000E+00  0.00000000000E+00  0.99999998245E-14  0.12500000000E+03  0.12500000000E+03 0.  0.
        -11    1    3    3    0    0  0.55752087311E+02  0.10481018089E+01  0.25648161558E+02  0.61377699114E+02  0.51100000000E-03 0.  1.
         23    2    1    0    0    0  0.22112496300E+02  0.73051305966E+01  0.55515634235E+01  0.10105950539E+03  0.98182871968E+02 0.  0.
         11    1    3    3    0    0 -0.33639591011E+02  0.62570287877E+01 -0.20096598134E+02  0.39681806278E+02  0.51100000000E-03 0. -1.
         22    1    1    0    0    0 -0.22112496300E+02 -0.73051305966E+01 -0.55515634235E+01  0.23940494608E+02  0.00000000000E+00 0.  1.
</event>
<event>
 5    1  0.1659417E-003  0.9118800E+02  0.7818608E-02  0.1130116E+00
         25   -1    0    0    0    0  0.00000000000E+00  0.00000000000E+00  0.99999998245E-14  0.12500000000E+03  0.12500000000E+03 0.  0.
        -11    1    3    3    0    0 -0.19228862653E+02  0.38958457783E+02 -0.28869436255E+02  0.52162773524E+02  0.51100000000E-03 0.  1.
         23    2    1    0    0    0  0.11696322920E+02  0.71805022360E+01 -0.24754772216E+02  0.96695188931E+02  0.92459705995E+02 0.  0.
         11    1    3    3    0    0  0.30925185574E+02 -0.31777955547E+02  0.41146640397E+01  0.44532415406E+02  0.51100000000E-03 0. -1.
         22    1    1    0    0    0 -0.11696322920E+02 -0.71805022360E+01  0.24754772216E+02  0.28304811069E+02  0.00000000000E+00 0.  1.
</event>
<event>
 5    1  0.1659417E-003  0.9118800E+02  0.7818608E-02  0.1130116E+00
         25   -1    0    0    0    0  0.00000000000E+00  0.00000000000E+00  0.99999998245E-14  0.12500000000E+03  0.12500000000E+03 0.  0.
        -11    1    3    3    0    0 -0.35738706494E+02  0.72559766967E+01 -0.26910854097E+02  0.45322162440E+02  0.51100000000E-03 0. -1.
         23    2    1    0    0    0  0.34538515954E+01 -0.23045448444E+02 -0.17760992158E+02  0.95700262334E+02  0.91104695727E+02 0.  0.
         11    1    3    3    0    0  0.39192558090E+02 -0.30301425141E+02  0.91498619390E+01  0.50378099894E+02  0.51100000000E-03 0.  1.
         22    1    1    0    0    0 -0.34538515954E+01  0.23045448444E+02  0.17760992158E+02  0.29299737666E+02  0.00000000000E+00 0. -1.
</event>
<event>
 5    1  0.1659417E-003  0.9118800E+02  0.7818608E-02  0.1130116E+00
         25   -1    0    0    0    0  0.00000000000E+00  0.00000000000E+00  0.99999998245E-14  0.12500000000E+03  0.12500000000E+03 0.  0.
        -11    1    3    3    0    0  0.19730315272E+02 -0.45171408141E+02  0.29074602279E+02  0.57228261830E+02  0.51100000000E-03 0.  1.
         23    2    1    0    0    0  0.25873150931E+02 -0.26925755438E+02  0.61655650700E+01  0.87152537237E+02  0.78505632340E+02 0.  0.
         11    1    3    3    0    0  0.61428356588E+01  0.18245652703E+02 -0.22909037209E+02  0.29924275406E+02  0.51100000000E-03 0. -1.
         22    1    1    0    0    0 -0.25873150931E+02  0.26925755438E+02 -0.61655650700E+01  0.37847462763E+02  0.00000000000E+00 0.  1.
</event>
<event>
 5    1  0.1659417E-003  0.9118800E+02  0.7818608E-02  0.1130116E+00
         25   -1    0    0    0    0  0.00000000000E+00  0.00000000000E+00  0.99999998245E-14  0.12500000000E+03  0.12500000000E+03 0.  0.
        -11    1    3    3    0    0 -0.29993536077E+02 -0.45873032561E+02  0.65406171497E+01  0.55197164743E+02  0.51100000000E-03 0.  1.
         23    2    1    0    0    0 -0.18604297880E+02 -0.14904038523E+02 -0.16991930944E+02  0.95725847901E+02  0.91139793587E+02 0.  0.
         11    1    3    3    0    0  0.11389238196E+02  0.30968994038E+02 -0.23532548094E+02  0.40528683157E+02  0.51100000000E-03 0. -1.
         22    1    1    0    0    0  0.18604297880E+02  0.14904038523E+02  0.16991930944E+02  0.29274152099E+02  0.00000000000E+00 0.  1.
</event>
<event>
 5    1  0.1659417E-003  0.9118800E+02  0.7818608E-02  0.1130116E+00
         25   -1    0    0    0    0  0.00000000000E+00  0.00000000000E+00  0.99999998245E-14  0.12500000000E+03  0.12500000000E+03 0.  0.
        -11    1    3    3    0    0  0.55700013912E+01 -0.30026148169E+01 -0.40618165980E+02  0.41108101623E+02  0.51100000000E-03 0.  1.
         23    2    1    0    0    0  0.15441891030E+02  0.24471928356E+02  0.53593540433E+01  0.95571273357E+02  0.90927544448E+02 0.  0.
         11    1    3    3    0    0  0.98718896387E+01  0.27474543173E+02  0.45977520023E+02  0.54463171734E+02  0.51100000000E-03 0. -1.
         22    1    1    0    0    0 -0.15441891030E+02 -0.24471928356E+02 -0.53593540433E+01  0.29428726643E+02  0.00000000000E+00 0. -1.
</event>
<event>
 5    1  0.1659417E-003  0.9118800E+02  0.7818608E-02  0.1130116E+00
         25   -1    0    0    0    0  0.00000000000E+00  0.00000000000E+00  0.99999998245E-14  0.12500000000E+03  0.12500000000E+03 0.  0.
        -11    1    3    3    0    0  0.45640017709E+02  0.83002730832E+01  0.23835668118E+02  0.52154048977E+02  0.51100000000E-03 0.  1.
         23    2    1    0    0    0  0.25134309591E+01  0.14123890804E+02  0.25541485707E+02  0.95705476301E+02  0.91111849259E+02 0.  0.
         11    1    3    3    0    0 -0.43126586750E+02  0.58236177207E+01  0.17058175886E+01  0.43551427324E+02  0.51100000000E-03 0. -1.
         22    1    1    0    0    0 -0.25134309591E+01 -0.14123890804E+02 -0.25541485707E+02  0.29294523699E+02  0.00000000000E+00 0.  1.
</event>
<event>
 5    1  0.1659417E-003  0.9118800E+02  0.7818608E-02  0.1130116E+00
         25   -1    0    0    0    0  0.00000000000E+00  0.00000000000E+00  0.99999998245E-14  0.12500000000E+03  0.12500000000E+03 0.  0.
        -11    1    3    3    0    0  0.62645454945E+01 -0.22283962557E+02  0.13967206113E+02  0.27035206017E+02  0.51100000000E-03 0. -1.
         23    2    1    0    0    0 -0.27623605989E+02 -0.15830159164E+02 -0.28860156866E+02  0.82028309304E+02  0.69871863621E+02 0.  0.
         11    1    3    3    0    0 -0.33888151483E+02  0.64538033935E+01 -0.42827362978E+02  0.54993103287E+02  0.51100000000E-03 0.  1.
         22    1    1    0    0    0  0.27623605989E+02  0.15830159164E+02  0.28860156866E+02  0.42971690696E+02  0.00000000000E+00 0.  1.
</event>
<event>
 5    1  0.1659417E-003  0.9118800E+02  0.7818608E-02  0.1130116E+00
         25   -1    0    0    0    0  0.00000000000E+00  0.00000000000E+00  0.99999998245E-14  0.12500000000E+03  0.12500000000E+03 0.  0.
        -11    1    3    3    0    0  0.44175274715E+02  0.25829641464E+02  0.30373118930E+01  0.51262564685E+02  0.51100000000E-03 0. -1.
         23    2    1    0    0    0  0.12380842472E+02  0.11959142756E+02 -0.24155320307E+02  0.95338815686E+02  0.90607416482E+02 0.  0.
         11    1    3    3    0    0 -0.31794432243E+02 -0.13870498709E+02 -0.27192632200E+02  0.44076251001E+02  0.51100000000E-03 0.  1.
         22    1    1    0    0    0 -0.12380842472E+02 -0.11959142756E+02  0.24155320307E+02  0.29661184314E+02  0.00000000000E+00 0. -1.
</event>
<event>
 5    1  0.1659417E-003  0.9118800E+02  0.7818608E-02  0.1130116E+00
         25   -1    0    0    0    0  0.00000000000E+00  0.00000000000E+00  0.99999998245E-14  0.12500000000E+03  0.12500000000E+03 0.  0.
        -11    1    3    3    0    0  0.31418037384E+02 -0.54262075768E+01 -0.25267626286E+02  0.40681565114E+02  0.51100000000E-03 0.  1.
         23    2    1    0    0    0  0.14386796395E+02 -0.12993112298E+02  0.24461639493E+02  0.93788260472E+02  0.88442439575E+02 0.  0.
         11    1    3    3    0    0 -0.17031240989E+02 -0.75669047216E+01  0.49729265779E+02  0.53106695358E+02  0.51100000000E-03 0. -1.
         22    1    1    0    0    0 -0.14386796395E+02  0.12993112298E+02 -0.24461639493E+02  0.31211739528E+02  0.00000000000E+00 0.  1.
</event>
<event>
 5    1  0.1659417E-003  0.9118800E+02  0.7818608E-02  0.1130116E+00
         25   -1    0    0    0    0  0.00000000000E+00  0.00000000000E+00  0.99999998245E-14  0.12500000000E+03  0.12500000000E+03 0.  0.
        -11    1    3    3    0    0  0.24909520963E+02 -0.34775164319E+01  0.13182985853E+02  0.28396627817E+02  0.51100000000E-03 0. -1.
         23    2    1    0    0    0 -0.23185698719E+02  0.29247453373E+02  0.82353466601E+01  0.86779441546E+02  0.77909308728E+02 0.  0.
         11    1    3    3    0    0 -0.48095219682E+02  0.32724969805E+02 -0.49476391932E+01  0.58382813729E+02  0.51100000000E-03 0.  1.
         22    1    1    0    0    0  0.23185698719E+02 -0.29247453373E+02 -0.82353466601E+01  0.38220558454E+02  0.00000000000E+00 0.  1.
</event>
<event>
 5    1  0.1659417E-003  0.9118800E+02  0.7818608E-02  0.1130116E+00
         25   -1    0    0    0    0  0.00000000000E+00  0.00000000000E+00  0.99999998245E-14  0.12500000000E+03  0.12500000000E+03 0.  0.
        -11    1    3    3    0    0  0.29608624587E+01  0.31769261421E+02  0.27426730421E+02  0.42074674325E+02  0.51100000000E-03 0.  1.
         23    2    1    0    0    0 -0.27056263975E+02  0.58563798897E+01 -0.89696018038E+01  0.95900303056E+02  0.91378748974E+02 0.  0.
         11    1    3    3    0    0 -0.30017126434E+02 -0.25912881531E+02 -0.36396332225E+02  0.53825628731E+02  0.51100000000E-03 0. -1.
         22    1    1    0    0    0  0.27056263975E+02 -0.58563798897E+01  0.89696018038E+01  0.29099696944E+02  0.00000000000E+00 0. -1.
</event>
<event>
 5    1  0.1659417E-003  0.9118800E+02  0.7818608E-02  0.1130116E+00
         25   -1    0    0    0    0  0.00000000000E+00  0.00000000000E+00  0.99999998245E-14  0.12500000000E+03  0.12500000000E+03 0.  0.
        -11    1    3    3    0    0 -0.16858347367E+02  0.30187623760E+02 -0.34530770643E+01  0.34747953115E+02  0.51100000000E-03 0. -1.
         23    2    1    0    0    0  0.25309763847E+02 -0.94075590956E+01  0.13204463545E+02  0.94942651952E+02  0.90059219340E+02 0.  0.
         11    1    3    3    0    0  0.42168111214E+02 -0.39595182855E+02  0.16657540610E+02  0.60194698837E+02  0.51100000000E-03 0.  1.
         22    1    1    0    0    0 -0.25309763847E+02  0.94075590956E+01 -0.13204463545E+02  0.30057348048E+02  0.00000000000E+00 0. -1.
</event>
<event>
 5    1  0.1659417E-003  0.9118800E+02  0.7818608E-02  0.1130116E+00
         25   -1    0    0    0    0  0.00000000000E+00  0.00000000000E+00  0.99999998245E-14  0.12500000000E+03  0.12500000000E+03 0.  0.
        -11    1    3    3    0    0  0.38840100037E+01 -0.27347654128E+02  0.20041383398E+02  0.34126774954E+02  0.51100000000E-03 0.  1.
         23    2    1    0    0    0 -0.15899400314E+02  0.76269330797E+01 -0.24948641185E+02  0.94448474088E+02  0.89370680438E+02 0.  0.
         11    1    3    3    0    0 -0.19783410318E+02  0.34974587208E+02 -0.44990024583E+02  0.60321699134E+02  0.51100000000E-03 0. -1.
         22    1    1    0    0    0  0.15899400314E+02 -0.76269330797E+01  0.24948641185E+02  0.30551525912E+02  0.00000000000E+00 0. -1.
</event>
<event>
 5    1  0.1659417E-003  0.9118800E+02  0.7818608E-02  0.1130116E+00
         25   -1    0    0    0    0  0.00000000000E+00  0.00000000000E+00  0.99999998245E-14  0.12500000000E+03  0.12500000000E+03 0.  0.
        -11    1    3    3    0    0 -0.59536478543E+01 -0.24676443946E+02  0.34454840093E+02  0.42796130838E+02  0.51100000000E-03 0.  1.
         23    2    1    0    0    0 -0.19917167491E+02  0.11731696856E+02 -0.80921184238E+01  0.10050900875E+03  0.97479496237E+02 0.  0.
         11    1    3    3    0    0 -0.13963519636E+02  0.36408140802E+02 -0.42546958517E+02  0.57712877909E+02  0.51100000000E-03 0. -1.
         22    1    1    0    0    0  0.19917167491E+02 -0.11731696856E+02  0.80921184238E+01  0.24490991253E+02  0.00000000000E+00 0. -1.
</event>
<event>
 5    1  0.1659417E-003  0.9118800E+02  0.7818608E-02  0.1130116E+00
         25   -1    0    0    0    0  0.00000000000E+00  0.00000000000E+00  0.99999998245E-14  0.12500000000E+03  0.12500000000E+03 0.  0.
        -11    1    3    3    0    0  0.43645377938E+01  0.24262057311E+02 -0.35921732434E+02  0.43566816230E+02  0.51100000000E-03 0. -1.
         23    2    1    0    0    0 -0.10046058947E+02  0.22549863695E+02  0.14727645674E+02  0.96254162038E+02  0.91861528996E+02 0.  0.
         11    1    3    3    0    0 -0.14410596740E+02 -0.17121936158E+01  0.50649378107E+02  0.52687345808E+02  0.51100000000E-03 0.  1.
         22    1    1    0    0    0  0.10046058947E+02 -0.22549863695E+02 -0.14727645674E+02  0.28745837962E+02  0.00000000000E+00 0.  1.
</event>
<event>
 5    1  0.1659417E-003  0.9118800E+02  0.7818608E-02  0.1130116E+00
         25   -1    0    0    0    0  0.00000000000E+00  0.00000000000E+00  0.99999998245E-14  0.12500000000E+03  0.12500000000E+03 0.  0.
        -11    1    3    3    0    0 -0.19846993598E+02  0.60365805858E+01 -0.33120997456E+02  0.39081247840E+02  0.51100000000E-03 0. -1.
         23    2    1    0    0    0  0.17562739081E+01 -0.14491059382E+02  0.20148248914E+02  0.10011974208E+03  0.96979046804E+02 0.  0.
         11    1    3    3    0    0  0.21603267506E+02 -0.20527639968E+02  0.53269246369E+02  0.61038494236E+02  0.51100000000E-03 0.  1.
         22    1    1    0    0    0 -0.17562739081E+01  0.14491059382E+02 -0.20148248914E+02  0.24880257924E+02  0.00000000000E+00 0.  1.
</event>
<event>
 5    1  0.1659417E-003  0.9118800E+02  0.7818608E-02  0.1130116E+00
         25   -1    0    0    0    0  0.00000000000E+00  0.00000000000E+00  0.99999998245E-14  0.12500000000E+03  0.12500000000E+03 0.  0.
        -11    1    3    3    0    0 -0.37290215810E+02  0.17326457060E+02 -0.35226281197E+02  0.54144779958E+02  0.51100000000E-03 0. -1.
         23    2    1    0    0    0 -0.32345313258E+02  0.87821153669E+01  0.77463585224E+00  0.91474712517E+02  0.85109800430E+02 0.  0.
         11    1    3    3    0    0  0.49449025516E+01 -0.85443416934E+01  0.36000917050E+02  0.37329932559E+02  0.51100000000E-03 0.  1.
         22    1    1    0    0    0  0.32345313258E+02 -0.87821153669E+01 -0.77463585224E+00  0.33525287483E+02  0.00000000000E+00 0. -1.
</event>
<event>
 5    1  0.1659417E-003  0.9118800E+02  0.7818608E-02  0.1130116E+00
         25   -1    0    0    0    0  0.00000000000E+00  0.00000000000E+00  0.99999998245E-14  0.12500000000E+03  0.12500000000E+03 0.  0.
        -11    1    3    3    0    0  0.77190561262E+01 -0.27286345108E+02 -0.22359389922E+02  0.36111920120E+02  0.51100000000E-03 0.  1.
         23    2    1    0    0    0 -0.13226549310E+02  0.10124404754E+01  0.25930421847E+02  0.95873492837E+02  0.91342067029E+02 0.  0.
         11    1    3    3    0    0 -0.20945605436E+02  0.28298785583E+02  0.48289811770E+02  0.59761572716E+02  0.51100000000E-03 0. -1.
         22    1    1    0    0    0  0.13226549310E+02 -0.10124404754E+01 -0.25930421847E+02  0.29126507163E+02  0.00000000000E+00 0. -1.
</event>
<event>
 5    1  0.1659417E-003  0.9118800E+02  0.7818608E-02  0.1130116E+00
         25   -1    0    0    0    0  0.00000000000E+00  0.00000000000E+00  0.99999998245E-14  0.12500000000E+03  0.12500000000E+03 0.  0.
        -11    1    3    3    0    0  0.20370204984E+02 -0.12330738875E+02 -0.38329015986E+02  0.45123229483E+02  0.51100000000E-03 0. -1.
         23    2    1    0    0    0 -0.22704538864E+02  0.10457329959E+01 -0.37339465851E+01  0.10196671974E+03  0.99331162957E+02 0.  0.
         11    1    3    3    0    0 -0.43074743848E+02  0.13376471871E+02  0.34595069400E+02  0.56843490255E+02  0.51100000000E-03 0.  1.
         22    1    1    0    0    0  0.22704538864E+02 -0.10457329959E+01  0.37339465851E+01  0.23033280262E+02  0.00000000000E+00 0.  1.
</event>
<event>
 5    1  0.1659417E-003  0.9118800E+02  0.7818608E-02  0.1130116E+00
         25   -1    0    0    0    0  0.00000000000E+00  0.00000000000E+00  0.99999998245E-14  0.12500000000E+03  0.12500000000E+03 0.  0.
        -11    1    3    3    0    0  0.25973991847E+02  0.31357665019E+02 -0.26109637952E+02  0.48370079617E+02  0.51100000000E-03 0.  1.
         23    2    1    0    0    0  0.20877959351E+02 -0.14778080202E+02 -0.10639525423E+02  0.97296564431E+02  0.93269186271E+02 0.  0.
         11    1    3    3    0    0 -0.50960324965E+01 -0.46135745221E+02  0.15470112529E+02  0.48926484814E+02  0.51100000000E-03 0. -1.
         22    1    1    0    0    0 -0.20877959351E+02  0.14778080202E+02  0.10639525423E+02  0.27703435569E+02  0.00000000000E+00 0. -1.
</event>
<event>
 5    1  0.1659417E-003  0.9118800E+02  0.7818608E-02  0.1130116E+00
         25   -1    0    0    0    0  0.00000000000E+00  0.00000000000E+00  0.99999998245E-14  0.12500000000E+03  0.12500000000E+03 0.  0.
        -11    1    3    3    0    0  0.34538957594E+02 -0.47870129766E+01  0.32207871076E+02  0.47467905414E+02  0.51100000000E-03 0. -1.
         23    2    1    0    0    0  0.16716903369E+02 -0.29076107296E+02  0.14911397891E+00  0.91460514186E+02  0.85088944913E+02 0.  0.
         11    1    3    3    0    0 -0.17822054225E+02 -0.24289094319E+02 -0.32058757097E+02  0.43992608771E+02  0.51100000000E-03 0.  1.
         22    1    1    0    0    0 -0.16716903369E+02  0.29076107296E+02 -0.14911397891E+00  0.33539485814E+02  0.00000000000E+00 0. -1.
</event>
<event>
 5    1  0.1659417E-003  0.9118800E+02  0.7818608E-02  0.1130116E+00
         25   -1    0    0    0    0  0.00000000000E+00  0.00000000000E+00  0.99999998245E-14  0.12500000000E+03  0.12500000000E+03 0.  0.
        -11    1    3    3    0    0  0.15638285802E+02 -0.42592818389E+02 -0.30408785412E+02  0.54620494246E+02  0.51100000000E-03 0. -1.
         23    2    1    0    0    0  0.99098847753E+00 -0.28939820198E+02  0.53018173605E+01  0.95561852664E+02  0.90914592701E+02 0.  0.
         11    1    3    3    0    0 -0.14647297325E+02  0.13652998191E+02  0.35710602772E+02  0.40941358418E+02  0.51100000000E-03 0.  1.
         22    1    1    0    0    0 -0.99098847753E+00  0.28939820198E+02 -0.53018173605E+01  0.29438147336E+02  0.00000000000E+00 0. -1.
</event>
<event>
 5    1  0.1659417E-003  0.9118800E+02  0.7818608E-02  0.1130116E+00
         25   -1    0    0    0    0  0.00000000000E+00  0.00000000000E+00  0.99999998245E-14  0.12500000000E+03  0.12500000000E+03 0.  0.
        -11    1    3    3    0    0 -0.33170956909E+02  0.12535721652E+02 -0.12790260704E+02  0.37696783268E+02  0.51100000000E-03 0. -1.
         23    2    1    0    0    0  0.17396481266E+02  0.12471274540E+02  0.18113198545E+02  0.96959703806E+02  0.92816625405E+02 0.  0.
         11    1    3    3    0    0  0.50567438175E+02 -0.64447111141E-01  0.30903459249E+02  0.59262920539E+02  0.51100000000E-03 0.  1.
         22    1    1    0    0    0 -0.17396481266E+02 -0.12471274540E+02 -0.18113198545E+02  0.28040296194E+02  0.00000000000E+00 0.  1.
</event>
<event>
 5    1  0.1659417E-003  0.9118800E+02  0.7818608E-02  0.1130116E+00
         25   -1    0    0    0    0  0.00000000000E+00  0.00000000000E+00  0.99999998245E-14  0.12500000000E+03  0.12500000000E+03 0.  0.
        -11    1    3    3    0    0 -0.26135702111E+02  0.53385150599E+02 -0.14081823052E+02  0.61084752353E+02  0.51100000000E-03 0.  1.
         23    2    1    0    0    0 -0.14632831170E+02  0.21094562285E+02 -0.14792400746E+02  0.95370362374E+02  0.90650927151E+02 0.  0.
         11    1    3    3    0    0  0.11502870941E+02 -0.32290588314E+02 -0.71057769404E+00  0.34285610021E+02  0.51100000000E-03 0. -1.
         22    1    1    0    0    0  0.14632831170E+02 -0.21094562285E+02  0.14792400746E+02  0.29629637626E+02  0.00000000000E+00 0.  1.
</event>
<event>
 5    1  0.1659417E-003  0.9118800E+02  0.7818608E-02  0.1130116E+00
         25   -1    0    0    0    0  0.00000000000E+00  0.00000000000E+00  0.99999998245E-14  0.12500000000E+03  0.12500000000E+03 0.  0.
        -11    1    3    3    0    0 -0.33594295679E+01 -0.70008787718E+01 -0.49299863190E+02  0.49907660548E+02  0.51100000000E-03 0. -1.
         23    2    1    0    0    0 -0.10145816494E+02  0.23076996478E+02 -0.16805353368E+02  0.94703048658E+02  0.89726039501E+02 0.  0.
         11    1    3    3    0    0 -0.67863869262E+01  0.30077875250E+02  0.32494509822E+02  0.44795388110E+02  0.51100000000E-03 0.  1.
         22    1    1    0    0    0  0.10145816494E+02 -0.23076996478E+02  0.16805353368E+02  0.30296951342E+02  0.00000000000E+00 0. -1.
</event>
<event>
 5    1  0.1659417E-003  0.9118800E+02  0.7818608E-02  0.1130116E+00
         25   -1    0    0    0    0  0.00000000000E+00  0.00000000000E+00  0.99999998245E-14  0.12500000000E+03  0.12500000000E+03 0.  0.
        -11    1    3    3    0    0 -0.99012214720E+01 -0.16217912406E+02 -0.27345570072E+02  0.33299175249E+02  0.51100000000E-03 0. -1.
         23    2    1    0    0    0 -0.11109775449E+02  0.16176537030E+02  0.23985513637E+02  0.94009480075E+02  0.88754549284E+02 0.  0.
         11    1    3    3    0    0 -0.12085539766E+01  0.32394449436E+02  0.51331083709E+02  0.60710304826E+02  0.51100000000E-03 0.  1.
         22    1    1    0    0    0  0.11109775449E+02 -0.16176537030E+02 -0.23985513637E+02  0.30990519925E+02  0.00000000000E+00 0.  1.
</event>
<event>
 5    1  0.1659417E-003  0.9118800E+02  0.7818608E-02  0.1130116E+00
         25   -1    0    0    0    0  0.00000000000E+00  0.00000000000E+00  0.99999998245E-14  0.12500000000E+03  0.12500000000E+03 0.  0.
        -11    1    3    3    0    0  0.22946202895E+02  0.24582200889E+01 -0.26531785672E+02  0.35163997561E+02  0.51100000000E-03 0. -1.
         23    2    1    0    0    0 -0.15493090268E+02  0.16023424622E+02  0.18593382739E+02  0.95974151789E+02  0.91479713310E+02 0.  0.
         11    1    3    3    0    0 -0.38439293163E+02  0.13565204533E+02  0.45125168411E+02  0.60810154228E+02  0.51100000000E-03 0.  1.
         22    1    1    0    0    0  0.15493090268E+02 -0.16023424622E+02 -0.18593382739E+02  0.29025848211E+02  0.00000000000E+00 0.  1.
</event>
<event>
 5    1  0.1659417E-003  0.9118800E+02  0.7818608E-02  0.1130116E+00
         25   -1    0    0    0    0  0.00000000000E+00  0.00000000000E+00  0.99999998245E-14  0.12500000000E+03  0.12500000000E+03 0.  0.
        -11    1    3    3    0    0  0.11006977374E+02  0.31223001364E+02 -0.34774032891E+01  0.33288461950E+02  0.51100000000E-03 0. -1.
         23    2    1    0    0    0  0.80160970200E+01 -0.26601025216E+02  0.14160725644E+02  0.93816695096E+02  0.88482618485E+02 0.  0.
         11    1    3    3    0    0 -0.29908803543E+01 -0.57824026580E+02  0.17638128933E+02  0.60528233146E+02  0.51100000000E-03 0.  1.
         22    1    1    0    0    0 -0.80160970200E+01  0.26601025216E+02 -0.14160725644E+02  0.31183304904E+02  0.00000000000E+00 0.  1.
</event>
<event>
 5    1  0.1659417E-003  0.9118800E+02  0.7818608E-02  0.1130116E+00
         25   -1    0    0    0    0  0.00000000000E+00  0.00000000000E+00  0.99999998245E-14  0.12500000000E+03  0.12500000000E+03 0.  0.
        -11    1    3    3    0    0 -0.26855909161E+02  0.32208957924E+02 -0.13778529083E+02  0.44141870048E+02  0.51100000000E-03 0. -1.
         23    2    1    0    0    0  0.13891390198E+02 -0.32177879162E+01 -0.22024745337E+02  0.98762349803E+02  0.95213378528E+02 0.  0.
         11    1    3    3    0    0  0.40747299359E+02 -0.35426745840E+02 -0.82462162544E+01  0.54620479755E+02  0.51100000000E-03 0.  1.
         22    1    1    0    0    0 -0.13891390198E+02  0.32177879162E+01  0.22024745337E+02  0.26237650197E+02  0.00000000000E+00 0.  1.
</event>
<event>
 5    1  0.1659417E-003  0.9118800E+02  0.7818608E-02  0.1130116E+00
         25   -1    0    0    0    0  0.00000000000E+00  0.00000000000E+00  0.99999998245E-14  0.12500000000E+03  0.12500000000E+03 0.  0.
        -11    1    3    3    0    0 -0.23810129960E+02 -0.33562813794E+02  0.15747593798E+02  0.44060997142E+02  0.51100000000E-03 0. -1.
         23    2    1    0    0    0  0.11381817870E+01 -0.29327703573E+02 -0.21165088142E+02  0.88814773585E+02  0.81109144960E+02 0.  0.
         11    1    3    3    0    0  0.24948311747E+02  0.42351102208E+01 -0.36912681940E+02  0.44753776443E+02  0.51100000000E-03 0.  1.
         22    1    1    0    0    0 -0.11381817870E+01  0.29327703573E+02  0.21165088142E+02  0.36185226415E+02  0.00000000000E+00 0. -1.
</event>
<event>
 5    1  0.1659417E-003  0.9118800E+02  0.7818608E-02  0.1130116E+00
         25   -1    0    0    0    0  0.00000000000E+00  0.00000000000E+00  0.99999998245E-14  0.12500000000E+03  0.12500000000E+03 0.  0.
        -11    1    3    3    0    0  0.22883127992E+02  0.51232629514E+02 -0.10739437026E+02  0.57129286548E+02  0.51100000000E-03 0. -1.
         23    2    1    0    0    0  0.20091267623E+02  0.11239472287E+02 -0.15118376817E+02  0.97458211940E+02  0.93485576347E+02 0.  0.
         11    1    3    3    0    0 -0.27918603693E+01 -0.39993157227E+02 -0.43789397910E+01  0.40328925392E+02  0.51100000000E-03 0.  1.
         22    1    1    0    0    0 -0.20091267623E+02 -0.11239472287E+02  0.15118376817E+02  0.27541788060E+02  0.00000000000E+00 0. -1.
</event>
<event>
 5    1  0.1659417E-003  0.9118800E+02  0.7818608E-02  0.1130116E+00
         25   -1    0    0    0    0  0.00000000000E+00  0.00000000000E+00  0.99999998245E-14  0.12500000000E+03  0.12500000000E+03 0.  0.
        -11    1    3    3    0    0 -0.65175087401E+00 -0.17818098541E+02  0.28621556463E+02  0.33720956532E+02  0.51100000000E-03 0.  1.
         23    2    1    0    0    0 -0.14532701949E+02  0.29920829132E+02 -0.12358319711E+01  0.91713625572E+02  0.85459969536E+02 0.  0.
         11    1    3    3    0    0 -0.13880951075E+02  0.47738927673E+02 -0.29857388434E+02  0.57992669041E+02  0.51100000000E-03 0. -1.
         22    1    1    0    0    0  0.14532701949E+02 -0.29920829132E+02  0.12358319711E+01  0.33286374428E+02  0.00000000000E+00 0. -1.
</event>
<event>
 5    1  0.1659417E-003  0.9118800E+02  0.7818608E-02  0.1130116E+00
         25   -1    0    0    0    0  0.00000000000E+00  0.00000000000E+00  0.99999998245E-14  0.12500000000E+03  0.12500000000E+03 0.  0.
        -11    1    3    3    0    0  0.21467714763E+02  0.35818345220E+02 -0.32315905484E+00  0.41760280932E+02  0.51100000000E-03 0.  1.
         23    2    1    0    0    0  0.18298856319E+02 -0.15089217002E+02  0.17210434351E+02  0.95695876350E+02  0.91098677749E+02 0.  0.
         11    1    3    3    0    0 -0.31688584440E+01 -0.50907562221E+02  0.17533593406E+02  0.53935595419E+02  0.51100000000E-03 0. -1.
         22    1    1    0    0    0 -0.18298856319E+02  0.15089217002E+02 -0.17210434351E+02  0.29304123650E+02  0.00000000000E+00 0. -1.
</event>
<event>
 5    1  0.1659417E-003  0.9118800E+02  0.7818608E-02  0.1130116E+00
         25   -1    0    0    0    0  0.00000000000E+00  0.00000000000E+00  0.99999998245E-14  0.12500000000E+03  0.12500000000E+03 0.  0.
        -11    1    3    3    0    0  0.16206412657E+02 -0.47478305501E+01 -0.40538436355E+02  0.43915310866E+02  0.51100000000E-03 0.  1.
         23    2    1    0    0    0 -0.84897574915E+00 -0.26247179843E+02  0.61103794390E+01  0.98037582705E+02  0.94257072287E+02 0.  0.
         11    1    3    3    0    0 -0.17055388406E+02 -0.21499349293E+02  0.46648815794E+02  0.54122271838E+02  0.51100000000E-03 0. -1.
         22    1    1    0    0    0  0.84897574915E+00  0.26247179843E+02 -0.61103794390E+01  0.26962417295E+02  0.00000000000E+00 0. -1.
</event>
<event>
 5    1  0.1659417E-003  0.9118800E+02  0.7818608E-02  0.1130116E+00
         25   -1    0    0    0    0  0.00000000000E+00  0.00000000000E+00  0.99999998245E-14  0.12500000000E+03  0.12500000000E+03 0.  0.
        -11    1    3    3    0    0 -0.33411251573E+02 -0.11964672301E+02  0.11962412523E+02  0.37450826808E+02  0.51100000000E-03 0.  1.
         23    2    1    0    0    0  0.26721897494E+01  0.29638993568E+02 -0.44359404974E+01  0.94911993987E+02  0.90016656773E+02 0.  0.
         11    1    3    3    0    0  0.36083441323E+02  0.41603665869E+02 -0.16398353021E+02  0.57461167178E+02  0.51100000000E-03 0. -1.
         22    1    1    0    0    0 -0.26721897494E+01 -0.29638993568E+02  0.44359404974E+01  0.30088006013E+02  0.00000000000E+00 0. -1.
</event>
<event>
 5    1  0.1659417E-003  0.9118800E+02  0.7818608E-02  0.1130116E+00
         25   -1    0    0    0    0  0.00000000000E+00  0.00000000000E+00  0.99999998245E-14  0.12500000000E+03  0.12500000000E+03 0.  0.
        -11    1    3    3    0    0  0.19180206072E+02  0.38308863056E+02 -0.28424266886E+01  0.42936332905E+02  0.51100000000E-03 0. -1.
         23    2    1    0    0    0 -0.26549209702E+02  0.11676402761E+02  0.84676292785E+00  0.95984212492E+02  0.91493459455E+02 0.  0.
         11    1    3    3    0    0 -0.45729415774E+02 -0.26632460295E+02  0.36891896165E+01  0.53047879587E+02  0.51100000000E-03 0.  1.
         22    1    1    0    0    0  0.26549209702E+02 -0.11676402761E+02 -0.84676292785E+00  0.29015787508E+02  0.00000000000E+00 0.  1.
</event>
<event>
 5    1  0.1659417E-003  0.9118800E+02  0.7818608E-02  0.1130116E+00
         25   -1    0    0    0    0  0.00000000000E+00  0.00000000000E+00  0.99999998245E-14  0.12500000000E+03  0.12500000000E+03 0.  0.
        -11    1    3    3    0    0 -0.46536033937E+01 -0.42624096229E+02  0.27488787995E+02  0.50932338152E+02  0.51100000000E-03 0. -1.
         23    2    1    0    0    0  0.24343592754E+02 -0.14729191460E+02  0.95402631909E+01  0.94990398020E+02  0.90125465353E+02 0.  0.
         11    1    3    3    0    0  0.28997196148E+02  0.27894904769E+02 -0.17948524804E+02  0.44058059869E+02  0.51100000000E-03 0.  1.
         22    1    1    0    0    0 -0.24343592754E+02  0.14729191460E+02 -0.95402631909E+01  0.30009601980E+02  0.00000000000E+00 0. -1.
</event>
<event>
 5    1  0.1659417E-003  0.9118800E+02  0.7818608E-02  0.1130116E+00
         25   -1    0    0    0    0  0.00000000000E+00  0.00000000000E+00  0.99999998245E-14  0.12500000000E+03  0.12500000000E+03 0.  0.
        -11    1    3    3    0    0  0.38808786743E+02 -0.24225605587E+02  0.34521360564E+02  0.57312531178E+02  0.51100000000E-03 0.  1.
         23    2    1    0    0    0  0.77981185685E+01 -0.37230687016E+01  0.28807271040E+02  0.94924582155E+02  0.90034135409E+02 0.  0.
         11    1    3    3    0    0 -0.31010668174E+02  0.20502536886E+02 -0.57140895245E+01  0.37612050977E+02  0.51100000000E-03 0. -1.
         22    1    1    0    0    0 -0.77981185685E+01  0.37230687016E+01 -0.28807271040E+02  0.30075417845E+02  0.00000000000E+00 0.  1.
</event>
<event>
 5    1  0.1659417E-003  0.9118800E+02  0.7818608E-02  0.1130116E+00
         25   -1    0    0    0    0  0.00000000000E+00  0.00000000000E+00  0.99999998245E-14  0.12500000000E+03  0.12500000000E+03 0.  0.
        -11    1    3    3    0    0  0.10064361923E+02  0.46448252369E+01  0.32469161778E+02  0.34309069489E+02  0.51100000000E-03 0.  1.
         23    2    1    0    0    0 -0.15408208087E+02 -0.14513478639E+02 -0.20115478354E+02  0.95799205352E+02  0.91240349287E+02 0.  0.
         11    1    3    3    0    0 -0.25472570010E+02 -0.19158303876E+02 -0.52584640132E+02  0.61490135863E+02  0.51100000000E-03 0. -1.
         22    1    1    0    0    0  0.15408208087E+02  0.14513478639E+02  0.20115478354E+02  0.29200794648E+02  0.00000000000E+00 0. -1.
</event>
<event>
 5    1  0.1659417E-003  0.9118800E+02  0.7818608E-02  0.1130116E+00
         25   -1    0    0    0    0  0.00000000000E+00  0.00000000000E+00  0.99999998245E-14  0.12500000000E+03  0.12500000000E+03 0.  0.
        -11    1    3    3    0    0 -0.42973890357E+02  0.24280499204E+02 -0.16567730431E+02  0.52065224343E+02  0.51100000000E-03 0. -1.
         23    2    1    0    0    0 -0.38465674741E+02 -0.96038834109E+00  0.57960654815E+01  0.86088242727E+02  0.76792321763E+02 0.  0.
         11    1    3    3    0    0  0.45082156162E+01 -0.25240887545E+02  0.22363795912E+02  0.34023018384E+02  0.51100000000E-03 0.  1.
         22    1    1    0    0    0  0.38465674741E+02  0.96038834109E+00 -0.57960654815E+01  0.38911757273E+02  0.00000000000E+00 0. -1.
</event>
<event>
 5    1  0.1659417E-003  0.9118800E+02  0.7818608E-02  0.1130116E+00
         25   -1    0    0    0    0  0.00000000000E+00  0.00000000000E+00  0.99999998245E-14  0.12500000000E+03  0.12500000000E+03 0.  0.
        -11    1    3    3    0    0 -0.52488673722E+02  0.21919524867E+01  0.16544487326E+02  0.55077995479E+02  0.51100000000E-03 0.  1.
         23    2    1    0    0    0 -0.14827732666E+02 -0.14802515304E+01  0.26846755155E+02  0.94294934246E+02  0.89155670384E+02 0.  0.
         11    1    3    3    0    0  0.37660941056E+02 -0.36722040171E+01  0.10302267829E+02  0.39216938767E+02  0.51100000000E-03 0. -1.
         22    1    1    0    0    0  0.14827732666E+02  0.14802515304E+01 -0.26846755155E+02  0.30705065754E+02  0.00000000000E+00 0.  1.
</event>
<event>
 5    1  0.1659417E-003  0.9118800E+02  0.7818608E-02  0.1130116E+00
         25   -1    0    0    0    0  0.00000000000E+00  0.00000000000E+00  0.99999998245E-14  0.12500000000E+03  0.12500000000E+03 0.  0.
        -11    1    3    3    0    0 -0.40953328896E+02  0.52465657109E+01  0.11430861795E+02  0.42841174132E+02  0.51100000000E-03 0.  1.
         23    2    1    0    0    0 -0.16917159194E+02  0.15505359636E+02 -0.27156847194E+02  0.89445804718E+02  0.82075886711E+02 0.  0.
         11    1    3    3    0    0  0.24036169701E+02  0.10258793925E+02 -0.38587708989E+02  0.46604630585E+02  0.51100000000E-03 0. -1.
         22    1    1    0    0    0  0.16917159194E+02 -0.15505359636E+02  0.27156847194E+02  0.35554195282E+02  0.00000000000E+00 0.  1.
</event>
<event>
 5    1  0.1659417E-003  0.9118800E+02  0.7818608E-02  0.1130116E+00
         25   -1    0    0    0    0  0.00000000000E+00  0.00000000000E+00  0.99999998245E-14  0.12500000000E+03  0.12500000000E+03 0.  0.
        -11    1    3    3    0    0  0.51182468651E+02  0.21870279597E+02  0.60036002907E+01  0.55982117176E+02  0.51100000000E-03 0.  1.
         23    2    1    0    0    0  0.26521783274E+02 -0.92197603802E+01 -0.32621848084E+01  0.96732513037E+02  0.92510152195E+02 0.  0.
         11    1    3    3    0    0 -0.24660685377E+02 -0.31090039977E+02 -0.92657850991E+01  0.40750395861E+02  0.51100000000E-03 0. -1.
         22    1    1    0    0    0 -0.26521783274E+02  0.92197603802E+01  0.32621848084E+01  0.28267486963E+02  0.00000000000E+00 0.  1.
</event>
<event>
 5    1  0.1659417E-003  0.9118800E+02  0.7818608E-02  0.1130116E+00
         25   -1    0    0    0    0  0.00000000000E+00  0.00000000000E+00  0.99999998245E-14  0.12500000000E+03  0.12500000000E+03 0.  0.
        -11    1    3    3    0    0 -0.33496732542E+02  0.68839550447E+01  0.28450285327E+02  0.44484139460E+02  0.51100000000E-03 0. -1.
         23    2    1    0    0    0  0.96378840618E+01  0.25765633629E+02  0.51775157324E+01  0.97007798325E+02  0.92881373704E+02 0.  0.
         11    1    3    3    0    0  0.43134616604E+02  0.18881678584E+02 -0.23272769594E+02  0.52523658865E+02  0.51100000000E-03 0.  1.
         22    1    1    0    0    0 -0.96378840618E+01 -0.25765633629E+02 -0.51775157324E+01  0.27992201675E+02  0.00000000000E+00 0.  1.
</event>
<event>
 5    1  0.1659417E-003  0.9118800E+02  0.7818608E-02  0.1130116E+00
         25   -1    0    0    0    0  0.00000000000E+00  0.00000000000E+00  0.99999998245E-14  0.12500000000E+03  0.12500000000E+03 0.  0.
        -11    1    3    3    0    0 -0.85065629805E+01 -0.21783889770E+02 -0.30890777155E+02  0.38744542593E+02  0.51100000000E-03 0.  1.
         23    2    1    0    0    0 -0.25527661300E+02 -0.38015684765E+01  0.17990573092E+02  0.93539323998E+02  0.88089902937E+02 0.  0.
         11    1    3    3    0    0 -0.17021098320E+02  0.17982321293E+02  0.48881350246E+02  0.54794781405E+02  0.51100000000E-03 0. -1.
         22    1    1    0    0    0  0.25527661300E+02  0.38015684765E+01 -0.17990573092E+02  0.31460676002E+02  0.00000000000E+00 0. -1.
</event>
<event>
 5    1  0.1659417E-003  0.9118800E+02  0.7818608E-02  0.1130116E+00
         25   -1    0    0    0    0  0.00000000000E+00  0.00000000000E+00  0.99999998245E-14  0.12500000000E+03  0.12500000000E+03 0.  0.
        -11    1    3    3    0    0  0.17520450276E+01 -0.39614690359E+02  0.11425510839E+02  0.41266640912E+02  0.51100000000E-03 0. -1.
         23    2    1    0    0    0  0.28859465476E+02 -0.26938570668E+01 -0.13065161248E+02  0.93206540737E+02  0.87616409333E+02 0.  0.
         11    1    3    3    0    0  0.27107420448E+02  0.36920833292E+02 -0.24490672087E+02  0.51939899825E+02  0.51100000000E-03 0.  1.
         22    1    1    0    0    0 -0.28859465476E+02  0.26938570668E+01  0.13065161248E+02  0.31793459263E+02  0.00000000000E+00 0.  1.
</event>
<event>
 5    1  0.1659417E-003  0.9118800E+02  0.7818608E-02  0.1130116E+00
         25   -1    0    0    0    0  0.00000000000E+00  0.00000000000E+00  0.99999998245E-14  0.12500000000E+03  0.12500000000E+03 0.  0.
        -11    1    3    3    0    0 -0.15616036095E+02  0.11720649634E+01  0.30956993148E+02  0.34692502715E+02  0.51100000000E-03 0.  1.
         23    2    1    0    0    0  0.65815947655E+01  0.78650821428E+01 -0.26464452101E+02  0.96617890639E+02  0.92355144198E+02 0.  0.
         11    1    3    3    0    0  0.22197630860E+02  0.66930171794E+01 -0.57421445249E+02  0.61925387924E+02  0.51100000000E-03 0. -1.
         22    1    1    0    0    0 -0.65815947655E+01 -0.78650821428E+01  0.26464452101E+02  0.28382109361E+02  0.00000000000E+00 0. -1.
</event>
<event>
 5    1  0.1659417E-003  0.9118800E+02  0.7818608E-02  0.1130116E+00
         25   -1    0    0    0    0  0.00000000000E+00  0.00000000000E+00  0.99999998245E-14  0.12500000000E+03  0.12500000000E+03 0.  0.
        -11    1    3    3    0    0  0.61883747638E+01 -0.33701068249E+02  0.23454225688E+02  0.41522989852E+02  0.51100000000E-03 0.  1.
         23    2    1    0    0    0  0.75754980454E+00  0.20363548848E+02  0.20735292047E+02  0.95927670550E+02  0.91416178205E+02 0.  0.
         11    1    3    3    0    0 -0.54308249593E+01  0.54064617097E+02 -0.27189336412E+01  0.54404680699E+02  0.51100000000E-03 0. -1.
         22    1    1    0    0    0 -0.75754980454E+00 -0.20363548848E+02 -0.20735292047E+02  0.29072329450E+02  0.00000000000E+00 0. -1.
</event>
<event>
 5    1  0.1659417E-003  0.9118800E+02  0.7818608E-02  0.1130116E+00
         25   -1    0    0    0    0  0.00000000000E+00  0.00000000000E+00  0.99999998245E-14  0.12500000000E+03  0.12500000000E+03 0.  0.
        -11    1    3    3    0    0  0.43335327436E+02 -0.55717604109E+01  0.64349984484E+01  0.44163382155E+02  0.51100000000E-03 0. -1.
         23    2    1    0    0    0 -0.16572623955E+02 -0.13125481158E+01  0.12025273329E+02  0.10448215786E+03  0.10244774017E+03 0.  0.
         11    1    3    3    0    0 -0.59907951392E+02  0.42592122951E+01  0.55902748810E+01  0.60318775707E+02  0.51100000000E-03 0.  1.
         22    1    1    0    0    0  0.16572623955E+02  0.13125481158E+01 -0.12025273329E+02  0.20517842137E+02  0.00000000000E+00 0.  1.
</event>
<event>
 5    1  0.1659417E-003  0.9118800E+02  0.7818608E-02  0.1130116E+00
         25   -1    0    0    0    0  0.00000000000E+00  0.00000000000E+00  0.99999998245E-14  0.12500000000E+03  0.12500000000E+03 0.  0.
        -11    1    3    3    0    0  0.10256576367E+02 -0.17798312925E+02 -0.32299738335E+02  0.38278589297E+02  0.51100000000E-03 0.  1.
         23    2    1    0    0    0  0.38733390682E+01  0.29232460255E+02 -0.31797991211E+00  0.95510330634E+02  0.90843726577E+02 0.  0.
         11    1    3    3    0    0 -0.63832372993E+01  0.47030773181E+02  0.31981758423E+02  0.57231741337E+02  0.51100000000E-03 0. -1.
         22    1    1    0    0    0 -0.38733390682E+01 -0.29232460255E+02  0.31797991211E+00  0.29489669366E+02  0.00000000000E+00 0. -1.
</event>
<event>
 5    1  0.1659417E-003  0.9118800E+02  0.7818608E-02  0.1130116E+00
         25   -1    0    0    0    0  0.00000000000E+00  0.00000000000E+00  0.99999998245E-14  0.12500000000E+03  0.12500000000E+03 0.  0.
        -11    1    3    3    0    0  0.35327705840E+02 -0.45264839116E+00 -0.79076303861E+01  0.36204727718E+02  0.51100000000E-03 0.  1.
         23    2    1    0    0    0 -0.13191231874E+02 -0.91432519827E+01  0.24870994866E+02  0.95399762825E+02  0.90691458839E+02 0.  0.
         11    1    3    3    0    0 -0.48518937714E+02 -0.86906035915E+01  0.32778625252E+02  0.59195035108E+02  0.51100000000E-03 0. -1.
         22    1    1    0    0    0  0.13191231874E+02  0.91432519827E+01 -0.24870994866E+02  0.29600237175E+02  0.00000000000E+00 0. -1.
</event>
<event>
 5    1  0.1659417E-003  0.9118800E+02  0.7818608E-02  0.1130116E+00
         25   -1    0    0    0    0  0.00000000000E+00  0.00000000000E+00  0.99999998245E-14  0.12500000000E+03  0.12500000000E+03 0.  0.
        -11    1    3    3    0    0 -0.13937335052E+02  0.20407604337E+02  0.39253787551E+02  0.46385121111E+02  0.51100000000E-03 0.  1.
         23    2    1    0    0    0 -0.60671404902E+01 -0.23037952886E+02  0.16161827964E+02  0.96211770634E+02  0.91803827036E+02 0.  0.
         11    1    3    3    0    0  0.78701945613E+01 -0.43445557223E+02 -0.23091959587E+02  0.49826649523E+02  0.51100000000E-03 0. -1.
         22    1    1    0    0    0  0.60671404902E+01  0.23037952886E+02 -0.16161827964E+02  0.28788229366E+02  0.00000000000E+00 0. -1.
</event>
<event>
 5    1  0.1659417E-003  0.9118800E+02  0.7818608E-02  0.1130116E+00
         25   -1    0    0    0    0  0.00000000000E+00  0.00000000000E+00  0.99999998245E-14  0.12500000000E+03  0.12500000000E+03 0.  0.
        -11    1    3    3    0    0  0.37138702683E+02  0.29164809954E+02  0.32099038289E+02  0.57098315526E+02  0.51100000000E-03 0. -1.
         23    2    1    0    0    0  0.65934619119E+01  0.27731248489E+02  0.10136345302E+02  0.94747043469E+02  0.89787309055E+02 0.  0.
         11    1    3    3    0    0 -0.30545240771E+02 -0.14335614644E+01 -0.21962692987E+02  0.37648727943E+02  0.51100000000E-03 0.  1.
         22    1    1    0    0    0 -0.65934619119E+01 -0.27731248489E+02 -0.10136345302E+02  0.30252956531E+02  0.00000000000E+00 0. -1.
</event>
<event>
 5    1  0.1659417E-003  0.9118800E+02  0.7818608E-02  0.1130116E+00
         25   -1    0    0    0    0  0.00000000000E+00  0.00000000000E+00  0.99999998245E-14  0.12500000000E+03  0.12500000000E+03 0.  0.
        -11    1    3    3    0    0 -0.32725081754E+02 -0.16436839102E+01  0.16815968222E+02  0.36829464565E+02  0.51100000000E-03 0. -1.
         23    2    1    0    0    0  0.19009323410E+02 -0.15587677203E+02 -0.11974847412E+02  0.97655402222E+02  0.93748869622E+02 0.  0.
         11    1    3    3    0    0  0.51734405164E+02 -0.13943993293E+02 -0.28790815635E+02  0.60825937657E+02  0.51100000000E-03 0.  1.
         22    1    1    0    0    0 -0.19009323410E+02  0.15587677203E+02  0.11974847412E+02  0.27344597778E+02  0.00000000000E+00 0.  1.
</event>
<event>
 5    1  0.1659417E-003  0.9118800E+02  0.7818608E-02  0.1130116E+00
         25   -1    0    0    0    0  0.00000000000E+00  0.00000000000E+00  0.99999998245E-14  0.12500000000E+03  0.12500000000E+03 0.  0.
        -11    1    3    3    0    0 -0.34100792708E+02  0.21323122109E+02  0.28625330100E+02  0.49365464886E+02  0.51100000000E-03 0.  1.
         23    2    1    0    0    0  0.11624188769E+02  0.19501035962E+02  0.17161312539E+02  0.96540857072E+02  0.92250822587E+02 0.  0.
         11    1    3    3    0    0  0.45724981477E+02 -0.18220861472E+01 -0.11464017561E+02  0.47175392186E+02  0.51100000000E-03 0. -1.
         22    1    1    0    0    0 -0.11624188769E+02 -0.19501035962E+02 -0.17161312539E+02  0.28459142928E+02  0.00000000000E+00 0. -1.
</event>
<event>
 5    1  0.1659417E-003  0.9118800E+02  0.7818608E-02  0.1130116E+00
         25   -1    0    0    0    0  0.00000000000E+00  0.00000000000E+00  0.99999998245E-14  0.12500000000E+03  0.12500000000E+03 0.  0.
        -11    1    3    3    0    0 -0.44410213709E+02 -0.12396102922E+02 -0.18785188961E+02  0.49787686971E+02  0.51100000000E-03 0.  1.
         23    2    1    0    0    0 -0.21935903719E+02 -0.20762414865E+00  0.19382461783E+02  0.95727029455E+02  0.91141414098E+02 0.  0.
         11    1    3    3    0    0  0.22474309990E+02  0.12188478773E+02  0.38167650744E+02  0.45939342484E+02  0.51100000000E-03 0. -1.
         22    1    1    0    0    0  0.21935903719E+02  0.20762414865E+00 -0.19382461783E+02  0.29272970545E+02  0.00000000000E+00 0.  1.
</event>
<event>
 5    1  0.1659417E-003  0.9118800E+02  0.7818608E-02  0.1130116E+00
         25   -1    0    0    0    0  0.00000000000E+00  0.00000000000E+00  0.99999998245E-14  0.12500000000E+03  0.12500000000E+03 0.  0.
        -11    1    3    3    0    0 -0.34474282568E+02 -0.30210397362E+02 -0.36553732562E+02  0.58628658793E+02  0.51100000000E-03 0.  1.
         23    2    1    0    0    0 -0.29101943211E+01 -0.21637256006E+02 -0.20451302498E+02  0.95085190084E+02  0.90256841963E+02 0.  0.
         11    1    3    3    0    0  0.31564088247E+02  0.85731413563E+01  0.16102430065E+02  0.36456531292E+02  0.51100000000E-03 0. -1.
         22    1    1    0    0    0  0.29101943211E+01  0.21637256006E+02  0.20451302498E+02  0.29914809916E+02  0.00000000000E+00 0.  1.
</event>
<event>
 5    1  0.1659417E-003  0.9118800E+02  0.7818608E-02  0.1130116E+00
         25   -1    0    0    0    0  0.00000000000E+00  0.00000000000E+00  0.99999998245E-14  0.12500000000E+03  0.12500000000E+03 0.  0.
        -11    1    3    3    0    0  0.19257818074E+02  0.54260770359E+02 -0.74810719363E+01  0.58060840456E+02  0.51100000000E-03 0.  1.
         23    2    1    0    0    0 -0.59893149446E+01  0.28722240704E+02 -0.98507679763E+01  0.94050417866E+02  0.88812186475E+02 0.  0.
         11    1    3    3    0    0 -0.25247133018E+02 -0.25538529654E+02 -0.23696960400E+01  0.35989577410E+02  0.51100000000E-03 0. -1.
         22    1    1    0    0    0  0.59893149446E+01 -0.28722240704E+02  0.98507679763E+01  0.30949582134E+02  0.00000000000E+00 0.  1.
</event>
<event>
 5    1  0.1659417E-003  0.9118800E+02  0.7818608E-02  0.1130116E+00
         25   -1    0    0    0    0  0.00000000000E+00  0.00000000000E+00  0.99999998245E-14  0.12500000000E+03  0.12500000000E+03 0.  0.
        -11    1    3    3    0    0  0.56414619671E+01  0.33052294404E+02 -0.84946735182E+01  0.34589590008E+02  0.51100000000E-03 0.  1.
         23    2    1    0    0    0 -0.13765172740E+01 -0.26810801893E+02 -0.13273328902E+02  0.95051792072E+02  0.90210575976E+02 0.  0.
         11    1    3    3    0    0 -0.70179792411E+01 -0.59863096297E+02 -0.47786553841E+01  0.60462202064E+02  0.51100000000E-03 0. -1.
         22    1    1    0    0    0  0.13765172740E+01  0.26810801893E+02  0.13273328902E+02  0.29948207928E+02  0.00000000000E+00 0. -1.
</event>
<event>
 5    1  0.1659417E-003  0.9118800E+02  0.7818608E-02  0.1130116E+00
         25   -1    0    0    0    0  0.00000000000E+00  0.00000000000E+00  0.99999998245E-14  0.12500000000E+03  0.12500000000E+03 0.  0.
        -11    1    3    3    0    0  0.28917467341E+02 -0.43224188068E+02 -0.99379245905E+01  0.52946319013E+02  0.51100000000E-03 0. -1.
         23    2    1    0    0    0  0.14165769838E+02 -0.18065151806E+02  0.19862251871E+02  0.94643323728E+02  0.89642796320E+02 0.  0.
         11    1    3    3    0    0 -0.14751697503E+02  0.25159036262E+02  0.29800176461E+02  0.41697004716E+02  0.51100000000E-03 0.  1.
         22    1    1    0    0    0 -0.14165769838E+02  0.18065151806E+02 -0.19862251871E+02  0.30356676272E+02  0.00000000000E+00 0.  1.
</event>
<event>
 5    1  0.1659417E-003  0.9118800E+02  0.7818608E-02  0.1130116E+00
         25   -1    0    0    0    0  0.00000000000E+00  0.00000000000E+00  0.99999998245E-14  0.12500000000E+03  0.12500000000E+03 0.  0.
        -11    1    3    3    0    0  0.36508277623E+01  0.93073933311E+01 -0.29453571596E+02  0.31104163612E+02  0.51100000000E-03 0.  1.
         23    2    1    0    0    0 -0.26536079075E+01 -0.20021708347E+01  0.31452995467E+02  0.93371828273E+02  0.87851904181E+02 0.  0.
         11    1    3    3    0    0 -0.63044356698E+01 -0.11309564166E+02  0.60906567063E+02  0.62267664661E+02  0.51100000000E-03 0. -1.
         22    1    1    0    0    0  0.26536079075E+01  0.20021708347E+01 -0.31452995467E+02  0.31628171727E+02  0.00000000000E+00 0. -1.
</event>
<event>
 5    1  0.1659417E-003  0.9118800E+02  0.7818608E-02  0.1130116E+00
         25   -1    0    0    0    0  0.00000000000E+00  0.00000000000E+00  0.99999998245E-14  0.12500000000E+03  0.12500000000E+03 0.  0.
        -11    1    3    3    0    0  0.43376519900E+02  0.23975650770E+02 -0.34719971795E+02  0.60513062641E+02  0.51100000000E-03 0.  1.
         23    2    1    0    0    0  0.19175974604E+02  0.16308670270E+01 -0.21866077528E+02  0.95870923878E+02  0.91338551387E+02 0.  0.
         11    1    3    3    0    0 -0.24200545296E+02 -0.22344783743E+02  0.12853894267E+02  0.35357861237E+02  0.51100000000E-03 0. -1.
         22    1    1    0    0    0 -0.19175974604E+02 -0.16308670270E+01  0.21866077528E+02  0.29129076122E+02  0.00000000000E+00 0.  1.
</event>
<event>
 5    1  0.1659417E-003  0.9118800E+02  0.7818608E-02  0.1130116E+00
         25   -1    0    0    0    0  0.00000000000E+00  0.00000000000E+00  0.99999998245E-14  0.12500000000E+03  0.12500000000E+03 0.  0.
        -11    1    3    3    0    0  0.23641910236E+02  0.23052072048E+02  0.49773296807E+01  0.33393289092E+02  0.51100000000E-03 0. -1.
         23    2    1    0    0    0 -0.80176705909E+01 -0.28217371792E+02 -0.70305599984E+01  0.94834922734E+02  0.89909569477E+02 0.  0.
         11    1    3    3    0    0 -0.31659580827E+02 -0.51269443841E+02 -0.12007889679E+02  0.61441633643E+02  0.51100000000E-03 0.  1.
         22    1    1    0    0    0  0.80176705909E+01  0.28217371792E+02  0.70305599984E+01  0.30165077266E+02  0.00000000000E+00 0.  1.
</event>
<event>
 5    1  0.1659417E-003  0.9118800E+02  0.7818608E-02  0.1130116E+00
         25   -1    0    0    0    0  0.00000000000E+00  0.00000000000E+00  0.99999998245E-14  0.12500000000E+03  0.12500000000E+03 0.  0.
        -11    1    3    3    0    0 -0.17737763014E+02 -0.39292134712E+02 -0.37806886601E+02  0.57339870611E+02  0.51100000000E-03 0. -1.
         23    2    1    0    0    0 -0.22477559296E+02 -0.71419968993E+01 -0.16980019532E+02  0.95938515955E+02  0.91431006714E+02 0.  0.
         11    1    3    3    0    0 -0.47397962818E+01  0.32150137813E+02  0.20826867069E+02  0.38598645343E+02  0.51100000000E-03 0.  1.
         22    1    1    0    0    0  0.22477559296E+02  0.71419968993E+01  0.16980019532E+02  0.29061484045E+02  0.00000000000E+00 0. -1.
</event>
<event>
 5    1  0.1659417E-003  0.9118800E+02  0.7818608E-02  0.1130116E+00
         25   -1    0    0    0    0  0.00000000000E+00  0.00000000000E+00  0.99999998245E-14  0.12500000000E+03  0.12500000000E+03 0.  0.
        -11    1    3    3    0    0  0.24729016345E+02  0.43255656329E+02 -0.19576331705E+02  0.53533249641E+02  0.51100000000E-03 0.  1.
         23    2    1    0    0    0  0.28098339990E+02  0.57981135952E+01  0.78268392425E+00  0.96298999572E+02  0.91922521141E+02 0.  0.
         11    1    3    3    0    0  0.33693236443E+01 -0.37457542734E+02  0.20359015630E+02  0.42765749931E+02  0.51100000000E-03 0. -1.
         22    1    1    0    0    0 -0.28098339990E+02 -0.57981135952E+01 -0.78268392425E+00  0.28701000428E+02  0.00000000000E+00 0.  1.
</event>
<event>
 5    1  0.1659417E-003  0.9118800E+02  0.7818608E-02  0.1130116E+00
         25   -1    0    0    0    0  0.00000000000E+00  0.00000000000E+00  0.99999998245E-14  0.12500000000E+03  0.12500000000E+03 0.  0.
        -11    1    3    3    0    0 -0.51407854531E+02 -0.94741438001E+01 -0.63341863356E+01  0.52655947670E+02  0.51100000000E-03 0.  1.
         23    2    1    0    0    0 -0.20952818756E+02  0.72378235611E+00  0.21364246566E+02  0.95067150052E+02  0.90231854203E+02 0.  0.
         11    1    3    3    0    0  0.30455035775E+02  0.10197926156E+02  0.27698432901E+02  0.42411202381E+02  0.51100000000E-03 0. -1.
         22    1    1    0    0    0  0.20952818756E+02 -0.72378235611E+00 -0.21364246566E+02  0.29932849948E+02  0.00000000000E+00 0.  1.
</event>
<event>
 5    1  0.1659417E-003  0.9118800E+02  0.7818608E-02  0.1130116E+00
         25   -1    0    0    0    0  0.00000000000E+00  0.00000000000E+00  0.99999998245E-14  0.12500000000E+03  0.12500000000E+03 0.  0.
        -11    1    3    3    0    0  0.35705417155E+02  0.19565728045E+02  0.46115833774E+02  0.61517189899E+02  0.51100000000E-03 0. -1.
         23    2    1    0    0    0  0.23561961357E+02  0.66009537010E+01  0.18620372158E+02  0.94251717576E+02  0.89095058190E+02 0.  0.
         11    1    3    3    0    0 -0.12143455798E+02 -0.12964774344E+02 -0.27495461616E+02  0.32734527677E+02  0.51100000000E-03 0.  1.
         22    1    1    0    0    0 -0.23561961357E+02 -0.66009537010E+01 -0.18620372158E+02  0.30748282424E+02  0.00000000000E+00 0. -1.
</event>
<event>
 5    1  0.1659417E-003  0.9118800E+02  0.7818608E-02  0.1130116E+00
         25   -1    0    0    0    0  0.00000000000E+00  0.00000000000E+00  0.99999998245E-14  0.12500000000E+03  0.12500000000E+03 0.  0.
        -11    1    3    3    0    0  0.15461644907E+02 -0.55481827411E+02 -0.13109121699E+02  0.59068982622E+02  0.51100000000E-03 0.  1.
         23    2    1    0    0    0 -0.49183512831E+01 -0.26907259980E+02  0.26034460595E+01  0.97523305323E+02  0.93572572535E+02 0.  0.
         11    1    3    3    0    0 -0.20379996190E+02  0.28574567431E+02  0.15712567758E+02  0.38454322701E+02  0.51100000000E-03 0. -1.
         22    1    1    0    0    0  0.49183512831E+01  0.26907259980E+02 -0.26034460595E+01  0.27476694677E+02  0.00000000000E+00 0.  1.
</event>
<event>
 5    1  0.1659417E-003  0.9118800E+02  0.7818608E-02  0.1130116E+00
         25   -1    0    0    0    0  0.00000000000E+00  0.00000000000E+00  0.99999998245E-14  0.12500000000E+03  0.12500000000E+03 0.  0.
        -11    1    3    3    0    0  0.32483896140E+01 -0.33756632502E+02 -0.28179854073E+02  0.44092702897E+02  0.51100000000E-03 0. -1.
         23    2    1    0    0    0  0.91544080758E+00  0.15282935275E+02 -0.27884723960E+02  0.93188618816E+02  0.87590836872E+02 0.  0.
         11    1    3    3    0    0 -0.23329488064E+01  0.49039567777E+02  0.29513011245E+00  0.49095915919E+02  0.51100000000E-03 0.  1.
         22    1    1    0    0    0 -0.91544080758E+00 -0.15282935275E+02  0.27884723960E+02  0.31811381184E+02  0.00000000000E+00 0.  1.
</event>
<event>
 5    1  0.1659417E-003  0.9118800E+02  0.7818608E-02  0.1130116E+00
         25   -1    0    0    0    0  0.00000000000E+00  0.00000000000E+00  0.99999998245E-14  0.12500000000E+03  0.12500000000E+03 0.  0.
        -11    1    3    3    0    0 -0.25300229570E+02  0.27152479013E+02 -0.43443293485E+02  0.57137365024E+02  0.51100000000E-03 0. -1.
         23    2    1    0    0    0 -0.83350957164E+01  0.25007143845E+02 -0.64934637085E+01  0.97852327267E+02  0.94011072841E+02 0.  0.
         11    1    3    3    0    0  0.16965133854E+02 -0.21453351672E+01  0.36949829776E+02  0.40714962242E+02  0.51100000000E-03 0.  1.
         22    1    1    0    0    0  0.83350957164E+01 -0.25007143845E+02  0.64934637085E+01  0.27147672733E+02  0.00000000000E+00 0. -1.
</event>
<event>
 5    1  0.1659417E-003  0.9118800E+02  0.7818608E-02  0.1130116E+00
         25   -1    0    0    0    0  0.00000000000E+00  0.00000000000E+00  0.99999998245E-14  0.12500000000E+03  0.12500000000E+03 0.  0.
        -11    1    3    3    0    0  0.53132724962E+02 -0.16768139499E+02 -0.51191648278E+01  0.55950538987E+02  0.51100000000E-03 0. -1.
         23    2    1    0    0    0  0.24309487729E+02  0.84285173942E+01  0.10384160531E+02  0.97254335671E+02  0.93212573818E+02 0.  0.
         11    1    3    3    0    0 -0.28823237232E+02  0.25196656893E+02  0.15503325358E+02  0.41303796684E+02  0.51100000000E-03 0.  1.
         22    1    1    0    0    0 -0.24309487729E+02 -0.84285173942E+01 -0.10384160531E+02  0.27745664329E+02  0.00000000000E+00 0. -1.
</event>
<event>
 5    1  0.1659417E-003  0.9118800E+02  0.7818608E-02  0.1130116E+00
         25   -1    0    0    0    0  0.00000000000E+00  0.00000000000E+00  0.99999998245E-14  0.12500000000E+03  0.12500000000E+03 0.  0.
        -11    1    3    3    0    0 -0.93797364081E+01  0.25934212955E+02 -0.37336344081E+02  0.46417296844E+02  0.51100000000E-03 0. -1.
         23    2    1    0    0    0 -0.91016658560E+01  0.31676780092E+02  0.71510822883E+01  0.91274687603E+02  0.84815516863E+02 0.  0.
         11    1    3    3    0    0  0.27807055213E+00  0.57425671371E+01  0.44487426369E+02  0.44857390759E+02  0.51100000000E-03 0.  1.
         22    1    1    0    0    0  0.91016658560E+01 -0.31676780092E+02 -0.71510822883E+01  0.33725312397E+02  0.00000000000E+00 0.  1.
</event>
<event>
 5    1  0.1659417E-003  0.9118800E+02  0.7818608E-02  0.1130116E+00
         25   -1    0    0    0    0  0.00000000000E+00  0.00000000000E+00  0.99999998245E-14  0.12500000000E+03  0.12500000000E+03 0.  0.
        -11    1    3    3    0    0 -0.20713860061E+02  0.83252915693E+01 -0.24829156369E+02  0.33389541545E+02  0.51100000000E-03 0. -1.
         23    2    1    0    0    0  0.11818230552E+02  0.44037924489E+00  0.27247497720E+02  0.95296622427E+02  0.90549188879E+02 0.  0.
         11    1    3    3    0    0  0.32532090613E+02 -0.78849123244E+01  0.52076654088E+02  0.61907080882E+02  0.51100000000E-03 0.  1.
         22    1    1    0    0    0 -0.11818230552E+02 -0.44037924489E+00 -0.27247497720E+02  0.29703377573E+02  0.00000000000E+00 0.  1.
</event>
<event>
 5    1  0.1659417E-003  0.9118800E+02  0.7818608E-02  0.1130116E+00
         25   -1    0    0    0    0  0.00000000000E+00  0.00000000000E+00  0.99999998245E-14  0.12500000000E+03  0.12500000000E+03 0.  0.
        -11    1    3    3    0    0  0.10197134387E+02  0.47599805974E+02 -0.33006005148E+02  0.58814279342E+02  0.51100000000E-03 0.  1.
         23    2    1    0    0    0  0.50430252456E+01  0.11594346455E+02 -0.26326177305E+02  0.95795058897E+02  0.91234668434E+02 0.  0.
         11    1    3    3    0    0 -0.51541091410E+01 -0.36005459519E+02  0.66798278425E+01  0.36980779555E+02  0.51100000000E-03 0. -1.
         22    1    1    0    0    0 -0.50430252456E+01 -0.11594346455E+02  0.26326177305E+02  0.29204941103E+02  0.00000000000E+00 0.  1.
</event>
<event>
 5    1  0.1659417E-003  0.9118800E+02  0.7818608E-02  0.1130116E+00
         25   -1    0    0    0    0  0.00000000000E+00  0.00000000000E+00  0.99999998245E-14  0.12500000000E+03  0.12500000000E+03 0.  0.
        -11    1    3    3    0    0  0.21524018955E+00  0.21250457925E+02 -0.22687340643E+02  0.31086069485E+02  0.51100000000E-03 0. -1.
         23    2    1    0    0    0  0.68337621019E+01 -0.33160803006E+02  0.17456193527E+01  0.91097399106E+02  0.84553827686E+02 0.  0.
         11    1    3    3    0    0  0.66185219123E+01 -0.54411260931E+02  0.24432959995E+02  0.60011329620E+02  0.51100000000E-03 0.  1.
         22    1    1    0    0    0 -0.68337621019E+01  0.33160803006E+02 -0.17456193527E+01  0.33902600894E+02  0.00000000000E+00 0.  1.
</event>
<event>
 5    1  0.1659417E-003  0.9118800E+02  0.7818608E-02  0.1130116E+00
         25   -1    0    0    0    0  0.00000000000E+00  0.00000000000E+00  0.99999998245E-14  0.12500000000E+03  0.12500000000E+03 0.  0.
        -11    1    3    3    0    0 -0.16391646633E+02  0.28762560712E+02  0.46281640324E+02  0.56903086115E+02  0.51100000000E-03 0. -1.
         23    2    1    0    0    0 -0.14850475311E+02  0.22838520585E+02  0.67122900678E+01  0.96943102854E+02  0.92794265521E+02 0.  0.
         11    1    3    3    0    0  0.15411713221E+01 -0.59240401268E+01 -0.39569350256E+02  0.40040016739E+02  0.51100000000E-03 0.  1.
         22    1    1    0    0    0  0.14850475311E+02 -0.22838520585E+02 -0.67122900678E+01  0.28056897146E+02  0.00000000000E+00 0. -1.
</event>
<event>
 5    1  0.1659417E-003  0.9118800E+02  0.7818608E-02  0.1130116E+00
         25   -1    0    0    0    0  0.00000000000E+00  0.00000000000E+00  0.99999998245E-14  0.12500000000E+03  0.12500000000E+03 0.  0.
        -11    1    3    3    0    0  0.30538070315E+02  0.41245271180E+02  0.21320105392E+01  0.51364302803E+02  0.51100000000E-03 0.  1.
         23    2    1    0    0    0  0.55714897042E+01  0.16252063394E+02 -0.24126568068E+02  0.95381385096E+02  0.90666125284E+02 0.  0.
         11    1    3    3    0    0 -0.24966580611E+02 -0.24993207786E+02 -0.26258578608E+02  0.44017082293E+02  0.51100000000E-03 0. -1.
         22    1    1    0    0    0 -0.55714897042E+01 -0.16252063394E+02  0.24126568068E+02  0.29618614904E+02  0.00000000000E+00 0.  1.
</event>
<event>
 5    1  0.1659417E-003  0.9118800E+02  0.7818608E-02  0.1130116E+00
         25   -1    0    0    0    0  0.00000000000E+00  0.00000000000E+00  0.99999998245E-14  0.12500000000E+03  0.12500000000E+03 0.  0.
        -11    1    3    3    0    0  0.48956413239E+02 -0.33499306330E+02  0.17456678984E+02  0.61835827505E+02  0.51100000000E-03 0.  1.
         23    2    1    0    0    0  0.26233463476E+02 -0.10797034131E+02  0.55398358204E+01  0.96095669306E+02  0.91645607240E+02 0.  0.
         11    1    3    3    0    0 -0.22722949764E+02  0.22702272199E+02 -0.11916843163E+02  0.34259841800E+02  0.51100000000E-03 0. -1.
         22    1    1    0    0    0 -0.26233463476E+02  0.10797034131E+02 -0.55398358204E+01  0.28904330694E+02  0.00000000000E+00 0.  1.
</event>
<event>
 5    1  0.1659417E-003  0.9118800E+02  0.7818608E-02  0.1130116E+00
         25   -1    0    0    0    0  0.00000000000E+00  0.00000000000E+00  0.99999998245E-14  0.12500000000E+03  0.12500000000E+03 0.  0.
        -11    1    3    3    0    0 -0.14533714425E+02 -0.20751703223E+02 -0.34646873224E+02  0.42921647989E+02  0.51100000000E-03 0. -1.
         23    2    1    0    0    0 -0.50941597347E+01  0.26029034605E+02 -0.14983597753E+02  0.94537411347E+02  0.89494987774E+02 0.  0.
         11    1    3    3    0    0  0.94395546902E+01  0.46780737828E+02  0.19663275471E+02  0.51615763358E+02  0.51100000000E-03 0.  1.
         22    1    1    0    0    0  0.50941597347E+01 -0.26029034605E+02  0.14983597753E+02  0.30462588653E+02  0.00000000000E+00 0. -1.
</event>
<event>
 5    1  0.1659417E-003  0.9118800E+02  0.7818608E-02  0.1130116E+00
         25   -1    0    0    0    0  0.00000000000E+00  0.00000000000E+00  0.99999998245E-14  0.12500000000E+03  0.12500000000E+03 0.  0.
        -11    1    3    3    0    0  0.17300703872E+02 -0.20359805695E+02  0.21769897806E+02  0.34463959336E+02  0.51100000000E-03 0. -1.
         23    2    1    0    0    0 -0.10734844244E+02  0.26610717056E+02 -0.58079627791E+01  0.95723737007E+02  0.91136898410E+02 0.  0.
         11    1    3    3    0    0 -0.28035548116E+02  0.46970522751E+02 -0.27577860585E+02  0.61259777671E+02  0.51100000000E-03 0.  1.
         22    1    1    0    0    0  0.10734844244E+02 -0.26610717056E+02  0.58079627791E+01  0.29276262993E+02  0.00000000000E+00 0.  1.
</event>
<event>
 5    1  0.1659417E-003  0.9118800E+02  0.7818608E-02  0.1130116E+00
         25   -1    0    0    0    0  0.00000000000E+00  0.00000000000E+00  0.99999998245E-14  0.12500000000E+03  0.12500000000E+03 0.  0.
        -11    1    3    3    0    0  0.33175013969E+02  0.44971900655E+02 -0.33273805965E+01  0.55983255195E+02  0.51100000000E-03 0.  1.
         23    2    1    0    0    0  0.29616212103E+02  0.96113436197E+01 -0.10307612506E+02  0.92201450930E+02  0.86170544460E+02 0.  0.
         11    1    3    3    0    0 -0.35588018654E+01 -0.35360557035E+02 -0.69802319094E+01  0.36218195735E+02  0.51100000000E-03 0. -1.
         22    1    1    0    0    0 -0.29616212103E+02 -0.96113436197E+01  0.10307612506E+02  0.32798549070E+02  0.00000000000E+00 0.  1.
</event>
<event>
 5    1  0.1659417E-003  0.9118800E+02  0.7818608E-02  0.1130116E+00
         25   -1    0    0    0    0  0.00000000000E+00  0.00000000000E+00  0.99999998245E-14  0.12500000000E+03  0.12500000000E+03 0.  0.
        -11    1    3    3    0    0 -0.15688757513E+02 -0.36903064492E+02  0.36272057773E+02  0.54070652452E+02  0.51100000000E-03 0. -1.
         23    2    1    0    0    0 -0.23512033380E+02 -0.46602119587E+00  0.16628998181E+02  0.96197978024E+02  0.91785045110E+02 0.  0.
         11    1    3    3    0    0 -0.78232758670E+01  0.36437043296E+02 -0.19643059592E+02  0.42127325572E+02  0.51100000000E-03 0.  1.
         22    1    1    0    0    0  0.23512033380E+02  0.46602119587E+00 -0.16628998181E+02  0.28802021976E+02  0.00000000000E+00 0. -1.
</event>
<event>
 5    1  0.1659417E-003  0.9118800E+02  0.7818608E-02  0.1130116E+00
         25   -1    0    0    0    0  0.00000000000E+00  0.00000000000E+00  0.99999998245E-14  0.12500000000E+03  0.12500000000E+03 0.  0.
        -11    1    3    3    0    0  0.10899866523E+02 -0.17292530050E+02 -0.29801064896E+02  0.36137821669E+02  0.51100000000E-03 0.  1.
         23    2    1    0    0    0 -0.18207744563E+02  0.23371505903E+02  0.18413159953E+01  0.95316002714E+02  0.90575938740E+02 0.  0.
         11    1    3    3    0    0 -0.29107611086E+02  0.40664035953E+02  0.31642380891E+02  0.59178181046E+02  0.51100000000E-03 0. -1.
         22    1    1    0    0    0  0.18207744563E+02 -0.23371505903E+02 -0.18413159953E+01  0.29683997286E+02  0.00000000000E+00 0. -1.
</event>
<event>
 5    1  0.1659417E-003  0.9118800E+02  0.7818608E-02  0.1130116E+00
         25   -1    0    0    0    0  0.00000000000E+00  0.00000000000E+00  0.99999998245E-14  0.12500000000E+03  0.12500000000E+03 0.  0.
        -11    1    3    3    0    0 -0.14746086375E+02 -0.21114459657E+02 -0.22029870462E+02  0.33890745976E+02  0.51100000000E-03 0.  1.
         23    2    1    0    0    0 -0.74704242403E+01  0.20260039535E+02  0.21599984108E+02  0.94457640010E+02  0.89383499610E+02 0.  0.
         11    1    3    3    0    0  0.72756621346E+01  0.41374499192E+02  0.43629854570E+02  0.60566894034E+02  0.51100000000E-03 0. -1.
         22    1    1    0    0    0  0.74704242403E+01 -0.20260039535E+02 -0.21599984108E+02  0.30542359990E+02  0.00000000000E+00 0. -1.
</event>
<event>
 5    1  0.1659417E-003  0.9118800E+02  0.7818608E-02  0.1130116E+00
         25   -1    0    0    0    0  0.00000000000E+00  0.00000000000E+00  0.99999998245E-14  0.12500000000E+03  0.12500000000E+03 0.  0.
        -11    1    3    3    0    0  0.36633027842E+01 -0.80069705659E+00 -0.40211639008E+02  0.40386096803E+02  0.51100000000E-03 0.  1.
         23    2    1    0    0    0 -0.21889489957E+02  0.16536067294E+02  0.68968070699E+01  0.96712949255E+02  0.92483713775E+02 0.  0.
         11    1    3    3    0    0 -0.25552792741E+02  0.17336764350E+02  0.47108446077E+02  0.56326852451E+02  0.51100000000E-03 0. -1.
         22    1    1    0    0    0  0.21889489957E+02 -0.16536067294E+02 -0.68968070699E+01  0.28287050745E+02  0.00000000000E+00 0. -1.
</event>
<event>
 5    1  0.1659417E-003  0.9118800E+02  0.7818608E-02  0.1130116E+00
         25   -1    0    0    0    0  0.00000000000E+00  0.00000000000E+00  0.99999998245E-14  0.12500000000E+03  0.12500000000E+03 0.  0.
        -11    1    3    3    0    0  0.36972135368E+02 -0.86615071585E+01  0.16535924288E+01  0.38009141901E+02  0.51100000000E-03 0.  1.
         23    2    1    0    0    0 -0.79659598007E+01  0.32994412094E+01 -0.29686478119E+02  0.94086737297E+02  0.88863290083E+02 0.  0.
         11    1    3    3    0    0 -0.44938095168E+02  0.11960948368E+02 -0.31340070547E+02  0.56077595396E+02  0.51100000000E-03 0. -1.
         22    1    1    0    0    0  0.79659598007E+01 -0.32994412094E+01  0.29686478119E+02  0.30913262703E+02  0.00000000000E+00 0. -1.
</event>
<event>
 5    1  0.1659417E-003  0.9118800E+02  0.7818608E-02  0.1130116E+00
         25   -1    0    0    0    0  0.00000000000E+00  0.00000000000E+00  0.99999998245E-14  0.12500000000E+03  0.12500000000E+03 0.  0.
        -11    1    3    3    0    0  0.20835496432E+02  0.23987133448E+02 -0.36766249987E+02  0.48592773341E+02  0.51100000000E-03 0.  1.
         23    2    1    0    0    0  0.26953795851E+00 -0.15860907850E+02 -0.25729748534E+02  0.94773174031E+02  0.89823680105E+02 0.  0.
         11    1    3    3    0    0 -0.20565958474E+02 -0.39848041299E+02  0.11036501453E+02  0.46180400690E+02  0.51100000000E-03 0. -1.
         22    1    1    0    0    0 -0.26953795851E+00  0.15860907850E+02  0.25729748534E+02  0.30226825969E+02  0.00000000000E+00 0. -1.
</event>
<event>
 5    1  0.1659417E-003  0.9118800E+02  0.7818608E-02  0.1130116E+00
         25   -1    0    0    0    0  0.00000000000E+00  0.00000000000E+00  0.99999998245E-14  0.12500000000E+03  0.12500000000E+03 0.  0.
        -11    1    3    3    0    0 -0.13352508189E+02  0.13460496875E+02  0.33614465619E+02  0.38592832886E+02  0.51100000000E-03 0.  1.
         23    2    1    0    0    0  0.11371254062E+02 -0.22319174097E+02 -0.79180743027E+01  0.98729353796E+02  0.95170050168E+02 0.  0.
         11    1    3    3    0    0  0.24723762251E+02 -0.35779670971E+02 -0.41532539921E+02  0.60136520911E+02  0.51100000000E-03 0. -1.
         22    1    1    0    0    0 -0.11371254062E+02  0.22319174097E+02  0.79180743027E+01  0.26270646204E+02  0.00000000000E+00 0. -1.
</event>
<event>
 5    1  0.1659417E-003  0.9118800E+02  0.7818608E-02  0.1130116E+00
         25   -1    0    0    0    0  0.00000000000E+00  0.00000000000E+00  0.99999998245E-14  0.12500000000E+03  0.12500000000E+03 0.  0.
        -11    1    3    3    0    0  0.20549791811E+02  0.33501504884E+01  0.32520130250E+02  0.38614457441E+02  0.51100000000E-03 0. -1.
         23    2    1    0    0    0  0.26752677818E+01  0.24055045540E+02 -0.17162573546E+02  0.95329202835E+02  0.90594153834E+02 0.  0.
         11    1    3    3    0    0 -0.17874524029E+02  0.20704895052E+02 -0.49682703796E+02  0.56714745394E+02  0.51100000000E-03 0.  1.
         22    1    1    0    0    0 -0.26752677818E+01 -0.24055045540E+02  0.17162573546E+02  0.29670797165E+02  0.00000000000E+00 0.  1.
</event>
<event>
 5    1  0.1659417E-003  0.9118800E+02  0.7818608E-02  0.1130116E+00
         25   -1    0    0    0    0  0.00000000000E+00  0.00000000000E+00  0.99999998245E-14  0.12500000000E+03  0.12500000000E+03 0.  0.
        -11    1    3    3    0    0 -0.75128231341E+01  0.21432863782E+02  0.40955823879E+02  0.46831502978E+02  0.51100000000E-03 0.  1.
         23    2    1    0    0    0  0.24829667714E+02  0.16011332420E+02  0.58307009346E+01  0.94885680515E+02  0.89980109628E+02 0.  0.
         11    1    3    3    0    0  0.32342490848E+02 -0.54215313616E+01 -0.35125122944E+02  0.48054177536E+02  0.51100000000E-03 0. -1.
         22    1    1    0    0    0 -0.24829667714E+02 -0.16011332420E+02 -0.58307009346E+01  0.30114319485E+02  0.00000000000E+00 0.  1.
</event>
<event>
 5    1  0.1659417E-003  0.9118800E+02  0.7818608E-02  0.1130116E+00
         25   -1    0    0    0    0  0.00000000000E+00  0.00000000000E+00  0.99999998245E-14  0.12500000000E+03  0.12500000000E+03 0.  0.
        -11    1    3    3    0    0  0.43019359507E+01  0.34484778687E+02 -0.60004479831E+01  0.35266301058E+02  0.51100000000E-03 0. -1.
         23    2    1    0    0    0  0.18825983218E+01 -0.98276633963E+01  0.30609412503E+02  0.92796533136E+02  0.87029496633E+02 0.  0.
         11    1    3    3    0    0 -0.24193376289E+01 -0.44312442084E+02  0.36609860486E+02  0.57530232079E+02  0.51100000000E-03 0.  1.
         22    1    1    0    0    0 -0.18825983218E+01  0.98276633963E+01 -0.30609412503E+02  0.32203466864E+02  0.00000000000E+00 0.  1.
</event>
<event>
 5    1  0.1659417E-003  0.9118800E+02  0.7818608E-02  0.1130116E+00
         25   -1    0    0    0    0  0.00000000000E+00  0.00000000000E+00  0.99999998245E-14  0.12500000000E+03  0.12500000000E+03 0.  0.
        -11    1    3    3    0    0 -0.41871431641E+01 -0.42810037658E+02  0.29121532510E+02  0.51945116693E+02  0.51100000000E-03 0. -1.
         23    2    1    0    0    0 -0.17078278605E+02 -0.21603694839E+02 -0.77507703210E+01  0.96391230866E+02  0.92047855577E+02 0.  0.
         11    1    3    3    0    0 -0.12891135441E+02  0.21206342819E+02 -0.36872302831E+02  0.44446114173E+02  0.51100000000E-03 0.  1.
         22    1    1    0    0    0  0.17078278605E+02  0.21603694839E+02  0.77507703210E+01  0.28608769134E+02  0.00000000000E+00 0. -1.
</event>
<event>
 5    1  0.1659417E-003  0.9118800E+02  0.7818608E-02  0.1130116E+00
         25   -1    0    0    0    0  0.00000000000E+00  0.00000000000E+00  0.99999998245E-14  0.12500000000E+03  0.12500000000E+03 0.  0.
        -11    1    3    3    0    0 -0.89004837953E+01 -0.22486059454E+02 -0.26281857994E+02  0.35715228424E+02  0.51100000000E-03 0. -1.
         23    2    1    0    0    0 -0.75903190673E+01 -0.50679850079E-02  0.28796832338E+02  0.95219628580E+02  0.90442839103E+02 0.  0.
         11    1    3    3    0    0  0.13101647279E+01  0.22480991469E+02  0.55078690331E+02  0.59504400156E+02  0.51100000000E-03 0.  1.
         22    1    1    0    0    0  0.75903190673E+01  0.50679850079E-02 -0.28796832338E+02  0.29780371420E+02  0.00000000000E+00 0.  1.
</event>
<event>
 5    1  0.1659417E-003  0.9118800E+02  0.7818608E-02  0.1130116E+00
         25   -1    0    0    0    0  0.00000000000E+00  0.00000000000E+00  0.99999998245E-14  0.12500000000E+03  0.12500000000E+03 0.  0.
        -11    1    3    3    0    0 -0.89768356333E+01  0.30969644913E+02  0.42380594742E+02  0.53252392387E+02  0.51100000000E-03 0.  1.
         23    2    1    0    0    0 -0.76695224922E+01  0.26550958905E+02 -0.14509173175E+01  0.97325460165E+02  0.93307904495E+02 0.  0.
         11    1    3    3    0    0  0.13073131411E+01 -0.44186860086E+01 -0.43831512059E+02  0.44073067778E+02  0.51100000000E-03 0. -1.
         22    1    1    0    0    0  0.76695224922E+01 -0.26550958905E+02  0.14509173175E+01  0.27674539835E+02  0.00000000000E+00 0.  1.
</event>
<event>
 5    1  0.1659417E-003  0.9118800E+02  0.7818608E-02  0.1130116E+00
         25   -1    0    0    0    0  0.00000000000E+00  0.00000000000E+00  0.99999998245E-14  0.12500000000E+03  0.12500000000E+03 0.  0.
        -11    1    3    3    0    0  0.45700176877E+02 -0.82366195024E+01  0.16059028160E+02  0.49134920913E+02  0.51100000000E-03 0. -1.
         23    2    1    0    0    0  0.44677386212E+01 -0.27235990669E+02 -0.31930279185E+00  0.97398155308E+02  0.93405239827E+02 0.  0.
         11    1    3    3    0    0 -0.41232438256E+02 -0.18999371167E+02 -0.16378330952E+02  0.48263234395E+02  0.51100000000E-03 0.  1.
         22    1    1    0    0    0 -0.44677386212E+01  0.27235990669E+02  0.31930279185E+00  0.27601844692E+02  0.00000000000E+00 0.  1.
</event>
<event>
 5    1  0.1659417E-003  0.9118800E+02  0.7818608E-02  0.1130116E+00
         25   -1    0    0    0    0  0.00000000000E+00  0.00000000000E+00  0.99999998245E-14  0.12500000000E+03  0.12500000000E+03 0.  0.
        -11    1    3    3    0    0  0.19252299379E+02  0.35540527459E+02  0.33317824561E+02  0.52381843774E+02  0.51100000000E-03 0. -1.
         23    2    1    0    0    0  0.88118680729E+01 -0.28081802785E+01  0.31502695186E+02  0.92167779554E+02  0.86121686517E+02 0.  0.
         11    1    3    3    0    0 -0.10440431306E+02 -0.38348707737E+02 -0.18151293749E+01  0.39785935780E+02  0.51100000000E-03 0.  1.
         22    1    1    0    0    0 -0.88118680729E+01  0.28081802785E+01 -0.31502695186E+02  0.32832220446E+02  0.00000000000E+00 0. -1.
</event>
<event>
 5    1  0.1659417E-003  0.9118800E+02  0.7818608E-02  0.1130116E+00
         25   -1    0    0    0    0  0.00000000000E+00  0.00000000000E+00  0.99999998245E-14  0.12500000000E+03  0.12500000000E+03 0.  0.
        -11    1    3    3    0    0  0.43232478621E+02  0.22242942618E+02 -0.61337697647E+01  0.49004273648E+02  0.51100000000E-03 0. -1.
         23    2    1    0    0    0  0.22303361230E+02 -0.17525207087E+02  0.69240408667E+01  0.95802137964E+02  0.91244366900E+02 0.  0.
         11    1    3    3    0    0 -0.20929117391E+02 -0.39768149705E+02  0.13057810631E+02  0.46797864315E+02  0.51100000000E-03 0.  1.
         22    1    1    0    0    0 -0.22303361230E+02  0.17525207087E+02 -0.69240408667E+01  0.29197862036E+02  0.00000000000E+00 0.  1.
</event>
<event>
 5    1  0.1659417E-003  0.9118800E+02  0.7818608E-02  0.1130116E+00
         25   -1    0    0    0    0  0.00000000000E+00  0.00000000000E+00  0.99999998245E-14  0.12500000000E+03  0.12500000000E+03 0.  0.
        -11    1    3    3    0    0  0.35408907698E+02 -0.12484042490E+02  0.28017693121E+02  0.46846912272E+02  0.51100000000E-03 0.  1.
         23    2    1    0    0    0  0.16313311690E+02 -0.17037203588E+02 -0.16977162891E+02  0.95937747778E+02  0.91429956494E+02 0.  0.
         11    1    3    3    0    0 -0.19095596008E+02 -0.45531610982E+01 -0.44994856012E+02  0.49090835506E+02  0.51100000000E-03 0. -1.
         22    1    1    0    0    0 -0.16313311690E+02  0.17037203588E+02  0.16977162891E+02  0.29062252222E+02  0.00000000000E+00 0. -1.
</event>
<event>
 5    1  0.1659417E-003  0.9118800E+02  0.7818608E-02  0.1130116E+00
         25   -1    0    0    0    0  0.00000000000E+00  0.00000000000E+00  0.99999998245E-14  0.12500000000E+03  0.12500000000E+03 0.  0.
        -11    1    3    3    0    0  0.21694943935E+02  0.98310927529E+01 -0.51663035862E+02  0.56889280640E+02  0.51100000000E-03 0.  1.
         23    2    1    0    0    0  0.91181881413E+01  0.22128934482E+02 -0.17380709625E+02  0.95420950601E+02  0.90720657241E+02 0.  0.
         11    1    3    3    0    0 -0.12576755793E+02  0.12297841729E+02  0.34282326237E+02  0.38531669961E+02  0.51100000000E-03 0. -1.
         22    1    1    0    0    0 -0.91181881413E+01 -0.22128934482E+02  0.17380709625E+02  0.29579049399E+02  0.00000000000E+00 0.  1.
</event>
<event>
 5    1  0.1659417E-003  0.9118800E+02  0.7818608E-02  0.1130116E+00
         25   -1    0    0    0    0  0.00000000000E+00  0.00000000000E+00  0.99999998245E-14  0.12500000000E+03  0.12500000000E+03 0.  0.
        -11    1    3    3    0    0  0.46290514577E+01  0.18983150462E+02 -0.34941432306E+02  0.40033633494E+02  0.51100000000E-03 0.  1.
         23    2    1    0    0    0 -0.13258500857E+02 -0.25461916197E+02 -0.71673041186E+01  0.95411703838E+02  0.90707915639E+02 0.  0.
         11    1    3    3    0    0 -0.17887552315E+02 -0.44445066660E+02  0.27774128188E+02  0.55378070344E+02  0.51100000000E-03 0. -1.
         22    1    1    0    0    0  0.13258500857E+02  0.25461916197E+02  0.71673041186E+01  0.29588296162E+02  0.00000000000E+00 0. -1.
</event>
<event>
 5    1  0.1659417E-003  0.9118800E+02  0.7818608E-02  0.1130116E+00
         25   -1    0    0    0    0  0.00000000000E+00  0.00000000000E+00  0.99999998245E-14  0.12500000000E+03  0.12500000000E+03 0.  0.
        -11    1    3    3    0    0 -0.10410877382E+02  0.18385735968E+02 -0.55517996339E+02  0.59402605773E+02  0.51100000000E-03 0.  1.
         23    2    1    0    0    0  0.29158048680E+01  0.19411528705E+02 -0.21844724007E+02  0.95631627017E+02  0.91010476069E+02 0.  0.
         11    1    3    3    0    0  0.13326682250E+02  0.10257927373E+01  0.33673272331E+02  0.36229021244E+02  0.51100000000E-03 0. -1.
         22    1    1    0    0    0 -0.29158048680E+01 -0.19411528705E+02  0.21844724007E+02  0.29368372983E+02  0.00000000000E+00 0.  1.
</event>
<event>
 5    1  0.1659417E-003  0.9118800E+02  0.7818608E-02  0.1130116E+00
         25   -1    0    0    0    0  0.00000000000E+00  0.00000000000E+00  0.99999998245E-14  0.12500000000E+03  0.12500000000E+03 0.  0.
        -11    1    3    3    0    0  0.32694240857E+02 -0.18318076592E+02 -0.35019185914E+00  0.37477832779E+02  0.51100000000E-03 0.  1.
         23    2    1    0    0    0 -0.32519933347E+01  0.13229350857E+02 -0.28809921287E+02  0.93131477140E+02  0.87509252567E+02 0.  0.
         11    1    3    3    0    0 -0.35946234192E+02  0.31547427448E+02 -0.28459729428E+02  0.55653644360E+02  0.51100000000E-03 0. -1.
         22    1    1    0    0    0  0.32519933347E+01 -0.13229350857E+02  0.28809921287E+02  0.31868522860E+02  0.00000000000E+00 0.  1.
</event>
<event>
 5    1  0.1659417E-003  0.9118800E+02  0.7818608E-02  0.1130116E+00
         25   -1    0    0    0    0  0.00000000000E+00  0.00000000000E+00  0.99999998245E-14  0.12500000000E+03  0.12500000000E+03 0.  0.
        -11    1    3    3    0    0  0.85077119453E+01 -0.70920858740E+01  0.39206882018E+02  0.40741360341E+02  0.51100000000E-03 0. -1.
         23    2    1    0    0    0 -0.68298324528E+01  0.27078093628E+02 -0.26964826100E+01  0.96943970625E+02  0.92795434458E+02 0.  0.
         11    1    3    3    0    0 -0.15337544398E+02  0.34170179502E+02 -0.41903364628E+02  0.56202610284E+02  0.51100000000E-03 0.  1.
         22    1    1    0    0    0  0.68298324528E+01 -0.27078093628E+02  0.26964826100E+01  0.28056029375E+02  0.00000000000E+00 0.  1.
</event>
<event>
 5    1  0.1659417E-003  0.9118800E+02  0.7818608E-02  0.1130116E+00
         25   -1    0    0    0    0  0.00000000000E+00  0.00000000000E+00  0.99999998245E-14  0.12500000000E+03  0.12500000000E+03 0.  0.
        -11    1    3    3    0    0  0.29026324975E+02 -0.54861832886E+01 -0.18799250118E+02  0.35014819061E+02  0.51100000000E-03 0. -1.
         23    2    1    0    0    0 -0.10157580507E+02  0.21901442600E+01  0.27174098278E+02  0.95906963189E+02  0.91387859135E+02 0.  0.
         11    1    3    3    0    0 -0.39183905482E+02  0.76763275486E+01  0.45973348396E+02  0.60892144128E+02  0.51100000000E-03 0.  1.
         22    1    1    0    0    0  0.10157580507E+02 -0.21901442600E+01 -0.27174098278E+02  0.29093036811E+02  0.00000000000E+00 0.  1.
</event>
<event>
 5    1  0.1659417E-003  0.9118800E+02  0.7818608E-02  0.1130116E+00
         25   -1    0    0    0    0  0.00000000000E+00  0.00000000000E+00  0.99999998245E-14  0.12500000000E+03  0.12500000000E+03 0.  0.
        -11    1    3    3    0    0 -0.36786810835E+02 -0.14542643947E+02 -0.43323191464E+02  0.58665636137E+02  0.51100000000E-03 0. -1.
         23    2    1    0    0    0 -0.96896844265E+01  0.48675475725E+01 -0.27252624756E+02  0.95669323913E+02  0.91062236839E+02 0.  0.
         11    1    3    3    0    0  0.27097126409E+02  0.19410191520E+02  0.16070566709E+02  0.37003687776E+02  0.51100000000E-03 0.  1.
         22    1    1    0    0    0  0.96896844265E+01 -0.48675475725E+01  0.27252624756E+02  0.29330676087E+02  0.00000000000E+00 0. -1.
</event>
<event>
 5    1  0.1659417E-003  0.9118800E+02  0.7818608E-02  0.1130116E+00
         25   -1    0    0    0    0  0.00000000000E+00  0.00000000000E+00  0.99999998245E-14  0.12500000000E+03  0.12500000000E+03 0.  0.
        -11    1    3    3    0    0  0.24525989060E+02 -0.26114826223E+02 -0.12378366968E+02  0.37904251175E+02  0.51100000000E-03 0. -1.
         23    2    1    0    0    0 -0.93405109489E+01 -0.26032020596E+01  0.27852088877E+02  0.95508295055E+02  0.90840925600E+02 0.  0.
         11    1    3    3    0    0 -0.33866500009E+02  0.23511624164E+02  0.40230455845E+02  0.57604043881E+02  0.51100000000E-03 0.  1.
         22    1    1    0    0    0  0.93405109489E+01  0.26032020596E+01 -0.27852088877E+02  0.29491704945E+02  0.00000000000E+00 0.  1.
</event>
<event>
 5    1  0.1659417E-003  0.9118800E+02  0.7818608E-02  0.1130116E+00
         25   -1    0    0    0    0  0.00000000000E+00  0.00000000000E+00  0.99999998245E-14  0.12500000000E+03  0.12500000000E+03 0.  0.
        -11    1    3    3    0    0  0.18541627397E+02  0.23861421819E+02  0.27968197518E+02  0.41174985980E+02  0.51100000000E-03 0.  1.
         23    2    1    0    0    0 -0.25047363112E+02 -0.57523432514E+01  0.14189327165E+02  0.95643623228E+02  0.91026950993E+02 0.  0.
         11    1    3    3    0    0 -0.43588990510E+02 -0.29613765070E+02 -0.13778870353E+02  0.54468637249E+02  0.51100000000E-03 0. -1.
         22    1    1    0    0    0  0.25047363112E+02  0.57523432514E+01 -0.14189327165E+02  0.29356376772E+02  0.00000000000E+00 0. -1.
</event>
<event>
 5    1  0.1659417E-003  0.9118800E+02  0.7818608E-02  0.1130116E+00
         25   -1    0    0    0    0  0.00000000000E+00  0.00000000000E+00  0.99999998245E-14  0.12500000000E+03  0.12500000000E+03 0.  0.
        -11    1    3    3    0    0  0.31435378846E+02 -0.99046397755E+01  0.25082132398E+02  0.41417367108E+02  0.51100000000E-03 0. -1.
         23    2    1    0    0    0 -0.21880941329E+02 -0.13625617643E+02  0.12633209084E+02  0.96294059476E+02  0.91915803152E+02 0.  0.
         11    1    3    3    0    0 -0.53316320175E+02 -0.37209778675E+01 -0.12448923314E+02  0.54876692368E+02  0.51100000000E-03 0.  1.
         22    1    1    0    0    0  0.21880941329E+02  0.13625617643E+02 -0.12633209084E+02  0.28705940524E+02  0.00000000000E+00 0. -1.
</event>
<event>
 5    1  0.1659417E-003  0.9118800E+02  0.7818608E-02  0.1130116E+00
         25   -1    0    0    0    0  0.00000000000E+00  0.00000000000E+00  0.99999998245E-14  0.12500000000E+03  0.12500000000E+03 0.  0.
        -11    1    3    3    0    0  0.34301963789E+02  0.13610221263E+00 -0.11112751671E+02  0.36057405530E+02  0.51100000000E-03 0.  1.
         23    2    1    0    0    0 -0.15641233598E+02  0.19355928485E+02  0.15354411460E+02  0.95758623370E+02  0.91184734701E+02 0.  0.
         11    1    3    3    0    0 -0.49943197387E+02  0.19219826272E+02  0.26467163131E+02  0.59701217840E+02  0.51100000000E-03 0. -1.
         22    1    1    0    0    0  0.15641233598E+02 -0.19355928485E+02 -0.15354411460E+02  0.29241376630E+02  0.00000000000E+00 0. -1.
</event>
<event>
 5    1  0.1659417E-003  0.9118800E+02  0.7818608E-02  0.1130116E+00
         25   -1    0    0    0    0  0.00000000000E+00  0.00000000000E+00  0.99999998245E-14  0.12500000000E+03  0.12500000000E+03 0.  0.
        -11    1    3    3    0    0 -0.14829894606E+02 -0.13515444643E+02 -0.31279683390E+02  0.37161964577E+02  0.51100000000E-03 0.  1.
         23    2    1    0    0    0 -0.59036162718E+01 -0.75168605347E+01  0.26964956788E+02  0.96391176676E+02  0.92047781989E+02 0.  0.
         11    1    3    3    0    0  0.89262783343E+01  0.59985841083E+01  0.58244640178E+02  0.59229212100E+02  0.51100000000E-03 0. -1.
         22    1    1    0    0    0  0.59036162718E+01  0.75168605347E+01 -0.26964956788E+02  0.28608823324E+02  0.00000000000E+00 0. -1.
</event>
<event>
 5    1  0.1659417E-003  0.9118800E+02  0.7818608E-02  0.1130116E+00
         25   -1    0    0    0    0  0.00000000000E+00  0.00000000000E+00  0.99999998245E-14  0.12500000000E+03  0.12500000000E+03 0.  0.
        -11    1    3    3    0    0  0.21143996340E+02 -0.19171909175E+01 -0.28147548634E+02  0.35256612098E+02  0.51100000000E-03 0.  1.
         23    2    1    0    0    0 -0.16503230886E+02 -0.61565891915E+01  0.21179292839E+02  0.97453263981E+02  0.93478960174E+02 0.  0.
         11    1    3    3    0    0 -0.37647227226E+02 -0.42393982740E+01  0.49326841473E+02  0.62196651883E+02  0.51100000000E-03 0. -1.
         22    1    1    0    0    0  0.16503230886E+02  0.61565891915E+01 -0.21179292839E+02  0.27546736019E+02  0.00000000000E+00 0. -1.
</event>
<event>
 5    1  0.1659417E-003  0.9118800E+02  0.7818608E-02  0.1130116E+00
         25   -1    0    0    0    0  0.00000000000E+00  0.00000000000E+00  0.99999998245E-14  0.12500000000E+03  0.12500000000E+03 0.  0.
        -11    1    3    3    0    0 -0.83786526367E+01  0.54866062565E+02 -0.74080882408E+01  0.55994342688E+02  0.51100000000E-03 0.  1.
         23    2    1    0    0    0  0.16331686679E+02  0.24503561248E+02 -0.25274462316E+01  0.95444349304E+02  0.90752891557E+02 0.  0.
         11    1    3    3    0    0  0.24710339315E+02 -0.30362501317E+02  0.48806420093E+01  0.39450006616E+02  0.51100000000E-03 0. -1.
         22    1    1    0    0    0 -0.16331686679E+02 -0.24503561248E+02  0.25274462316E+01  0.29555650696E+02  0.00000000000E+00 0.  1.
</event>
<event>
 5    1  0.1659417E-003  0.9118800E+02  0.7818608E-02  0.1130116E+00
         25   -1    0    0    0    0  0.00000000000E+00  0.00000000000E+00  0.99999998245E-14  0.12500000000E+03  0.12500000000E+03 0.  0.
        -11    1    3    3    0    0 -0.12683887656E+02  0.13968585178E+02 -0.30165597678E+02  0.35580411204E+02  0.51100000000E-03 0. -1.
         23    2    1    0    0    0  0.22621257152E+02 -0.13512052121E+02  0.11065280867E+02  0.96421384423E+02  0.92088794680E+02 0.  0.
         11    1    3    3    0    0  0.35305144808E+02 -0.27480637299E+02  0.41230878545E+02  0.60840973218E+02  0.51100000000E-03 0.  1.
         22    1    1    0    0    0 -0.22621257152E+02  0.13512052121E+02 -0.11065280867E+02  0.28578615577E+02  0.00000000000E+00 0.  1.
</event>
<event>
 5    1  0.1659417E-003  0.9118800E+02  0.7818608E-02  0.1130116E+00
         25   -1    0    0    0    0  0.00000000000E+00  0.00000000000E+00  0.99999998245E-14  0.12500000000E+03  0.12500000000E+03 0.  0.
        -11    1    3    3    0    0  0.16815073124E+02 -0.43955501640E+02 -0.27800094568E+02  0.54659656666E+02  0.51100000000E-03 0. -1.
         23    2    1    0    0    0  0.21391772952E+01 -0.26481357354E+02  0.81234532396E+01  0.97218191935E+02  0.93164091708E+02 0.  0.
         11    1    3    3    0    0 -0.14675895829E+02  0.17474144286E+02  0.35923547808E+02  0.42558535269E+02  0.51100000000E-03 0.  1.
         22    1    1    0    0    0 -0.21391772952E+01  0.26481357354E+02 -0.81234532396E+01  0.27781808065E+02  0.00000000000E+00 0. -1.
</event>
<event>
 5    1  0.1659417E-003  0.9118800E+02  0.7818608E-02  0.1130116E+00
         25   -1    0    0    0    0  0.00000000000E+00  0.00000000000E+00  0.99999998245E-14  0.12500000000E+03  0.12500000000E+03 0.  0.
        -11    1    3    3    0    0 -0.24472390250E+02  0.16359678448E+02 -0.30885970742E+02  0.42667085117E+02  0.51100000000E-03 0.  1.
         23    2    1    0    0    0  0.21835715870E+02 -0.49248201789E+01 -0.20430611734E+02  0.94693858095E+02  0.89713234942E+02 0.  0.
         11    1    3    3    0    0  0.46308106120E+02 -0.21284498627E+02  0.10455359007E+02  0.52026772978E+02  0.51100000000E-03 0. -1.
         22    1    1    0    0    0 -0.21835715870E+02  0.49248201789E+01  0.20430611734E+02  0.30306141905E+02  0.00000000000E+00 0. -1.
</event>
<event>
 5    1  0.1659417E-003  0.9118800E+02  0.7818608E-02  0.1130116E+00
         25   -1    0    0    0    0  0.00000000000E+00  0.00000000000E+00  0.99999998245E-14  0.12500000000E+03  0.12500000000E+03 0.  0.
        -11    1    3    3    0    0  0.13743743498E+02 -0.30589946875E+02 -0.48981300527E+02  0.59361630173E+02  0.51100000000E-03 0.  1.
         23    2    1    0    0    0  0.18202163484E+02 -0.67368840593E+01 -0.22748351651E+02  0.95096958931E+02  0.90273139598E+02 0.  0.
         11    1    3    3    0    0  0.44584199862E+01  0.23853062816E+02  0.26232948876E+02  0.35735328759E+02  0.51100000000E-03 0. -1.
         22    1    1    0    0    0 -0.18202163484E+02  0.67368840593E+01  0.22748351651E+02  0.29903041069E+02  0.00000000000E+00 0.  1.
</event>
<event>
 5    1  0.1659417E-003  0.9118800E+02  0.7818608E-02  0.1130116E+00
         25   -1    0    0    0    0  0.00000000000E+00  0.00000000000E+00  0.99999998245E-14  0.12500000000E+03  0.12500000000E+03 0.  0.
        -11    1    3    3    0    0 -0.30690142102E+02  0.33711156860E+02  0.40896536793E+02  0.61244213123E+02  0.51100000000E-03 0. -1.
         23    2    1    0    0    0 -0.22304518709E+02  0.11390417146E+02  0.19987830849E+02  0.92957114056E+02  0.87259833336E+02 0.  0.
         11    1    3    3    0    0  0.83856233932E+01 -0.22320739713E+02 -0.20908705945E+02  0.31712900933E+02  0.51100000000E-03 0.  1.
         22    1    1    0    0    0  0.22304518709E+02 -0.11390417146E+02 -0.19987830849E+02  0.32042885944E+02  0.00000000000E+00 0. -1.
</event>
<event>
 5    1  0.1659417E-003  0.9118800E+02  0.7818608E-02  0.1130116E+00
         25   -1    0    0    0    0  0.00000000000E+00  0.00000000000E+00  0.99999998245E-14  0.12500000000E+03  0.12500000000E+03 0.  0.
        -11    1    3    3    0    0 -0.13636976979E+02 -0.23069761471E+02 -0.37821194705E+02  0.46353250206E+02  0.51100000000E-03 0.  1.
         23    2    1    0    0    0 -0.16944797158E+01 -0.31730300814E+02  0.60634925232E+01  0.92651133052E+02  0.86820408102E+02 0.  0.
         11    1    3    3    0    0  0.11942497263E+02 -0.86605393426E+01  0.43884687229E+02  0.46297882846E+02  0.51100000000E-03 0. -1.
         22    1    1    0    0    0  0.16944797158E+01  0.31730300814E+02 -0.60634925232E+01  0.32348866948E+02  0.00000000000E+00 0. -1.
</event>
<event>
 5    1  0.1659417E-003  0.9118800E+02  0.7818608E-02  0.1130116E+00
         25   -1    0    0    0    0  0.00000000000E+00  0.00000000000E+00  0.99999998245E-14  0.12500000000E+03  0.12500000000E+03 0.  0.
        -11    1    3    3    0    0 -0.43158427316E+02 -0.10830368849E+02  0.39928469381E+02  0.59784859331E+02  0.51100000000E-03 0.  1.
         23    2    1    0    0    0 -0.14996710817E+02 -0.13520585590E+02  0.27981295110E+02  0.90494052019E+02  0.83657115685E+02 0.  0.
         11    1    3    3    0    0  0.28161716498E+02 -0.26902167405E+01 -0.11947174271E+02  0.30709192688E+02  0.51100000000E-03 0. -1.
         22    1    1    0    0    0  0.14996710817E+02  0.13520585590E+02 -0.27981295110E+02  0.34505947981E+02  0.00000000000E+00 0.  1.
</event>
<event>
 5    1  0.1659417E-003  0.9118800E+02  0.7818608E-02  0.1130116E+00
         25   -1    0    0    0    0  0.00000000000E+00  0.00000000000E+00  0.99999998245E-14  0.12500000000E+03  0.12500000000E+03 0.  0.
        -11    1    3    3    0    0  0.20655424853E+02 -0.25288453268E+02 -0.14319541304E+02  0.35653915745E+02  0.51100000000E-03 0. -1.
         23    2    1    0    0    0 -0.23963134115E+02  0.14795547336E+02 -0.59648297696E+01  0.96212516404E+02  0.91804842471E+02 0.  0.
         11    1    3    3    0    0 -0.44618558968E+02  0.40084000604E+02  0.83547115347E+01  0.60558600659E+02  0.51100000000E-03 0.  1.
         22    1    1    0    0    0  0.23963134115E+02 -0.14795547336E+02  0.59648297696E+01  0.28787483596E+02  0.00000000000E+00 0.  1.
</event>
<event>
 5    1  0.1659417E-003  0.9118800E+02  0.7818608E-02  0.1130116E+00
         25   -1    0    0    0    0  0.00000000000E+00  0.00000000000E+00  0.99999998245E-14  0.12500000000E+03  0.12500000000E+03 0.  0.
        -11    1    3    3    0    0 -0.71761174625E+01  0.40832746358E+02 -0.22223305150E+02  0.47039187164E+02  0.51100000000E-03 0. -1.
         23    2    1    0    0    0 -0.29601313629E+02  0.17707084216E+01 -0.77334258735E+01  0.94353971667E+02  0.89238404943E+02 0.  0.
         11    1    3    3    0    0 -0.22425196166E+02 -0.39062037936E+02  0.14489879277E+02  0.47314784503E+02  0.51100000000E-03 0.  1.
         22    1    1    0    0    0  0.29601313629E+02 -0.17707084216E+01  0.77334258735E+01  0.30646028333E+02  0.00000000000E+00 0. -1.
</event>
<event>
 5    1  0.1659417E-003  0.9118800E+02  0.7818608E-02  0.1130116E+00
         25   -1    0    0    0    0  0.00000000000E+00  0.00000000000E+00  0.99999998245E-14  0.12500000000E+03  0.12500000000E+03 0.  0.
        -11    1    3    3    0    0  0.64509713530E+01 -0.32444085538E+02 -0.10968819210E+02  0.34850376080E+02  0.51100000000E-03 0.  1.
         23    2    1    0    0    0  0.17485623380E+02  0.22703503846E+02  0.96661283183E+01  0.94757147150E+02  0.89801374084E+02 0.  0.
         11    1    3    3    0    0  0.11034652027E+02  0.55147589384E+02  0.20634947528E+02  0.59906771069E+02  0.51100000000E-03 0. -1.
         22    1    1    0    0    0 -0.17485623380E+02 -0.22703503846E+02 -0.96661283183E+01  0.30242852850E+02  0.00000000000E+00 0. -1.
</event>
<event>
 5    1  0.1659417E-003  0.9118800E+02  0.7818608E-02  0.1130116E+00
         25   -1    0    0    0    0  0.00000000000E+00  0.00000000000E+00  0.99999998245E-14  0.12500000000E+03  0.12500000000E+03 0.  0.
        -11    1    3    3    0    0 -0.31092891752E+02  0.32705616625E+01 -0.12178493116E+02  0.33552647972E+02  0.51100000000E-03 0. -1.
         23    2    1    0    0    0  0.19673569461E+02  0.22353307184E+02  0.11951959676E+02  0.92913102089E+02  0.87196763256E+02 0.  0.
         11    1    3    3    0    0  0.50766461213E+02  0.19082745522E+02  0.24130452792E+02  0.59360454117E+02  0.51100000000E-03 0.  1.
         22    1    1    0    0    0 -0.19673569461E+02 -0.22353307184E+02 -0.11951959676E+02  0.32086897911E+02  0.00000000000E+00 0.  1.
</event>
<event>
 5    1  0.1659417E-003  0.9118800E+02  0.7818608E-02  0.1130116E+00
         25   -1    0    0    0    0  0.00000000000E+00  0.00000000000E+00  0.99999998245E-14  0.12500000000E+03  0.12500000000E+03 0.  0.
        -11    1    3    3    0    0  0.11487014294E+02 -0.39032220969E+02 -0.12308777864E+02  0.42508490727E+02  0.51100000000E-03 0.  1.
         23    2    1    0    0    0  0.28243729679E+02  0.62248833136E+01  0.81898918924E+01  0.94941194840E+02  0.90057196881E+02 0.  0.
         11    1    3    3    0    0  0.16756715385E+02  0.45257104283E+02  0.20498669756E+02  0.52432704113E+02  0.51100000000E-03 0. -1.
         22    1    1    0    0    0 -0.28243729679E+02 -0.62248833136E+01 -0.81898918924E+01  0.30058805160E+02  0.00000000000E+00 0.  1.
</event>
<event>
 5    1  0.1659417E-003  0.9118800E+02  0.7818608E-02  0.1130116E+00
         25   -1    0    0    0    0  0.00000000000E+00  0.00000000000E+00  0.99999998245E-14  0.12500000000E+03  0.12500000000E+03 0.  0.
        -11    1    3    3    0    0 -0.15080431930E+02 -0.24607768657E+02  0.25677940791E+02  0.38630536483E+02  0.51100000000E-03 0.  1.
         23    2    1    0    0    0  0.16316402251E+01 -0.12689205533E+02 -0.26975926426E+02  0.95144032533E+02  0.90338298264E+02 0.  0.
         11    1    3    3    0    0  0.16712072155E+02  0.11918563124E+02 -0.52653867216E+02  0.56513496050E+02  0.51100000000E-03 0. -1.
         22    1    1    0    0    0 -0.16316402251E+01  0.12689205533E+02  0.26975926426E+02  0.29855967467E+02  0.00000000000E+00 0. -1.
</event>
<event>
 5    1  0.1659417E-003  0.9118800E+02  0.7818608E-02  0.1130116E+00
         25   -1    0    0    0    0  0.00000000000E+00  0.00000000000E+00  0.99999998245E-14  0.12500000000E+03  0.12500000000E+03 0.  0.
        -11    1    3    3    0    0  0.17624222772E+02  0.31790453282E+02  0.46483878082E+02  0.59008449140E+02  0.51100000000E-03 0. -1.
         23    2    1    0    0    0 -0.12434747627E+01  0.67052183038E+01  0.29549056978E+02  0.94674219709E+02  0.89685868046E+02 0.  0.
         11    1    3    3    0    0 -0.18867697535E+02 -0.25085234978E+02 -0.16934821104E+02  0.35665770569E+02  0.51100000000E-03 0.  1.
         22    1    1    0    0    0  0.12434747627E+01 -0.67052183038E+01 -0.29549056978E+02  0.30325780291E+02  0.00000000000E+00 0. -1.
</event>
<event>
 5    1  0.1659417E-003  0.9118800E+02  0.7818608E-02  0.1130116E+00
         25   -1    0    0    0    0  0.00000000000E+00  0.00000000000E+00  0.99999998245E-14  0.12500000000E+03  0.12500000000E+03 0.  0.
        -11    1    3    3    0    0 -0.30633662346E+02 -0.21948088134E+02  0.17237270868E+01  0.37724144481E+02  0.51100000000E-03 0.  1.
         23    2    1    0    0    0  0.85438313164E+01  0.70662795463E+01  0.29256477230E+02  0.93713088678E+02  0.88336131732E+02 0.  0.
         11    1    3    3    0    0  0.39177493663E+02  0.29014367680E+02  0.27532750143E+02  0.55988944197E+02  0.51100000000E-03 0. -1.
         22    1    1    0    0    0 -0.85438313164E+01 -0.70662795463E+01 -0.29256477230E+02  0.31286911322E+02  0.00000000000E+00 0. -1.
</event>
<event>
 5    1  0.1659417E-003  0.9118800E+02  0.7818608E-02  0.1130116E+00
         25   -1    0    0    0    0  0.00000000000E+00  0.00000000000E+00  0.99999998245E-14  0.12500000000E+03  0.12500000000E+03 0.  0.
        -11    1    3    3    0    0 -0.45901835799E+02  0.23736361186E+02 -0.33594957154E+01  0.51784935877E+02  0.51100000000E-03 0.  1.
         23    2    1    0    0    0 -0.19697125523E+02 -0.82563543206E+00  0.21778049933E+02  0.95624127475E+02  0.91000175103E+02 0.  0.
         11    1    3    3    0    0  0.26204710276E+02 -0.24561996618E+02  0.25137545648E+02  0.43839191598E+02  0.51100000000E-03 0. -1.
         22    1    1    0    0    0  0.19697125523E+02  0.82563543206E+00 -0.21778049933E+02  0.29375872525E+02  0.00000000000E+00 0.  1.
</event>
<event>
 5    1  0.1659417E-003  0.9118800E+02  0.7818608E-02  0.1130116E+00
         25   -1    0    0    0    0  0.00000000000E+00  0.00000000000E+00  0.99999998245E-14  0.12500000000E+03  0.12500000000E+03 0.  0.
        -11    1    3    3    0    0 -0.51053849640E+02  0.17727012550E+02 -0.24945534706E+02  0.59523291567E+02  0.51100000000E-03 0.  1.
         23    2    1    0    0    0 -0.16338830885E+02  0.19445722551E+02 -0.69272419624E+01  0.98673583582E+02  0.95096771215E+02 0.  0.
         11    1    3    3    0    0  0.34715018755E+02  0.17187100005E+01  0.18018292743E+02  0.39150292015E+02  0.51100000000E-03 0. -1.
         22    1    1    0    0    0  0.16338830885E+02 -0.19445722551E+02  0.69272419624E+01  0.26326416418E+02  0.00000000000E+00 0.  1.
</event>
<event>
 5    1  0.1659417E-003  0.9118800E+02  0.7818608E-02  0.1130116E+00
         25   -1    0    0    0    0  0.00000000000E+00  0.00000000000E+00  0.99999998245E-14  0.12500000000E+03  0.12500000000E+03 0.  0.
        -11    1    3    3    0    0 -0.58340149074E+01  0.33808568967E+02  0.69157592753E+01  0.34998325562E+02  0.51100000000E-03 0.  1.
         23    2    1    0    0    0 -0.67540230159E+01 -0.24742351794E+02  0.16737042107E+02  0.94374367309E+02  0.89266969408E+02 0.  0.
         11    1    3    3    0    0 -0.92000810850E+00 -0.58550920761E+02  0.98212828319E+01  0.59376041747E+02  0.51100000000E-03 0. -1.
         22    1    1    0    0    0  0.67540230159E+01  0.24742351794E+02 -0.16737042107E+02  0.30625632691E+02  0.00000000000E+00 0. -1.
</event>
<event>
 5    1  0.1659417E-003  0.9118800E+02  0.7818608E-02  0.1130116E+00
         25   -1    0    0    0    0  0.00000000000E+00  0.00000000000E+00  0.99999998245E-14  0.12500000000E+03  0.12500000000E+03 0.  0.
        -11    1    3    3    0    0  0.20945892825E+00 -0.50379376570E+02  0.16114222876E+02  0.52894173930E+02  0.51100000000E-03 0.  1.
         23    2    1    0    0    0 -0.18095846228E+02 -0.12038359482E+02  0.19876856616E+02  0.95547136325E+02  0.90894356708E+02 0.  0.
         11    1    3    3    0    0 -0.18305305156E+02  0.38341017088E+02  0.37626337403E+01  0.42652962395E+02  0.51100000000E-03 0. -1.
         22    1    1    0    0    0  0.18095846228E+02  0.12038359482E+02 -0.19876856616E+02  0.29452863675E+02  0.00000000000E+00 0.  1.
</event>
<event>
 5    1  0.1659417E-003  0.9118800E+02  0.7818608E-02  0.1130116E+00
         25   -1    0    0    0    0  0.00000000000E+00  0.00000000000E+00  0.99999998245E-14  0.12500000000E+03  0.12500000000E+03 0.  0.
        -11    1    3    3    0    0  0.27591014855E+02 -0.49773580208E+02  0.12426990010E+02  0.58250351659E+02  0.51100000000E-03 0. -1.
         23    2    1    0    0    0  0.24669560421E+02 -0.12913678082E+02  0.10382126554E+02  0.95282347926E+02  0.90529481284E+02 0.  0.
         11    1    3    3    0    0 -0.29214544334E+01  0.36859902126E+02 -0.20448634556E+01  0.37031996267E+02  0.51100000000E-03 0.  1.
         22    1    1    0    0    0 -0.24669560421E+02  0.12913678082E+02 -0.10382126554E+02  0.29717652074E+02  0.00000000000E+00 0. -1.
</event>
<event>
 5    1  0.1659417E-003  0.9118800E+02  0.7818608E-02  0.1130116E+00
         25   -1    0    0    0    0  0.00000000000E+00  0.00000000000E+00  0.99999998245E-14  0.12500000000E+03  0.12500000000E+03 0.  0.
        -11    1    3    3    0    0  0.54075421731E+02 -0.27695453011E+02 -0.10614780385E+02  0.61675464455E+02  0.51100000000E-03 0. -1.
         23    2    1    0    0    0  0.25731068827E+02 -0.71430321820E+01 -0.93381360852E+01  0.96710220975E+02  0.92480026189E+02 0.  0.
         11    1    3    3    0    0 -0.28344352904E+02  0.20552420829E+02  0.12766442998E+01  0.35034756520E+02  0.51100000000E-03 0.  1.
         22    1    1    0    0    0 -0.25731068827E+02  0.71430321820E+01  0.93381360852E+01  0.28289779025E+02  0.00000000000E+00 0. -1.
</event>
<event>
 5    1  0.1659417E-003  0.9118800E+02  0.7818608E-02  0.1130116E+00
         25   -1    0    0    0    0  0.00000000000E+00  0.00000000000E+00  0.99999998245E-14  0.12500000000E+03  0.12500000000E+03 0.  0.
        -11    1    3    3    0    0  0.16435112331E+01 -0.34613833086E+02  0.51034351772E+01  0.35026613038E+02  0.51100000000E-03 0. -1.
         23    2    1    0    0    0 -0.21815635350E+01  0.21020824797E+02 -0.19744581989E+02  0.96077987405E+02  0.91621486843E+02 0.  0.
         11    1    3    3    0    0 -0.38250747681E+01  0.55634657883E+02 -0.24848017167E+02  0.61051374367E+02  0.51100000000E-03 0.  1.
         22    1    1    0    0    0  0.21815635350E+01 -0.21020824797E+02  0.19744581989E+02  0.28922012595E+02  0.00000000000E+00 0.  1.
</event>
<event>
 5    1  0.1659417E-003  0.9118800E+02  0.7818608E-02  0.1130116E+00
         25   -1    0    0    0    0  0.00000000000E+00  0.00000000000E+00  0.99999998245E-14  0.12500000000E+03  0.12500000000E+03 0.  0.
        -11    1    3    3    0    0 -0.23477089114E+02 -0.42977059774E+02 -0.11013433640E+02  0.50194592347E+02  0.51100000000E-03 0.  1.
         23    2    1    0    0    0 -0.27305746232E+01 -0.21691105518E+02  0.21562458612E+02  0.94293327798E+02  0.89153418047E+02 0.  0.
         11    1    3    3    0    0  0.20746514491E+02  0.21285954256E+02  0.32575892252E+02  0.44098735451E+02  0.51100000000E-03 0. -1.
         22    1    1    0    0    0  0.27305746232E+01  0.21691105518E+02 -0.21562458612E+02  0.30706672202E+02  0.00000000000E+00 0. -1.
</event>
<event>
 5    1  0.1659417E-003  0.9118800E+02  0.7818608E-02  0.1130116E+00
         25   -1    0    0    0    0  0.00000000000E+00  0.00000000000E+00  0.99999998245E-14  0.12500000000E+03  0.12500000000E+03 0.  0.
        -11    1    3    3    0    0  0.39870700381E+02 -0.25110160995E+02 -0.15054270694E+02  0.49465381839E+02  0.51100000000E-03 0.  1.
         23    2    1    0    0    0 -0.49633020267E+01 -0.28614024954E+02 -0.53918533321E+01  0.95462415918E+02  0.90777772497E+02 0.  0.
         11    1    3    3    0    0 -0.44834002408E+02 -0.35038639587E+01  0.96624173619E+01  0.45997034079E+02  0.51100000000E-03 0. -1.
         22    1    1    0    0    0  0.49633020267E+01  0.28614024954E+02  0.53918533321E+01  0.29537584082E+02  0.00000000000E+00 0.  1.
</event>
<event>
 5    1  0.1659417E-003  0.9118800E+02  0.7818608E-02  0.1130116E+00
         25   -1    0    0    0    0  0.00000000000E+00  0.00000000000E+00  0.99999998245E-14  0.12500000000E+03  0.12500000000E+03 0.  0.
        -11    1    3    3    0    0 -0.18043893161E+02  0.20054857043E+02  0.11550694230E+02  0.29346173666E+02  0.51100000000E-03 0.  1.
         23    2    1    0    0    0  0.32289670360E+02  0.29248131511E+02  0.85627956798E+01  0.80599577945E+02  0.67267335953E+02 0.  0.
         11    1    3    3    0    0  0.50333563521E+02  0.91932744675E+01 -0.29878985500E+01  0.51253404278E+02  0.51100000000E-03 0. -1.
         22    1    1    0    0    0 -0.32289670360E+02 -0.29248131511E+02 -0.85627956798E+01  0.44400422055E+02  0.00000000000E+00 0. -1.
</event>
<event>
 5    1  0.1659417E-003  0.9118800E+02  0.7818608E-02  0.1130116E+00
         25   -1    0    0    0    0  0.00000000000E+00  0.00000000000E+00  0.99999998245E-14  0.12500000000E+03  0.12500000000E+03 0.  0.
        -11    1    3    3    0    0 -0.30496058014E+02 -0.14807539353E+02 -0.18265012871E+01  0.33950094010E+02  0.51100000000E-03 0. -1.
         23    2    1    0    0    0  0.17225153031E+02  0.23546805668E+02 -0.56103587316E+01  0.95290841829E+02  0.90541208614E+02 0.  0.
         11    1    3    3    0    0  0.47721211045E+02  0.38354345021E+02 -0.37838574445E+01  0.61340747819E+02  0.51100000000E-03 0.  1.
         22    1    1    0    0    0 -0.17225153031E+02 -0.23546805668E+02  0.56103587316E+01  0.29709158171E+02  0.00000000000E+00 0.  1.
</event>
<event>
 5    1  0.1659417E-003  0.9118800E+02  0.7818608E-02  0.1130116E+00
         25   -1    0    0    0    0  0.00000000000E+00  0.00000000000E+00  0.99999998245E-14  0.12500000000E+03  0.12500000000E+03 0.  0.
        -11    1    3    3    0    0  0.35957583948E+02 -0.42877085569E+02  0.31249067935E+01  0.56046028878E+02  0.51100000000E-03 0.  1.
         23    2    1    0    0    0  0.29791906177E+02 -0.47145265098E+01  0.28336938118E+01  0.94704550598E+02  0.89728131874E+02 0.  0.
         11    1    3    3    0    0 -0.61656777715E+01  0.38162559059E+02 -0.29121298170E+00  0.38658521720E+02  0.51100000000E-03 0. -1.
         22    1    1    0    0    0 -0.29791906177E+02  0.47145265098E+01 -0.28336938118E+01  0.30295449402E+02  0.00000000000E+00 0.  1.
</event>
<event>
 5    1  0.1659417E-003  0.9118800E+02  0.7818608E-02  0.1130116E+00
         25   -1    0    0    0    0  0.00000000000E+00  0.00000000000E+00  0.99999998245E-14  0.12500000000E+03  0.12500000000E+03 0.  0.
        -11    1    3    3    0    0  0.14787334902E+01 -0.45898096380E+02  0.22662289916E+02  0.51209386723E+02  0.51100000000E-03 0.  1.
         23    2    1    0    0    0 -0.26280116094E+00 -0.30761306729E+01  0.30129779877E+02  0.94712456689E+02  0.89739145150E+02 0.  0.
         11    1    3    3    0    0 -0.17415346511E+01  0.42821965707E+02  0.74674899613E+01  0.43503069967E+02  0.51100000000E-03 0. -1.
         22    1    1    0    0    0  0.26280116094E+00  0.30761306729E+01 -0.30129779877E+02  0.30287543311E+02  0.00000000000E+00 0.  1.
</event>
<event>
 5    1  0.1659417E-003  0.9118800E+02  0.7818608E-02  0.1130116E+00
         25   -1    0    0    0    0  0.00000000000E+00  0.00000000000E+00  0.99999998245E-14  0.12500000000E+03  0.12500000000E+03 0.  0.
        -11    1    3    3    0    0  0.32054790692E+02 -0.28674814921E+02  0.25895767421E+02  0.50203041618E+02  0.51100000000E-03 0.  1.
         23    2    1    0    0    0 -0.83701383921E+01 -0.27929130840E+02  0.61364377078E+01  0.95204842106E+02  0.90422400579E+02 0.  0.
         11    1    3    3    0    0 -0.40424929084E+02  0.74568408092E+00 -0.19759329713E+02  0.45001800488E+02  0.51100000000E-03 0. -1.
         22    1    1    0    0    0  0.83701383921E+01  0.27929130840E+02 -0.61364377078E+01  0.29795157894E+02  0.00000000000E+00 0. -1.
</event>
<event>
 5    1  0.1659417E-003  0.9118800E+02  0.7818608E-02  0.1130116E+00
         25   -1    0    0    0    0  0.00000000000E+00  0.00000000000E+00  0.99999998245E-14  0.12500000000E+03  0.12500000000E+03 0.  0.
        -11    1    3    3    0    0 -0.82927386628E+01  0.49325057406E+02 -0.14235673428E+01  0.50037559361E+02  0.51100000000E-03 0.  1.
         23    2    1    0    0    0  0.18165967565E+02  0.16121832846E+02 -0.17100734565E+02  0.95295606477E+02  0.90547786386E+02 0.  0.
         11    1    3    3    0    0  0.26458706228E+02 -0.33203224559E+02 -0.15677167222E+02  0.45258047116E+02  0.51100000000E-03 0. -1.
         22    1    1    0    0    0 -0.18165967565E+02 -0.16121832846E+02  0.17100734565E+02  0.29704393523E+02  0.00000000000E+00 0. -1.
</event>
<event>
 5    1  0.1659417E-003  0.9118800E+02  0.7818608E-02  0.1130116E+00
         25   -1    0    0    0    0  0.00000000000E+00  0.00000000000E+00  0.99999998245E-14  0.12500000000E+03  0.12500000000E+03 0.  0.
        -11    1    3    3    0    0  0.28841673857E+02 -0.42083142513E+02 -0.14865261968E+02  0.53139524351E+02  0.51100000000E-03 0. -1.
         23    2    1    0    0    0  0.19397615548E+02 -0.11007865730E+01 -0.21838220940E+02  0.95770098976E+02  0.91200464605E+02 0.  0.
         11    1    3    3    0    0 -0.94440583092E+01  0.40982355940E+02 -0.69729589728E+01  0.42630574625E+02  0.51100000000E-03 0.  1.
         22    1    1    0    0    0 -0.19397615548E+02  0.11007865730E+01  0.21838220940E+02  0.29229901024E+02  0.00000000000E+00 0. -1.
</event>
<event>
 5    1  0.1659417E-003  0.9118800E+02  0.7818608E-02  0.1130116E+00
         25   -1    0    0    0    0  0.00000000000E+00  0.00000000000E+00  0.99999998245E-14  0.12500000000E+03  0.12500000000E+03 0.  0.
        -11    1    3    3    0    0 -0.42882513777E+00  0.13965844746E+02  0.51472445276E+02  0.53335179135E+02  0.51100000000E-03 0.  1.
         23    2    1    0    0    0 -0.12133955503E+02  0.24487209514E+02  0.13337299158E+02  0.94590464410E+02  0.89569057730E+02 0.  0.
         11    1    3    3    0    0 -0.11705130365E+02  0.10521364768E+02 -0.38135146117E+02  0.41255285275E+02  0.51100000000E-03 0. -1.
         22    1    1    0    0    0  0.12133955503E+02 -0.24487209514E+02 -0.13337299158E+02  0.30409535590E+02  0.00000000000E+00 0. -1.
</event>
<event>
 5    1  0.1659417E-003  0.9118800E+02  0.7818608E-02  0.1130116E+00
         25   -1    0    0    0    0  0.00000000000E+00  0.00000000000E+00  0.99999998245E-14  0.12500000000E+03  0.12500000000E+03 0.  0.
        -11    1    3    3    0    0  0.35288330356E+01 -0.29956067032E+02 -0.18789361481E+02  0.35536723537E+02  0.51100000000E-03 0.  1.
         23    2    1    0    0    0  0.20506561465E+02  0.19905281112E+02  0.89310989440E+01  0.95058326573E+02  0.90219630032E+02 0.  0.
         11    1    3    3    0    0  0.16977728429E+02  0.49861348145E+02  0.27720460425E+02  0.59521603035E+02  0.51100000000E-03 0. -1.
         22    1    1    0    0    0 -0.20506561465E+02 -0.19905281112E+02 -0.89310989440E+01  0.29941673427E+02  0.00000000000E+00 0. -1.
</event>
<event>
 5    1  0.1659417E-003  0.9118800E+02  0.7818608E-02  0.1130116E+00
         25   -1    0    0    0    0  0.00000000000E+00  0.00000000000E+00  0.99999998245E-14  0.12500000000E+03  0.12500000000E+03 0.  0.
        -11    1    3    3    0    0  0.38712224733E+02  0.88061964732E+01  0.26193040498E+02  0.47563229610E+02  0.51100000000E-03 0.  1.
         23    2    1    0    0    0 -0.26241029891E+01 -0.15876433925E+02  0.24437630853E+02  0.95740046610E+02  0.91159265314E+02 0.  0.
         11    1    3    3    0    0 -0.41336327723E+02 -0.24682630399E+02 -0.17554096459E+01  0.48176817000E+02  0.51100000000E-03 0. -1.
         22    1    1    0    0    0  0.26241029891E+01  0.15876433925E+02 -0.24437630853E+02  0.29259953390E+02  0.00000000000E+00 0.  1.
</event>
<event>
 5    1  0.1659417E-003  0.9118800E+02  0.7818608E-02  0.1130116E+00
         25   -1    0    0    0    0  0.00000000000E+00  0.00000000000E+00  0.99999998245E-14  0.12500000000E+03  0.12500000000E+03 0.  0.
        -11    1    3    3    0    0 -0.13414236344E+02  0.32142233267E+02  0.21689900649E+01  0.34896553043E+02  0.51100000000E-03 0.  1.
         23    2    1    0    0    0  0.55341448968E+01 -0.27197976280E+02  0.17420696640E+01  0.97190083060E+02  0.93126369870E+02 0.  0.
         11    1    3    3    0    0  0.18948381241E+02 -0.59340209547E+02 -0.42692040090E+00  0.62293530018E+02  0.51100000000E-03 0. -1.
         22    1    1    0    0    0 -0.55341448968E+01  0.27197976280E+02 -0.17420696640E+01  0.27809916940E+02  0.00000000000E+00 0. -1.
</event>
<event>
 5    1  0.1659417E-003  0.9118800E+02  0.7818608E-02  0.1130116E+00
         25   -1    0    0    0    0  0.00000000000E+00  0.00000000000E+00  0.99999998245E-14  0.12500000000E+03  0.12500000000E+03 0.  0.
        -11    1    3    3    0    0 -0.37373613199E+02 -0.20986293436E+02 -0.81600201266E+01  0.43632526909E+02  0.51100000000E-03 0.  1.
         23    2    1    0    0    0 -0.16770861943E+02  0.24601471179E+02  0.35590527711E+01  0.95013985742E+02  0.90158174535E+02 0.  0.
         11    1    3    3    0    0  0.20602751257E+02  0.45587764615E+02  0.11719072898E+02  0.51381458833E+02  0.51100000000E-03 0. -1.
         22    1    1    0    0    0  0.16770861943E+02 -0.24601471179E+02 -0.35590527711E+01  0.29986014258E+02  0.00000000000E+00 0. -1.
</event>
<event>
 5    1  0.1659417E-003  0.9118800E+02  0.7818608E-02  0.1130116E+00
         25   -1    0    0    0    0  0.00000000000E+00  0.00000000000E+00  0.99999998245E-14  0.12500000000E+03  0.12500000000E+03 0.  0.
        -11    1    3    3    0    0  0.45704685272E+01  0.22223317724E+01  0.42823079869E+02  0.43123591117E+02  0.51100000000E-03 0. -1.
         23    2    1    0    0    0  0.99216884085E+01  0.22784924419E+02 -0.85513781270E+01  0.98718471324E+02  0.95155755638E+02 0.  0.
         11    1    3    3    0    0  0.53512198813E+01  0.20562592647E+02 -0.51374457996E+02  0.55594880207E+02  0.51100000000E-03 0.  1.
         22    1    1    0    0    0 -0.99216884085E+01 -0.22784924419E+02  0.85513781270E+01  0.26281528676E+02  0.00000000000E+00 0.  1.
</event>
<event>
 5    1  0.1659417E-003  0.9118800E+02  0.7818608E-02  0.1130116E+00
         25   -1    0    0    0    0  0.00000000000E+00  0.00000000000E+00  0.99999998245E-14  0.12500000000E+03  0.12500000000E+03 0.  0.
        -11    1    3    3    0    0 -0.28169407957E+01  0.29509085767E+02 -0.17857930744E+02  0.34606747738E+02  0.51100000000E-03 0. -1.
         23    2    1    0    0    0  0.13786645782E+02 -0.17862903245E+02  0.17866539016E+02  0.96218614858E+02  0.91813145653E+02 0.  0.
         11    1    3    3    0    0  0.16603586578E+02 -0.47371989012E+02  0.35724469760E+02  0.61611867121E+02  0.51100000000E-03 0.  1.
         22    1    1    0    0    0 -0.13786645782E+02  0.17862903245E+02 -0.17866539016E+02  0.28781385142E+02  0.00000000000E+00 0.  1.
</event>
<event>
 5    1  0.1659417E-003  0.9118800E+02  0.7818608E-02  0.1130116E+00
         25   -1    0    0    0    0  0.00000000000E+00  0.00000000000E+00  0.99999998245E-14  0.12500000000E+03  0.12500000000E+03 0.  0.
        -11    1    3    3    0    0  0.55958555443E+02  0.16849513533E+02  0.35933015089E+00  0.58441382188E+02  0.51100000000E-03 0.  1.
         23    2    1    0    0    0  0.26210958091E+02 -0.17282939749E+01 -0.12645226449E+02  0.95846902805E+02  0.91305671791E+02 0.  0.
         11    1    3    3    0    0 -0.29747597352E+02 -0.18577807508E+02 -0.13004556600E+02  0.37405520617E+02  0.51100000000E-03 0. -1.
         22    1    1    0    0    0 -0.26210958091E+02  0.17282939749E+01  0.12645226449E+02  0.29153097195E+02  0.00000000000E+00 0.  1.
</event>
<event>
 5    1  0.1659417E-003  0.9118800E+02  0.7818608E-02  0.1130116E+00
         25   -1    0    0    0    0  0.00000000000E+00  0.00000000000E+00  0.99999998245E-14  0.12500000000E+03  0.12500000000E+03 0.  0.
        -11    1    3    3    0    0  0.81325748035E+01  0.29714590288E+02  0.24972963981E+02  0.39657843854E+02  0.51100000000E-03 0.  1.
         23    2    1    0    0    0 -0.30300319302E+02  0.25825036692E+02  0.89366085792E+00  0.85177387082E+02  0.75295064715E+02 0.  0.
         11    1    3    3    0    0 -0.38432894105E+02 -0.38895535961E+01 -0.24079303123E+02  0.45519543227E+02  0.51100000000E-03 0. -1.
         22    1    1    0    0    0  0.30300319302E+02 -0.25825036692E+02 -0.89366085792E+00  0.39822612918E+02  0.00000000000E+00 0. -1.
</event>
<event>
 5    1  0.1659417E-003  0.9118800E+02  0.7818608E-02  0.1130116E+00
         25   -1    0    0    0    0  0.00000000000E+00  0.00000000000E+00  0.99999998245E-14  0.12500000000E+03  0.12500000000E+03 0.  0.
        -11    1    3    3    0    0 -0.40366147486E+02  0.12042697784E+01  0.16189827183E+02  0.43508466223E+02  0.51100000000E-03 0. -1.
         23    2    1    0    0    0 -0.40537443560E+01  0.23019215543E+02 -0.15967770397E+02  0.96692989932E+02  0.92456733032E+02 0.  0.
         11    1    3    3    0    0  0.36312403130E+02  0.21814945765E+02 -0.32157597580E+02  0.53184523709E+02  0.51100000000E-03 0.  1.
         22    1    1    0    0    0  0.40537443560E+01 -0.23019215543E+02  0.15967770397E+02  0.28307010068E+02  0.00000000000E+00 0.  1.
</event>
<event>
 5    1  0.1659417E-003  0.9118800E+02  0.7818608E-02  0.1130116E+00
         25   -1    0    0    0    0  0.00000000000E+00  0.00000000000E+00  0.99999998245E-14  0.12500000000E+03  0.12500000000E+03 0.  0.
        -11    1    3    3    0    0  0.55962055063E+01  0.29542300420E+02  0.53140858642E+02  0.61057480194E+02  0.51100000000E-03 0.  1.
         23    2    1    0    0    0 -0.27710736176E+01  0.66294543357E+01  0.28022633965E+02  0.96070836028E+02  0.91611729636E+02 0.  0.
         11    1    3    3    0    0 -0.83672791238E+01 -0.22912846084E+02 -0.25118224676E+02  0.35013355834E+02  0.51100000000E-03 0. -1.
         22    1    1    0    0    0  0.27710736176E+01 -0.66294543357E+01 -0.28022633965E+02  0.28929163972E+02  0.00000000000E+00 0.  1.
</event>
<event>
 5    1  0.1659417E-003  0.9118800E+02  0.7818608E-02  0.1130116E+00
         25   -1    0    0    0    0  0.00000000000E+00  0.00000000000E+00  0.99999998245E-14  0.12500000000E+03  0.12500000000E+03 0.  0.
        -11    1    3    3    0    0  0.12803760739E+02  0.87048460538E+00  0.36914319941E+02  0.39081466829E+02  0.51100000000E-03 0. -1.
         23    2    1    0    0    0 -0.18643933967E+01  0.27785433774E+02 -0.10245213120E+02  0.95327273724E+02  0.90591492045E+02 0.  0.
         11    1    3    3    0    0 -0.14668154135E+02  0.26914949169E+02 -0.47159533061E+02  0.56245806895E+02  0.51100000000E-03 0.  1.
         22    1    1    0    0    0  0.18643933967E+01 -0.27785433774E+02  0.10245213120E+02  0.29672726276E+02  0.00000000000E+00 0.  1.
</event>
<event>
 5    1  0.1659417E-003  0.9118800E+02  0.7818608E-02  0.1130116E+00
         25   -1    0    0    0    0  0.00000000000E+00  0.00000000000E+00  0.99999998245E-14  0.12500000000E+03  0.12500000000E+03 0.  0.
        -11    1    3    3    0    0  0.26172580071E+02  0.11798893535E+02 -0.18066281525E+02  0.33920618577E+02  0.51100000000E-03 0. -1.
         23    2    1    0    0    0 -0.25040789357E+02 -0.11746376224E+02  0.82627475422E+01  0.96133211419E+02  0.91696798498E+02 0.  0.
         11    1    3    3    0    0 -0.51213369428E+02 -0.23545269759E+02  0.26329029068E+02  0.62212592842E+02  0.51100000000E-03 0.  1.
         22    1    1    0    0    0  0.25040789357E+02  0.11746376224E+02 -0.82627475422E+01  0.28866788581E+02  0.00000000000E+00 0.  1.
</event>
<event>
 5    1  0.1659417E-003  0.9118800E+02  0.7818608E-02  0.1130116E+00
         25   -1    0    0    0    0  0.00000000000E+00  0.00000000000E+00  0.99999998245E-14  0.12500000000E+03  0.12500000000E+03 0.  0.
        -11    1    3    3    0    0  0.13734497964E+02 -0.30488181498E+02 -0.52161898728E+02  0.61959900940E+02  0.51100000000E-03 0.  1.
         23    2    1    0    0    0  0.10385278032E+01 -0.14419079413E+02 -0.26717805114E+02  0.94621891085E+02  0.89612905160E+02 0.  0.
         11    1    3    3    0    0 -0.12695970161E+02  0.16069102085E+02  0.25444093613E+02  0.32661990145E+02  0.51100000000E-03 0. -1.
         22    1    1    0    0    0 -0.10385278032E+01  0.14419079413E+02  0.26717805114E+02  0.30378108915E+02  0.00000000000E+00 0.  1.
</event>
<event>
 5    1  0.1659417E-003  0.9118800E+02  0.7818608E-02  0.1130116E+00
         25   -1    0    0    0    0  0.00000000000E+00  0.00000000000E+00  0.99999998245E-14  0.12500000000E+03  0.12500000000E+03 0.  0.
        -11    1    3    3    0    0  0.43124217378E+02  0.38111361769E+02  0.26526771880E+01  0.57612591652E+02  0.51100000000E-03 0. -1.
         23    2    1    0    0    0  0.21529083785E+02  0.15887429280E+02 -0.16041948366E+02  0.93802949416E+02  0.88463197738E+02 0.  0.
         11    1    3    3    0    0 -0.21595133593E+02 -0.22223932489E+02 -0.18694625554E+02  0.36190357764E+02  0.51100000000E-03 0.  1.
         22    1    1    0    0    0 -0.21529083785E+02 -0.15887429280E+02  0.16041948366E+02  0.31197050584E+02  0.00000000000E+00 0. -1.
</event>
<event>
 5    1  0.1659417E-003  0.9118800E+02  0.7818608E-02  0.1130116E+00
         25   -1    0    0    0    0  0.00000000000E+00  0.00000000000E+00  0.99999998245E-14  0.12500000000E+03  0.12500000000E+03 0.  0.
        -11    1    3    3    0    0 -0.26660999269E+02  0.67690885042E+01 -0.32435793369E+02  0.42528932892E+02  0.51100000000E-03 0. -1.
         23    2    1    0    0    0 -0.13742573209E+02 -0.29346657424E+02 -0.26013846402E+00  0.92593946671E+02  0.86738034723E+02 0.  0.
         11    1    3    3    0    0  0.12918426060E+02 -0.36115745928E+02  0.32175654905E+02  0.50065013779E+02  0.51100000000E-03 0.  1.
         22    1    1    0    0    0  0.13742573209E+02  0.29346657424E+02  0.26013846402E+00  0.32406053329E+02  0.00000000000E+00 0. -1.
</event>
<event>
 5    1  0.1659417E-003  0.9118800E+02  0.7818608E-02  0.1130116E+00
         25   -1    0    0    0    0  0.00000000000E+00  0.00000000000E+00  0.99999998245E-14  0.12500000000E+03  0.12500000000E+03 0.  0.
        -11    1    3    3    0    0 -0.24127838480E+02  0.92724760644E+01 -0.23132064399E+02  0.34687516569E+02  0.51100000000E-03 0. -1.
         23    2    1    0    0    0  0.12307109884E+02  0.98816385194E+01  0.25229112931E+02  0.95240633864E+02  0.90471865605E+02 0.  0.
         11    1    3    3    0    0  0.36434948364E+02  0.60916245501E+00  0.48361177330E+02  0.60553117295E+02  0.51100000000E-03 0.  1.
         22    1    1    0    0    0 -0.12307109884E+02 -0.98816385194E+01 -0.25229112931E+02  0.29759366136E+02  0.00000000000E+00 0.  1.
</event>
<event>
 5    1  0.1659417E-003  0.9118800E+02  0.7818608E-02  0.1130116E+00
         25   -1    0    0    0    0  0.00000000000E+00  0.00000000000E+00  0.99999998245E-14  0.12500000000E+03  0.12500000000E+03 0.  0.
        -11    1    3    3    0    0 -0.49195293999E+02  0.20296762861E+02 -0.14502420906E+02  0.55158460336E+02  0.51100000000E-03 0.  1.
         23    2    1    0    0    0 -0.11809017804E+02  0.26841795185E+02 -0.12369773259E+02  0.93173184879E+02  0.87568808487E+02 0.  0.
         11    1    3    3    0    0  0.37386276195E+02  0.65450323237E+01  0.21326476469E+01  0.38014724543E+02  0.51100000000E-03 0. -1.
         22    1    1    0    0    0  0.11809017804E+02 -0.26841795185E+02  0.12369773259E+02  0.31826815121E+02  0.00000000000E+00 0.  1.
</event>
<event>
 5    1  0.1659417E-003  0.9118800E+02  0.7818608E-02  0.1130116E+00
         25   -1    0    0    0    0  0.00000000000E+00  0.00000000000E+00  0.99999998245E-14  0.12500000000E+03  0.12500000000E+03 0.  0.
        -11    1    3    3    0    0 -0.25917824141E+02  0.10926744716E+02 -0.13593220187E+02  0.31239446115E+02  0.51100000000E-03 0.  1.
         23    2    1    0    0    0  0.21462491615E+02  0.31672527359E+02  0.54448003172E+01  0.86355034143E+02  0.77225374947E+02 0.  0.
         11    1    3    3    0    0  0.47380315756E+02  0.20745782643E+02  0.19038020504E+02  0.55115588027E+02  0.51100000000E-03 0. -1.
         22    1    1    0    0    0 -0.21462491615E+02 -0.31672527359E+02 -0.54448003172E+01  0.38644965857E+02  0.00000000000E+00 0. -1.
</event>
<event>
 5    1  0.1659417E-003  0.9118800E+02  0.7818608E-02  0.1130116E+00
         25   -1    0    0    0    0  0.00000000000E+00  0.00000000000E+00  0.99999998245E-14  0.12500000000E+03  0.12500000000E+03 0.  0.
        -11    1    3    3    0    0  0.55288920857E+02 -0.18823032947E+02  0.12529338877E+02  0.59734041147E+02  0.51100000000E-03 0.  1.
         23    2    1    0    0    0  0.24606144502E+02 -0.13951945312E+02 -0.62438378665E+01  0.96032697113E+02  0.91559676049E+02 0.  0.
         11    1    3    3    0    0 -0.30682776355E+02  0.48710876346E+01 -0.18773176744E+02  0.36298655965E+02  0.51100000000E-03 0. -1.
         22    1    1    0    0    0 -0.24606144502E+02  0.13951945312E+02  0.62438378665E+01  0.28967302887E+02  0.00000000000E+00 0.  1.
</event>
<event>
 5    1  0.1659417E-003  0.9118800E+02  0.7818608E-02  0.1130116E+00
         25   -1    0    0    0    0  0.00000000000E+00  0.00000000000E+00  0.99999998245E-14  0.12500000000E+03  0.12500000000E+03 0.  0.
        -11    1    3    3    0    0 -0.31183349064E+02  0.72881249681E+01 -0.41701943259E+02  0.52579179304E+02  0.51100000000E-03 0.  1.
         23    2    1    0    0    0  0.74089692842E+00  0.21439770863E+02 -0.27118142311E+02  0.90422458946E+02  0.83550073229E+02 0.  0.
         11    1    3    3    0    0  0.31924245992E+02  0.14151645895E+02  0.14583800948E+02  0.37843279642E+02  0.51100000000E-03 0. -1.
         22    1    1    0    0    0 -0.74089692842E+00 -0.21439770863E+02  0.27118142311E+02  0.34577541054E+02  0.00000000000E+00 0.  1.
</event>
<event>
 5    1  0.1659417E-003  0.9118800E+02  0.7818608E-02  0.1130116E+00
         25   -1    0    0    0    0  0.00000000000E+00  0.00000000000E+00  0.99999998245E-14  0.12500000000E+03  0.12500000000E+03 0.  0.
        -11    1    3    3    0    0 -0.32499367188E+02  0.43469954465E+02 -0.27557136685E+02  0.60870695670E+02  0.51100000000E-03 0.  1.
         23    2    1    0    0    0 -0.22558734748E+02  0.15098161094E+02 -0.81328301925E+01  0.96662852847E+02  0.92415979201E+02 0.  0.
         11    1    3    3    0    0  0.99406324404E+01 -0.28371793371E+02  0.19424306492E+02  0.35792157177E+02  0.51100000000E-03 0. -1.
         22    1    1    0    0    0  0.22558734748E+02 -0.15098161094E+02  0.81328301925E+01  0.28337147153E+02  0.00000000000E+00 0.  1.
</event>
<event>
 5    1  0.1659417E-003  0.9118800E+02  0.7818608E-02  0.1130116E+00
         25   -1    0    0    0    0  0.00000000000E+00  0.00000000000E+00  0.99999998245E-14  0.12500000000E+03  0.12500000000E+03 0.  0.
        -11    1    3    3    0    0  0.12785317952E+02  0.38696696809E+00 -0.32529408372E+02  0.34953919779E+02  0.51100000000E-03 0. -1.
         23    2    1    0    0    0 -0.13209405568E+02  0.13340942855E+02  0.21599009098E+02  0.96382062517E+02  0.92035404217E+02 0.  0.
         11    1    3    3    0    0 -0.25994723520E+02  0.12953975887E+02  0.54128417471E+02  0.61428142739E+02  0.51100000000E-03 0.  1.
         22    1    1    0    0    0  0.13209405568E+02 -0.13340942855E+02 -0.21599009098E+02  0.28617937483E+02  0.00000000000E+00 0.  1.
</event>
<event>
 5    1  0.1659417E-003  0.9118800E+02  0.7818608E-02  0.1130116E+00
         25   -1    0    0    0    0  0.00000000000E+00  0.00000000000E+00  0.99999998245E-14  0.12500000000E+03  0.12500000000E+03 0.  0.
        -11    1    3    3    0    0  0.68598214129E+01  0.28699357406E+02 -0.40742634589E+02  0.50305790311E+02  0.51100000000E-03 0.  1.
         23    2    1    0    0    0 -0.24128821580E+02  0.16350261562E+02 -0.16911371819E+02  0.91302439542E+02  0.84856407452E+02 0.  0.
         11    1    3    3    0    0 -0.30988642993E+02 -0.12349095844E+02  0.23831262770E+02  0.40996649231E+02  0.51100000000E-03 0. -1.
         22    1    1    0    0    0  0.24128821580E+02 -0.16350261562E+02  0.16911371819E+02  0.33697560458E+02  0.00000000000E+00 0. -1.
</event>
<event>
 5    1  0.1659417E-003  0.9118800E+02  0.7818608E-02  0.1130116E+00
         25   -1    0    0    0    0  0.00000000000E+00  0.00000000000E+00  0.99999998245E-14  0.12500000000E+03  0.12500000000E+03 0.  0.
        -11    1    3    3    0    0  0.11236401399E+02  0.12221888869E+02  0.59991916691E+02  0.62246777848E+02  0.51100000000E-03 0. -1.
         23    2    1    0    0    0  0.86216300708E+01  0.74549304846E+01  0.26860800773E+02  0.95821050194E+02  0.91270271987E+02 0.  0.
         11    1    3    3    0    0 -0.26147713279E+01 -0.47669583845E+01 -0.33131115918E+02  0.33574272346E+02  0.51100000000E-03 0.  1.
         22    1    1    0    0    0 -0.86216300708E+01 -0.74549304846E+01 -0.26860800773E+02  0.29178949806E+02  0.00000000000E+00 0. -1.
</event>
<event>
 5    1  0.1659417E-003  0.9118800E+02  0.7818608E-02  0.1130116E+00
         25   -1    0    0    0    0  0.00000000000E+00  0.00000000000E+00  0.99999998245E-14  0.12500000000E+03  0.12500000000E+03 0.  0.
        -11    1    3    3    0    0  0.27080345638E+02  0.54334933678E+02  0.23648612097E-01  0.60709395461E+02  0.51100000000E-03 0. -1.
         23    2    1    0    0    0  0.21261475007E+02  0.24389944276E+02  0.67500028317E+01  0.91947280906E+02  0.85801050265E+02 0.  0.
         11    1    3    3    0    0 -0.58188706312E+01 -0.29944989403E+02  0.67263542196E+01  0.31237885445E+02  0.51100000000E-03 0.  1.
         22    1    1    0    0    0 -0.21261475007E+02 -0.24389944276E+02 -0.67500028317E+01  0.33052719094E+02  0.00000000000E+00 0. -1.
</event>
<event>
 5    1  0.1659417E-003  0.9118800E+02  0.7818608E-02  0.1130116E+00
         25   -1    0    0    0    0  0.00000000000E+00  0.00000000000E+00  0.99999998245E-14  0.12500000000E+03  0.12500000000E+03 0.  0.
        -11    1    3    3    0    0  0.25943107201E+01  0.30182600353E+02 -0.35615521632E+02  0.46756659350E+02  0.51100000000E-03 0. -1.
         23    2    1    0    0    0  0.18726121932E+02 -0.13364830430E+02 -0.14775102099E+02  0.97657908327E+02  0.93752211076E+02 0.  0.
         11    1    3    3    0    0  0.16131811212E+02 -0.43547430784E+02  0.20840419533E+02  0.50901248977E+02  0.51100000000E-03 0.  1.
         22    1    1    0    0    0 -0.18726121932E+02  0.13364830430E+02  0.14775102099E+02  0.27342091673E+02  0.00000000000E+00 0.  1.
</event>
<event>
 5    1  0.1659417E-003  0.9118800E+02  0.7818608E-02  0.1130116E+00
         25   -1    0    0    0    0  0.00000000000E+00  0.00000000000E+00  0.99999998245E-14  0.12500000000E+03  0.12500000000E+03 0.  0.
        -11    1    3    3    0    0  0.27106752225E+02 -0.28567979147E+02  0.11572107380E+02  0.41046548188E+02  0.51100000000E-03 0. -1.
         23    2    1    0    0    0 -0.11231858161E+02  0.82143513982E+01  0.25481132890E+02  0.95966944012E+02  0.91469863906E+02 0.  0.
         11    1    3    3    0    0 -0.38338610385E+02  0.36782330545E+02  0.13909025510E+02  0.54920395824E+02  0.51100000000E-03 0.  1.
         22    1    1    0    0    0  0.11231858161E+02 -0.82143513982E+01 -0.25481132890E+02  0.29033055988E+02  0.00000000000E+00 0.  1.
</event>
<event>
 5    1  0.1659417E-003  0.9118800E+02  0.7818608E-02  0.1130116E+00
         25   -1    0    0    0    0  0.00000000000E+00  0.00000000000E+00  0.99999998245E-14  0.12500000000E+03  0.12500000000E+03 0.  0.
        -11    1    3    3    0    0  0.20810264065E+02  0.27258402994E+02 -0.62672933407E+01  0.34862108231E+02  0.51100000000E-03 0. -1.
         23    2    1    0    0    0  0.48899361879E+01 -0.29859323282E+02  0.17277209242E+01  0.94693636273E+02  0.89712925871E+02 0.  0.
         11    1    3    3    0    0 -0.15920327877E+02 -0.57117726275E+02  0.79950142649E+01  0.59831528042E+02  0.51100000000E-03 0.  1.
         22    1    1    0    0    0 -0.48899361879E+01  0.29859323282E+02 -0.17277209242E+01  0.30306363727E+02  0.00000000000E+00 0.  1.
</event>
<event>
 5    1  0.1659417E-003  0.9118800E+02  0.7818608E-02  0.1130116E+00
         25   -1    0    0    0    0  0.00000000000E+00  0.00000000000E+00  0.99999998245E-14  0.12500000000E+03  0.12500000000E+03 0.  0.
        -11    1    3    3    0    0  0.37546059011E+01 -0.44793477968E+02  0.25813925960E+02  0.51835427149E+02  0.51100000000E-03 0. -1.
         23    2    1    0    0    0  0.21861686364E+02 -0.52281602444E+01  0.18350303055E+02  0.95982753190E+02  0.91491465708E+02 0.  0.
         11    1    3    3    0    0  0.18107080463E+02  0.39565317723E+02 -0.74636229055E+01  0.44147326041E+02  0.51100000000E-03 0.  1.
         22    1    1    0    0    0 -0.21861686364E+02  0.52281602444E+01 -0.18350303055E+02  0.29017246810E+02  0.00000000000E+00 0.  1.
</event>
<event>
 5    1  0.1659417E-003  0.9118800E+02  0.7818608E-02  0.1130116E+00
         25   -1    0    0    0    0  0.00000000000E+00  0.00000000000E+00  0.99999998245E-14  0.12500000000E+03  0.12500000000E+03 0.  0.
        -11    1    3    3    0    0  0.44965817652E+01  0.42402335579E+02  0.18139919261E+02  0.46338256130E+02  0.51100000000E-03 0. -1.
         23    2    1    0    0    0  0.30569717287E+02  0.26877382558E+02  0.24703561801E+02  0.77385220006E+02  0.61002499961E+02 0.  0.
         11    1    3    3    0    0  0.26073135522E+02 -0.15524953021E+02  0.65636425404E+01  0.31046963876E+02  0.51100000000E-03 0.  1.
         22    1    1    0    0    0 -0.30569717287E+02 -0.26877382558E+02 -0.24703561801E+02  0.47614779994E+02  0.00000000000E+00 0. -1.
</event>
<event>
 5    1  0.1659417E-003  0.9118800E+02  0.7818608E-02  0.1130116E+00
         25   -1    0    0    0    0  0.00000000000E+00  0.00000000000E+00  0.99999998245E-14  0.12500000000E+03  0.12500000000E+03 0.  0.
        -11    1    3    3    0    0  0.44811576586E+01 -0.28915585269E+02  0.30636185051E+02  0.42364698514E+02  0.51100000000E-03 0.  1.
         23    2    1    0    0    0  0.14474845854E+02  0.20970304766E+02  0.14193055321E+02  0.95832935290E+02  0.91286547873E+02 0.  0.
         11    1    3    3    0    0  0.99936881953E+01  0.49885890035E+02 -0.16443129730E+02  0.53468236776E+02  0.51100000000E-03 0. -1.
         22    1    1    0    0    0 -0.14474845854E+02 -0.20970304766E+02 -0.14193055321E+02  0.29167064710E+02  0.00000000000E+00 0. -1.
</event>
<event>
 5    1  0.1659417E-003  0.9118800E+02  0.7818608E-02  0.1130116E+00
         25   -1    0    0    0    0  0.00000000000E+00  0.00000000000E+00  0.99999998245E-14  0.12500000000E+03  0.12500000000E+03 0.  0.
        -11    1    3    3    0    0  0.40127637047E+02 -0.18708902377E+02 -0.31492732890E+02  0.54332702015E+02  0.51100000000E-03 0. -1.
         23    2    1    0    0    0  0.90268566122E+01 -0.26827157471E+02 -0.44318902351E+01  0.96350005771E+02  0.91991855307E+02 0.  0.
         11    1    3    3    0    0 -0.31100780435E+02 -0.81182550942E+01  0.27060842655E+02  0.42017303756E+02  0.51100000000E-03 0.  1.
         22    1    1    0    0    0 -0.90268566122E+01  0.26827157471E+02  0.44318902351E+01  0.28649994229E+02  0.00000000000E+00 0. -1.
</event>
<event>
 5    1  0.1659417E-003  0.9118800E+02  0.7818608E-02  0.1130116E+00
         25   -1    0    0    0    0  0.00000000000E+00  0.00000000000E+00  0.99999998245E-14  0.12500000000E+03  0.12500000000E+03 0.  0.
        -11    1    3    3    0    0  0.43230291452E+01 -0.13530647348E+02  0.41259378029E+02  0.43636031834E+02  0.51100000000E-03 0.  1.
         23    2    1    0    0    0 -0.18112885402E+01  0.28043102049E+02  0.16289554160E+02  0.92518529691E+02  0.86629281555E+02 0.  0.
         11    1    3    3    0    0 -0.61343176854E+01  0.41573749397E+02 -0.24969823869E+02  0.48882497857E+02  0.51100000000E-03 0. -1.
         22    1    1    0    0    0  0.18112885402E+01 -0.28043102049E+02 -0.16289554160E+02  0.32481470309E+02  0.00000000000E+00 0.  1.
</event>
<event>
 5    1  0.1659417E-003  0.9118800E+02  0.7818608E-02  0.1130116E+00
         25   -1    0    0    0    0  0.00000000000E+00  0.00000000000E+00  0.99999998245E-14  0.12500000000E+03  0.12500000000E+03 0.  0.
        -11    1    3    3    0    0  0.32443511932E+02 -0.32403848650E+02 -0.32347824331E+02  0.56115707365E+02  0.51100000000E-03 0.  1.
         23    2    1    0    0    0  0.30110545575E+00 -0.10776490629E+02 -0.27873394666E+02  0.95114392344E+02  0.90297276183E+02 0.  0.
         11    1    3    3    0    0 -0.32142406476E+02  0.21627358022E+02  0.44744296656E+01  0.38998684980E+02  0.51100000000E-03 0. -1.
         22    1    1    0    0    0 -0.30110545575E+00  0.10776490629E+02  0.27873394666E+02  0.29885607656E+02  0.00000000000E+00 0.  1.
</event>
<event>
 5    1  0.1659417E-003  0.9118800E+02  0.7818608E-02  0.1130116E+00
         25   -1    0    0    0    0  0.00000000000E+00  0.00000000000E+00  0.99999998245E-14  0.12500000000E+03  0.12500000000E+03 0.  0.
        -11    1    3    3    0    0 -0.28993924620E+02 -0.20040904284E+02 -0.86107968822E+01  0.36282658841E+02  0.51100000000E-03 0. -1.
         23    2    1    0    0    0  0.27532426468E+02 -0.82206853214E+01 -0.11372789558E+02  0.94097661630E+02  0.88878655523E+02 0.  0.
         11    1    3    3    0    0  0.56526351088E+02  0.11820218963E+02 -0.27619926754E+01  0.57815002789E+02  0.51100000000E-03 0.  1.
         22    1    1    0    0    0 -0.27532426468E+02  0.82206853214E+01  0.11372789558E+02  0.30902338370E+02  0.00000000000E+00 0.  1.
</event>
<event>
 5    1  0.1659417E-003  0.9118800E+02  0.7818608E-02  0.1130116E+00
         25   -1    0    0    0    0  0.00000000000E+00  0.00000000000E+00  0.99999998245E-14  0.12500000000E+03  0.12500000000E+03 0.  0.
        -11    1    3    3    0    0 -0.18882448822E+02 -0.38064512131E+02 -0.12816399235E+02  0.44381460622E+02  0.51100000000E-03 0.  1.
         23    2    1    0    0    0 -0.34693730943E+02  0.37416187935E+01 -0.53234444398E+01  0.89701363501E+02  0.82464179347E+02 0.  0.
         11    1    3    3    0    0 -0.15811282121E+02  0.41806130925E+02  0.74929547950E+01  0.45319902880E+02  0.51100000000E-03 0. -1.
         22    1    1    0    0    0  0.34693730943E+02 -0.37416187935E+01  0.53234444398E+01  0.35298636499E+02  0.00000000000E+00 0. -1.
</event>
<event>
 5    1  0.1659417E-003  0.9118800E+02  0.7818608E-02  0.1130116E+00
         25   -1    0    0    0    0  0.00000000000E+00  0.00000000000E+00  0.99999998245E-14  0.12500000000E+03  0.12500000000E+03 0.  0.
        -11    1    3    3    0    0 -0.13525277069E+02 -0.37204131029E+02 -0.88398855041E+01  0.40561361681E+02  0.51100000000E-03 0. -1.
         23    2    1    0    0    0 -0.25566097507E+02  0.13507824202E+02  0.73970338980E+01  0.95153680849E+02  0.90351647534E+02 0.  0.
         11    1    3    3    0    0 -0.12040820438E+02  0.50711955231E+02  0.16236919402E+02  0.54592319168E+02  0.51100000000E-03 0.  1.
         22    1    1    0    0    0  0.25566097507E+02 -0.13507824202E+02 -0.73970338980E+01  0.29846319151E+02  0.00000000000E+00 0.  1.
</event>
<event>
 5    1  0.1659417E-003  0.9118800E+02  0.7818608E-02  0.1130116E+00
         25   -1    0    0    0    0  0.00000000000E+00  0.00000000000E+00  0.99999998245E-14  0.12500000000E+03  0.12500000000E+03 0.  0.
        -11    1    3    3    0    0 -0.62757290453E+01  0.25543300969E+02  0.37010212427E+02  0.45404854626E+02  0.51100000000E-03 0. -1.
         23    2    1    0    0    0 -0.12426285233E+02  0.12020921952E+02 -0.16597920963E+02  0.10103322905E+03  0.98149412956E+02 0.  0.
         11    1    3    3    0    0 -0.61505561875E+01 -0.13522379017E+02 -0.53608133390E+02  0.55628374428E+02  0.51100000000E-03 0.  1.
         22    1    1    0    0    0  0.12426285233E+02 -0.12020921952E+02  0.16597920963E+02  0.23966770946E+02  0.00000000000E+00 0.  1.
</event>
<event>
 5    1  0.1659417E-003  0.9118800E+02  0.7818608E-02  0.1130116E+00
         25   -1    0    0    0    0  0.00000000000E+00  0.00000000000E+00  0.99999998245E-14  0.12500000000E+03  0.12500000000E+03 0.  0.
        -11    1    3    3    0    0 -0.23736581496E+02 -0.28045407835E+02  0.20606279569E+02  0.42125870432E+02  0.51100000000E-03 0.  1.
         23    2    1    0    0    0 -0.54200709577E+01  0.22146013619E+02  0.18571617395E+02  0.95593741124E+02  0.90958426113E+02 0.  0.
         11    1    3    3    0    0  0.18316510539E+02  0.50191421454E+02 -0.20346621731E+01  0.53467870692E+02  0.51100000000E-03 0. -1.
         22    1    1    0    0    0  0.54200709577E+01 -0.22146013619E+02 -0.18571617395E+02  0.29406258876E+02  0.00000000000E+00 0. -1.
</event>
<event>
 5    1  0.1659417E-003  0.9118800E+02  0.7818608E-02  0.1130116E+00
         25   -1    0    0    0    0  0.00000000000E+00  0.00000000000E+00  0.99999998245E-14  0.12500000000E+03  0.12500000000E+03 0.  0.
        -11    1    3    3    0    0 -0.41924872987E+02  0.31548950223E+02  0.31687730586E+01  0.52564934682E+02  0.51100000000E-03 0.  1.
         23    2    1    0    0    0  0.30959954463E+01  0.26930937415E+02  0.12903304442E+01  0.97860996140E+02  0.94022598534E+02 0.  0.
         11    1    3    3    0    0  0.45020868433E+02 -0.46180128083E+01 -0.18784426145E+01  0.45296061459E+02  0.51100000000E-03 0. -1.
         22    1    1    0    0    0 -0.30959954463E+01 -0.26930937415E+02 -0.12903304442E+01  0.27139003860E+02  0.00000000000E+00 0.  1.
</event>
<event>
 5    1  0.1659417E-003  0.9118800E+02  0.7818608E-02  0.1130116E+00
         25   -1    0    0    0    0  0.00000000000E+00  0.00000000000E+00  0.99999998245E-14  0.12500000000E+03  0.12500000000E+03 0.  0.
        -11    1    3    3    0    0 -0.37825374298E+02 -0.16280940515E+02  0.34540267182E+01  0.41325031950E+02  0.51100000000E-03 0. -1.
         23    2    1    0    0    0  0.31915992668E+01  0.10937089160E+02 -0.24532742171E+02  0.97950754842E+02  0.94141854191E+02 0.  0.
         11    1    3    3    0    0  0.41016973565E+02  0.27218029675E+02 -0.27986768890E+02  0.56625722892E+02  0.51100000000E-03 0.  1.
         22    1    1    0    0    0 -0.31915992668E+01 -0.10937089160E+02  0.24532742171E+02  0.27049245158E+02  0.00000000000E+00 0.  1.
</event>
<event>
 5    1  0.1659417E-003  0.9118800E+02  0.7818608E-02  0.1130116E+00
         25   -1    0    0    0    0  0.00000000000E+00  0.00000000000E+00  0.99999998245E-14  0.12500000000E+03  0.12500000000E+03 0.  0.
        -11    1    3    3    0    0  0.67000653597E+01 -0.17997355290E+02  0.49832931321E+02  0.53405212456E+02  0.51100000000E-03 0.  1.
         23    2    1    0    0    0 -0.88076882861E+01  0.12448393439E+02  0.25268767948E+02  0.95486469107E+02  0.90810887435E+02 0.  0.
         11    1    3    3    0    0 -0.15507753646E+02  0.30445748729E+02 -0.24564163373E+02  0.42081256651E+02  0.51100000000E-03 0. -1.
         22    1    1    0    0    0  0.88076882861E+01 -0.12448393439E+02 -0.25268767948E+02  0.29513530893E+02  0.00000000000E+00 0.  1.
</event>
<event>
 5    1  0.1659417E-003  0.9118800E+02  0.7818608E-02  0.1130116E+00
         25   -1    0    0    0    0  0.00000000000E+00  0.00000000000E+00  0.99999998245E-14  0.12500000000E+03  0.12500000000E+03 0.  0.
        -11    1    3    3    0    0  0.56932492687E+02 -0.73961909066E+01 -0.93746218240E+01  0.58171263508E+02  0.51100000000E-03 0.  1.
         23    2    1    0    0    0  0.24728687262E+02 -0.10356331012E+02  0.10587229975E+02  0.96175513807E+02  0.91754446496E+02 0.  0.
         11    1    3    3    0    0 -0.32203805425E+02 -0.29601401054E+01  0.19961851799E+02  0.38004250300E+02  0.51100000000E-03 0. -1.
         22    1    1    0    0    0 -0.24728687262E+02  0.10356331012E+02 -0.10587229975E+02  0.28824486193E+02  0.00000000000E+00 0.  1.
</event>
<event>
 5    1  0.1659417E-003  0.9118800E+02  0.7818608E-02  0.1130116E+00
         25   -1    0    0    0    0  0.00000000000E+00  0.00000000000E+00  0.99999998245E-14  0.12500000000E+03  0.12500000000E+03 0.  0.
        -11    1    3    3    0    0 -0.53636051829E+02  0.18755989028E+02  0.20562324186E+02  0.60427000227E+02  0.51100000000E-03 0. -1.
         23    2    1    0    0    0 -0.26469398127E+02  0.12162814301E+02 -0.11860418893E+01  0.95845758725E+02  0.91304105501E+02 0.  0.
         11    1    3    3    0    0  0.27166653702E+02 -0.65931747263E+01 -0.21748366075E+02  0.35418758498E+02  0.51100000000E-03 0.  1.
         22    1    1    0    0    0  0.26469398127E+02 -0.12162814301E+02  0.11860418893E+01  0.29154241275E+02  0.00000000000E+00 0. -1.
</event>
<event>
 5    1  0.1659417E-003  0.9118800E+02  0.7818608E-02  0.1130116E+00
         25   -1    0    0    0    0  0.00000000000E+00  0.00000000000E+00  0.99999998245E-14  0.12500000000E+03  0.12500000000E+03 0.  0.
        -11    1    3    3    0    0 -0.91258955698E+01  0.45952215407E+01  0.50546883745E+02  0.51569230046E+02  0.51100000000E-03 0.  1.
         23    2    1    0    0    0  0.16751290447E+02  0.17451360907E+02  0.26049006218E+02  0.89451350882E+02  0.82084332979E+02 0.  0.
         11    1    3    3    0    0  0.25877186016E+02  0.12856139366E+02 -0.24497877526E+02  0.37882120837E+02  0.51100000000E-03 0. -1.
         22    1    1    0    0    0 -0.16751290447E+02 -0.17451360907E+02 -0.26049006218E+02  0.35548649118E+02  0.00000000000E+00 0.  1.
</event>
<event>
 5    1  0.1659417E-003  0.9118800E+02  0.7818608E-02  0.1130116E+00
         25   -1    0    0    0    0  0.00000000000E+00  0.00000000000E+00  0.99999998245E-14  0.12500000000E+03  0.12500000000E+03 0.  0.
        -11    1    3    3    0    0 -0.33078585423E+02 -0.92211079282E+01 -0.16497779871E+02  0.38097222812E+02  0.51100000000E-03 0. -1.
         23    2    1    0    0    0  0.17906511717E+02 -0.21524041440E+02  0.78501066166E+01  0.95921628387E+02  0.91407915941E+02 0.  0.
         11    1    3    3    0    0  0.50985097140E+02 -0.12302933512E+02  0.24347886487E+02  0.57824405575E+02  0.51100000000E-03 0.  1.
         22    1    1    0    0    0 -0.17906511717E+02  0.21524041440E+02 -0.78501066166E+01  0.29078371613E+02  0.00000000000E+00 0.  1.
</event>
<event>
 5    1  0.1659417E-003  0.9118800E+02  0.7818608E-02  0.1130116E+00
         25   -1    0    0    0    0  0.00000000000E+00  0.00000000000E+00  0.99999998245E-14  0.12500000000E+03  0.12500000000E+03 0.  0.
        -11    1    3    3    0    0 -0.11429354481E+02  0.11593231869E+02  0.51035949647E+02  0.53569593294E+02  0.51100000000E-03 0.  1.
         23    2    1    0    0    0  0.15400815134E+02  0.15704743624E+02  0.16459341026E+02  0.97527577717E+02  0.93578279687E+02 0.  0.
         11    1    3    3    0    0  0.26830169615E+02  0.41115117546E+01 -0.34576608621E+02  0.43957984423E+02  0.51100000000E-03 0. -1.
         22    1    1    0    0    0 -0.15400815134E+02 -0.15704743624E+02 -0.16459341026E+02  0.27472422283E+02  0.00000000000E+00 0.  1.
</event>
<event>
 5    1  0.1659417E-003  0.9118800E+02  0.7818608E-02  0.1130116E+00
         25   -1    0    0    0    0  0.00000000000E+00  0.00000000000E+00  0.99999998245E-14  0.12500000000E+03  0.12500000000E+03 0.  0.
        -11    1    3    3    0    0 -0.15010098810E+02 -0.26465072651E+02 -0.17712815409E+02  0.35205780302E+02  0.51100000000E-03 0. -1.
         23    2    1    0    0    0  0.23911683319E+02 -0.32634226083E+02  0.99304232857E+01  0.83342172190E+02  0.72184091374E+02 0.  0.
         11    1    3    3    0    0  0.38921782129E+02 -0.61691534318E+01  0.27643238695E+02  0.48136391888E+02  0.51100000000E-03 0.  1.
         22    1    1    0    0    0 -0.23911683319E+02  0.32634226083E+02 -0.99304232857E+01  0.41657827810E+02  0.00000000000E+00 0.  1.
</event>
<event>
 5    1  0.1659417E-003  0.9118800E+02  0.7818608E-02  0.1130116E+00
         25   -1    0    0    0    0  0.00000000000E+00  0.00000000000E+00  0.99999998245E-14  0.12500000000E+03  0.12500000000E+03 0.  0.
        -11    1    3    3    0    0 -0.25332800349E+02 -0.25552157347E+02 -0.10705822025E+02  0.37540353542E+02  0.51100000000E-03 0. -1.
         23    2    1    0    0    0  0.26898443550E+02  0.28852413642E+00 -0.11314358806E+02  0.95817398560E+02  0.91265270723E+02 0.  0.
         11    1    3    3    0    0  0.52231243899E+02  0.25840681483E+02 -0.60853678052E+00  0.58277045018E+02  0.51100000000E-03 0.  1.
         22    1    1    0    0    0 -0.26898443550E+02 -0.28852413642E+00  0.11314358806E+02  0.29182601440E+02  0.00000000000E+00 0.  1.
</event>
<event>
 5    1  0.1659417E-003  0.9118800E+02  0.7818608E-02  0.1130116E+00
         25   -1    0    0    0    0  0.00000000000E+00  0.00000000000E+00  0.99999998245E-14  0.12500000000E+03  0.12500000000E+03 0.  0.
        -11    1    3    3    0    0  0.26821654965E+02  0.11053490620E+02 -0.22522807551E+02  0.36726797984E+02  0.51100000000E-03 0.  1.
         23    2    1    0    0    0 -0.81959775505E+00 -0.30296070243E+02  0.60608879806E+01  0.94092752051E+02  0.88871750364E+02 0.  0.
         11    1    3    3    0    0 -0.27641252720E+02 -0.41349560864E+02  0.28583695531E+02  0.57365954067E+02  0.51100000000E-03 0. -1.
         22    1    1    0    0    0  0.81959775505E+00  0.30296070243E+02 -0.60608879806E+01  0.30907247949E+02  0.00000000000E+00 0. -1.
</event>
<event>
 5    1  0.1659417E-003  0.9118800E+02  0.7818608E-02  0.1130116E+00
         25   -1    0    0    0    0  0.00000000000E+00  0.00000000000E+00  0.99999998245E-14  0.12500000000E+03  0.12500000000E+03 0.  0.
        -11    1    3    3    0    0  0.32345828097E+02  0.84125558016E+01 -0.28737133394E+02  0.44077732773E+02  0.51100000000E-03 0. -1.
         23    2    1    0    0    0 -0.11995823922E+02 -0.16612707588E+02 -0.21142431946E+02  0.95557101474E+02  0.90908059976E+02 0.  0.
         11    1    3    3    0    0 -0.44341652020E+02 -0.25025263390E+02  0.75947014476E+01  0.51479368701E+02  0.51100000000E-03 0.  1.
         22    1    1    0    0    0  0.11995823922E+02  0.16612707588E+02  0.21142431946E+02  0.29442898526E+02  0.00000000000E+00 0.  1.
</event>
<event>
 5    1  0.1659417E-003  0.9118800E+02  0.7818608E-02  0.1130116E+00
         25   -1    0    0    0    0  0.00000000000E+00  0.00000000000E+00  0.99999998245E-14  0.12500000000E+03  0.12500000000E+03 0.  0.
        -11    1    3    3    0    0 -0.35670059135E+02  0.23502855615E+02 -0.26972864186E+01  0.42802017418E+02  0.51100000000E-03 0.  1.
         23    2    1    0    0    0  0.16344821216E+02  0.24126784555E+02 -0.70967636828E+01  0.95006351200E+02  0.90147588987E+02 0.  0.
         11    1    3    3    0    0  0.52014880351E+02  0.62392894038E+00 -0.43994772642E+01  0.52204333783E+02  0.51100000000E-03 0. -1.
         22    1    1    0    0    0 -0.16344821216E+02 -0.24126784555E+02  0.70967636828E+01  0.29993648800E+02  0.00000000000E+00 0. -1.
</event>
<event>
 5    1  0.1659417E-003  0.9118800E+02  0.7818608E-02  0.1130116E+00
         25   -1    0    0    0    0  0.00000000000E+00  0.00000000000E+00  0.99999998245E-14  0.12500000000E+03  0.12500000000E+03 0.  0.
        -11    1    3    3    0    0  0.34843643536E+02 -0.33823470650E+02 -0.11396712486E+02  0.49879772628E+02  0.51100000000E-03 0.  1.
         23    2    1    0    0    0 -0.11161556532E+02 -0.23713642684E+02 -0.98279382031E+01  0.97008830626E+02  0.92882762968E+02 0.  0.
         11    1    3    3    0    0 -0.46005200068E+02  0.10109827966E+02  0.15687742828E+01  0.47129057998E+02  0.51100000000E-03 0. -1.
         22    1    1    0    0    0  0.11161556532E+02  0.23713642684E+02  0.98279382031E+01  0.27991169374E+02  0.00000000000E+00 0.  1.
</event>
<event>
 5    1  0.1659417E-003  0.9118800E+02  0.7818608E-02  0.1130116E+00
         25   -1    0    0    0    0  0.00000000000E+00  0.00000000000E+00  0.99999998245E-14  0.12500000000E+03  0.12500000000E+03 0.  0.
        -11    1    3    3    0    0  0.48753066602E+02  0.72741507818E+01  0.12943622430E+02  0.50963831631E+02  0.51100000000E-03 0. -1.
         23    2    1    0    0    0  0.51830809869E+01  0.16856755415E+02 -0.13470320869E+02  0.10280846837E+03  0.10038484494E+03 0.  0.
         11    1    3    3    0    0 -0.43569985615E+02  0.95826046333E+01 -0.26413943299E+02  0.51844636742E+02  0.51100000000E-03 0.  1.
         22    1    1    0    0    0 -0.51830809869E+01 -0.16856755415E+02  0.13470320869E+02  0.22191531627E+02  0.00000000000E+00 0. -1.
</event>
<event>
 5    1  0.1659417E-003  0.9118800E+02  0.7818608E-02  0.1130116E+00
         25   -1    0    0    0    0  0.00000000000E+00  0.00000000000E+00  0.99999998245E-14  0.12500000000E+03  0.12500000000E+03 0.  0.
        -11    1    3    3    0    0  0.42262065646E+02  0.13030089360E+02  0.33337743180E+02  0.55382944505E+02  0.51100000000E-03 0. -1.
         23    2    1    0    0    0  0.71614432952E+01  0.21519059022E+02  0.38697512565E+01  0.10199280230E+03  0.99363980268E+02 0.  0.
         11    1    3    3    0    0 -0.35100622351E+02  0.84889696620E+01 -0.29467991923E+02  0.46609857794E+02  0.51100000000E-03 0.  1.
         22    1    1    0    0    0 -0.71614432952E+01 -0.21519059022E+02 -0.38697512565E+01  0.23007197701E+02  0.00000000000E+00 0. -1.
</event>
<event>
 5    1  0.1659417E-003  0.9118800E+02  0.7818608E-02  0.1130116E+00
         25   -1    0    0    0    0  0.00000000000E+00  0.00000000000E+00  0.99999998245E-14  0.12500000000E+03  0.12500000000E+03 0.  0.
        -11    1    3    3    0    0  0.37690598224E+02  0.30775071723E+01  0.27984811456E+02  0.47044680012E+02  0.51100000000E-03 0.  1.
         23    2    1    0    0    0  0.83092084465E+01 -0.27322365050E+02  0.26806978739E+01  0.96316542781E+02  0.91946374020E+02 0.  0.
         11    1    3    3    0    0 -0.29381389778E+02 -0.30399872222E+02 -0.25304113582E+02  0.49271862770E+02  0.51100000000E-03 0. -1.
         22    1    1    0    0    0 -0.83092084465E+01  0.27322365050E+02 -0.26806978739E+01  0.28683457219E+02  0.00000000000E+00 0. -1.
</event>
<event>
 5    1  0.1659417E-003  0.9118800E+02  0.7818608E-02  0.1130116E+00
         25   -1    0    0    0    0  0.00000000000E+00  0.00000000000E+00  0.99999998245E-14  0.12500000000E+03  0.12500000000E+03 0.  0.
        -11    1    3    3    0    0 -0.47536970202E+01  0.40112284143E+02  0.46372116126E+02  0.61497692061E+02  0.51100000000E-03 0.  1.
         23    2    1    0    0    0 -0.95000813494E+01  0.20630557491E+02  0.19251086607E+02  0.95226256809E+02  0.90451999437E+02 0.  0.
         11    1    3    3    0    0 -0.47463843292E+01 -0.19481726651E+02 -0.27121029519E+02  0.33728564748E+02  0.51100000000E-03 0. -1.
         22    1    1    0    0    0  0.95000813494E+01 -0.20630557491E+02 -0.19251086607E+02  0.29773743191E+02  0.00000000000E+00 0.  1.
</event>
<event>
 5    1  0.1659417E-003  0.9118800E+02  0.7818608E-02  0.1130116E+00
         25   -1    0    0    0    0  0.00000000000E+00  0.00000000000E+00  0.99999998245E-14  0.12500000000E+03  0.12500000000E+03 0.  0.
        -11    1    3    3    0    0  0.92425012509E-01 -0.46670156307E+02  0.22651271909E+02  0.51876701432E+02  0.51100000000E-03 0.  1.
         23    2    1    0    0    0  0.70768786438E+01 -0.25439723506E+01  0.27196569419E+02  0.96782852823E+02  0.92578146480E+02 0.  0.
         11    1    3    3    0    0  0.69844536313E+01  0.44126183956E+02  0.45452975102E+01  0.44906151391E+02  0.51100000000E-03 0. -1.
         22    1    1    0    0    0 -0.70768786438E+01  0.25439723506E+01 -0.27196569419E+02  0.28217147177E+02  0.00000000000E+00 0.  1.
</event>
<event>
 5    1  0.1659417E-003  0.9118800E+02  0.7818608E-02  0.1130116E+00
         25   -1    0    0    0    0  0.00000000000E+00  0.00000000000E+00  0.99999998245E-14  0.12500000000E+03  0.12500000000E+03 0.  0.
        -11    1    3    3    0    0  0.63475360280E+01  0.36857042126E+02  0.72050017374E+00  0.37406575474E+02  0.51100000000E-03 0. -1.
         23    2    1    0    0    0 -0.10936361055E+02 -0.18514928055E+02 -0.16477511353E+02  0.97909135592E+02  0.94086576608E+02 0.  0.
         11    1    3    3    0    0 -0.17283897083E+02 -0.55371970181E+02 -0.17198011526E+02  0.60502560118E+02  0.51100000000E-03 0.  1.
         22    1    1    0    0    0  0.10936361055E+02  0.18514928055E+02  0.16477511353E+02  0.27090864408E+02  0.00000000000E+00 0.  1.
</event>
<event>
 5    1  0.1659417E-003  0.9118800E+02  0.7818608E-02  0.1130116E+00
         25   -1    0    0    0    0  0.00000000000E+00  0.00000000000E+00  0.99999998245E-14  0.12500000000E+03  0.12500000000E+03 0.  0.
        -11    1    3    3    0    0  0.22702906701E+02 -0.11542982623E+02  0.28333809752E+02  0.38098125884E+02  0.51100000000E-03 0.  1.
         23    2    1    0    0    0 -0.23836196960E+02 -0.15863365123E+02 -0.55594541982E+01  0.95832926620E+02  0.91286536001E+02 0.  0.
         11    1    3    3    0    0 -0.46539103661E+02 -0.43203824997E+01 -0.33893263951E+02  0.57734800736E+02  0.51100000000E-03 0. -1.
         22    1    1    0    0    0  0.23836196960E+02  0.15863365123E+02  0.55594541982E+01  0.29167073380E+02  0.00000000000E+00 0. -1.
</event>
<event>
 5    1  0.1659417E-003  0.9118800E+02  0.7818608E-02  0.1130116E+00
         25   -1    0    0    0    0  0.00000000000E+00  0.00000000000E+00  0.99999998245E-14  0.12500000000E+03  0.12500000000E+03 0.  0.
        -11    1    3    3    0    0 -0.96983442143E+01  0.23320353029E+02 -0.34702172173E+02  0.42920129306E+02  0.51100000000E-03 0.  1.
         23    2    1    0    0    0 -0.23190335752E+02 -0.18256660261E+02 -0.70115762100E+01  0.94664220512E+02  0.89671930547E+02 0.  0.
         11    1    3    3    0    0 -0.13491991538E+02 -0.41577013289E+02  0.27690595963E+02  0.51744091206E+02  0.51100000000E-03 0. -1.
         22    1    1    0    0    0  0.23190335752E+02  0.18256660261E+02  0.70115762100E+01  0.30335779488E+02  0.00000000000E+00 0.  1.
</event>
<event>
 5    1  0.1659417E-003  0.9118800E+02  0.7818608E-02  0.1130116E+00
         25   -1    0    0    0    0  0.00000000000E+00  0.00000000000E+00  0.99999998245E-14  0.12500000000E+03  0.12500000000E+03 0.  0.
        -11    1    3    3    0    0  0.46008149730E+02  0.14397609535E+02 -0.30565888687E+02  0.57081648132E+02  0.51100000000E-03 0.  1.
         23    2    1    0    0    0  0.27609748892E+02  0.90917102608E+01  0.30537560335E+01  0.95771882454E+02  0.91202909019E+02 0.  0.
         11    1    3    3    0    0 -0.18398400838E+02 -0.53058992746E+01  0.33619644721E+02  0.38690234323E+02  0.51100000000E-03 0. -1.
         22    1    1    0    0    0 -0.27609748892E+02 -0.90917102608E+01 -0.30537560335E+01  0.29228117546E+02  0.00000000000E+00 0.  1.
</event>
<event>
 5    1  0.1659417E-003  0.9118800E+02  0.7818608E-02  0.1130116E+00
         25   -1    0    0    0    0  0.00000000000E+00  0.00000000000E+00  0.99999998245E-14  0.12500000000E+03  0.12500000000E+03 0.  0.
        -11    1    3    3    0    0 -0.36987306794E+02 -0.24951888242E+02  0.27343938249E+02  0.52329232270E+02  0.51100000000E-03 0. -1.
         23    2    1    0    0    0 -0.99648073423E+01  0.65595982713E+01  0.28759061610E+02  0.93864660921E+02  0.88550354208E+02 0.  0.
         11    1    3    3    0    0  0.27022499452E+02  0.31511486513E+02  0.14151233610E+01  0.41535428652E+02  0.51100000000E-03 0.  1.
         22    1    1    0    0    0  0.99648073423E+01 -0.65595982713E+01 -0.28759061610E+02  0.31135339079E+02  0.00000000000E+00 0. -1.
</event>
<event>
 5    1  0.1659417E-003  0.9118800E+02  0.7818608E-02  0.1130116E+00
         25   -1    0    0    0    0  0.00000000000E+00  0.00000000000E+00  0.99999998245E-14  0.12500000000E+03  0.12500000000E+03 0.  0.
        -11    1    3    3    0    0 -0.16978302162E+02  0.26144994389E+02  0.19815495890E+02  0.36938832595E+02  0.51100000000E-03 0. -1.
         23    2    1    0    0    0  0.31004420242E+02  0.91214514539E+01 -0.26192537081E+01  0.92575696752E+02  0.86711730394E+02 0.  0.
         11    1    3    3    0    0  0.47982722404E+02 -0.17023542935E+02 -0.22434749598E+02  0.55636864156E+02  0.51100000000E-03 0.  1.
         22    1    1    0    0    0 -0.31004420242E+02 -0.91214514539E+01  0.26192537081E+01  0.32424303248E+02  0.00000000000E+00 0.  1.
</event>
<event>
 5    1  0.1659417E-003  0.9118800E+02  0.7818608E-02  0.1130116E+00
         25   -1    0    0    0    0  0.00000000000E+00  0.00000000000E+00  0.99999998245E-14  0.12500000000E+03  0.12500000000E+03 0.  0.
        -11    1    3    3    0    0  0.38116684185E+02 -0.35903319865E+02 -0.40140097802E+01  0.52517066421E+02  0.51100000000E-03 0. -1.
         23    2    1    0    0    0  0.24683260125E+02  0.29543384302E+01 -0.16114015838E+02  0.95374791944E+02  0.90657034951E+02 0.  0.
         11    1    3    3    0    0 -0.13433424061E+02  0.38857658295E+02 -0.12100006057E+02  0.42857725524E+02  0.51100000000E-03 0.  1.
         22    1    1    0    0    0 -0.24683260125E+02 -0.29543384302E+01  0.16114015838E+02  0.29625208056E+02  0.00000000000E+00 0. -1.
</event>
<event>
 5    1  0.1659417E-003  0.9118800E+02  0.7818608E-02  0.1130116E+00
         25   -1    0    0    0    0  0.00000000000E+00  0.00000000000E+00  0.99999998245E-14  0.12500000000E+03  0.12500000000E+03 0.  0.
        -11    1    3    3    0    0  0.47701633788E+02  0.18850301811E+02 -0.24050494764E+02  0.56649854749E+02  0.51100000000E-03 0. -1.
         23    2    1    0    0    0  0.21782829474E+02  0.17538825151E+02  0.60434466773E+01  0.96388371327E+02  0.92043972273E+02 0.  0.
         11    1    3    3    0    0 -0.25918804314E+02 -0.13114766596E+01  0.30093941441E+02  0.39738516578E+02  0.51100000000E-03 0.  1.
         22    1    1    0    0    0 -0.21782829474E+02 -0.17538825151E+02 -0.60434466773E+01  0.28611628673E+02  0.00000000000E+00 0. -1.
</event>
<event>
 5    1  0.1659417E-003  0.9118800E+02  0.7818608E-02  0.1130116E+00
         25   -1    0    0    0    0  0.00000000000E+00  0.00000000000E+00  0.99999998245E-14  0.12500000000E+03  0.12500000000E+03 0.  0.
        -11    1    3    3    0    0  0.85739069775E+01  0.45779867380E+02 -0.43635839755E+01  0.46779792684E+02  0.51100000000E-03 0.  1.
         23    2    1    0    0    0 -0.26116259741E+02  0.11495967991E+02 -0.69848706161E+01  0.95623058014E+02  0.90998706054E+02 0.  0.
         11    1    3    3    0    0 -0.34690166719E+02 -0.34283899388E+02 -0.26212866406E+01  0.48843265330E+02  0.51100000000E-03 0. -1.
         22    1    1    0    0    0  0.26116259741E+02 -0.11495967991E+02  0.69848706161E+01  0.29376941986E+02  0.00000000000E+00 0. -1.
</event>
<event>
 5    1  0.1659417E-003  0.9118800E+02  0.7818608E-02  0.1130116E+00
         25   -1    0    0    0    0  0.00000000000E+00  0.00000000000E+00  0.99999998245E-14  0.12500000000E+03  0.12500000000E+03 0.  0.
        -11    1    3    3    0    0  0.32396800567E+02  0.31238089255E+02  0.34248521094E+02  0.56553798322E+02  0.51100000000E-03 0. -1.
         23    2    1    0    0    0 -0.34020582187E+00  0.26122484390E+02  0.14788031705E+02  0.94980242965E+02  0.90111379644E+02 0.  0.
         11    1    3    3    0    0 -0.32737006388E+02 -0.51156048645E+01 -0.19460489389E+02  0.38426444644E+02  0.51100000000E-03 0.  1.
         22    1    1    0    0    0  0.34020582187E+00 -0.26122484390E+02 -0.14788031705E+02  0.30019757035E+02  0.00000000000E+00 0. -1.
</event>
<event>
 5    1  0.1659417E-003  0.9118800E+02  0.7818608E-02  0.1130116E+00
         25   -1    0    0    0    0  0.00000000000E+00  0.00000000000E+00  0.99999998245E-14  0.12500000000E+03  0.12500000000E+03 0.  0.
        -11    1    3    3    0    0 -0.31432091838E+02  0.21836842619E+02  0.15373052509E+02  0.41245058329E+02  0.51100000000E-03 0.  1.
         23    2    1    0    0    0 -0.14663028019E+02 -0.24308669906E+02 -0.78323726505E+01  0.95550689573E+02  0.90899243083E+02 0.  0.
         11    1    3    3    0    0  0.16769063819E+02 -0.46145512526E+02 -0.23205425160E+02  0.54305631243E+02  0.51100000000E-03 0. -1.
         22    1    1    0    0    0  0.14663028019E+02  0.24308669906E+02  0.78323726505E+01  0.29449310427E+02  0.00000000000E+00 0. -1.
</event>
<event>
 4    1  0.1659417E-003  0.9118800E+02  0.7818608E-02  0.1130116E+00
         25   -1    0    0    0    0  0.00000000000E+00  0.00000000000E+00  0.99999998245E-14  0.12500000000E+03  0.12500000000E+03 0.  0.
        -11    1    1    0    0    0 -0.38802260614E+02  0.12413834340E+02 -0.36036645277E+02  0.54390794394E+02  0.51100000000E-03 0. -1.
         11    1    1    0    0    0 -0.11691584323E+01 -0.10855586860E+02 -0.61017534285E+01  0.12507681347E+02  0.51100000000E-03 0.  1.
         22    1    1    0    0    0  0.39971419046E+02 -0.15582474794E+01  0.42138398705E+02  0.58101524259E+02  0.00000000000E+00 0. -1.
</event>
<event>
 5    1  0.1659417E-003  0.9118800E+02  0.7818608E-02  0.1130116E+00
         25   -1    0    0    0    0  0.00000000000E+00  0.00000000000E+00  0.99999998245E-14  0.12500000000E+03  0.12500000000E+03 0.  0.
        -11    1    3    3    0    0  0.10123910901E+02 -0.20030558160E+02  0.30727185405E+02  0.38050975748E+02  0.51100000000E-03 0. -1.
         23    2    1    0    0    0 -0.20259759361E+02 -0.15084119258E+02 -0.16791437601E+02  0.94669472806E+02  0.89679251789E+02 0.  0.
         11    1    3    3    0    0 -0.30383670263E+02  0.49464389028E+01 -0.47518623006E+02  0.56618497058E+02  0.51100000000E-03 0.  1.
         22    1    1    0    0    0  0.20259759361E+02  0.15084119258E+02  0.16791437601E+02  0.30330527194E+02  0.00000000000E+00 0.  1.
</event>
<event>
 4    1  0.1659417E-003  0.9118800E+02  0.7818608E-02  0.1130116E+00
         25   -1    0    0    0    0  0.00000000000E+00  0.00000000000E+00  0.99999998245E-14  0.12500000000E+03  0.12500000000E+03 0.  0.
        -11    1    1    0    0    0  0.13534310905E+02  0.28453094169E+02 -0.53771294598E+02  0.62322614375E+02  0.51100000000E-03 0.  1.
         11    1    1    0    0    0 -0.23942159141E+01 -0.10760165768E+01  0.50571418373E+01  0.56977860034E+01  0.51100000000E-03 0. -1.
         22    1    1    0    0    0 -0.11140094991E+02 -0.27377077592E+02  0.48714152761E+02  0.56979599622E+02  0.00000000000E+00 0.  1.
</event>
<event>
 5    1  0.1659417E-003  0.9118800E+02  0.7818608E-02  0.1130116E+00
         25   -1    0    0    0    0  0.00000000000E+00  0.00000000000E+00  0.99999998245E-14  0.12500000000E+03  0.12500000000E+03 0.  0.
        -11    1    3    3    0    0 -0.13438710283E+02  0.29255329369E+02  0.47589602565E+02  0.57456448751E+02  0.51100000000E-03 0.  1.
         23    2    1    0    0    0  0.82821266277E+01  0.51088604835E+01  0.27934258870E+02  0.95419315499E+02  0.90718404278E+02 0.  0.
         11    1    3    3    0    0  0.21720836910E+02 -0.24146468885E+02 -0.19655343695E+02  0.37962866748E+02  0.51100000000E-03 0. -1.
         22    1    1    0    0    0 -0.82821266277E+01 -0.51088604835E+01 -0.27934258870E+02  0.29580684501E+02  0.00000000000E+00 0.  1.
</event>
<event>
 5    1  0.1659417E-003  0.9118800E+02  0.7818608E-02  0.1130116E+00
         25   -1    0    0    0    0  0.00000000000E+00  0.00000000000E+00  0.99999998245E-14  0.12500000000E+03  0.12500000000E+03 0.  0.
        -11    1    3    3    0    0 -0.66107075280E+01 -0.86029495953E+01  0.57196705654E+02  0.58216624203E+02  0.51100000000E-03 0.  1.
         23    2    1    0    0    0 -0.18912469637E+02 -0.70366238136E+01  0.24058258282E+02  0.93599436724E+02  0.88175161928E+02 0.  0.
         11    1    3    3    0    0 -0.12301762109E+02  0.15663257817E+01 -0.33138447371E+02  0.35382812521E+02  0.51100000000E-03 0. -1.
         22    1    1    0    0    0  0.18912469637E+02  0.70366238136E+01 -0.24058258282E+02  0.31400563276E+02  0.00000000000E+00 0.  1.
</event>
<event>
 5    1  0.1659417E-003  0.9118800E+02  0.7818608E-02  0.1130116E+00
         25   -1    0    0    0    0  0.00000000000E+00  0.00000000000E+00  0.99999998245E-14  0.12500000000E+03  0.12500000000E+03 0.  0.
        -11    1    3    3    0    0 -0.42222552474E+02  0.11720062606E+02  0.40108139720E+02  0.59403423108E+02  0.51100000000E-03 0.  1.
         23    2    1    0    0    0 -0.17432965599E+02  0.18736977075E+02  0.15226962126E+02  0.95220091083E+02  0.90443478321E+02 0.  0.
         11    1    3    3    0    0  0.24789586875E+02  0.70169144691E+01 -0.24881177594E+02  0.35816667975E+02  0.51100000000E-03 0. -1.
         22    1    1    0    0    0  0.17432965599E+02 -0.18736977075E+02 -0.15226962126E+02  0.29779908917E+02  0.00000000000E+00 0.  1.
</event>
<event>
 5    1  0.1659417E-003  0.9118800E+02  0.7818608E-02  0.1130116E+00
         25   -1    0    0    0    0  0.00000000000E+00  0.00000000000E+00  0.99999998245E-14  0.12500000000E+03  0.12500000000E+03 0.  0.
        -11    1    3    3    0    0  0.11302082372E+02  0.85613390323E+01 -0.45984395788E+02  0.48120663422E+02  0.51100000000E-03 0.  1.
         23    2    1    0    0    0 -0.97448571806E+01  0.27023842926E+02 -0.82412916179E+01  0.95114063249E+02  0.90296820609E+02 0.  0.
         11    1    3    3    0    0 -0.21046939553E+02  0.18462503894E+02  0.37743104170E+02  0.46993399826E+02  0.51100000000E-03 0. -1.
         22    1    1    0    0    0  0.97448571806E+01 -0.27023842926E+02  0.82412916179E+01  0.29885936751E+02  0.00000000000E+00 0. -1.
</event>
<event>
 5    1  0.1659417E-003  0.9118800E+02  0.7818608E-02  0.1130116E+00
         25   -1    0    0    0    0  0.00000000000E+00  0.00000000000E+00  0.99999998245E-14  0.12500000000E+03  0.12500000000E+03 0.  0.
        -11    1    3    3    0    0 -0.40017187210E+02 -0.41678689114E+02 -0.91996935696E+01  0.58507459016E+02  0.51100000000E-03 0. -1.
         23    2    1    0    0    0 -0.11193400016E+02 -0.19671058202E+02 -0.18297322285E+02  0.95896138787E+02  0.91373052355E+02 0.  0.
         11    1    3    3    0    0  0.28823787193E+02  0.22007630912E+02 -0.90976287154E+01  0.37388679771E+02  0.51100000000E-03 0.  1.
         22    1    1    0    0    0  0.11193400016E+02  0.19671058202E+02  0.18297322285E+02  0.29103861213E+02  0.00000000000E+00 0. -1.
</event>
<event>
 5    1  0.1659417E-003  0.9118800E+02  0.7818608E-02  0.1130116E+00
         25   -1    0    0    0    0  0.00000000000E+00  0.00000000000E+00  0.99999998245E-14  0.12500000000E+03  0.12500000000E+03 0.  0.
        -11    1    3    3    0    0 -0.22549625509E+02  0.11078595491E+02  0.28481932891E+02  0.37979486438E+02  0.51100000000E-03 0.  1.
         23    2    1    0    0    0 -0.62821838469E+01  0.12632852772E+02 -0.26304250400E+02  0.95150906343E+02  0.90347808970E+02 0.  0.
         11    1    3    3    0    0  0.16267441662E+02  0.15542572813E+01 -0.54786183292E+02  0.57171419904E+02  0.51100000000E-03 0. -1.
         22    1    1    0    0    0  0.62821838469E+01 -0.12632852772E+02  0.26304250400E+02  0.29849093657E+02  0.00000000000E+00 0. -1.
</event>
<event>
 5    1  0.1659417E-003  0.9118800E+02  0.7818608E-02  0.1130116E+00
         25   -1    0    0    0    0  0.00000000000E+00  0.00000000000E+00  0.99999998245E-14  0.12500000000E+03  0.12500000000E+03 0.  0.
        -11    1    3    3    0    0  0.31863622481E+02  0.20575762638E+02  0.67211786710E+01  0.38520471035E+02  0.51100000000E-03 0.  1.
         23    2    1    0    0    0 -0.24867705804E+02  0.99264110356E+01  0.10199776522E+02  0.96347393328E+02  0.91988305409E+02 0.  0.
         11    1    3    3    0    0 -0.56731328285E+02 -0.10649351603E+02  0.34785978505E+01  0.57826922293E+02  0.51100000000E-03 0. -1.
         22    1    1    0    0    0  0.24867705804E+02 -0.99264110356E+01 -0.10199776522E+02  0.28652606672E+02  0.00000000000E+00 0. -1.
</event>
<event>
 5    1  0.1659417E-003  0.9118800E+02  0.7818608E-02  0.1130116E+00
         25   -1    0    0    0    0  0.00000000000E+00  0.00000000000E+00  0.99999998245E-14  0.12500000000E+03  0.12500000000E+03 0.  0.
        -11    1    3    3    0    0 -0.44094492036E+02  0.47923651416E+01  0.42282327496E+02  0.61278758231E+02  0.51100000000E-03 0. -1.
         23    2    1    0    0    0 -0.29528427775E+02  0.52287546120E+01  0.38244683643E+02  0.76400372958E+02  0.58949921455E+02 0.  0.
         11    1    3    3    0    0  0.14566064261E+02  0.43638947047E+00 -0.40376438527E+01  0.15121614728E+02  0.51100000000E-03 0.  1.
         22    1    1    0    0    0  0.29528427775E+02 -0.52287546120E+01 -0.38244683643E+02  0.48599627042E+02  0.00000000000E+00 0. -1.
</event>
<event>
 5    1  0.1659417E-003  0.9118800E+02  0.7818608E-02  0.1130116E+00
         25   -1    0    0    0    0  0.00000000000E+00  0.00000000000E+00  0.99999998245E-14  0.12500000000E+03  0.12500000000E+03 0.  0.
        -11    1    3    3    0    0  0.31923143680E+02  0.25908291965E+02  0.39505791126E+02  0.57017841311E+02  0.51100000000E-03 0.  1.
         23    2    1    0    0    0 -0.24964669741E+01  0.14795653875E+02  0.24699227659E+02  0.96100249692E+02  0.91651854444E+02 0.  0.
         11    1    3    3    0    0 -0.34419610654E+02 -0.11112638091E+02 -0.14806563467E+02  0.39082408381E+02  0.51100000000E-03 0. -1.
         22    1    1    0    0    0  0.24964669741E+01 -0.14795653875E+02 -0.24699227659E+02  0.28899750308E+02  0.00000000000E+00 0.  1.
</event>
<event>
 5    1  0.1659417E-003  0.9118800E+02  0.7818608E-02  0.1130116E+00
         25   -1    0    0    0    0  0.00000000000E+00  0.00000000000E+00  0.99999998245E-14  0.12500000000E+03  0.12500000000E+03 0.  0.
        -11    1    3    3    0    0 -0.11490727884E+02 -0.14342157946E+02 -0.49795872835E+02  0.53078840167E+02  0.51100000000E-03 0. -1.
         23    2    1    0    0    0  0.16057273515E+02  0.55560132177E+01 -0.23260831720E+02  0.96194243493E+02  0.91779958996E+02 0.  0.
         11    1    3    3    0    0  0.27548001399E+02  0.19898171164E+02  0.26535041115E+02  0.43115403326E+02  0.51100000000E-03 0.  1.
         22    1    1    0    0    0 -0.16057273515E+02 -0.55560132177E+01  0.23260831720E+02  0.28805756507E+02  0.00000000000E+00 0. -1.
</event>
<event>
 5    1  0.1659417E-003  0.9118800E+02  0.7818608E-02  0.1130116E+00
         25   -1    0    0    0    0  0.00000000000E+00  0.00000000000E+00  0.99999998245E-14  0.12500000000E+03  0.12500000000E+03 0.  0.
        -11    1    3    3    0    0  0.21365708085E+02 -0.30818822463E+02 -0.16158413001E+02  0.40833657819E+02  0.51100000000E-03 0.  1.
         23    2    1    0    0    0 -0.12620901389E+02 -0.12579432683E+02  0.23070632904E+02  0.95848955746E+02  0.91308482281E+02 0.  0.
         11    1    3    3    0    0 -0.33986609474E+02  0.18239389780E+02  0.39229045905E+02  0.55015297927E+02  0.51100000000E-03 0. -1.
         22    1    1    0    0    0  0.12620901389E+02  0.12579432683E+02 -0.23070632904E+02  0.29151044254E+02  0.00000000000E+00 0. -1.
</event>
<event>
 5    1  0.1659417E-003  0.9118800E+02  0.7818608E-02  0.1130116E+00
         25   -1    0    0    0    0  0.00000000000E+00  0.00000000000E+00  0.99999998245E-14  0.12500000000E+03  0.12500000000E+03 0.  0.
        -11    1    3    3    0    0 -0.23511150173E+02 -0.26173427783E+01  0.30589329660E+02  0.38669519715E+02  0.51100000000E-03 0.  1.
         23    2    1    0    0    0 -0.10438957701E+02  0.11206589879E+01 -0.26047907144E+02  0.96915819737E+02  0.92757506080E+02 0.  0.
         11    1    3    3    0    0  0.13072192471E+02  0.37380017662E+01 -0.56637236804E+02  0.58246300022E+02  0.51100000000E-03 0. -1.
         22    1    1    0    0    0  0.10438957701E+02 -0.11206589879E+01  0.26047907144E+02  0.28084180263E+02  0.00000000000E+00 0. -1.
</event>
<event>
 5    1  0.1659417E-003  0.9118800E+02  0.7818608E-02  0.1130116E+00
         25   -1    0    0    0    0  0.00000000000E+00  0.00000000000E+00  0.99999998245E-14  0.12500000000E+03  0.12500000000E+03 0.  0.
        -11    1    3    3    0    0  0.90012737529E+01 -0.30628529909E+02  0.32486891452E+02  0.45546985521E+02  0.51100000000E-03 0. -1.
         23    2    1    0    0    0  0.27788343894E+02  0.19085324842E+01 -0.26911604716E+01  0.97016488832E+02  0.92893068676E+02 0.  0.
         11    1    3    3    0    0  0.18787070141E+02  0.32537062393E+02 -0.35178051924E+02  0.51469503311E+02  0.51100000000E-03 0.  1.
         22    1    1    0    0    0 -0.27788343894E+02 -0.19085324842E+01  0.26911604716E+01  0.27983511168E+02  0.00000000000E+00 0.  1.
</event>
<event>
 5    1  0.1659417E-003  0.9118800E+02  0.7818608E-02  0.1130116E+00
         25   -1    0    0    0    0  0.00000000000E+00  0.00000000000E+00  0.99999998245E-14  0.12500000000E+03  0.12500000000E+03 0.  0.
        -11    1    3    3    0    0  0.40384152849E+02  0.31555796119E+01 -0.63477270998E+01  0.41001599037E+02  0.51100000000E-03 0.  1.
         23    2    1    0    0    0 -0.62482096464E+01  0.24177746837E+02  0.14368601122E+02  0.96189233539E+02  0.91773135419E+02 0.  0.
         11    1    3    3    0    0 -0.46632362495E+02  0.21022167225E+02  0.20716328222E+02  0.55187634502E+02  0.51100000000E-03 0. -1.
         22    1    1    0    0    0  0.62482096464E+01 -0.24177746837E+02 -0.14368601122E+02  0.28810766461E+02  0.00000000000E+00 0. -1.
</event>
<event>
 5    1  0.1659417E-003  0.9118800E+02  0.7818608E-02  0.1130116E+00
         25   -1    0    0    0    0  0.00000000000E+00  0.00000000000E+00  0.99999998245E-14  0.12500000000E+03  0.12500000000E+03 0.  0.
        -11    1    3    3    0    0 -0.33056625365E+02  0.60865348943E+01  0.30425476942E+02  0.45337578618E+02  0.51100000000E-03 0. -1.
         23    2    1    0    0    0  0.12650146669E+02 -0.12517689204E+02  0.24028827699E+02  0.95098439601E+02  0.90275189837E+02 0.  0.
         11    1    3    3    0    0  0.45706772033E+02 -0.18604224098E+02 -0.63966492430E+01  0.49760860983E+02  0.51100000000E-03 0.  1.
         22    1    1    0    0    0 -0.12650146669E+02  0.12517689204E+02 -0.24028827699E+02  0.29901560399E+02  0.00000000000E+00 0.  1.
</event>
<event>
 5    1  0.1659417E-003  0.9118800E+02  0.7818608E-02  0.1130116E+00
         25   -1    0    0    0    0  0.00000000000E+00  0.00000000000E+00  0.99999998245E-14  0.12500000000E+03  0.12500000000E+03 0.  0.
        -11    1    3    3    0    0 -0.70628700518E+01  0.32348964711E+02 -0.20454313287E+02  0.38919385703E+02  0.51100000000E-03 0.  1.
         23    2    1    0    0    0  0.28929280032E+02  0.23255847646E+01  0.94033876688E+01  0.94492045507E+02  0.89431601668E+02 0.  0.
         11    1    3    3    0    0  0.35992150084E+02 -0.30023379946E+02  0.29857700956E+02  0.55572659804E+02  0.51100000000E-03 0. -1.
         22    1    1    0    0    0 -0.28929280032E+02 -0.23255847646E+01 -0.94033876688E+01  0.30507954493E+02  0.00000000000E+00 0. -1.
</event>
<event>
 5    1  0.1659417E-003  0.9118800E+02  0.7818608E-02  0.1130116E+00
         25   -1    0    0    0    0  0.00000000000E+00  0.00000000000E+00  0.99999998245E-14  0.12500000000E+03  0.12500000000E+03 0.  0.
        -11    1    3    3    0    0 -0.26989921890E+02 -0.32403741590E+02  0.31906756713E+02  0.52881939041E+02  0.51100000000E-03 0.  1.
         23    2    1    0    0    0  0.81167641819E+01 -0.27601604031E+02  0.99964067008E+01  0.94542512369E+02  0.89502112222E+02 0.  0.
         11    1    3    3    0    0  0.35106686071E+02  0.48021375583E+01 -0.21910350012E+02  0.41660573327E+02  0.51100000000E-03 0. -1.
         22    1    1    0    0    0 -0.81167641819E+01  0.27601604031E+02 -0.99964067008E+01  0.30457487631E+02  0.00000000000E+00 0.  1.
</event>
<event>
 5    1  0.1659417E-003  0.9118800E+02  0.7818608E-02  0.1130116E+00
         25   -1    0    0    0    0  0.00000000000E+00  0.00000000000E+00  0.99999998245E-14  0.12500000000E+03  0.12500000000E+03 0.  0.
        -11    1    3    3    0    0 -0.54785948109E+02 -0.81543050315E+00  0.80079553040E+00  0.54797867759E+02  0.51100000000E-03 0.  1.
         23    2    1    0    0    0 -0.17278872956E+02 -0.21313572497E+02  0.10662862417E+01  0.97541580716E+02  0.93596982745E+02 0.  0.
         11    1    3    3    0    0  0.37507075154E+02 -0.20498141994E+02  0.26549071129E+00  0.42743712957E+02  0.51100000000E-03 0. -1.
         22    1    1    0    0    0  0.17278872956E+02  0.21313572497E+02 -0.10662862417E+01  0.27458419284E+02  0.00000000000E+00 0.  1.
</event>
<event>
 5    1  0.1659417E-003  0.9118800E+02  0.7818608E-02  0.1130116E+00
         25   -1    0    0    0    0  0.00000000000E+00  0.00000000000E+00  0.99999998245E-14  0.12500000000E+03  0.12500000000E+03 0.  0.
        -11    1    3    3    0    0  0.42607843354E+02  0.18672639801E+02  0.41708534099E+02  0.62479577538E+02  0.51100000000E-03 0. -1.
         23    2    1    0    0    0  0.18822009972E+02  0.94749028103E+01  0.18948685894E+02  0.96661077300E+02  0.92413577602E+02 0.  0.
         11    1    3    3    0    0 -0.23785833382E+02 -0.91977369903E+01 -0.22759848205E+02  0.34181499762E+02  0.51100000000E-03 0.  1.
         22    1    1    0    0    0 -0.18822009972E+02 -0.94749028103E+01 -0.18948685894E+02  0.28338922700E+02  0.00000000000E+00 0. -1.
</event>
<event>
 5    1  0.1659417E-003  0.9118800E+02  0.7818608E-02  0.1130116E+00
         25   -1    0    0    0    0  0.00000000000E+00  0.00000000000E+00  0.99999998245E-14  0.12500000000E+03  0.12500000000E+03 0.  0.
        -11    1    3    3    0    0 -0.43245664586E+02  0.36472939493E+02  0.60804470554E+01  0.56898459183E+02  0.51100000000E-03 0. -1.
         23    2    1    0    0    0 -0.19393055913E+02  0.89780948873E+01  0.19867096737E+02  0.95821269078E+02  0.91270571761E+02 0.  0.
         11    1    3    3    0    0  0.23852608673E+02 -0.27494844606E+02  0.13786649682E+02  0.38922809895E+02  0.51100000000E-03 0.  1.
         22    1    1    0    0    0  0.19393055913E+02 -0.89780948873E+01 -0.19867096737E+02  0.29178730922E+02  0.00000000000E+00 0. -1.
</event>
<event>
 5    1  0.1659417E-003  0.9118800E+02  0.7818608E-02  0.1130116E+00
         25   -1    0    0    0    0  0.00000000000E+00  0.00000000000E+00  0.99999998245E-14  0.12500000000E+03  0.12500000000E+03 0.  0.
        -11    1    3    3    0    0  0.46287917429E+01 -0.30197265461E+02 -0.26701060921E+02  0.40573972062E+02  0.51100000000E-03 0.  1.
         23    2    1    0    0    0  0.27969442859E+02  0.54924781643E+01  0.78238273047E+01  0.95442102173E+02  0.90749796382E+02 0.  0.
         11    1    3    3    0    0  0.23340651116E+02  0.35689743625E+02  0.34524888226E+02  0.54868130111E+02  0.51100000000E-03 0. -1.
         22    1    1    0    0    0 -0.27969442859E+02 -0.54924781643E+01 -0.78238273047E+01  0.29557897827E+02  0.00000000000E+00 0. -1.
</event>
<event>
 5    1  0.1659417E-003  0.9118800E+02  0.7818608E-02  0.1130116E+00
         25   -1    0    0    0    0  0.00000000000E+00  0.00000000000E+00  0.99999998245E-14  0.12500000000E+03  0.12500000000E+03 0.  0.
        -11    1    3    3    0    0 -0.16481164415E+02  0.18998621442E+02 -0.28775206074E+02  0.38217651445E+02  0.51100000000E-03 0.  1.
         23    2    1    0    0    0  0.24435426273E+00  0.16959611176E+02  0.25122584014E+02  0.94687752512E+02  0.89704727456E+02 0.  0.
         11    1    3    3    0    0  0.16725518678E+02 -0.20390102653E+01  0.53897790087E+02  0.56470101067E+02  0.51100000000E-03 0. -1.
         22    1    1    0    0    0 -0.24435426273E+00 -0.16959611176E+02 -0.25122584014E+02  0.30312247488E+02  0.00000000000E+00 0. -1.
</event>
<event>
 5    1  0.1659417E-003  0.9118800E+02  0.7818608E-02  0.1130116E+00
         25   -1    0    0    0    0  0.00000000000E+00  0.00000000000E+00  0.99999998245E-14  0.12500000000E+03  0.12500000000E+03 0.  0.
        -11    1    3    3    0    0  0.27981131926E+01  0.46672590267E+02  0.48612150392E+00  0.46758918230E+02  0.51100000000E-03 0. -1.
         23    2    1    0    0    0  0.15794471844E+02  0.82955717618E+01  0.25128820789E+02  0.94182156371E+02  0.88997410596E+02 0.  0.
         11    1    3    3    0    0  0.12996358651E+02 -0.38377018505E+02  0.24642699285E+02  0.47423238142E+02  0.51100000000E-03 0.  1.
         22    1    1    0    0    0 -0.15794471844E+02 -0.82955717618E+01 -0.25128820789E+02  0.30817843629E+02  0.00000000000E+00 0. -1.
</event>
<event>
 5    1  0.1659417E-003  0.9118800E+02  0.7818608E-02  0.1130116E+00
         25   -1    0    0    0    0  0.00000000000E+00  0.00000000000E+00  0.99999998245E-14  0.12500000000E+03  0.12500000000E+03 0.  0.
        -11    1    3    3    0    0  0.34662259582E+01  0.18845307611E+02 -0.26969782120E+02  0.33083674058E+02  0.51100000000E-03 0.  1.
         23    2    1    0    0    0  0.33132919464E+01 -0.18353986141E+02  0.23005536465E+02  0.95384101924E+02  0.90669870856E+02 0.  0.
         11    1    3    3    0    0 -0.15293401180E+00 -0.37199293752E+02  0.49975318585E+02  0.62300427866E+02  0.51100000000E-03 0. -1.
         22    1    1    0    0    0 -0.33132919464E+01  0.18353986141E+02 -0.23005536465E+02  0.29615898076E+02  0.00000000000E+00 0. -1.
</event>
<event>
 5    1  0.1659417E-003  0.9118800E+02  0.7818608E-02  0.1130116E+00
         25   -1    0    0    0    0  0.00000000000E+00  0.00000000000E+00  0.99999998245E-14  0.12500000000E+03  0.12500000000E+03 0.  0.
        -11    1    3    3    0    0 -0.22684558309E+02  0.28842481223E+01 -0.38325601220E+02  0.44629136022E+02  0.51100000000E-03 0. -1.
         23    2    1    0    0    0 -0.12810638094E+02 -0.25270964182E+02  0.39712736088E+01  0.96390471987E+02  0.92046825022E+02 0.  0.
         11    1    3    3    0    0  0.98739202146E+01 -0.28155212304E+02  0.42296874829E+02  0.51761335965E+02  0.51100000000E-03 0.  1.
         22    1    1    0    0    0  0.12810638094E+02  0.25270964182E+02 -0.39712736088E+01  0.28609528013E+02  0.00000000000E+00 0.  1.
</event>
<event>
 5    1  0.1659417E-003  0.9118800E+02  0.7818608E-02  0.1130116E+00
         25   -1    0    0    0    0  0.00000000000E+00  0.00000000000E+00  0.99999998245E-14  0.12500000000E+03  0.12500000000E+03 0.  0.
        -11    1    3    3    0    0 -0.28094467577E+02 -0.16179326131E+02 -0.17680648467E+02  0.36927970875E+02  0.51100000000E-03 0. -1.
         23    2    1    0    0    0  0.26798264240E+02 -0.98768140774E+01  0.37552599223E+01  0.96193743740E+02  0.91779278353E+02 0.  0.
         11    1    3    3    0    0  0.54892731818E+02  0.63025120531E+01  0.21435908389E+02  0.59265772865E+02  0.51100000000E-03 0.  1.
         22    1    1    0    0    0 -0.26798264240E+02  0.98768140774E+01 -0.37552599223E+01  0.28806256260E+02  0.00000000000E+00 0.  1.
</event>
<event>
 5    1  0.1659417E-003  0.9118800E+02  0.7818608E-02  0.1130116E+00
         25   -1    0    0    0    0  0.00000000000E+00  0.00000000000E+00  0.99999998245E-14  0.12500000000E+03  0.12500000000E+03 0.  0.
        -11    1    3    3    0    0 -0.12945985001E+02  0.16582167211E+02 -0.49863036217E+02  0.54119212652E+02  0.51100000000E-03 0. -1.
         23    2    1    0    0    0  0.15259954481E+01 -0.12686634852E+02 -0.30135569241E+02  0.92267265628E+02  0.86265963201E+02 0.  0.
         11    1    3    3    0    0  0.14471980449E+02 -0.29268802063E+02  0.19727466976E+02  0.38148052976E+02  0.51100000000E-03 0.  1.
         22    1    1    0    0    0 -0.15259954481E+01  0.12686634852E+02  0.30135569241E+02  0.32732734372E+02  0.00000000000E+00 0. -1.
</event>
<event>
 5    1  0.1659417E-003  0.9118800E+02  0.7818608E-02  0.1130116E+00
         25   -1    0    0    0    0  0.00000000000E+00  0.00000000000E+00  0.99999998245E-14  0.12500000000E+03  0.12500000000E+03 0.  0.
        -11    1    3    3    0    0 -0.29139199214E+02  0.62054390941E+00  0.17711451875E+02  0.34105329985E+02  0.51100000000E-03 0. -1.
         23    2    1    0    0    0  0.18110122152E+02 -0.58774789151E+01 -0.21811573932E+02  0.96047175610E+02  0.91579440392E+02 0.  0.
         11    1    3    3    0    0  0.47249321367E+02 -0.64980228245E+01 -0.39523025807E+02  0.61941845625E+02  0.51100000000E-03 0.  1.
         22    1    1    0    0    0 -0.18110122152E+02  0.58774789151E+01  0.21811573932E+02  0.28952824390E+02  0.00000000000E+00 0.  1.
</event>
<event>
 5    1  0.1659417E-003  0.9118800E+02  0.7818608E-02  0.1130116E+00
         25   -1    0    0    0    0  0.00000000000E+00  0.00000000000E+00  0.99999998245E-14  0.12500000000E+03  0.12500000000E+03 0.  0.
        -11    1    3    3    0    0  0.25841889605E+01  0.56424106990E+02 -0.95249734984E+01  0.57280738496E+02  0.51100000000E-03 0. -1.
         23    2    1    0    0    0  0.57666923574E+01  0.19738261519E+02 -0.20759449897E+02  0.95779998827E+02  0.91214032400E+02 0.  0.
         11    1    3    3    0    0  0.31825033968E+01 -0.36685845471E+02 -0.11234476399E+02  0.38499260331E+02  0.51100000000E-03 0.  1.
         22    1    1    0    0    0 -0.57666923574E+01 -0.19738261519E+02  0.20759449897E+02  0.29220001173E+02  0.00000000000E+00 0. -1.
</event>
<event>
 5    1  0.1659417E-003  0.9118800E+02  0.7818608E-02  0.1130116E+00
         25   -1    0    0    0    0  0.00000000000E+00  0.00000000000E+00  0.99999998245E-14  0.12500000000E+03  0.12500000000E+03 0.  0.
        -11    1    3    3    0    0 -0.32014477656E+02  0.43966881294E+02 -0.20450499062E+02  0.58105389961E+02  0.51100000000E-03 0.  1.
         23    2    1    0    0    0 -0.25631585407E+02  0.13731046919E+02  0.12974861299E+01  0.95893243220E+02  0.91369091082E+02 0.  0.
         11    1    3    3    0    0  0.63828922497E+01 -0.30235834375E+02  0.21747985192E+02  0.37787853260E+02  0.51100000000E-03 0. -1.
         22    1    1    0    0    0  0.25631585407E+02 -0.13731046919E+02 -0.12974861299E+01  0.29106756780E+02  0.00000000000E+00 0.  1.
</event>
<event>
 5    1  0.1659417E-003  0.9118800E+02  0.7818608E-02  0.1130116E+00
         25   -1    0    0    0    0  0.00000000000E+00  0.00000000000E+00  0.99999998245E-14  0.12500000000E+03  0.12500000000E+03 0.  0.
        -11    1    3    3    0    0  0.34108652605E+02  0.36548135118E+02 -0.33625023711E+02  0.60247892768E+02  0.51100000000E-03 0. -1.
         23    2    1    0    0    0  0.23454045497E+02  0.78682409953E+01 -0.15388899865E+02  0.95865489439E+02  0.91331113865E+02 0.  0.
         11    1    3    3    0    0 -0.10654607108E+02 -0.28679894122E+02  0.18236123846E+02  0.35617596672E+02  0.51100000000E-03 0.  1.
         22    1    1    0    0    0 -0.23454045497E+02 -0.78682409953E+01  0.15388899865E+02  0.29134510561E+02  0.00000000000E+00 0. -1.
</event>
<event>
 5    1  0.1659417E-003  0.9118800E+02  0.7818608E-02  0.1130116E+00
         25   -1    0    0    0    0  0.00000000000E+00  0.00000000000E+00  0.99999998245E-14  0.12500000000E+03  0.12500000000E+03 0.  0.
        -11    1    3    3    0    0  0.33056393874E+02 -0.13615887399E+02  0.50482075319E+02  0.61859174699E+02  0.51100000000E-03 0. -1.
         23    2    1    0    0    0  0.15850205346E+02  0.20978282042E+00  0.20875412872E+02  0.98788249182E+02  0.95247374219E+02 0.  0.
         11    1    3    3    0    0 -0.17206188528E+02  0.13825670219E+02 -0.29606662448E+02  0.36929074484E+02  0.51100000000E-03 0.  1.
         22    1    1    0    0    0 -0.15850205346E+02 -0.20978282042E+00 -0.20875412872E+02  0.26211750818E+02  0.00000000000E+00 0. -1.
</event>
<event>
 5    1  0.1659417E-003  0.9118800E+02  0.7818608E-02  0.1130116E+00
         25   -1    0    0    0    0  0.00000000000E+00  0.00000000000E+00  0.99999998245E-14  0.12500000000E+03  0.12500000000E+03 0.  0.
        -11    1    3    3    0    0  0.10514671449E+02  0.51163053360E+02  0.30821289405E+02  0.60647903721E+02  0.51100000000E-03 0.  1.
         23    2    1    0    0    0  0.14381036218E+02  0.41127120898E+02  0.16833938593E+02  0.78292016050E+02  0.62833144220E+02 0.  0.
         11    1    3    3    0    0  0.38663647685E+01 -0.10035932462E+02 -0.13987350812E+02  0.17644112330E+02  0.51100000000E-03 0. -1.
         22    1    1    0    0    0 -0.14381036218E+02 -0.41127120898E+02 -0.16833938593E+02  0.46707983950E+02  0.00000000000E+00 0.  1.
</event>
<event>
 5    1  0.1659417E-003  0.9118800E+02  0.7818608E-02  0.1130116E+00
         25   -1    0    0    0    0  0.00000000000E+00  0.00000000000E+00  0.99999998245E-14  0.12500000000E+03  0.12500000000E+03 0.  0.
        -11    1    3    3    0    0 -0.62421370110E+01 -0.29902451375E+02  0.17415627457E+02  0.35162834821E+02  0.51100000000E-03 0.  1.
         23    2    1    0    0    0  0.14301825157E+02  0.13034651483E+02 -0.21083630419E+02  0.96382456190E+02  0.92035938891E+02 0.  0.
         11    1    3    3    0    0  0.20543962167E+02  0.42937102857E+02 -0.38499257876E+02  0.61219621369E+02  0.51100000000E-03 0. -1.
         22    1    1    0    0    0 -0.14301825157E+02 -0.13034651483E+02  0.21083630419E+02  0.28617543810E+02  0.00000000000E+00 0. -1.
</event>
<event>
 5    1  0.1659417E-003  0.9118800E+02  0.7818608E-02  0.1130116E+00
         25   -1    0    0    0    0  0.00000000000E+00  0.00000000000E+00  0.99999998245E-14  0.12500000000E+03  0.12500000000E+03 0.  0.
        -11    1    3    3    0    0 -0.17504105854E+02 -0.38883181819E+02 -0.60060893749E+01  0.43062381030E+02  0.51100000000E-03 0.  1.
         23    2    1    0    0    0 -0.11650980352E+02  0.50019100163E+01  0.24900906498E+02  0.97056850725E+02  0.92947365112E+02 0.  0.
         11    1    3    3    0    0  0.58531255016E+01  0.43885091835E+02  0.30906995873E+02  0.53994469695E+02  0.51100000000E-03 0. -1.
         22    1    1    0    0    0  0.11650980352E+02 -0.50019100163E+01 -0.24900906498E+02  0.27943149275E+02  0.00000000000E+00 0. -1.
</event>
<event>
 5    1  0.1659417E-003  0.9118800E+02  0.7818608E-02  0.1130116E+00
         25   -1    0    0    0    0  0.00000000000E+00  0.00000000000E+00  0.99999998245E-14  0.12500000000E+03  0.12500000000E+03 0.  0.
        -11    1    3    3    0    0 -0.33649006630E+02 -0.27974464979E+02  0.38739436201E+02  0.58442880281E+02  0.51100000000E-03 0. -1.
         23    2    1    0    0    0 -0.11389773097E+01 -0.15174187652E+02  0.24471757553E+02  0.96182988393E+02  0.91764628797E+02 0.  0.
         11    1    3    3    0    0  0.32510029321E+02  0.12800277327E+02 -0.14267678648E+02  0.37740108112E+02  0.51100000000E-03 0.  1.
         22    1    1    0    0    0  0.11389773097E+01  0.15174187652E+02 -0.24471757553E+02  0.28817011607E+02  0.00000000000E+00 0.  1.
</event>
<event>
 5    1  0.1659417E-003  0.9118800E+02  0.7818608E-02  0.1130116E+00
         25   -1    0    0    0    0  0.00000000000E+00  0.00000000000E+00  0.99999998245E-14  0.12500000000E+03  0.12500000000E+03 0.  0.
        -11    1    3    3    0    0 -0.41195949769E+01  0.49210883370E+02  0.81410100557E+01  0.50049556939E+02  0.51100000000E-03 0. -1.
         23    2    1    0    0    0  0.23983980876E+02  0.14316561217E+02  0.11081242499E+02  0.94950221314E+02  0.90069724816E+02 0.  0.
         11    1    3    3    0    0  0.28103575853E+02 -0.34894322153E+02  0.29402324434E+01  0.44900664375E+02  0.51100000000E-03 0.  1.
         22    1    1    0    0    0 -0.23983980876E+02 -0.14316561217E+02 -0.11081242499E+02  0.30049778686E+02  0.00000000000E+00 0. -1.
</event>
<event>
 5    1  0.1659417E-003  0.9118800E+02  0.7818608E-02  0.1130116E+00
         25   -1    0    0    0    0  0.00000000000E+00  0.00000000000E+00  0.99999998245E-14  0.12500000000E+03  0.12500000000E+03 0.  0.
        -11    1    3    3    0    0  0.31553278478E+02 -0.23388268675E+02 -0.28879870059E+02  0.48751075775E+02  0.51100000000E-03 0.  1.
         23    2    1    0    0    0 -0.14284239480E+02 -0.14777185310E+02 -0.20183242421E+02  0.96194306503E+02  0.91780044812E+02 0.  0.
         11    1    3    3    0    0 -0.45837517959E+02  0.86110833650E+01  0.86966276378E+01  0.47443230728E+02  0.51100000000E-03 0. -1.
         22    1    1    0    0    0  0.14284239480E+02  0.14777185310E+02  0.20183242421E+02  0.28805693497E+02  0.00000000000E+00 0. -1.
</event>
<event>
 5    1  0.1659417E-003  0.9118800E+02  0.7818608E-02  0.1130116E+00
         25   -1    0    0    0    0  0.00000000000E+00  0.00000000000E+00  0.99999998245E-14  0.12500000000E+03  0.12500000000E+03 0.  0.
        -11    1    3    3    0    0  0.21922042089E+02  0.24609328402E+02  0.22633077192E+02  0.39980634777E+02  0.51100000000E-03 0.  1.
         23    2    1    0    0    0  0.15879583955E+02 -0.24481157465E+02 -0.29585722742E+01  0.95670127731E+02  0.91063340225E+02 0.  0.
         11    1    3    3    0    0 -0.60424581338E+01 -0.49090485866E+02 -0.25591649466E+02  0.55689492955E+02  0.51100000000E-03 0. -1.
         22    1    1    0    0    0 -0.15879583955E+02  0.24481157465E+02  0.29585722742E+01  0.29329872269E+02  0.00000000000E+00 0. -1.
</event>
<event>
 5    1  0.1659417E-003  0.9118800E+02  0.7818608E-02  0.1130116E+00
         25   -1    0    0    0    0  0.00000000000E+00  0.00000000000E+00  0.99999998245E-14  0.12500000000E+03  0.12500000000E+03 0.  0.
        -11    1    3    3    0    0 -0.38970749067E+02 -0.30165158254E+02  0.23997428480E+02  0.54813617188E+02  0.51100000000E-03 0.  1.
         23    2    1    0    0    0  0.76208318851E+00 -0.20761507290E+02  0.20531692672E+02  0.95790902792E+02  0.91228974005E+02 0.  0.
         11    1    3    3    0    0  0.39732832255E+02  0.94036509639E+01 -0.34657358081E+01  0.40977285604E+02  0.51100000000E-03 0. -1.
         22    1    1    0    0    0 -0.76208318851E+00  0.20761507290E+02 -0.20531692672E+02  0.29209097208E+02  0.00000000000E+00 0. -1.
</event>
<event>
 5    1  0.1659417E-003  0.9118800E+02  0.7818608E-02  0.1130116E+00
         25   -1    0    0    0    0  0.00000000000E+00  0.00000000000E+00  0.99999998245E-14  0.12500000000E+03  0.12500000000E+03 0.  0.
        -11    1    3    3    0    0  0.19305602802E+02  0.43695364756E+02  0.21321982924E+02  0.52312695943E+02  0.51100000000E-03 0. -1.
         23    2    1    0    0    0  0.13296457980E+02  0.74387603035E+00  0.25853071053E+02  0.95918555242E+02  0.91403713329E+02 0.  0.
         11    1    3    3    0    0 -0.60091448220E+01 -0.42951488726E+02  0.45310881287E+01  0.43605859299E+02  0.51100000000E-03 0.  1.
         22    1    1    0    0    0 -0.13296457980E+02 -0.74387603035E+00 -0.25853071053E+02  0.29081444758E+02  0.00000000000E+00 0. -1.
</event>
<event>
 5    1  0.1659417E-003  0.9118800E+02  0.7818608E-02  0.1130116E+00
         25   -1    0    0    0    0  0.00000000000E+00  0.00000000000E+00  0.99999998245E-14  0.12500000000E+03  0.12500000000E+03 0.  0.
        -11    1    3    3    0    0  0.40775421296E+02 -0.15949905672E+02  0.29978110263E+01  0.43886459688E+02  0.51100000000E-03 0. -1.
         23    2    1    0    0    0  0.12156634437E+02  0.26643740170E+02 -0.30441229704E+01  0.95556166423E+02  0.90906774257E+02 0.  0.
         11    1    3    3    0    0 -0.28618786859E+02  0.42593645842E+02 -0.60419339968E+01  0.51669706734E+02  0.51100000000E-03 0.  1.
         22    1    1    0    0    0 -0.12156634437E+02 -0.26643740170E+02  0.30441229704E+01  0.29443833577E+02  0.00000000000E+00 0.  1.
</event>
<event>
 5    1  0.1659417E-003  0.9118800E+02  0.7818608E-02  0.1130116E+00
         25   -1    0    0    0    0  0.00000000000E+00  0.00000000000E+00  0.99999998245E-14  0.12500000000E+03  0.12500000000E+03 0.  0.
        -11    1    3    3    0    0 -0.32185993336E+02  0.14480036730E+02 -0.63430081682E+01  0.35858658419E+02  0.51100000000E-03 0. -1.
         23    2    1    0    0    0  0.24571412612E+02 -0.84225413714E+00  0.12267848899E+02  0.97523394926E+02  0.93572692232E+02 0.  0.
         11    1    3    3    0    0  0.56757405948E+02 -0.15322290867E+02  0.18610857067E+02  0.61664736507E+02  0.51100000000E-03 0.  1.
         22    1    1    0    0    0 -0.24571412612E+02  0.84225413714E+00 -0.12267848899E+02  0.27476605074E+02  0.00000000000E+00 0.  1.
</event>
<event>
 5    1  0.1659417E-003  0.9118800E+02  0.7818608E-02  0.1130116E+00
         25   -1    0    0    0    0  0.00000000000E+00  0.00000000000E+00  0.99999998245E-14  0.12500000000E+03  0.12500000000E+03 0.  0.
        -11    1    3    3    0    0 -0.27123029973E+02  0.39471920838E+02 -0.13256965447E+02  0.49693444463E+02  0.51100000000E-03 0.  1.
         23    2    1    0    0    0  0.92790950276E+01  0.13859508242E+02 -0.24275676204E+02  0.95546714472E+02  0.90893776564E+02 0.  0.
         11    1    3    3    0    0  0.36402125000E+02 -0.25612412596E+02 -0.11018710757E+02  0.45853270009E+02  0.51100000000E-03 0. -1.
         22    1    1    0    0    0 -0.92790950276E+01 -0.13859508242E+02  0.24275676204E+02  0.29453285528E+02  0.00000000000E+00 0.  1.
</event>
<event>
 5    1  0.1659417E-003  0.9118800E+02  0.7818608E-02  0.1130116E+00
         25   -1    0    0    0    0  0.00000000000E+00  0.00000000000E+00  0.99999998245E-14  0.12500000000E+03  0.12500000000E+03 0.  0.
        -11    1    3    3    0    0  0.19862176288E+02  0.10180173472E+02  0.30688963038E+02  0.37946731499E+02  0.51100000000E-03 0. -1.
         23    2    1    0    0    0 -0.53702964807E+01 -0.24104759497E+02 -0.11391064225E+02  0.97803752853E+02  0.93946464613E+02 0.  0.
         11    1    3    3    0    0 -0.25232472769E+02 -0.34284932970E+02 -0.42080027263E+02  0.59857021354E+02  0.51100000000E-03 0.  1.
         22    1    1    0    0    0  0.53702964807E+01  0.24104759497E+02  0.11391064225E+02  0.27196247147E+02  0.00000000000E+00 0.  1.
</event>
<event>
 5    1  0.1659417E-003  0.9118800E+02  0.7818608E-02  0.1130116E+00
         25   -1    0    0    0    0  0.00000000000E+00  0.00000000000E+00  0.99999998245E-14  0.12500000000E+03  0.12500000000E+03 0.  0.
        -11    1    3    3    0    0 -0.17688765326E+02  0.28640979497E+02 -0.41288287305E+02  0.53272139005E+02  0.51100000000E-03 0. -1.
         23    2    1    0    0    0 -0.91858131222E+01 -0.11283133925E+02 -0.22494293638E+02  0.98210421426E+02  0.94486006141E+02 0.  0.
         11    1    3    3    0    0  0.85029522040E+01 -0.39924113422E+02  0.18793993667E+02  0.44938282421E+02  0.51100000000E-03 0.  1.
         22    1    1    0    0    0  0.91858131222E+01  0.11283133925E+02  0.22494293638E+02  0.26789578574E+02  0.00000000000E+00 0. -1.
</event>
<event>
 5    1  0.1659417E-003  0.9118800E+02  0.7818608E-02  0.1130116E+00
         25   -1    0    0    0    0  0.00000000000E+00  0.00000000000E+00  0.99999998245E-14  0.12500000000E+03  0.12500000000E+03 0.  0.
        -11    1    3    3    0    0  0.80731502010E+01 -0.16231651609E+02  0.55981527881E+02  0.58843637994E+02  0.51100000000E-03 0.  1.
         23    2    1    0    0    0 -0.11219182542E+02 -0.53512039016E+01  0.26606301938E+02  0.95633339602E+02  0.91012828220E+02 0.  0.
         11    1    3    3    0    0 -0.19292332743E+02  0.10880447707E+02 -0.29375225944E+02  0.36789701609E+02  0.51100000000E-03 0. -1.
         22    1    1    0    0    0  0.11219182542E+02  0.53512039016E+01 -0.26606301938E+02  0.29366660398E+02  0.00000000000E+00 0.  1.
</event>
<event>
 5    1  0.1659417E-003  0.9118800E+02  0.7818608E-02  0.1130116E+00
         25   -1    0    0    0    0  0.00000000000E+00  0.00000000000E+00  0.99999998245E-14  0.12500000000E+03  0.12500000000E+03 0.  0.
        -11    1    3    3    0    0 -0.35994594695E+01 -0.46814482480E+02 -0.40612065865E+02  0.62079721105E+02  0.51100000000E-03 0. -1.
         23    2    1    0    0    0 -0.51263772444E+01 -0.23196490911E+02 -0.15245727843E+02  0.96772546135E+02  0.92564229235E+02 0.  0.
         11    1    3    3    0    0 -0.15269177749E+01  0.23617991569E+02  0.25366338023E+02  0.34692825030E+02  0.51100000000E-03 0.  1.
         22    1    1    0    0    0  0.51263772444E+01  0.23196490911E+02  0.15245727843E+02  0.28227453865E+02  0.00000000000E+00 0. -1.
</event>
<event>
 5    1  0.1659417E-003  0.9118800E+02  0.7818608E-02  0.1130116E+00
         25   -1    0    0    0    0  0.00000000000E+00  0.00000000000E+00  0.99999998245E-14  0.12500000000E+03  0.12500000000E+03 0.  0.
        -11    1    3    3    0    0 -0.15058271672E+02  0.30317847944E+02 -0.12760746532E+02  0.36176789548E+02  0.51100000000E-03 0. -1.
         23    2    1    0    0    0 -0.50233170497E+01 -0.28120365110E+02 -0.28537608562E+01  0.96292290250E+02  0.91913397078E+02 0.  0.
         11    1    3    3    0    0  0.10034954622E+02 -0.58438213054E+02  0.99069856755E+01  0.60115500702E+02  0.51100000000E-03 0.  1.
         22    1    1    0    0    0  0.50233170497E+01  0.28120365110E+02  0.28537608562E+01  0.28707709750E+02  0.00000000000E+00 0.  1.
</event>
<event>
 5    1  0.1659417E-003  0.9118800E+02  0.7818608E-02  0.1130116E+00
         25   -1    0    0    0    0  0.00000000000E+00  0.00000000000E+00  0.99999998245E-14  0.12500000000E+03  0.12500000000E+03 0.  0.
        -11    1    3    3    0    0  0.32801157259E+02 -0.20554817849E+02 -0.46542656609E+02  0.60536231620E+02  0.51100000000E-03 0.  1.
         23    2    1    0    0    0  0.89872236817E+01 -0.23484626452E+01 -0.27314095981E+02  0.96149604759E+02  0.91719142984E+02 0.  0.
         11    1    3    3    0    0 -0.23813933577E+02  0.18206355204E+02  0.19228560628E+02  0.35613373139E+02  0.51100000000E-03 0. -1.
         22    1    1    0    0    0 -0.89872236817E+01  0.23484626452E+01  0.27314095981E+02  0.28850395241E+02  0.00000000000E+00 0.  1.
</event>
<event>
 5    1  0.1659417E-003  0.9118800E+02  0.7818608E-02  0.1130116E+00
         25   -1    0    0    0    0  0.00000000000E+00  0.00000000000E+00  0.99999998245E-14  0.12500000000E+03  0.12500000000E+03 0.  0.
        -11    1    3    3    0    0 -0.48885545857E+02  0.21990544016E+02  0.30551863373E+02  0.61699246151E+02  0.51100000000E-03 0. -1.
         23    2    1    0    0    0 -0.23053967978E+02  0.35999731188E+01  0.16722384502E+02  0.96293147343E+02  0.91914562697E+02 0.  0.
         11    1    3    3    0    0  0.25831577878E+02 -0.18390570897E+02 -0.13829478870E+02  0.34593901192E+02  0.51100000000E-03 0.  1.
         22    1    1    0    0    0  0.23053967978E+02 -0.35999731188E+01 -0.16722384502E+02  0.28706852657E+02  0.00000000000E+00 0. -1.
</event>
<event>
 5    1  0.1659417E-003  0.9118800E+02  0.7818608E-02  0.1130116E+00
         25   -1    0    0    0    0  0.00000000000E+00  0.00000000000E+00  0.99999998245E-14  0.12500000000E+03  0.12500000000E+03 0.  0.
        -11    1    3    3    0    0  0.12553685228E+02  0.16090698076E+00  0.55908552580E+02  0.57300847775E+02  0.51100000000E-03 0.  1.
         23    2    1    0    0    0  0.15893253942E+02  0.10511991743E+02  0.12126843445E+02  0.10241332642E+03  0.99891599277E+02 0.  0.
         11    1    3    3    0    0  0.33395687143E+01  0.10351084762E+02 -0.43781709134E+02  0.45112478650E+02  0.51100000000E-03 0. -1.
         22    1    1    0    0    0 -0.15893253942E+02 -0.10511991743E+02 -0.12126843445E+02  0.22586673576E+02  0.00000000000E+00 0.  1.
</event>
<event>
 5    1  0.1659417E-003  0.9118800E+02  0.7818608E-02  0.1130116E+00
         25   -1    0    0    0    0  0.00000000000E+00  0.00000000000E+00  0.99999998245E-14  0.12500000000E+03  0.12500000000E+03 0.  0.
        -11    1    3    3    0    0  0.35256530937E+02 -0.57665185893E+01 -0.35496276512E+01  0.35900913179E+02  0.51100000000E-03 0.  1.
         23    2    1    0    0    0 -0.96908422971E+01 -0.30619004178E+01  0.30819951076E+02  0.92547618840E+02  0.86671245001E+02 0.  0.
         11    1    3    3    0    0 -0.44947373234E+02  0.27046181715E+01  0.34369578727E+02  0.56646705661E+02  0.51100000000E-03 0. -1.
         22    1    1    0    0    0  0.96908422971E+01  0.30619004178E+01 -0.30819951076E+02  0.32452381160E+02  0.00000000000E+00 0. -1.
</event>
<event>
 5    1  0.1659417E-003  0.9118800E+02  0.7818608E-02  0.1130116E+00
         25   -1    0    0    0    0  0.00000000000E+00  0.00000000000E+00  0.99999998245E-14  0.12500000000E+03  0.12500000000E+03 0.  0.
        -11    1    3    3    0    0 -0.47048470214E+02 -0.19340856491E+02  0.20357863956E+01  0.50909446136E+02  0.51100000000E-03 0.  1.
         23    2    1    0    0    0 -0.60531546732E+01 -0.21883549057E+02  0.19043770641E+02  0.95365634796E+02  0.90644407985E+02 0.  0.
         11    1    3    3    0    0  0.40995315541E+02 -0.25426925662E+01  0.17007984246E+02  0.44456188660E+02  0.51100000000E-03 0. -1.
         22    1    1    0    0    0  0.60531546732E+01  0.21883549057E+02 -0.19043770641E+02  0.29634365204E+02  0.00000000000E+00 0.  1.
</event>
<event>
 5    1  0.1659417E-003  0.9118800E+02  0.7818608E-02  0.1130116E+00
         25   -1    0    0    0    0  0.00000000000E+00  0.00000000000E+00  0.99999998245E-14  0.12500000000E+03  0.12500000000E+03 0.  0.
        -11    1    3    3    0    0  0.29358828733E+02  0.86091807948E+01 -0.53964434895E+02  0.62034015284E+02  0.51100000000E-03 0.  1.
         23    2    1    0    0    0  0.12668366613E+02 -0.17222767221E+01 -0.22592961948E+02  0.99040499248E+02  0.95577846868E+02 0.  0.
         11    1    3    3    0    0 -0.16690462120E+02 -0.10331457517E+02  0.31371472947E+02  0.37006483963E+02  0.51100000000E-03 0. -1.
         22    1    1    0    0    0 -0.12668366613E+02  0.17222767221E+01  0.22592961948E+02  0.25959500752E+02  0.00000000000E+00 0.  1.
</event>
<event>
 5    1  0.1659417E-003  0.9118800E+02  0.7818608E-02  0.1130116E+00
         25   -1    0    0    0    0  0.00000000000E+00  0.00000000000E+00  0.99999998245E-14  0.12500000000E+03  0.12500000000E+03 0.  0.
        -11    1    3    3    0    0 -0.15992490780E+02 -0.17219064806E+02 -0.57683919877E+02  0.62287162135E+02  0.51100000000E-03 0.  1.
         23    2    1    0    0    0 -0.44753574440E+01 -0.64376883936E+01 -0.28247900032E+02  0.95684193473E+02  0.91082645812E+02 0.  0.
         11    1    3    3    0    0  0.11517133336E+02  0.10781376413E+02  0.29436019845E+02  0.33397031338E+02  0.51100000000E-03 0. -1.
         22    1    1    0    0    0  0.44753574440E+01  0.64376883936E+01  0.28247900032E+02  0.29315806527E+02  0.00000000000E+00 0.  1.
</event>
<event>
 5    1  0.1659417E-003  0.9118800E+02  0.7818608E-02  0.1130116E+00
         25   -1    0    0    0    0  0.00000000000E+00  0.00000000000E+00  0.99999998245E-14  0.12500000000E+03  0.12500000000E+03 0.  0.
        -11    1    3    3    0    0  0.54560226333E+02 -0.24737139373E+02 -0.40161538442E+01  0.60040601711E+02  0.51100000000E-03 0.  1.
         23    2    1    0    0    0  0.21326358591E+02 -0.23276591008E+02 -0.19602499917E+01  0.93370016760E+02  0.87849326633E+02 0.  0.
         11    1    3    3    0    0 -0.33233867742E+02  0.14605483645E+01  0.20559038525E+01  0.33329415049E+02  0.51100000000E-03 0. -1.
         22    1    1    0    0    0 -0.21326358591E+02  0.23276591008E+02  0.19602499917E+01  0.31629983240E+02  0.00000000000E+00 0.  1.
</event>
<event>
 5    1  0.1659417E-003  0.9118800E+02  0.7818608E-02  0.1130116E+00
         25   -1    0    0    0    0  0.00000000000E+00  0.00000000000E+00  0.99999998245E-14  0.12500000000E+03  0.12500000000E+03 0.  0.
        -11    1    3    3    0    0 -0.20577445572E+02 -0.81494204582E+01 -0.30835619719E+02  0.37956287539E+02  0.51100000000E-03 0. -1.
         23    2    1    0    0    0 -0.10407590084E+02 -0.28741463423E+02  0.16276990537E+02  0.90368654777E+02  0.83469537523E+02 0.  0.
         11    1    3    3    0    0  0.10169855488E+02 -0.20592042965E+02  0.47112610255E+02  0.52412367238E+02  0.51100000000E-03 0.  1.
         22    1    1    0    0    0  0.10407590084E+02  0.28741463423E+02 -0.16276990537E+02  0.34631345223E+02  0.00000000000E+00 0.  1.
</event>
<event>
 5    1  0.1659417E-003  0.9118800E+02  0.7818608E-02  0.1130116E+00
         25   -1    0    0    0    0  0.00000000000E+00  0.00000000000E+00  0.99999998245E-14  0.12500000000E+03  0.12500000000E+03 0.  0.
        -11    1    3    3    0    0 -0.32885588035E+02  0.55410851303E+01  0.15457958511E+02  0.36757502723E+02  0.51100000000E-03 0. -1.
         23    2    1    0    0    0  0.14527985608E+02  0.18135497783E+02 -0.17544937549E+02  0.95883278356E+02  0.91355457358E+02 0.  0.
         11    1    3    3    0    0  0.47413573643E+02  0.12594412652E+02 -0.33002896061E+02  0.59125775634E+02  0.51100000000E-03 0.  1.
         22    1    1    0    0    0 -0.14527985608E+02 -0.18135497783E+02  0.17544937549E+02  0.29116721644E+02  0.00000000000E+00 0.  1.
</event>
<event>
 5    1  0.1659417E-003  0.9118800E+02  0.7818608E-02  0.1130116E+00
         25   -1    0    0    0    0  0.00000000000E+00  0.00000000000E+00  0.99999998245E-14  0.12500000000E+03  0.12500000000E+03 0.  0.
        -11    1    3    3    0    0  0.20613110488E+01  0.29942674686E+02  0.41721869607E+02  0.51395789462E+02  0.51100000000E-03 0.  1.
         23    2    1    0    0    0 -0.12016614176E+02 -0.79673838011E+01  0.26925384178E+02  0.94457332565E+02  0.89383069657E+02 0.  0.
         11    1    3    3    0    0 -0.14077925225E+02 -0.37910058487E+02 -0.14796485429E+02  0.43061543104E+02  0.51100000000E-03 0. -1.
         22    1    1    0    0    0  0.12016614176E+02  0.79673838011E+01 -0.26925384178E+02  0.30542667435E+02  0.00000000000E+00 0.  1.
</event>
<event>
 5    1  0.1659417E-003  0.9118800E+02  0.7818608E-02  0.1130116E+00
         25   -1    0    0    0    0  0.00000000000E+00  0.00000000000E+00  0.99999998245E-14  0.12500000000E+03  0.12500000000E+03 0.  0.
        -11    1    3    3    0    0  0.42159846787E+02  0.14227848898E+02  0.39645507658E+02  0.59595726719E+02  0.51100000000E-03 0.  1.
         23    2    1    0    0    0  0.24929230970E+02 -0.49049082837E+01  0.13760868783E+02  0.96105602763E+02  0.91659154975E+02 0.  0.
         11    1    3    3    0    0 -0.17230615818E+02 -0.19132757182E+02 -0.25884638875E+02  0.36509876044E+02  0.51100000000E-03 0. -1.
         22    1    1    0    0    0 -0.24929230970E+02  0.49049082837E+01 -0.13760868783E+02  0.28894397237E+02  0.00000000000E+00 0.  1.
</event>
<event>
 5    1  0.1659417E-003  0.9118800E+02  0.7818608E-02  0.1130116E+00
         25   -1    0    0    0    0  0.00000000000E+00  0.00000000000E+00  0.99999998245E-14  0.12500000000E+03  0.12500000000E+03 0.  0.
        -11    1    3    3    0    0 -0.28692426739E+02 -0.33026865326E+02 -0.40166457619E+02  0.59391695576E+02  0.51100000000E-03 0. -1.
         23    2    1    0    0    0 -0.10796033370E+02 -0.25537677866E+02 -0.94765166060E+01  0.95699288502E+02  0.91103359572E+02 0.  0.
         11    1    3    3    0    0  0.17896393368E+02  0.74891874601E+01  0.30689941013E+02  0.36307592926E+02  0.51100000000E-03 0.  1.
         22    1    1    0    0    0  0.10796033370E+02  0.25537677866E+02  0.94765166060E+01  0.29300711498E+02  0.00000000000E+00 0. -1.
</event>
<event>
 5    1  0.1659417E-003  0.9118800E+02  0.7818608E-02  0.1130116E+00
         25   -1    0    0    0    0  0.00000000000E+00  0.00000000000E+00  0.99999998245E-14  0.12500000000E+03  0.12500000000E+03 0.  0.
        -11    1    3    3    0    0  0.18667044351E+02 -0.80958668290E+00 -0.45404139485E+02  0.49098369199E+02  0.51100000000E-03 0.  1.
         23    2    1    0    0    0 -0.19931830861E+02 -0.77174950533E+01 -0.19275116775E+02  0.96218621679E+02  0.91813154938E+02 0.  0.
         11    1    3    3    0    0 -0.38598875212E+02 -0.69079083704E+01  0.26129022710E+02  0.47120252480E+02  0.51100000000E-03 0. -1.
         22    1    1    0    0    0  0.19931830861E+02  0.77174950533E+01  0.19275116775E+02  0.28781378321E+02  0.00000000000E+00 0. -1.
</event>
<event>
 5    1  0.1659417E-003  0.9118800E+02  0.7818608E-02  0.1130116E+00
         25   -1    0    0    0    0  0.00000000000E+00  0.00000000000E+00  0.99999998245E-14  0.12500000000E+03  0.12500000000E+03 0.  0.
        -11    1    3    3    0    0  0.15530609055E+02 -0.23753101600E+01  0.32668729193E+02  0.36250348734E+02  0.51100000000E-03 0. -1.
         23    2    1    0    0    0 -0.18832642616E+02  0.20968691639E+01 -0.18806250762E+02  0.98302802471E+02  0.94608142450E+02 0.  0.
         11    1    3    3    0    0 -0.34363251671E+02  0.44721793238E+01 -0.51474979954E+02  0.62052453738E+02  0.51100000000E-03 0.  1.
         22    1    1    0    0    0  0.18832642616E+02 -0.20968691639E+01  0.18806250762E+02  0.26697197529E+02  0.00000000000E+00 0.  1.
</event>
<event>
 5    1  0.1659417E-003  0.9118800E+02  0.7818608E-02  0.1130116E+00
         25   -1    0    0    0    0  0.00000000000E+00  0.00000000000E+00  0.99999998245E-14  0.12500000000E+03  0.12500000000E+03 0.  0.
        -11    1    3    3    0    0  0.25468921610E+02  0.16358744563E+02 -0.15135999446E+02  0.33843359336E+02  0.51100000000E-03 0. -1.
         23    2    1    0    0    0 -0.15984653566E+02 -0.22958326662E+02  0.86322401555E+01  0.95723567792E+02  0.91136666320E+02 0.  0.
         11    1    3    3    0    0 -0.41453575175E+02 -0.39317071225E+02  0.23768239602E+02  0.61880208456E+02  0.51100000000E-03 0.  1.
         22    1    1    0    0    0  0.15984653566E+02  0.22958326662E+02 -0.86322401555E+01  0.29276432208E+02  0.00000000000E+00 0.  1.
</event>
<event>
 5    1  0.1659417E-003  0.9118800E+02  0.7818608E-02  0.1130116E+00
         25   -1    0    0    0    0  0.00000000000E+00  0.00000000000E+00  0.99999998245E-14  0.12500000000E+03  0.12500000000E+03 0.  0.
        -11    1    3    3    0    0  0.17527311799E+02  0.31592915443E+02 -0.16271461341E+02  0.39624227684E+02  0.51100000000E-03 0.  1.
         23    2    1    0    0    0 -0.24793821378E+02  0.89716465247E+01  0.12757424883E+02  0.95708774188E+02  0.91116373649E+02 0.  0.
         11    1    3    3    0    0 -0.42321133177E+02 -0.22621268919E+02  0.29028886225E+02  0.56084546504E+02  0.51100000000E-03 0. -1.
         22    1    1    0    0    0  0.24793821378E+02 -0.89716465247E+01 -0.12757424883E+02  0.29291225812E+02  0.00000000000E+00 0. -1.
</event>
<event>
 5    1  0.1659417E-003  0.9118800E+02  0.7818608E-02  0.1130116E+00
         25   -1    0    0    0    0  0.00000000000E+00  0.00000000000E+00  0.99999998245E-14  0.12500000000E+03  0.12500000000E+03 0.  0.
        -11    1    3    3    0    0  0.22654021128E+02  0.55372226073E+02  0.60792168326E+01  0.60135222383E+02  0.51100000000E-03 0.  1.
         23    2    1    0    0    0  0.20331702917E+02  0.19112895967E+02  0.59440289456E+01  0.96469097177E+02  0.92153536526E+02 0.  0.
         11    1    3    3    0    0 -0.23223182109E+01 -0.36259330105E+02 -0.13518788700E+00  0.36333874794E+02  0.51100000000E-03 0. -1.
         22    1    1    0    0    0 -0.20331702917E+02 -0.19112895967E+02 -0.59440289456E+01  0.28530902823E+02  0.00000000000E+00 0.  1.
</event>
<event>
 5    1  0.1659417E-003  0.9118800E+02  0.7818608E-02  0.1130116E+00
         25   -1    0    0    0    0  0.00000000000E+00  0.00000000000E+00  0.99999998245E-14  0.12500000000E+03  0.12500000000E+03 0.  0.
        -11    1    3    3    0    0 -0.19372482992E+02 -0.47098826228E+02 -0.32386873527E+02  0.60353144959E+02  0.51100000000E-03 0.  1.
         23    2    1    0    0    0 -0.16134639272E+02 -0.14771760651E+02 -0.20709088146E+02  0.94876955184E+02  0.89967987618E+02 0.  0.
         11    1    3    3    0    0  0.32378437200E+01  0.32327065578E+02  0.11677785381E+02  0.34523810225E+02  0.51100000000E-03 0. -1.
         22    1    1    0    0    0  0.16134639272E+02  0.14771760651E+02  0.20709088146E+02  0.30123044816E+02  0.00000000000E+00 0.  1.
</event>
<event>
 5    1  0.1659417E-003  0.9118800E+02  0.7818608E-02  0.1130116E+00
         25   -1    0    0    0    0  0.00000000000E+00  0.00000000000E+00  0.99999998245E-14  0.12500000000E+03  0.12500000000E+03 0.  0.
        -11    1    3    3    0    0  0.47337775727E+02 -0.24528018492E+02 -0.27710377436E+02  0.60086219051E+02  0.51100000000E-03 0.  1.
         23    2    1    0    0    0  0.12043910409E+02 -0.17105248862E+02 -0.17911705554E+02  0.97459584019E+02  0.93487410942E+02 0.  0.
         11    1    3    3    0    0 -0.35293865318E+02  0.74227696301E+01  0.97986718821E+01  0.37373364968E+02  0.51100000000E-03 0. -1.
         22    1    1    0    0    0 -0.12043910409E+02  0.17105248862E+02  0.17911705554E+02  0.27540415981E+02  0.00000000000E+00 0.  1.
</event>
<event>
 5    1  0.1659417E-003  0.9118800E+02  0.7818608E-02  0.1130116E+00
         25   -1    0    0    0    0  0.00000000000E+00  0.00000000000E+00  0.99999998245E-14  0.12500000000E+03  0.12500000000E+03 0.  0.
        -11    1    3    3    0    0  0.27459565823E+02 -0.45066216039E+01  0.55958352314E+02  0.62495396530E+02  0.51100000000E-03 0. -1.
         23    2    1    0    0    0  0.13701301665E+02 -0.27465278891E+01  0.27600069832E+02  0.94064051049E+02  0.88831372624E+02 0.  0.
         11    1    3    3    0    0 -0.13758264158E+02  0.17600937147E+01 -0.28358282483E+02  0.31568654519E+02  0.51100000000E-03 0.  1.
         22    1    1    0    0    0 -0.13701301665E+02  0.27465278891E+01 -0.27600069832E+02  0.30935948951E+02  0.00000000000E+00 0. -1.
</event>
<event>
 5    1  0.1659417E-003  0.9118800E+02  0.7818608E-02  0.1130116E+00
         25   -1    0    0    0    0  0.00000000000E+00  0.00000000000E+00  0.99999998245E-14  0.12500000000E+03  0.12500000000E+03 0.  0.
        -11    1    3    3    0    0 -0.54311480960E+01  0.18996241408E+02  0.26406289252E+02  0.32979488620E+02  0.51100000000E-03 0. -1.
         23    2    1    0    0    0 -0.15925972713E+02 -0.22674481744E+01 -0.28212458881E+02  0.92523535226E+02  0.86636503892E+02 0.  0.
         11    1    3    3    0    0 -0.10494824617E+02 -0.21263689583E+02 -0.54618748133E+02  0.59544046607E+02  0.51100000000E-03 0.  1.
         22    1    1    0    0    0  0.15925972713E+02  0.22674481744E+01  0.28212458881E+02  0.32476464774E+02  0.00000000000E+00 0.  1.
</event>
<event>
 5    1  0.1659417E-003  0.9118800E+02  0.7818608E-02  0.1130116E+00
         25   -1    0    0    0    0  0.00000000000E+00  0.00000000000E+00  0.99999998245E-14  0.12500000000E+03  0.12500000000E+03 0.  0.
        -11    1    3    3    0    0  0.17229825655E+02 -0.34653983401E+02  0.84767708710E+01  0.39618443966E+02  0.51100000000E-03 0.  1.
         23    2    1    0    0    0  0.19668735261E+02  0.20888540604E+02 -0.21776298346E+01  0.96226186436E+02  0.91823453480E+02 0.  0.
         11    1    3    3    0    0  0.24389096062E+01  0.55542524005E+02 -0.10654400706E+02  0.56607742470E+02  0.51100000000E-03 0. -1.
         22    1    1    0    0    0 -0.19668735261E+02 -0.20888540604E+02  0.21776298346E+01  0.28773813564E+02  0.00000000000E+00 0. -1.
</event>
<event>
 5    1  0.1659417E-003  0.9118800E+02  0.7818608E-02  0.1130116E+00
         25   -1    0    0    0    0  0.00000000000E+00  0.00000000000E+00  0.99999998245E-14  0.12500000000E+03  0.12500000000E+03 0.  0.
        -11    1    3    3    0    0 -0.52871391958E+02  0.42177035222E+01 -0.29361691155E+02  0.60624104269E+02  0.51100000000E-03 0. -1.
         23    2    1    0    0    0 -0.29235242040E+02  0.80986916809E+01 -0.60137295210E+01  0.94073423616E+02  0.88844560351E+02 0.  0.
         11    1    3    3    0    0  0.23636149918E+02  0.38809881587E+01  0.23347961634E+02  0.33449319347E+02  0.51100000000E-03 0.  1.
         22    1    1    0    0    0  0.29235242040E+02 -0.80986916809E+01  0.60137295210E+01  0.30926576384E+02  0.00000000000E+00 0. -1.
</event>
<event>
 5    1  0.1659417E-003  0.9118800E+02  0.7818608E-02  0.1130116E+00
         25   -1    0    0    0    0  0.00000000000E+00  0.00000000000E+00  0.99999998245E-14  0.12500000000E+03  0.12500000000E+03 0.  0.
        -11    1    3    3    0    0  0.32125294116E+02 -0.16262485262E+02 -0.26959030772E+02  0.44981021436E+02  0.51100000000E-03 0.  1.
         23    2    1    0    0    0  0.44789599657E+01 -0.24266600733E+02  0.15192609645E+02  0.96021656684E+02  0.91544602085E+02 0.  0.
         11    1    3    3    0    0 -0.27646334151E+02 -0.80041154712E+01  0.42151640417E+02  0.51040635248E+02  0.51100000000E-03 0. -1.
         22    1    1    0    0    0 -0.44789599657E+01  0.24266600733E+02 -0.15192609645E+02  0.28978343316E+02  0.00000000000E+00 0. -1.
</event>
<event>
 5    1  0.1659417E-003  0.9118800E+02  0.7818608E-02  0.1130116E+00
         25   -1    0    0    0    0  0.00000000000E+00  0.00000000000E+00  0.99999998245E-14  0.12500000000E+03  0.12500000000E+03 0.  0.
        -11    1    3    3    0    0  0.22309407720E+02 -0.21550501049E+02 -0.27229635087E+02  0.41274529622E+02  0.51100000000E-03 0.  1.
         23    2    1    0    0    0 -0.21456288809E+02 -0.19085354699E+02  0.52196505062E+01  0.95813224830E+02  0.91259554061E+02 0.  0.
         11    1    3    3    0    0 -0.43765696529E+02  0.24651463499E+01  0.32449285593E+02  0.54538695208E+02  0.51100000000E-03 0. -1.
         22    1    1    0    0    0  0.21456288809E+02  0.19085354699E+02 -0.52196505062E+01  0.29186775170E+02  0.00000000000E+00 0.  1.
</event>
<event>
 5    1  0.1659417E-003  0.9118800E+02  0.7818608E-02  0.1130116E+00
         25   -1    0    0    0    0  0.00000000000E+00  0.00000000000E+00  0.99999998245E-14  0.12500000000E+03  0.12500000000E+03 0.  0.
        -11    1    3    3    0    0 -0.28740385815E+02 -0.25449400453E+02  0.17093553179E+02  0.42022271723E+02  0.51100000000E-03 0.  1.
         23    2    1    0    0    0 -0.14202423155E+01 -0.10382635440E+02 -0.27000131429E+02  0.96037553554E+02  0.91566305968E+02 0.  0.
         11    1    3    3    0    0  0.27320143499E+02  0.15066765013E+02 -0.44093684608E+02  0.54015281832E+02  0.51100000000E-03 0. -1.
         22    1    1    0    0    0  0.14202423155E+01  0.10382635440E+02  0.27000131429E+02  0.28962446446E+02  0.00000000000E+00 0.  1.
</event>
<event>
 5    1  0.1659417E-003  0.9118800E+02  0.7818608E-02  0.1130116E+00
         25   -1    0    0    0    0  0.00000000000E+00  0.00000000000E+00  0.99999998245E-14  0.12500000000E+03  0.12500000000E+03 0.  0.
        -11    1    3    3    0    0  0.39784624368E+02 -0.23015318358E+02  0.28413852336E+01  0.46049915152E+02  0.51100000000E-03 0.  1.
         23    2    1    0    0    0  0.12979574174E+02  0.10469757631E+02 -0.23349931951E+02  0.96306716941E+02  0.91933014936E+02 0.  0.
         11    1    3    3    0    0 -0.26805050194E+02  0.33485075989E+02 -0.26191317185E+02  0.50256801788E+02  0.51100000000E-03 0. -1.
         22    1    1    0    0    0 -0.12979574174E+02 -0.10469757631E+02  0.23349931951E+02  0.28693283059E+02  0.00000000000E+00 0. -1.
</event>
<event>
 5    1  0.1659417E-003  0.9118800E+02  0.7818608E-02  0.1130116E+00
         25   -1    0    0    0    0  0.00000000000E+00  0.00000000000E+00  0.99999998245E-14  0.12500000000E+03  0.12500000000E+03 0.  0.
        -11    1    3    3    0    0  0.24929215900E+02 -0.18615040020E+01 -0.33542548293E+02  0.41833402310E+02  0.51100000000E-03 0.  1.
         23    2    1    0    0    0  0.11793826110E+02  0.23590816099E+02  0.12308086690E+02  0.95894846909E+02  0.91371285025E+02 0.  0.
         11    1    3    3    0    0 -0.13135389791E+02  0.25452320101E+02  0.45850634983E+02  0.54061444599E+02  0.51100000000E-03 0. -1.
         22    1    1    0    0    0 -0.11793826110E+02 -0.23590816099E+02 -0.12308086690E+02  0.29105153091E+02  0.00000000000E+00 0. -1.
</event>
<event>
 5    1  0.1659417E-003  0.9118800E+02  0.7818608E-02  0.1130116E+00
         25   -1    0    0    0    0  0.00000000000E+00  0.00000000000E+00  0.99999998245E-14  0.12500000000E+03  0.12500000000E+03 0.  0.
        -11    1    3    3    0    0 -0.10052080586E+02 -0.15920678882E+02  0.35388367017E+02  0.40085519337E+02  0.51100000000E-03 0. -1.
         23    2    1    0    0    0  0.13677291011E+02 -0.17106007228E+02 -0.16779873132E+02  0.97409278462E+02  0.93420124253E+02 0.  0.
         11    1    3    3    0    0  0.23729371597E+02 -0.11853283462E+01 -0.52168240149E+02  0.57323759124E+02  0.51100000000E-03 0.  1.
         22    1    1    0    0    0 -0.13677291011E+02  0.17106007228E+02  0.16779873132E+02  0.27590721538E+02  0.00000000000E+00 0.  1.
</event>
<event>
 5    1  0.1659417E-003  0.9118800E+02  0.7818608E-02  0.1130116E+00
         25   -1    0    0    0    0  0.00000000000E+00  0.00000000000E+00  0.99999998245E-14  0.12500000000E+03  0.12500000000E+03 0.  0.
        -11    1    3    3    0    0  0.15742059580E+02 -0.52487643019E+02 -0.57463353850E+01  0.55097962577E+02  0.51100000000E-03 0.  1.
         23    2    1    0    0    0  0.16186804412E+02 -0.99682953170E+01 -0.17444069261E+02  0.99199319757E+02  0.95785332589E+02 0.  0.
         11    1    3    3    0    0  0.44474483174E+00  0.42519347702E+02 -0.11697733876E+02  0.44101357180E+02  0.51100000000E-03 0. -1.
         22    1    1    0    0    0 -0.16186804412E+02  0.99682953170E+01  0.17444069261E+02  0.25800680243E+02  0.00000000000E+00 0.  1.
</event>
<event>
 5    1  0.1659417E-003  0.9118800E+02  0.7818608E-02  0.1130116E+00
         25   -1    0    0    0    0  0.00000000000E+00  0.00000000000E+00  0.99999998245E-14  0.12500000000E+03  0.12500000000E+03 0.  0.
        -11    1    3    3    0    0  0.35372971846E+02 -0.41062005475E+02 -0.93343971386E+01  0.54995148887E+02  0.51100000000E-03 0.  1.
         23    2    1    0    0    0  0.29994551141E+02 -0.28478527901E+01 -0.88822067062E+01  0.93588585520E+02  0.88159777563E+02 0.  0.
         11    1    3    3    0    0 -0.53784207046E+01  0.38214152685E+02  0.45219043244E+00  0.38593436633E+02  0.51100000000E-03 0. -1.
         22    1    1    0    0    0 -0.29994551141E+02  0.28478527901E+01  0.88822067062E+01  0.31411414480E+02  0.00000000000E+00 0.  1.
</event>
<event>
 5    1  0.1659417E-003  0.9118800E+02  0.7818608E-02  0.1130116E+00
         25   -1    0    0    0    0  0.00000000000E+00  0.00000000000E+00  0.99999998245E-14  0.12500000000E+03  0.12500000000E+03 0.  0.
        -11    1    3    3    0    0 -0.10949309236E+02 -0.25321927221E+02  0.74844049789E+01  0.28585025609E+02  0.51100000000E-03 0.  1.
         23    2    1    0    0    0  0.32453352061E+02  0.68721291495E+01  0.22793383764E+02  0.84750968180E+02  0.74583792107E+02 0.  0.
         11    1    3    3    0    0  0.43402661297E+02  0.32194056370E+02  0.15308978785E+02  0.56165942571E+02  0.51100000000E-03 0. -1.
         22    1    1    0    0    0 -0.32453352061E+02 -0.68721291495E+01 -0.22793383764E+02  0.40249031820E+02  0.00000000000E+00 0. -1.
</event>
<event>
 5    1  0.1659417E-003  0.9118800E+02  0.7818608E-02  0.1130116E+00
         25   -1    0    0    0    0  0.00000000000E+00  0.00000000000E+00  0.99999998245E-14  0.12500000000E+03  0.12500000000E+03 0.  0.
        -11    1    3    3    0    0  0.18971463822E+02 -0.43283880947E+02  0.23322638942E+02  0.52700628809E+02  0.51100000000E-03 0.  1.
         23    2    1    0    0    0  0.28738416941E+00 -0.26114511367E+02 -0.12053700280E+02  0.96236446950E+02  0.91837420137E+02 0.  0.
         11    1    3    3    0    0 -0.18684079652E+02  0.17169369579E+02 -0.35376339222E+02  0.43535818141E+02  0.51100000000E-03 0. -1.
         22    1    1    0    0    0 -0.28738416941E+00  0.26114511367E+02  0.12053700280E+02  0.28763553050E+02  0.00000000000E+00 0.  1.
</event>
<event>
 5    1  0.1659417E-003  0.9118800E+02  0.7818608E-02  0.1130116E+00
         25   -1    0    0    0    0  0.00000000000E+00  0.00000000000E+00  0.99999998245E-14  0.12500000000E+03  0.12500000000E+03 0.  0.
        -11    1    3    3    0    0 -0.48311190977E+00 -0.39210263323E+01  0.55404888133E+02  0.55545562144E+02  0.51100000000E-03 0.  1.
         23    2    1    0    0    0 -0.10657078652E+02  0.16166298828E+02  0.25164211791E+02  0.93248463057E+02  0.87676198391E+02 0.  0.
         11    1    3    3    0    0 -0.10173966742E+02  0.20087325160E+02 -0.30240676342E+02  0.37702900913E+02  0.51100000000E-03 0. -1.
         22    1    1    0    0    0  0.10657078652E+02 -0.16166298828E+02 -0.25164211791E+02  0.31751536943E+02  0.00000000000E+00 0.  1.
</event>
<event>
 5    1  0.1659417E-003  0.9118800E+02  0.7818608E-02  0.1130116E+00
         25   -1    0    0    0    0  0.00000000000E+00  0.00000000000E+00  0.99999998245E-14  0.12500000000E+03  0.12500000000E+03 0.  0.
        -11    1    3    3    0    0 -0.33101272907E+02  0.31506694030E+02 -0.37177359951E+02  0.58911137572E+02  0.51100000000E-03 0.  1.
         23    2    1    0    0    0 -0.50189603074E+01  0.90203363414E+01 -0.26688560784E+02  0.96384694532E+02  0.92038978879E+02 0.  0.
         11    1    3    3    0    0  0.28082312600E+02 -0.22486357689E+02  0.10488799167E+02  0.37473556961E+02  0.51100000000E-03 0. -1.
         22    1    1    0    0    0  0.50189603074E+01 -0.90203363414E+01  0.26688560784E+02  0.28615305468E+02  0.00000000000E+00 0.  1.
</event>
<event>
 5    1  0.1659417E-003  0.9118800E+02  0.7818608E-02  0.1130116E+00
         25   -1    0    0    0    0  0.00000000000E+00  0.00000000000E+00  0.99999998245E-14  0.12500000000E+03  0.12500000000E+03 0.  0.
        -11    1    3    3    0    0 -0.25474414374E+02 -0.12856078367E+02 -0.26988665428E+02  0.39276107248E+02  0.51100000000E-03 0. -1.
         23    2    1    0    0    0 -0.13254077610E+02 -0.20824913647E+01  0.26557576785E+02  0.95245803182E+02  0.90479007485E+02 0.  0.
         11    1    3    3    0    0  0.12220336764E+02  0.10773587002E+02  0.53546242214E+02  0.55969695934E+02  0.51100000000E-03 0.  1.
         22    1    1    0    0    0  0.13254077610E+02  0.20824913647E+01 -0.26557576785E+02  0.29754196818E+02  0.00000000000E+00 0.  1.
</event>
<event>
 5    1  0.1659417E-003  0.9118800E+02  0.7818608E-02  0.1130116E+00
         25   -1    0    0    0    0  0.00000000000E+00  0.00000000000E+00  0.99999998245E-14  0.12500000000E+03  0.12500000000E+03 0.  0.
        -11    1    3    3    0    0 -0.54058774481E+02  0.19752841124E+02  0.24091486632E+02  0.62393313418E+02  0.51100000000E-03 0.  1.
         23    2    1    0    0    0 -0.26554425673E+02  0.10239958345E+02  0.91687321389E+01  0.95099165250E+02  0.90276194605E+02 0.  0.
         11    1    3    3    0    0  0.27504348808E+02 -0.95128827792E+01 -0.14922754493E+02  0.32705851832E+02  0.51100000000E-03 0. -1.
         22    1    1    0    0    0  0.26554425673E+02 -0.10239958345E+02 -0.91687321389E+01  0.29900834750E+02  0.00000000000E+00 0.  1.
</event>
<event>
 5    1  0.1659417E-003  0.9118800E+02  0.7818608E-02  0.1130116E+00
         25   -1    0    0    0    0  0.00000000000E+00  0.00000000000E+00  0.99999998245E-14  0.12500000000E+03  0.12500000000E+03 0.  0.
        -11    1    3    3    0    0  0.27400688615E+02  0.27933771655E+02  0.47651473693E+02  0.61658383703E+02  0.51100000000E-03 0.  1.
         23    2    1    0    0    0  0.13900962767E+02  0.18413108080E+02  0.17485112710E+02  0.96051623854E+02  0.91585511755E+02 0.  0.
         11    1    3    3    0    0 -0.13499725847E+02 -0.95206635756E+01 -0.30166360983E+02  0.34393240151E+02  0.51100000000E-03 0. -1.
         22    1    1    0    0    0 -0.13900962767E+02 -0.18413108080E+02 -0.17485112710E+02  0.28948376146E+02  0.00000000000E+00 0.  1.
</event>
<event>
 5    1  0.1659417E-003  0.9118800E+02  0.7818608E-02  0.1130116E+00
         25   -1    0    0    0    0  0.00000000000E+00  0.00000000000E+00  0.99999998245E-14  0.12500000000E+03  0.12500000000E+03 0.  0.
        -11    1    3    3    0    0 -0.15449381244E+01 -0.11384525489E+02 -0.16378695050E+02  0.20006396633E+02  0.51100000000E-03 0.  1.
         23    2    1    0    0    0 -0.24406987214E+02  0.15932012330E+02  0.33050433750E+02  0.80933445644E+02  0.67884912985E+02 0.  0.
         11    1    3    3    0    0 -0.22862049089E+02  0.27316537819E+02  0.49429128800E+02  0.60927049011E+02  0.51100000000E-03 0. -1.
         22    1    1    0    0    0  0.24406987214E+02 -0.15932012330E+02 -0.33050433750E+02  0.44066554356E+02  0.00000000000E+00 0. -1.
</event>
<event>
 5    1  0.1659417E-003  0.9118800E+02  0.7818608E-02  0.1130116E+00
         25   -1    0    0    0    0  0.00000000000E+00  0.00000000000E+00  0.99999998245E-14  0.12500000000E+03  0.12500000000E+03 0.  0.
        -11    1    3    3    0    0  0.50552317505E+02  0.33287026692E+02  0.60684077428E+01  0.60830818866E+02  0.51100000000E-03 0.  1.
         23    2    1    0    0    0  0.28738840695E+02  0.72007280616E+01  0.33457169524E-04  0.95372792080E+02  0.90654277451E+02 0.  0.
         11    1    3    3    0    0 -0.21813476810E+02 -0.26086298630E+02 -0.60683742856E+01  0.34541973214E+02  0.51100000000E-03 0. -1.
         22    1    1    0    0    0 -0.28738840695E+02 -0.72007280616E+01 -0.33457169524E-04  0.29627207920E+02  0.00000000000E+00 0.  1.
</event>
<event>
 5    1  0.1659417E-003  0.9118800E+02  0.7818608E-02  0.1130116E+00
         25   -1    0    0    0    0  0.00000000000E+00  0.00000000000E+00  0.99999998245E-14  0.12500000000E+03  0.12500000000E+03 0.  0.
        -11    1    3    3    0    0 -0.31408313891E+02  0.37482219781E+02 -0.77389244776E-01  0.48901993523E+02  0.51100000000E-03 0.  1.
         23    2    1    0    0    0 -0.22075991559E+02 -0.53196147634E+01  0.17729878469E+02  0.96190343718E+02  0.91774647532E+02 0.  0.
         11    1    3    3    0    0  0.93323223323E+01 -0.42801834544E+02  0.17807267714E+02  0.47288350195E+02  0.51100000000E-03 0. -1.
         22    1    1    0    0    0  0.22075991559E+02  0.53196147634E+01 -0.17729878469E+02  0.28809656282E+02  0.00000000000E+00 0. -1.
</event>
<event>
 5    1  0.1659417E-003  0.9118800E+02  0.7818608E-02  0.1130116E+00
         25   -1    0    0    0    0  0.00000000000E+00  0.00000000000E+00  0.99999998245E-14  0.12500000000E+03  0.12500000000E+03 0.  0.
        -11    1    3    3    0    0  0.24404576034E+02  0.28780532154E+02  0.41481940535E+02  0.56077212424E+02  0.51100000000E-03 0.  1.
         23    2    1    0    0    0 -0.17972963123E+01  0.21378605892E+01  0.29570670702E+02  0.95297722516E+02  0.90550707502E+02 0.  0.
         11    1    3    3    0    0 -0.26201872347E+02 -0.26642671565E+02 -0.11911269833E+02  0.39220510092E+02  0.51100000000E-03 0. -1.
         22    1    1    0    0    0  0.17972963123E+01 -0.21378605892E+01 -0.29570670702E+02  0.29702277484E+02  0.00000000000E+00 0.  1.
</event>
<event>
 5    1  0.1659417E-003  0.9118800E+02  0.7818608E-02  0.1130116E+00
         25   -1    0    0    0    0  0.00000000000E+00  0.00000000000E+00  0.99999998245E-14  0.12500000000E+03  0.12500000000E+03 0.  0.
        -11    1    3    3    0    0 -0.14554282395E+02 -0.37400498599E+02  0.27909214844E+02  0.48883010392E+02  0.51100000000E-03 0. -1.
         23    2    1    0    0    0 -0.27887201945E+01 -0.17656063216E+02  0.44377361433E+02  0.77157929221E+02  0.60534967625E+02 0.  0.
         11    1    3    3    0    0  0.11765562200E+02  0.19744435383E+02  0.16468146590E+02  0.28274918830E+02  0.51100000000E-03 0.  1.
         22    1    1    0    0    0  0.27887201945E+01  0.17656063216E+02 -0.44377361433E+02  0.47842070779E+02  0.00000000000E+00 0. -1.
</event>
<event>
 5    1  0.1659417E-003  0.9118800E+02  0.7818608E-02  0.1130116E+00
         25   -1    0    0    0    0  0.00000000000E+00  0.00000000000E+00  0.99999998245E-14  0.12500000000E+03  0.12500000000E+03 0.  0.
        -11    1    3    3    0    0  0.27654275769E+02 -0.46389537261E+02  0.12432814863E+02  0.55419518415E+02  0.51100000000E-03 0. -1.
         23    2    1    0    0    0  0.20253850369E+02 -0.29320937207E+02 -0.13118382634E+02  0.87025959178E+02  0.78303830011E+02 0.  0.
         11    1    3    3    0    0 -0.74004254001E+01  0.17068600055E+02 -0.25551197497E+02  0.31606440763E+02  0.51100000000E-03 0.  1.
         22    1    1    0    0    0 -0.20253850369E+02  0.29320937207E+02  0.13118382634E+02  0.37974040822E+02  0.00000000000E+00 0. -1.
</event>
<event>
 5    1  0.1659417E-003  0.9118800E+02  0.7818608E-02  0.1130116E+00
         25   -1    0    0    0    0  0.00000000000E+00  0.00000000000E+00  0.99999998245E-14  0.12500000000E+03  0.12500000000E+03 0.  0.
        -11    1    3    3    0    0  0.59671002629E+02 -0.61882988586E+01 -0.74290254869E+01  0.60449268130E+02  0.51100000000E-03 0. -1.
         23    2    1    0    0    0  0.25577993564E+02  0.42211160904E+01 -0.12082817194E+02  0.96398495718E+02  0.92057720641E+02 0.  0.
         11    1    3    3    0    0 -0.34093009065E+02  0.10409414949E+02 -0.46537917072E+01  0.35949227588E+02  0.51100000000E-03 0.  1.
         22    1    1    0    0    0 -0.25577993564E+02 -0.42211160904E+01  0.12082817194E+02  0.28601504282E+02  0.00000000000E+00 0. -1.
</event>
<event>
 5    1  0.1659417E-003  0.9118800E+02  0.7818608E-02  0.1130116E+00
         25   -1    0    0    0    0  0.00000000000E+00  0.00000000000E+00  0.99999998245E-14  0.12500000000E+03  0.12500000000E+03 0.  0.
        -11    1    3    3    0    0 -0.84085748763E+01 -0.27201829384E+02 -0.20057076855E+02  0.34827144377E+02  0.51100000000E-03 0.  1.
         23    2    1    0    0    0  0.71339875809E+01  0.26486953907E+02  0.66519204971E+01  0.96774115561E+02  0.92566348584E+02 0.  0.
         11    1    3    3    0    0  0.15542562457E+02  0.53688783291E+02  0.26708997352E+02  0.61946971183E+02  0.51100000000E-03 0. -1.
         22    1    1    0    0    0 -0.71339875809E+01 -0.26486953907E+02 -0.66519204971E+01  0.28225884439E+02  0.00000000000E+00 0. -1.
</event>
<event>
 5    1  0.1659417E-003  0.9118800E+02  0.7818608E-02  0.1130116E+00
         25   -1    0    0    0    0  0.00000000000E+00  0.00000000000E+00  0.99999998245E-14  0.12500000000E+03  0.12500000000E+03 0.  0.
        -11    1    3    3    0    0 -0.72932623005E+01 -0.28550749104E+02 -0.24338727386E+02  0.38219243850E+02  0.51100000000E-03 0.  1.
         23    2    1    0    0    0  0.54945583920E+01  0.26230972476E+02 -0.10977286607E+02  0.96038734312E+02  0.91567917843E+02 0.  0.
         11    1    3    3    0    0  0.12787820692E+02  0.54781721581E+02  0.13361440780E+02  0.57819490463E+02  0.51100000000E-03 0. -1.
         22    1    1    0    0    0 -0.54945583920E+01 -0.26230972476E+02  0.10977286607E+02  0.28961265688E+02  0.00000000000E+00 0. -1.
</event>
<event>
 4    1  0.1659417E-003  0.9118800E+02  0.7818608E-02  0.1130116E+00
         25   -1    0    0    0    0  0.00000000000E+00  0.00000000000E+00  0.99999998245E-14  0.12500000000E+03  0.12500000000E+03 0.  0.
        -11    1    1    0    0    0  0.31532673663E+00 -0.34447740185E+02 -0.38330427881E+02  0.51536083831E+02  0.51100000000E-03 0. -1.
         11    1    1    0    0    0  0.20844911665E+02 -0.73990657963E+00  0.76859855013E+01  0.22229084044E+02  0.51100000000E-03 0.  1.
         22    1    1    0    0    0 -0.21160238401E+02  0.35187646765E+02  0.30644442380E+02  0.51234832125E+02  0.00000000000E+00 0. -1.
</event>
<event>
 5    1  0.1659417E-003  0.9118800E+02  0.7818608E-02  0.1130116E+00
         25   -1    0    0    0    0  0.00000000000E+00  0.00000000000E+00  0.99999998245E-14  0.12500000000E+03  0.12500000000E+03 0.  0.
        -11    1    3    3    0    0  0.26685086423E+02  0.33896665288E+02  0.29358993640E+02  0.52182643310E+02  0.51100000000E-03 0. -1.
         23    2    1    0    0    0  0.75388023310E+01  0.27336301077E+02 -0.87426827539E+01  0.95326082178E+02  0.90589847911E+02 0.  0.
         11    1    3    3    0    0 -0.19146284092E+02 -0.65603642103E+01 -0.38101676394E+02  0.43143438868E+02  0.51100000000E-03 0.  1.
         22    1    1    0    0    0 -0.75388023310E+01 -0.27336301077E+02  0.87426827539E+01  0.29673917822E+02  0.00000000000E+00 0. -1.
</event>
<event>
 5    1  0.1659417E-003  0.9118800E+02  0.7818608E-02  0.1130116E+00
         25   -1    0    0    0    0  0.00000000000E+00  0.00000000000E+00  0.99999998245E-14  0.12500000000E+03  0.12500000000E+03 0.  0.
        -11    1    3    3    0    0  0.22733182932E+02 -0.40899983649E+02 -0.59694835061E+01  0.47172460211E+02  0.51100000000E-03 0. -1.
         23    2    1    0    0    0  0.20803191459E+02 -0.20454347289E+01  0.21667800173E+02  0.94892689552E+02  0.89989846027E+02 0.  0.
         11    1    3    3    0    0 -0.19299914733E+01  0.38854548921E+02  0.27637283679E+02  0.47720229341E+02  0.51100000000E-03 0.  1.
         22    1    1    0    0    0 -0.20803191459E+02  0.20454347289E+01 -0.21667800173E+02  0.30107310448E+02  0.00000000000E+00 0.  1.
</event>
<event>
 5    1  0.1659417E-003  0.9118800E+02  0.7818608E-02  0.1130116E+00
         25   -1    0    0    0    0  0.00000000000E+00  0.00000000000E+00  0.99999998245E-14  0.12500000000E+03  0.12500000000E+03 0.  0.
        -11    1    3    3    0    0 -0.13160173027E+02 -0.41705735743E+02  0.44302306290E+02  0.62251529225E+02  0.51100000000E-03 0. -1.
         23    2    1    0    0    0 -0.34408722843E+01 -0.17002293363E+02  0.22408235623E+02  0.96661923046E+02  0.92414721563E+02 0.  0.
         11    1    3    3    0    0  0.97193007430E+01  0.24703442380E+02 -0.21894070666E+02  0.34410393821E+02  0.51100000000E-03 0.  1.
         22    1    1    0    0    0  0.34408722843E+01  0.17002293363E+02 -0.22408235623E+02  0.28338076954E+02  0.00000000000E+00 0. -1.
</event>
<event>
 5    1  0.1659417E-003  0.9118800E+02  0.7818608E-02  0.1130116E+00
         25   -1    0    0    0    0  0.00000000000E+00  0.00000000000E+00  0.99999998245E-14  0.12500000000E+03  0.12500000000E+03 0.  0.
        -11    1    3    3    0    0  0.61212798487E+01 -0.10655882180E+02  0.51983344073E+02  0.53416158167E+02  0.51100000000E-03 0. -1.
         23    2    1    0    0    0  0.25668496499E+01  0.19073390019E+02  0.21508699226E+02  0.96138138204E+02  0.91703514388E+02 0.  0.
         11    1    3    3    0    0 -0.35544301988E+01  0.29729272199E+02 -0.30474644847E+02  0.42721980038E+02  0.51100000000E-03 0.  1.
         22    1    1    0    0    0 -0.25668496499E+01 -0.19073390019E+02 -0.21508699226E+02  0.28861861796E+02  0.00000000000E+00 0. -1.
</event>
<event>
 5    1  0.1659417E-003  0.9118800E+02  0.7818608E-02  0.1130116E+00
         25   -1    0    0    0    0  0.00000000000E+00  0.00000000000E+00  0.99999998245E-14  0.12500000000E+03  0.12500000000E+03 0.  0.
        -11    1    3    3    0    0  0.24967636802E+02 -0.30875213368E+02 -0.10245843721E+02  0.41007791964E+02  0.51100000000E-03 0.  1.
         23    2    1    0    0    0  0.11452135952E+02  0.80095382704E+01  0.25756390569E+02  0.95696488669E+02  0.91099517932E+02 0.  0.
         11    1    3    3    0    0 -0.13515500850E+02  0.38884751638E+02  0.36002234290E+02  0.54688696705E+02  0.51100000000E-03 0. -1.
         22    1    1    0    0    0 -0.11452135952E+02 -0.80095382704E+01 -0.25756390569E+02  0.29303511331E+02  0.00000000000E+00 0. -1.
</event>
<event>
 5    1  0.1659417E-003  0.9118800E+02  0.7818608E-02  0.1130116E+00
         25   -1    0    0    0    0  0.00000000000E+00  0.00000000000E+00  0.99999998245E-14  0.12500000000E+03  0.12500000000E+03 0.  0.
        -11    1    3    3    0    0  0.28558155772E+02 -0.43007846583E+02 -0.62588734524E+01  0.52004005865E+02  0.51100000000E-03 0. -1.
         23    2    1    0    0    0  0.11193988850E+02 -0.89327252104E+01 -0.26204790811E+02  0.95137146361E+02  0.90328769449E+02 0.  0.
         11    1    3    3    0    0 -0.17364166923E+02  0.34075121373E+02 -0.19945917358E+02  0.43133140496E+02  0.51100000000E-03 0.  1.
         22    1    1    0    0    0 -0.11193988850E+02  0.89327252104E+01  0.26204790811E+02  0.29862853639E+02  0.00000000000E+00 0.  1.
</event>
<event>
 5    1  0.1659417E-003  0.9118800E+02  0.7818608E-02  0.1130116E+00
         25   -1    0    0    0    0  0.00000000000E+00  0.00000000000E+00  0.99999998245E-14  0.12500000000E+03  0.12500000000E+03 0.  0.
        -11    1    3    3    0    0 -0.28465104503E+02 -0.20797649842E+02 -0.72593697140E+01  0.35993094647E+02  0.51100000000E-03 0. -1.
         23    2    1    0    0    0  0.14214145399E+02  0.18009067880E+02 -0.19415727226E+02  0.94944402867E+02  0.90061649533E+02 0.  0.
         11    1    3    3    0    0  0.42679249902E+02  0.38806717723E+02 -0.12156357512E+02  0.58951308220E+02  0.51100000000E-03 0.  1.
         22    1    1    0    0    0 -0.14214145399E+02 -0.18009067880E+02  0.19415727226E+02  0.30055597133E+02  0.00000000000E+00 0.  1.
</event>
<event>
 5    1  0.1659417E-003  0.9118800E+02  0.7818608E-02  0.1130116E+00
         25   -1    0    0    0    0  0.00000000000E+00  0.00000000000E+00  0.99999998245E-14  0.12500000000E+03  0.12500000000E+03 0.  0.
        -11    1    3    3    0    0 -0.14406387197E+02 -0.32599396864E+02 -0.88355344696E+01  0.36719631501E+02  0.51100000000E-03 0.  1.
         23    2    1    0    0    0  0.31662080849E+02 -0.81595905099E+00 -0.60295804098E+01  0.92758582649E+02  0.86974971471E+02 0.  0.
         11    1    3    3    0    0  0.46068468046E+02  0.31783437813E+02  0.28059540598E+01  0.56038951148E+02  0.51100000000E-03 0. -1.
         22    1    1    0    0    0 -0.31662080849E+02  0.81595905099E+00  0.60295804098E+01  0.32241417351E+02  0.00000000000E+00 0. -1.
</event>
<event>
 5    1  0.1659417E-003  0.9118800E+02  0.7818608E-02  0.1130116E+00
         25   -1    0    0    0    0  0.00000000000E+00  0.00000000000E+00  0.99999998245E-14  0.12500000000E+03  0.12500000000E+03 0.  0.
        -11    1    3    3    0    0  0.89502821950E+01 -0.23000547950E+02  0.23849991589E+02  0.34321346949E+02  0.51100000000E-03 0.  1.
         23    2    1    0    0    0 -0.11030676519E+02  0.18757877668E+02 -0.18024970727E+02  0.96743436713E+02  0.92524911123E+02 0.  0.
         11    1    3    3    0    0 -0.19980958714E+02  0.41758425618E+02 -0.41874962316E+02  0.62422089764E+02  0.51100000000E-03 0. -1.
         22    1    1    0    0    0  0.11030676519E+02 -0.18757877668E+02  0.18024970727E+02  0.28256563287E+02  0.00000000000E+00 0. -1.
</event>
<event>
 5    1  0.1659417E-003  0.9118800E+02  0.7818608E-02  0.1130116E+00
         25   -1    0    0    0    0  0.00000000000E+00  0.00000000000E+00  0.99999998245E-14  0.12500000000E+03  0.12500000000E+03 0.  0.
        -11    1    3    3    0    0 -0.32174065010E+02 -0.47821812689E+01  0.23935175324E+02  0.40384803268E+02  0.51100000000E-03 0. -1.
         23    2    1    0    0    0 -0.75701622800E+01 -0.19948424312E+02 -0.21805691576E+02  0.94492047355E+02  0.89431604250E+02 0.  0.
         11    1    3    3    0    0  0.24603902730E+02 -0.15166243043E+02 -0.45740866900E+02  0.54107244087E+02  0.51100000000E-03 0.  1.
         22    1    1    0    0    0  0.75701622800E+01  0.19948424312E+02  0.21805691576E+02  0.30507952645E+02  0.00000000000E+00 0.  1.
</event>
<event>
 5    1  0.1659417E-003  0.9118800E+02  0.7818608E-02  0.1130116E+00
         25   -1    0    0    0    0  0.00000000000E+00  0.00000000000E+00  0.99999998245E-14  0.12500000000E+03  0.12500000000E+03 0.  0.
        -11    1    3    3    0    0 -0.89979658540E+00  0.59507562276E+02  0.12883376485E+02  0.60892864868E+02  0.51100000000E-03 0. -1.
         23    2    1    0    0    0 -0.10248664156E+02  0.28020261048E+02  0.41747275298E+01  0.94873624577E+02  0.89963360009E+02 0.  0.
         11    1    3    3    0    0 -0.93488675710E+01 -0.31487301228E+02 -0.87086489556E+01  0.33980759708E+02  0.51100000000E-03 0.  1.
         22    1    1    0    0    0  0.10248664156E+02 -0.28020261048E+02 -0.41747275298E+01  0.30126375423E+02  0.00000000000E+00 0. -1.
</event>
<event>
 5    1  0.1659417E-003  0.9118800E+02  0.7818608E-02  0.1130116E+00
         25   -1    0    0    0    0  0.00000000000E+00  0.00000000000E+00  0.99999998245E-14  0.12500000000E+03  0.12500000000E+03 0.  0.
        -11    1    3    3    0    0 -0.77198268099E+01  0.36295712849E+02 -0.23106155387E+02  0.43713486640E+02  0.51100000000E-03 0.  1.
         23    2    1    0    0    0  0.23114443887E+01  0.19345727534E+02  0.23596492037E+02  0.94399438152E+02  0.89302069058E+02 0.  0.
         11    1    3    3    0    0  0.10031271199E+02 -0.16949985315E+02  0.46702647424E+02  0.50685951512E+02  0.51100000000E-03 0. -1.
         22    1    1    0    0    0 -0.23114443887E+01 -0.19345727534E+02 -0.23596492037E+02  0.30600561848E+02  0.00000000000E+00 0. -1.
</event>
<event>
 5    1  0.1659417E-003  0.9118800E+02  0.7818608E-02  0.1130116E+00
         25   -1    0    0    0    0  0.00000000000E+00  0.00000000000E+00  0.99999998245E-14  0.12500000000E+03  0.12500000000E+03 0.  0.
        -11    1    3    3    0    0 -0.29423660846E+02  0.25167421795E+02 -0.11205381723E+02  0.40307710394E+02  0.51100000000E-03 0.  1.
         23    2    1    0    0    0 -0.13271235913E+02 -0.25355925479E+02  0.53736562609E+01  0.95880850954E+02  0.91352135927E+02 0.  0.
         11    1    3    3    0    0  0.16152424933E+02 -0.50523347274E+02  0.16579037984E+02  0.55573140560E+02  0.51100000000E-03 0. -1.
         22    1    1    0    0    0  0.13271235913E+02  0.25355925479E+02 -0.53736562609E+01  0.29119149046E+02  0.00000000000E+00 0.  1.
</event>
<event>
 5    1  0.1659417E-003  0.9118800E+02  0.7818608E-02  0.1130116E+00
         25   -1    0    0    0    0  0.00000000000E+00  0.00000000000E+00  0.99999998245E-14  0.12500000000E+03  0.12500000000E+03 0.  0.
        -11    1    3    3    0    0 -0.37993552949E+02  0.41885433318E+02 -0.67455499392E+01  0.56950873866E+02  0.51100000000E-03 0.  1.
         23    2    1    0    0    0 -0.48307462368E+01  0.26529400196E+02  0.87563013448E+01  0.96648315796E+02  0.92396314586E+02 0.  0.
         11    1    3    3    0    0  0.33162806712E+02 -0.15356033122E+02  0.15501851284E+02  0.39697441930E+02  0.51100000000E-03 0. -1.
         22    1    1    0    0    0  0.48307462368E+01 -0.26529400196E+02 -0.87563013448E+01  0.28351684204E+02  0.00000000000E+00 0.  1.
</event>
<event>
 5    1  0.1659417E-003  0.9118800E+02  0.7818608E-02  0.1130116E+00
         25   -1    0    0    0    0  0.00000000000E+00  0.00000000000E+00  0.99999998245E-14  0.12500000000E+03  0.12500000000E+03 0.  0.
        -11    1    3    3    0    0 -0.33380449706E+02 -0.14578409109E+02  0.67652144777E+01  0.37047976489E+02  0.51100000000E-03 0.  1.
         23    2    1    0    0    0  0.18057587740E+02 -0.20861991677E+02  0.20463210633E+02  0.90648258252E+02  0.83887213346E+02 0.  0.
         11    1    3    3    0    0  0.51438037446E+02 -0.62835825679E+01  0.13697996155E+02  0.53600281763E+02  0.51100000000E-03 0. -1.
         22    1    1    0    0    0 -0.18057587740E+02  0.20861991677E+02 -0.20463210633E+02  0.34351741748E+02  0.00000000000E+00 0. -1.
</event>
<event>
 5    1  0.1659417E-003  0.9118800E+02  0.7818608E-02  0.1130116E+00
         25   -1    0    0    0    0  0.00000000000E+00  0.00000000000E+00  0.99999998245E-14  0.12500000000E+03  0.12500000000E+03 0.  0.
        -11    1    3    3    0    0 -0.14586980821E+02 -0.33164334763E+02 -0.76540054880E+01  0.37030216175E+02  0.51100000000E-03 0. -1.
         23    2    1    0    0    0  0.27769579511E+02  0.74395591100E+01 -0.53993709533E+01  0.95748507856E+02  0.91170866860E+02 0.  0.
         11    1    3    3    0    0  0.42356560332E+02  0.40603893873E+02  0.22546345347E+01  0.58718291681E+02  0.51100000000E-03 0.  1.
         22    1    1    0    0    0 -0.27769579511E+02 -0.74395591100E+01  0.53993709533E+01  0.29251492144E+02  0.00000000000E+00 0.  1.
</event>
<event>
 5    1  0.1659417E-003  0.9118800E+02  0.7818608E-02  0.1130116E+00
         25   -1    0    0    0    0  0.00000000000E+00  0.00000000000E+00  0.99999998245E-14  0.12500000000E+03  0.12500000000E+03 0.  0.
        -11    1    3    3    0    0 -0.39705677360E+02  0.19771744679E+02 -0.82457315217E+01  0.45116014794E+02  0.51100000000E-03 0.  1.
         23    2    1    0    0    0  0.63975264924E+01  0.59053411596E+01 -0.26884062307E+02  0.96741298587E+02  0.92522022496E+02 0.  0.
         11    1    3    3    0    0  0.46103203852E+02 -0.13866403519E+02 -0.18638330785E+02  0.51625283793E+02  0.51100000000E-03 0. -1.
         22    1    1    0    0    0 -0.63975264924E+01 -0.59053411596E+01  0.26884062307E+02  0.28258701413E+02  0.00000000000E+00 0.  1.
</event>
<event>
 5    1  0.1659417E-003  0.9118800E+02  0.7818608E-02  0.1130116E+00
         25   -1    0    0    0    0  0.00000000000E+00  0.00000000000E+00  0.99999998245E-14  0.12500000000E+03  0.12500000000E+03 0.  0.
        -11    1    3    3    0    0  0.63969340422E+00 -0.35147086018E+02 -0.31503825876E+02  0.47204003096E+02  0.51100000000E-03 0. -1.
         23    2    1    0    0    0  0.18732432622E+02  0.90711845622E+01 -0.19530931346E+02  0.96457966075E+02  0.92138436707E+02 0.  0.
         11    1    3    3    0    0  0.18092739218E+02  0.44218270580E+02  0.11972894529E+02  0.49253962979E+02  0.51100000000E-03 0.  1.
         22    1    1    0    0    0 -0.18732432622E+02 -0.90711845622E+01  0.19530931346E+02  0.28542033925E+02  0.00000000000E+00 0. -1.
</event>
<event>
 5    1  0.1659417E-003  0.9118800E+02  0.7818608E-02  0.1130116E+00
         25   -1    0    0    0    0  0.00000000000E+00  0.00000000000E+00  0.99999998245E-14  0.12500000000E+03  0.12500000000E+03 0.  0.
        -11    1    3    3    0    0 -0.19776138377E+01 -0.43507436255E+01 -0.51558106301E+02  0.51779129504E+02  0.51100000000E-03 0.  1.
         23    2    1    0    0    0  0.26027909691E+01  0.23542085973E+02 -0.22097212996E+02  0.92607236070E+02  0.86757184242E+02 0.  0.
         11    1    3    3    0    0  0.45804048068E+01  0.27892829599E+02  0.29460893305E+02  0.40828106566E+02  0.51100000000E-03 0. -1.
         22    1    1    0    0    0 -0.26027909691E+01 -0.23542085973E+02  0.22097212996E+02  0.32392763930E+02  0.00000000000E+00 0. -1.
</event>
<event>
 5    1  0.1659417E-003  0.9118800E+02  0.7818608E-02  0.1130116E+00
         25   -1    0    0    0    0  0.00000000000E+00  0.00000000000E+00  0.99999998245E-14  0.12500000000E+03  0.12500000000E+03 0.  0.
        -11    1    3    3    0    0  0.31909949277E+02 -0.24650057055E+01  0.40936760760E+02  0.51962866528E+02  0.51100000000E-03 0.  1.
         23    2    1    0    0    0  0.42244345928E+01 -0.24641815852E+02  0.16191739752E+02  0.95213469952E+02  0.90434326934E+02 0.  0.
         11    1    3    3    0    0 -0.27685514684E+02 -0.22176810147E+02 -0.24745021008E+02  0.43250603424E+02  0.51100000000E-03 0. -1.
         22    1    1    0    0    0 -0.42244345928E+01  0.24641815852E+02 -0.16191739752E+02  0.29786530048E+02  0.00000000000E+00 0.  1.
</event>
<event>
 5    1  0.1659417E-003  0.9118800E+02  0.7818608E-02  0.1130116E+00
         25   -1    0    0    0    0  0.00000000000E+00  0.00000000000E+00  0.99999998245E-14  0.12500000000E+03  0.12500000000E+03 0.  0.
        -11    1    3    3    0    0  0.34935651069E+02 -0.17521074463E+02 -0.32122790149E+02  0.50590131579E+02  0.51100000000E-03 0. -1.
         23    2    1    0    0    0 -0.39531243193E+01 -0.82642680329E+00 -0.31832938213E+02  0.92911900518E+02  0.87195040739E+02 0.  0.
         11    1    3    3    0    0 -0.38888775388E+02  0.16694647659E+02  0.28985193690E+00  0.42321768938E+02  0.51100000000E-03 0.  1.
         22    1    1    0    0    0  0.39531243193E+01  0.82642680329E+00  0.31832938213E+02  0.32088099482E+02  0.00000000000E+00 0.  1.
</event>
<event>
 5    1  0.1659417E-003  0.9118800E+02  0.7818608E-02  0.1130116E+00
         25   -1    0    0    0    0  0.00000000000E+00  0.00000000000E+00  0.99999998245E-14  0.12500000000E+03  0.12500000000E+03 0.  0.
        -11    1    3    3    0    0  0.49612628918E+02 -0.67949608620E+01 -0.17127747070E+02  0.52923946954E+02  0.51100000000E-03 0. -1.
         23    2    1    0    0    0  0.19571885465E+02 -0.17232604457E+02  0.12222844484E+02  0.96200359650E+02  0.91788288537E+02 0.  0.
         11    1    3    3    0    0 -0.30040743453E+02 -0.10437643595E+02  0.29350591554E+02  0.43276412696E+02  0.51100000000E-03 0.  1.
         22    1    1    0    0    0 -0.19571885465E+02  0.17232604457E+02 -0.12222844484E+02  0.28799640350E+02  0.00000000000E+00 0. -1.
</event>
<event>
 5    1  0.1659417E-003  0.9118800E+02  0.7818608E-02  0.1130116E+00
         25   -1    0    0    0    0  0.00000000000E+00  0.00000000000E+00  0.99999998245E-14  0.12500000000E+03  0.12500000000E+03 0.  0.
        -11    1    3    3    0    0  0.31988598573E+02  0.75320740481E+01 -0.20183311998E+02  0.38566418833E+02  0.51100000000E-03 0.  1.
         23    2    1    0    0    0 -0.76519837443E+01  0.26792692797E+02  0.13501496592E+02  0.94037253792E+02  0.88793656575E+02 0.  0.
         11    1    3    3    0    0 -0.39640582317E+02  0.19260618749E+02  0.33684808590E+02  0.55470834959E+02  0.51100000000E-03 0. -1.
         22    1    1    0    0    0  0.76519837443E+01 -0.26792692797E+02 -0.13501496592E+02  0.30962746208E+02  0.00000000000E+00 0. -1.
</event>
<event>
 5    1  0.1659417E-003  0.9118800E+02  0.7818608E-02  0.1130116E+00
         25   -1    0    0    0    0  0.00000000000E+00  0.00000000000E+00  0.99999998245E-14  0.12500000000E+03  0.12500000000E+03 0.  0.
        -11    1    3    3    0    0 -0.29714092897E+02  0.16145457033E+02 -0.51589307161E+02  0.61685166070E+02  0.51100000000E-03 0. -1.
         23    2    1    0    0    0 -0.75521433883E+01  0.61586566818E+01 -0.27146183546E+02  0.96157683813E+02  0.91730152912E+02 0.  0.
         11    1    3    3    0    0  0.22161949509E+02 -0.99868003510E+01  0.24443123614E+02  0.34472517743E+02  0.51100000000E-03 0.  1.
         22    1    1    0    0    0  0.75521433883E+01 -0.61586566818E+01  0.27146183546E+02  0.28842316187E+02  0.00000000000E+00 0. -1.
</event>
<event>
 5    1  0.1659417E-003  0.9118800E+02  0.7818608E-02  0.1130116E+00
         25   -1    0    0    0    0  0.00000000000E+00  0.00000000000E+00  0.99999998245E-14  0.12500000000E+03  0.12500000000E+03 0.  0.
        -11    1    3    3    0    0 -0.47966526955E+02  0.88601296041E+01 -0.15928500346E+02  0.51312832004E+02  0.51100000000E-03 0. -1.
         23    2    1    0    0    0 -0.19213351224E+02  0.18374600820E+02  0.14895526008E+02  0.94526150299E+02  0.89479257790E+02 0.  0.
         11    1    3    3    0    0  0.28753175731E+02  0.95144712163E+01  0.30824026354E+02  0.43213318295E+02  0.51100000000E-03 0.  1.
         22    1    1    0    0    0  0.19213351224E+02 -0.18374600820E+02 -0.14895526008E+02  0.30473849701E+02  0.00000000000E+00 0. -1.
</event>
<event>
 5    1  0.1659417E-003  0.9118800E+02  0.7818608E-02  0.1130116E+00
         25   -1    0    0    0    0  0.00000000000E+00  0.00000000000E+00  0.99999998245E-14  0.12500000000E+03  0.12500000000E+03 0.  0.
        -11    1    3    3    0    0 -0.30795242597E+00  0.20531909380E+02  0.33704401223E+02  0.39466958326E+02  0.51100000000E-03 0.  1.
         23    2    1    0    0    0  0.26203542815E+02  0.16999693292E+01 -0.12460001321E+02  0.95935121113E+02  0.91426365334E+02 0.  0.
         11    1    3    3    0    0  0.26511495241E+02 -0.18831940051E+02 -0.46164402544E+02  0.56468162787E+02  0.51100000000E-03 0. -1.
         22    1    1    0    0    0 -0.26203542815E+02 -0.16999693292E+01  0.12460001321E+02  0.29064878887E+02  0.00000000000E+00 0. -1.
</event>
<event>
 5    1  0.1659417E-003  0.9118800E+02  0.7818608E-02  0.1130116E+00
         25   -1    0    0    0    0  0.00000000000E+00  0.00000000000E+00  0.99999998245E-14  0.12500000000E+03  0.12500000000E+03 0.  0.
        -11    1    3    3    0    0  0.36439083193E+02 -0.48822531519E+02  0.84537937908E+01  0.61505389988E+02  0.51100000000E-03 0. -1.
         23    2    1    0    0    0  0.17771643876E+02 -0.27620305912E+02  0.12120000312E+02  0.89991329184E+02  0.82902546982E+02 0.  0.
         11    1    3    3    0    0 -0.18667439318E+02  0.21202225607E+02  0.36662065211E+01  0.28485939196E+02  0.51100000000E-03 0.  1.
         22    1    1    0    0    0 -0.17771643876E+02  0.27620305912E+02 -0.12120000312E+02  0.35008670816E+02  0.00000000000E+00 0. -1.
</event>
<event>
 5    1  0.1659417E-003  0.9118800E+02  0.7818608E-02  0.1130116E+00
         25   -1    0    0    0    0  0.00000000000E+00  0.00000000000E+00  0.99999998245E-14  0.12500000000E+03  0.12500000000E+03 0.  0.
        -11    1    3    3    0    0  0.47266099033E+02  0.30979186357E+02 -0.25558211746E+02  0.62024320174E+02  0.51100000000E-03 0. -1.
         23    2    1    0    0    0  0.23833936209E+02  0.16202627686E+02 -0.70817525459E+01  0.95322855961E+02  0.90585396121E+02 0.  0.
         11    1    3    3    0    0 -0.23432162824E+02 -0.14776558670E+02  0.18476459200E+02  0.33298535787E+02  0.51100000000E-03 0.  1.
         22    1    1    0    0    0 -0.23833936209E+02 -0.16202627686E+02  0.70817525459E+01  0.29677144039E+02  0.00000000000E+00 0. -1.
</event>
<event>
 5    1  0.1659417E-003  0.9118800E+02  0.7818608E-02  0.1130116E+00
         25   -1    0    0    0    0  0.00000000000E+00  0.00000000000E+00  0.99999998245E-14  0.12500000000E+03  0.12500000000E+03 0.  0.
        -11    1    3    3    0    0 -0.14846913905E+02  0.12287313677E+02  0.57529750530E+02  0.60671913817E+02  0.51100000000E-03 0.  1.
         23    2    1    0    0    0 -0.84858097706E+01 -0.47528676057E+01  0.28053170443E+02  0.95308602427E+02  0.90565725342E+02 0.  0.
         11    1    3    3    0    0  0.63611041344E+01 -0.17040181282E+02 -0.29476580087E+02  0.34636688610E+02  0.51100000000E-03 0. -1.
         22    1    1    0    0    0  0.84858097706E+01  0.47528676057E+01 -0.28053170443E+02  0.29691397573E+02  0.00000000000E+00 0.  1.
</event>
<event>
 5    1  0.1659417E-003  0.9118800E+02  0.7818608E-02  0.1130116E+00
         25   -1    0    0    0    0  0.00000000000E+00  0.00000000000E+00  0.99999998245E-14  0.12500000000E+03  0.12500000000E+03 0.  0.
        -11    1    3    3    0    0 -0.28122903405E+02  0.73002947812E+00 -0.51648614309E+02  0.58813348819E+02  0.51100000000E-03 0.  1.
         23    2    1    0    0    0 -0.16240058519E+02  0.11579208568E+02 -0.11710594881E+02  0.10187089271E+03  0.99210499326E+02 0.  0.
         11    1    3    3    0    0  0.11882844886E+02  0.10849179090E+02  0.39938019428E+02  0.43057543887E+02  0.51100000000E-03 0. -1.
         22    1    1    0    0    0  0.16240058519E+02 -0.11579208568E+02  0.11710594881E+02  0.23129107294E+02  0.00000000000E+00 0.  1.
</event>
<event>
 5    1  0.1659417E-003  0.9118800E+02  0.7818608E-02  0.1130116E+00
         25   -1    0    0    0    0  0.00000000000E+00  0.00000000000E+00  0.99999998245E-14  0.12500000000E+03  0.12500000000E+03 0.  0.
        -11    1    3    3    0    0  0.63916440785E+01  0.11205602036E+01  0.61458734967E+02  0.61800363051E+02  0.51100000000E-03 0. -1.
         23    2    1    0    0    0  0.29735560509E+00 -0.54830042341E+01  0.29246672912E+02  0.95242318098E+02  0.90474192588E+02 0.  0.
         11    1    3    3    0    0 -0.60942884734E+01 -0.66035644377E+01 -0.32212062055E+02  0.33441955047E+02  0.51100000000E-03 0.  1.
         22    1    1    0    0    0 -0.29735560509E+00  0.54830042341E+01 -0.29246672912E+02  0.29757681902E+02  0.00000000000E+00 0. -1.
</event>
<event>
 5    1  0.1659417E-003  0.9118800E+02  0.7818608E-02  0.1130116E+00
         25   -1    0    0    0    0  0.00000000000E+00  0.00000000000E+00  0.99999998245E-14  0.12500000000E+03  0.12500000000E+03 0.  0.
        -11    1    3    3    0    0 -0.20114541942E+02  0.11877100006E+02  0.31095646867E+02  0.38892152891E+02  0.51100000000E-03 0.  1.
         23    2    1    0    0    0  0.21651776685E+02 -0.18008524009E+02  0.53775947130E+01  0.96329023465E+02  0.91963339794E+02 0.  0.
         11    1    3    3    0    0  0.41766318628E+02 -0.29885624015E+02 -0.25718052154E+02  0.57436870574E+02  0.51100000000E-03 0. -1.
         22    1    1    0    0    0 -0.21651776685E+02  0.18008524009E+02 -0.53775947130E+01  0.28670976535E+02  0.00000000000E+00 0. -1.
</event>
<event>
 5    1  0.1659417E-003  0.9118800E+02  0.7818608E-02  0.1130116E+00
         25   -1    0    0    0    0  0.00000000000E+00  0.00000000000E+00  0.99999998245E-14  0.12500000000E+03  0.12500000000E+03 0.  0.
        -11    1    3    3    0    0 -0.15916405336E+02 -0.37089773665E+02 -0.44306843106E+02  0.59933960453E+02  0.51100000000E-03 0.  1.
         23    2    1    0    0    0 -0.13448735911E+02 -0.25800134698E+02 -0.13328788626E+02  0.92997311765E+02  0.87317397701E+02 0.  0.
         11    1    3    3    0    0  0.24676694256E+01  0.11289638967E+02  0.30978054479E+02  0.33063351312E+02  0.51100000000E-03 0. -1.
         22    1    1    0    0    0  0.13448735911E+02  0.25800134698E+02  0.13328788626E+02  0.32002688235E+02  0.00000000000E+00 0.  1.
</event>
<event>
 5    1  0.1659417E-003  0.9118800E+02  0.7818608E-02  0.1130116E+00
         25   -1    0    0    0    0  0.00000000000E+00  0.00000000000E+00  0.99999998245E-14  0.12500000000E+03  0.12500000000E+03 0.  0.
        -11    1    3    3    0    0 -0.89552259450E+01 -0.46613597228E+02 -0.22047071837E+02  0.52336382136E+02  0.51100000000E-03 0.  1.
         23    2    1    0    0    0  0.85300745375E+01 -0.89984241293E+01 -0.28128170712E+02  0.94260322122E+02  0.89107129516E+02 0.  0.
         11    1    3    3    0    0  0.17485300483E+02  0.37615173098E+02 -0.60810988749E+01  0.41923939986E+02  0.51100000000E-03 0. -1.
         22    1    1    0    0    0 -0.85300745375E+01  0.89984241293E+01  0.28128170712E+02  0.30739677878E+02  0.00000000000E+00 0.  1.
</event>
<event>
 5    1  0.1659417E-003  0.9118800E+02  0.7818608E-02  0.1130116E+00
         25   -1    0    0    0    0  0.00000000000E+00  0.00000000000E+00  0.99999998245E-14  0.12500000000E+03  0.12500000000E+03 0.  0.
        -11    1    3    3    0    0 -0.48937055080E+02 -0.15081374002E+02 -0.73676237813E+01  0.51735530172E+02  0.51100000000E-03 0. -1.
         23    2    1    0    0    0 -0.10116096873E+02 -0.26979701922E+02 -0.14146167627E+02  0.92900875553E+02  0.87179234272E+02 0.  0.
         11    1    3    3    0    0  0.38820958207E+02 -0.11898327920E+02 -0.67785438455E+01  0.41165345381E+02  0.51100000000E-03 0.  1.
         22    1    1    0    0    0  0.10116096873E+02  0.26979701922E+02  0.14146167627E+02  0.32099124447E+02  0.00000000000E+00 0. -1.
</event>
<event>
 5    1  0.1659417E-003  0.9118800E+02  0.7818608E-02  0.1130116E+00
         25   -1    0    0    0    0  0.00000000000E+00  0.00000000000E+00  0.99999998245E-14  0.12500000000E+03  0.12500000000E+03 0.  0.
        -11    1    3    3    0    0 -0.39573467714E+02  0.22833921424E+02 -0.32968749477E+02  0.56341687558E+02  0.51100000000E-03 0. -1.
         23    2    1    0    0    0 -0.19516633387E+02  0.21799724779E+02  0.91034717996E+00  0.95726194112E+02  0.91140268422E+02 0.  0.
         11    1    3    3    0    0  0.20056834328E+02 -0.10341966458E+01  0.33879096657E+02  0.39384506554E+02  0.51100000000E-03 0.  1.
         22    1    1    0    0    0  0.19516633387E+02 -0.21799724779E+02 -0.91034717996E+00  0.29273805888E+02  0.00000000000E+00 0. -1.
</event>
<event>
 5    1  0.1659417E-003  0.9118800E+02  0.7818608E-02  0.1130116E+00
         25   -1    0    0    0    0  0.00000000000E+00  0.00000000000E+00  0.99999998245E-14  0.12500000000E+03  0.12500000000E+03 0.  0.
        -11    1    3    3    0    0  0.87489376731E+01 -0.41612800157E+02  0.19755716280E+02  0.46887710259E+02  0.51100000000E-03 0. -1.
         23    2    1    0    0    0 -0.26353633585E+02 -0.13911145008E+02  0.15762998937E+01  0.95158440390E+02  0.90358232041E+02 0.  0.
         11    1    3    3    0    0 -0.35102571258E+02  0.27701655149E+02 -0.18179416387E+02  0.48270730131E+02  0.51100000000E-03 0.  1.
         22    1    1    0    0    0  0.26353633585E+02  0.13911145008E+02 -0.15762998937E+01  0.29841559610E+02  0.00000000000E+00 0.  1.
</event>
<event>
 5    1  0.1659417E-003  0.9118800E+02  0.7818608E-02  0.1130116E+00
         25   -1    0    0    0    0  0.00000000000E+00  0.00000000000E+00  0.99999998245E-14  0.12500000000E+03  0.12500000000E+03 0.  0.
        -11    1    3    3    0    0  0.35701602894E+01 -0.17288761311E+02  0.13769290445E+02  0.22388404851E+02  0.51100000000E-03 0. -1.
         23    2    1    0    0    0 -0.24537405588E+02  0.26690906282E+02 -0.19050522036E+02  0.84043789958E+02  0.73389014775E+02 0.  0.
         11    1    3    3    0    0 -0.28107565877E+02  0.43979667594E+02 -0.32819812481E+02  0.61655385107E+02  0.51100000000E-03 0.  1.
         22    1    1    0    0    0  0.24537405588E+02 -0.26690906282E+02  0.19050522036E+02  0.40956210042E+02  0.00000000000E+00 0.  1.
</event>
<event>
 5    1  0.1659417E-003  0.9118800E+02  0.7818608E-02  0.1130116E+00
         25   -1    0    0    0    0  0.00000000000E+00  0.00000000000E+00  0.99999998245E-14  0.12500000000E+03  0.12500000000E+03 0.  0.
        -11    1    3    3    0    0  0.14919848547E+01 -0.23458597003E+02  0.45282607067E+02  0.51020057773E+02  0.51100000000E-03 0. -1.
         23    2    1    0    0    0 -0.24670742561E+02 -0.12256630929E+02  0.11617959203E+02  0.95102717242E+02  0.90281112701E+02 0.  0.
         11    1    3    3    0    0 -0.26162727416E+02  0.11201966074E+02 -0.33664647864E+02  0.44082659469E+02  0.51100000000E-03 0.  1.
         22    1    1    0    0    0  0.24670742561E+02  0.12256630929E+02 -0.11617959203E+02  0.29897282758E+02  0.00000000000E+00 0. -1.
</event>
<event>
 5    1  0.1659417E-003  0.9118800E+02  0.7818608E-02  0.1130116E+00
         25   -1    0    0    0    0  0.00000000000E+00  0.00000000000E+00  0.99999998245E-14  0.12500000000E+03  0.12500000000E+03 0.  0.
        -11    1    3    3    0    0 -0.36280008044E+02 -0.19439551753E+02  0.27678740432E+02  0.49600885357E+02  0.51100000000E-03 0. -1.
         23    2    1    0    0    0 -0.39313316167E+02 -0.12820584547E+01 -0.31841360055E+01  0.85537115868E+02  0.75889913473E+02 0.  0.
         11    1    3    3    0    0 -0.30333081228E+01  0.18157493298E+02 -0.30862876438E+02  0.35936230511E+02  0.51100000000E-03 0.  1.
         22    1    1    0    0    0  0.39313316167E+02  0.12820584547E+01  0.31841360055E+01  0.39462884132E+02  0.00000000000E+00 0. -1.
</event>
<event>
 5    1  0.1659417E-003  0.9118800E+02  0.7818608E-02  0.1130116E+00
         25   -1    0    0    0    0  0.00000000000E+00  0.00000000000E+00  0.99999998245E-14  0.12500000000E+03  0.12500000000E+03 0.  0.
        -11    1    3    3    0    0 -0.52506765742E+02  0.16056980588E+02  0.56994616185E+01  0.55202091784E+02  0.51100000000E-03 0. -1.
         23    2    1    0    0    0 -0.91329229163E+01  0.73737712345E+01 -0.16544436872E+02  0.10471450827E+03  0.10273084769E+03 0.  0.
         11    1    3    3    0    0  0.43373842826E+02 -0.86832093532E+01 -0.22243898491E+02  0.49512416488E+02  0.51100000000E-03 0.  1.
         22    1    1    0    0    0  0.91329229163E+01 -0.73737712345E+01  0.16544436872E+02  0.20285491728E+02  0.00000000000E+00 0. -1.
</event>
<event>
 5    1  0.1659417E-003  0.9118800E+02  0.7818608E-02  0.1130116E+00
         25   -1    0    0    0    0  0.00000000000E+00  0.00000000000E+00  0.99999998245E-14  0.12500000000E+03  0.12500000000E+03 0.  0.
        -11    1    3    3    0    0  0.41052752192E+02  0.15087329278E+02 -0.19962554777E+02  0.48077640965E+02  0.51100000000E-03 0.  1.
         23    2    1    0    0    0  0.82866082303E+01 -0.18319252328E+02 -0.22356413796E+02  0.94932207936E+02  0.90044722132E+02 0.  0.
         11    1    3    3    0    0 -0.32766143962E+02 -0.33406581606E+02 -0.23938590191E+01  0.46854566971E+02  0.51100000000E-03 0. -1.
         22    1    1    0    0    0 -0.82866082303E+01  0.18319252328E+02  0.22356413796E+02  0.30067792064E+02  0.00000000000E+00 0. -1.
</event>
<event>
 5    1  0.1659417E-003  0.9118800E+02  0.7818608E-02  0.1130116E+00
         25   -1    0    0    0    0  0.00000000000E+00  0.00000000000E+00  0.99999998245E-14  0.12500000000E+03  0.12500000000E+03 0.  0.
        -11    1    3    3    0    0  0.11832867087E+02 -0.29112737029E+02 -0.22770081417E+02  0.38807793145E+02  0.51100000000E-03 0.  1.
         23    2    1    0    0    0 -0.15338563192E+02  0.20513412735E+02 -0.13185065941E+02  0.96191709757E+02  0.91776508101E+02 0.  0.
         11    1    3    3    0    0 -0.27171430279E+02  0.49626149764E+02  0.95850154752E+01  0.57383916612E+02  0.51100000000E-03 0. -1.
         22    1    1    0    0    0  0.15338563192E+02 -0.20513412735E+02  0.13185065941E+02  0.28808290243E+02  0.00000000000E+00 0. -1.
</event>
<event>
 5    1  0.1659417E-003  0.9118800E+02  0.7818608E-02  0.1130116E+00
         25   -1    0    0    0    0  0.00000000000E+00  0.00000000000E+00  0.99999998245E-14  0.12500000000E+03  0.12500000000E+03 0.  0.
        -11    1    3    3    0    0  0.58216756498E+02  0.11169042292E+01 -0.10353736988E+02  0.59140832612E+02  0.51100000000E-03 0. -1.
         23    2    1    0    0    0  0.25136315572E+02 -0.13704326591E+02 -0.68778387093E+01  0.95556026200E+02  0.90906581444E+02 0.  0.
         11    1    3    3    0    0 -0.33080440926E+02 -0.14821230821E+02  0.34758982788E+01  0.36415193587E+02  0.51100000000E-03 0.  1.
         22    1    1    0    0    0 -0.25136315572E+02  0.13704326591E+02  0.68778387093E+01  0.29443973800E+02  0.00000000000E+00 0.  1.
</event>
<event>
 5    1  0.1659417E-003  0.9118800E+02  0.7818608E-02  0.1130116E+00
         25   -1    0    0    0    0  0.00000000000E+00  0.00000000000E+00  0.99999998245E-14  0.12500000000E+03  0.12500000000E+03 0.  0.
        -11    1    3    3    0    0 -0.14454364902E+01  0.27270203268E+02 -0.45226768128E+02  0.52831939473E+02  0.51100000000E-03 0. -1.
         23    2    1    0    0    0  0.34458000079E+01  0.28846716067E+02 -0.25284674365E+01  0.95838386308E+02  0.91294011725E+02 0.  0.
         11    1    3    3    0    0  0.48912364980E+01  0.15765127992E+01  0.42698300692E+02  0.43006446834E+02  0.51100000000E-03 0.  1.
         22    1    1    0    0    0 -0.34458000079E+01 -0.28846716067E+02  0.25284674365E+01  0.29161613692E+02  0.00000000000E+00 0. -1.
</event>
<event>
 5    1  0.1659417E-003  0.9118800E+02  0.7818608E-02  0.1130116E+00
         25   -1    0    0    0    0  0.00000000000E+00  0.00000000000E+00  0.99999998245E-14  0.12500000000E+03  0.12500000000E+03 0.  0.
        -11    1    3    3    0    0  0.33294230207E+01  0.33575616348E+02  0.40153036437E+02  0.52446862691E+02  0.51100000000E-03 0. -1.
         23    2    1    0    0    0  0.24012094241E+02  0.16975737961E+02  0.72398078079E+01  0.94715166068E+02  0.89742919036E+02 0.  0.
         11    1    3    3    0    0  0.20682671221E+02 -0.16599878386E+02 -0.32913228630E+02  0.42268303377E+02  0.51100000000E-03 0.  1.
         22    1    1    0    0    0 -0.24012094241E+02 -0.16975737961E+02 -0.72398078079E+01  0.30284833932E+02  0.00000000000E+00 0. -1.
</event>
<event>
 5    1  0.1659417E-003  0.9118800E+02  0.7818608E-02  0.1130116E+00
         25   -1    0    0    0    0  0.00000000000E+00  0.00000000000E+00  0.99999998245E-14  0.12500000000E+03  0.12500000000E+03 0.  0.
        -11    1    3    3    0    0  0.27602606115E+02 -0.43023641120E+02 -0.16325092972E+02  0.53660471675E+02  0.51100000000E-03 0.  1.
         23    2    1    0    0    0  0.30012366833E+02 -0.41155207623E+01 -0.46645046116E+01  0.94349758935E+02  0.89232503796E+02 0.  0.
         11    1    3    3    0    0  0.24097607179E+01  0.38908120358E+02  0.11660588361E+02  0.40689287260E+02  0.51100000000E-03 0. -1.
         22    1    1    0    0    0 -0.30012366833E+02  0.41155207623E+01  0.46645046116E+01  0.30650241065E+02  0.00000000000E+00 0.  1.
</event>
<event>
 5    1  0.1659417E-003  0.9118800E+02  0.7818608E-02  0.1130116E+00
         25   -1    0    0    0    0  0.00000000000E+00  0.00000000000E+00  0.99999998245E-14  0.12500000000E+03  0.12500000000E+03 0.  0.
        -11    1    3    3    0    0 -0.99224631441E+01  0.23852294076E+02 -0.21839379241E+02  0.33828178985E+02  0.51100000000E-03 0.  1.
         23    2    1    0    0    0 -0.61419571060E+01 -0.16880963234E+02  0.23841275752E+02  0.95148752350E+02  0.90344828781E+02 0.  0.
         11    1    3    3    0    0  0.37805060382E+01 -0.40733257310E+02  0.45680654993E+02  0.61320573365E+02  0.51100000000E-03 0. -1.
         22    1    1    0    0    0  0.61419571060E+01  0.16880963234E+02 -0.23841275752E+02  0.29851247650E+02  0.00000000000E+00 0. -1.
</event>
<event>
 5    1  0.1659417E-003  0.9118800E+02  0.7818608E-02  0.1130116E+00
         25   -1    0    0    0    0  0.00000000000E+00  0.00000000000E+00  0.99999998245E-14  0.12500000000E+03  0.12500000000E+03 0.  0.
        -11    1    3    3    0    0 -0.10948598529E+02 -0.35169119576E+02  0.43652485855E+01  0.37091699570E+02  0.51100000000E-03 0.  1.
         23    2    1    0    0    0  0.21732522361E+02  0.86058948639E+01  0.20346980284E+02  0.94010266841E+02  0.88755657342E+02 0.  0.
         11    1    3    3    0    0  0.32681120890E+02  0.43775014440E+02  0.15981731699E+02  0.56918567271E+02  0.51100000000E-03 0. -1.
         22    1    1    0    0    0 -0.21732522361E+02 -0.86058948639E+01 -0.20346980284E+02  0.30989733159E+02  0.00000000000E+00 0. -1.
</event>
<event>
 5    1  0.1659417E-003  0.9118800E+02  0.7818608E-02  0.1130116E+00
         25   -1    0    0    0    0  0.00000000000E+00  0.00000000000E+00  0.99999998245E-14  0.12500000000E+03  0.12500000000E+03 0.  0.
        -11    1    3    3    0    0  0.30412278237E+02  0.11173795496E+02 -0.85989088889E+01  0.33521658784E+02  0.51100000000E-03 0.  1.
         23    2    1    0    0    0 -0.26282784639E+02 -0.39169308898E+01  0.12189077147E+02  0.95764735034E+02  0.91193112451E+02 0.  0.
         11    1    3    3    0    0 -0.56695062875E+02 -0.15090726385E+02  0.20787986036E+02  0.62243076249E+02  0.51100000000E-03 0. -1.
         22    1    1    0    0    0  0.26282784639E+02  0.39169308898E+01 -0.12189077147E+02  0.29235264966E+02  0.00000000000E+00 0. -1.
</event>
<event>
 5    1  0.1659417E-003  0.9118800E+02  0.7818608E-02  0.1130116E+00
         25   -1    0    0    0    0  0.00000000000E+00  0.00000000000E+00  0.99999998245E-14  0.12500000000E+03  0.12500000000E+03 0.  0.
        -11    1    3    3    0    0 -0.35944686524E+02  0.20781862323E+02  0.35333421272E+01  0.41670022771E+02  0.51100000000E-03 0.  1.
         23    2    1    0    0    0  0.14164013673E+02  0.28452963132E+02 -0.41687538237E+01  0.92944284398E+02  0.87241452873E+02 0.  0.
         11    1    3    3    0    0  0.50108700197E+02  0.76711008094E+01 -0.77020959509E+01  0.51274261626E+02  0.51100000000E-03 0. -1.
         22    1    1    0    0    0 -0.14164013673E+02 -0.28452963132E+02  0.41687538237E+01  0.32055715602E+02  0.00000000000E+00 0. -1.
</event>
<event>
 5    1  0.1659417E-003  0.9118800E+02  0.7818608E-02  0.1130116E+00
         25   -1    0    0    0    0  0.00000000000E+00  0.00000000000E+00  0.99999998245E-14  0.12500000000E+03  0.12500000000E+03 0.  0.
        -11    1    3    3    0    0 -0.44299569552E+01  0.40222864628E+02  0.29333583208E+02  0.49979620463E+02  0.51100000000E-03 0.  1.
         23    2    1    0    0    0  0.50160611028E+01 -0.40745087290E+01  0.29014981496E+02  0.95274057768E+02  0.90518033794E+02 0.  0.
         11    1    3    3    0    0  0.94460180580E+01 -0.44297373357E+02 -0.31860171205E+00  0.45294437305E+02  0.51100000000E-03 0. -1.
         22    1    1    0    0    0 -0.50160611028E+01  0.40745087290E+01 -0.29014981496E+02  0.29725942232E+02  0.00000000000E+00 0.  1.
</event>
<event>
 5    1  0.1659417E-003  0.9118800E+02  0.7818608E-02  0.1130116E+00
         25   -1    0    0    0    0  0.00000000000E+00  0.00000000000E+00  0.99999998245E-14  0.12500000000E+03  0.12500000000E+03 0.  0.
        -11    1    3    3    0    0 -0.33284528616E+02 -0.22643161971E+02  0.47145783296E+02  0.61994334516E+02  0.51100000000E-03 0. -1.
         23    2    1    0    0    0 -0.12625107551E+02 -0.68458073553E+01  0.25071022511E+02  0.96106841834E+02  0.91660844741E+02 0.  0.
         11    1    3    3    0    0  0.20659421065E+02  0.15797354616E+02 -0.22074760785E+02  0.34112507319E+02  0.51100000000E-03 0.  1.
         22    1    1    0    0    0  0.12625107551E+02  0.68458073553E+01 -0.25071022511E+02  0.28893158166E+02  0.00000000000E+00 0. -1.
</event>
<event>
 5    1  0.1659417E-003  0.9118800E+02  0.7818608E-02  0.1130116E+00
         25   -1    0    0    0    0  0.00000000000E+00  0.00000000000E+00  0.99999998245E-14  0.12500000000E+03  0.12500000000E+03 0.  0.
        -11    1    3    3    0    0  0.19910043300E+02 -0.16663954061E+02 -0.26383074438E+02  0.37015723770E+02  0.51100000000E-03 0. -1.
         23    2    1    0    0    0  0.11755465580E+02  0.17524036158E+02  0.20479715569E+02  0.95594191661E+02  0.90959045264E+02 0.  0.
         11    1    3    3    0    0 -0.81545777194E+01  0.34187990218E+02  0.46862790007E+02  0.58578467891E+02  0.51100000000E-03 0.  1.
         22    1    1    0    0    0 -0.11755465580E+02 -0.17524036158E+02 -0.20479715569E+02  0.29405808339E+02  0.00000000000E+00 0.  1.
</event>
<event>
 5    1  0.1659417E-003  0.9118800E+02  0.7818608E-02  0.1130116E+00
         25   -1    0    0    0    0  0.00000000000E+00  0.00000000000E+00  0.99999998245E-14  0.12500000000E+03  0.12500000000E+03 0.  0.
        -11    1    3    3    0    0 -0.23988548494E+02 -0.21473386873E+02 -0.19720050056E+02  0.37754962285E+02  0.51100000000E-03 0. -1.
         23    2    1    0    0    0  0.21935517994E+02 -0.85719689716E+01  0.15285917232E+02  0.96923232605E+02  0.92767495123E+02 0.  0.
         11    1    3    3    0    0  0.45924066488E+02  0.12901417902E+02  0.35005967288E+02  0.59168270320E+02  0.51100000000E-03 0.  1.
         22    1    1    0    0    0 -0.21935517994E+02  0.85719689716E+01 -0.15285917232E+02  0.28076767395E+02  0.00000000000E+00 0.  1.
</event>
<event>
 5    1  0.1659417E-003  0.9118800E+02  0.7818608E-02  0.1130116E+00
         25   -1    0    0    0    0  0.00000000000E+00  0.00000000000E+00  0.99999998245E-14  0.12500000000E+03  0.12500000000E+03 0.  0.
        -11    1    3    3    0    0 -0.33518248860E+02  0.49908769158E+01 -0.12212664745E+02  0.36021258161E+02  0.51100000000E-03 0.  1.
         23    2    1    0    0    0  0.80755821714E+00 -0.11909764190E+01  0.32354377884E+02  0.92613639548E+02  0.86766409900E+02 0.  0.
         11    1    3    3    0    0  0.34325807078E+02 -0.61818533348E+01  0.44567042628E+02  0.56592381387E+02  0.51100000000E-03 0. -1.
         22    1    1    0    0    0 -0.80755821714E+00  0.11909764190E+01 -0.32354377884E+02  0.32386360452E+02  0.00000000000E+00 0. -1.
</event>
<event>
 5    1  0.1659417E-003  0.9118800E+02  0.7818608E-02  0.1130116E+00
         25   -1    0    0    0    0  0.00000000000E+00  0.00000000000E+00  0.99999998245E-14  0.12500000000E+03  0.12500000000E+03 0.  0.
        -11    1    3    3    0    0 -0.22160257057E+02  0.30399495747E+02 -0.40993675409E+02  0.55638905078E+02  0.51100000000E-03 0.  1.
         23    2    1    0    0    0 -0.27073257501E+02  0.12185749141E+02 -0.70304066592E+01  0.94489667788E+02  0.89428278230E+02 0.  0.
         11    1    3    3    0    0 -0.49130004448E+01 -0.18213746606E+02  0.33963268749E+02  0.38850762711E+02  0.51100000000E-03 0. -1.
         22    1    1    0    0    0  0.27073257501E+02 -0.12185749141E+02  0.70304066592E+01  0.30510332212E+02  0.00000000000E+00 0.  1.
</event>
<event>
 5    1  0.1659417E-003  0.9118800E+02  0.7818608E-02  0.1130116E+00
         25   -1    0    0    0    0  0.00000000000E+00  0.00000000000E+00  0.99999998245E-14  0.12500000000E+03  0.12500000000E+03 0.  0.
        -11    1    3    3    0    0  0.24784838455E+02 -0.27114101286E+02  0.22639803290E+02  0.43151169151E+02  0.51100000000E-03 0. -1.
         23    2    1    0    0    0 -0.15998142222E+02  0.52138457523E+01  0.24560616220E+02  0.95228392533E+02  0.90454950850E+02 0.  0.
         11    1    3    3    0    0 -0.40782980677E+02  0.32327947038E+02  0.19208129296E+01  0.52077223382E+02  0.51100000000E-03 0.  1.
         22    1    1    0    0    0  0.15998142222E+02 -0.52138457523E+01 -0.24560616220E+02  0.29771607467E+02  0.00000000000E+00 0.  1.
</event>
<event>
 5    1  0.1659417E-003  0.9118800E+02  0.7818608E-02  0.1130116E+00
         25   -1    0    0    0    0  0.00000000000E+00  0.00000000000E+00  0.99999998245E-14  0.12500000000E+03  0.12500000000E+03 0.  0.
        -11    1    3    3    0    0  0.34648029566E+02  0.35334860481E+02  0.27539246945E+02  0.56634339765E+02  0.51100000000E-03 0.  1.
         23    2    1    0    0    0  0.27377924482E+02  0.15843092257E+01  0.74338651116E+01  0.96586567699E+02  0.92312739774E+02 0.  0.
         11    1    3    3    0    0 -0.72701050846E+01 -0.33750551255E+02 -0.20105381834E+02  0.39952227934E+02  0.51100000000E-03 0. -1.
         22    1    1    0    0    0 -0.27377924482E+02 -0.15843092257E+01 -0.74338651116E+01  0.28413432301E+02  0.00000000000E+00 0.  1.
</event>
<event>
 5    1  0.1659417E-003  0.9118800E+02  0.7818608E-02  0.1130116E+00
         25   -1    0    0    0    0  0.00000000000E+00  0.00000000000E+00  0.99999998245E-14  0.12500000000E+03  0.12500000000E+03 0.  0.
        -11    1    3    3    0    0 -0.10519546660E+02  0.33872824063E+02  0.26877380715E+02  0.44501940029E+02  0.51100000000E-03 0. -1.
         23    2    1    0    0    0 -0.49957951762E+01  0.21285907716E+02 -0.21223891039E+02  0.94528679261E+02  0.89482790610E+02 0.  0.
         11    1    3    3    0    0  0.55237514839E+01 -0.12586916348E+02 -0.48101271754E+02  0.50026739232E+02  0.51100000000E-03 0.  1.
         22    1    1    0    0    0  0.49957951762E+01 -0.21285907716E+02  0.21223891039E+02  0.30471320739E+02  0.00000000000E+00 0. -1.
</event>
<event>
 5    1  0.1659417E-003  0.9118800E+02  0.7818608E-02  0.1130116E+00
         25   -1    0    0    0    0  0.00000000000E+00  0.00000000000E+00  0.99999998245E-14  0.12500000000E+03  0.12500000000E+03 0.  0.
        -11    1    3    3    0    0  0.27534364363E+02 -0.14264761359E+02  0.50904536139E+02  0.59606177845E+02  0.51100000000E-03 0.  1.
         23    2    1    0    0    0  0.73597515887E+01  0.52413783921E+01  0.27193660264E+02  0.96344579057E+02  0.91984481105E+02 0.  0.
         11    1    3    3    0    0 -0.20174612775E+02  0.19506139751E+02 -0.23710875875E+02  0.36738401212E+02  0.51100000000E-03 0. -1.
         22    1    1    0    0    0 -0.73597515887E+01 -0.52413783921E+01 -0.27193660264E+02  0.28655420943E+02  0.00000000000E+00 0.  1.
</event>
<event>
 5    1  0.1659417E-003  0.9118800E+02  0.7818608E-02  0.1130116E+00
         25   -1    0    0    0    0  0.00000000000E+00  0.00000000000E+00  0.99999998245E-14  0.12500000000E+03  0.12500000000E+03 0.  0.
        -11    1    3    3    0    0  0.10735762746E+02 -0.62200549463E+01  0.58194376186E+02  0.59502362182E+02  0.51100000000E-03 0.  1.
         23    2    1    0    0    0  0.18405089596E+02 -0.28484140798E+01  0.24487403549E+02  0.94234861964E+02  0.89071406697E+02 0.  0.
         11    1    3    3    0    0  0.76693268505E+01  0.33716408665E+01 -0.33706972637E+02  0.34732499782E+02  0.51100000000E-03 0. -1.
         22    1    1    0    0    0 -0.18405089596E+02  0.28484140798E+01 -0.24487403549E+02  0.30765138036E+02  0.00000000000E+00 0.  1.
</event>
<event>
 5    1  0.1659417E-003  0.9118800E+02  0.7818608E-02  0.1130116E+00
         25   -1    0    0    0    0  0.00000000000E+00  0.00000000000E+00  0.99999998245E-14  0.12500000000E+03  0.12500000000E+03 0.  0.
        -11    1    3    3    0    0  0.25990917569E+02 -0.63050163833E+01 -0.25666473137E+02  0.37068165199E+02  0.51100000000E-03 0.  1.
         23    2    1    0    0    0 -0.20942598401E+02 -0.21387843345E+02  0.42998470528E+01  0.94758952475E+02  0.89803886991E+02 0.  0.
         11    1    3    3    0    0 -0.46933515970E+02 -0.15082826962E+02  0.29966320190E+02  0.57690787276E+02  0.51100000000E-03 0. -1.
         22    1    1    0    0    0  0.20942598401E+02  0.21387843345E+02 -0.42998470528E+01  0.30241047525E+02  0.00000000000E+00 0. -1.
</event>
<event>
 5    1  0.1659417E-003  0.9118800E+02  0.7818608E-02  0.1130116E+00
         25   -1    0    0    0    0  0.00000000000E+00  0.00000000000E+00  0.99999998245E-14  0.12500000000E+03  0.12500000000E+03 0.  0.
        -11    1    3    3    0    0  0.27250869035E+02  0.16460322157E+02 -0.15503018640E+02  0.35410389095E+02  0.51100000000E-03 0. -1.
         23    2    1    0    0    0 -0.27401343173E+02 -0.61805877075E+01  0.12159677313E+01  0.96883957433E+02  0.92714558502E+02 0.  0.
         11    1    3    3    0    0 -0.54652212208E+02 -0.22640909865E+02  0.16718986371E+02  0.61473568338E+02  0.51100000000E-03 0.  1.
         22    1    1    0    0    0  0.27401343173E+02  0.61805877075E+01 -0.12159677313E+01  0.28116042567E+02  0.00000000000E+00 0.  1.
</event>
<event>
 5    1  0.1659417E-003  0.9118800E+02  0.7818608E-02  0.1130116E+00
         25   -1    0    0    0    0  0.00000000000E+00  0.00000000000E+00  0.99999998245E-14  0.12500000000E+03  0.12500000000E+03 0.  0.
        -11    1    3    3    0    0 -0.39647673044E+02 -0.43110579998E+01 -0.15951691629E+02  0.42953226479E+02  0.51100000000E-03 0. -1.
         23    2    1    0    0    0  0.14262446156E+01  0.18236378004E+02 -0.28203283582E+02  0.91384157586E+02  0.84976699139E+02 0.  0.
         11    1    3    3    0    0  0.41073917660E+02  0.22547436003E+02 -0.12251591952E+02  0.48430931107E+02  0.51100000000E-03 0.  1.
         22    1    1    0    0    0 -0.14262446156E+01 -0.18236378004E+02  0.28203283582E+02  0.33615842414E+02  0.00000000000E+00 0.  1.
</event>
<event>
 5    1  0.1659417E-003  0.9118800E+02  0.7818608E-02  0.1130116E+00
         25   -1    0    0    0    0  0.00000000000E+00  0.00000000000E+00  0.99999998245E-14  0.12500000000E+03  0.12500000000E+03 0.  0.
        -11    1    3    3    0    0 -0.87877609900E+01  0.32541998887E+02 -0.35785248135E+02  0.49160862676E+02  0.51100000000E-03 0. -1.
         23    2    1    0    0    0 -0.18606259002E+02  0.18311730183E+02  0.91735795945E+01  0.97329313364E+02  0.93313066293E+02 0.  0.
         11    1    3    3    0    0 -0.98184980117E+01 -0.14230268704E+02  0.44958827729E+02  0.48168450688E+02  0.51100000000E-03 0.  1.
         22    1    1    0    0    0  0.18606259002E+02 -0.18311730183E+02 -0.91735795945E+01  0.27670686636E+02  0.00000000000E+00 0. -1.
</event>
<event>
 5    1  0.1659417E-003  0.9118800E+02  0.7818608E-02  0.1130116E+00
         25   -1    0    0    0    0  0.00000000000E+00  0.00000000000E+00  0.99999998245E-14  0.12500000000E+03  0.12500000000E+03 0.  0.
        -11    1    3    3    0    0  0.16425239475E+02  0.14592356136E+02  0.29699716800E+02  0.36943179717E+02  0.51100000000E-03 0.  1.
         23    2    1    0    0    0  0.17931011513E+02  0.89845720624E+00 -0.25487559516E+02  0.93823982145E+02  0.88492912350E+02 0.  0.
         11    1    3    3    0    0  0.15057720381E+01 -0.13693898929E+02 -0.55187276316E+02  0.56880802427E+02  0.51100000000E-03 0. -1.
         22    1    1    0    0    0 -0.17931011513E+02 -0.89845720624E+00  0.25487559516E+02  0.31176017855E+02  0.00000000000E+00 0. -1.
</event>
<event>
 5    1  0.1659417E-003  0.9118800E+02  0.7818608E-02  0.1130116E+00
         25   -1    0    0    0    0  0.00000000000E+00  0.00000000000E+00  0.99999998245E-14  0.12500000000E+03  0.12500000000E+03 0.  0.
        -11    1    3    3    0    0 -0.34610050628E+02  0.27364196794E+02  0.40741899853E+02  0.60054619094E+02  0.51100000000E-03 0.  1.
         23    2    1    0    0    0 -0.19362106189E+02  0.36297684473E+01  0.27380843147E+02  0.91269050614E+02  0.84807208736E+02 0.  0.
         11    1    3    3    0    0  0.15247944439E+02 -0.23734428346E+02 -0.13361056706E+02  0.31214431520E+02  0.51100000000E-03 0. -1.
         22    1    1    0    0    0  0.19362106189E+02 -0.36297684473E+01 -0.27380843147E+02  0.33730949386E+02  0.00000000000E+00 0.  1.
</event>
<event>
 5    1  0.1659417E-003  0.9118800E+02  0.7818608E-02  0.1130116E+00
         25   -1    0    0    0    0  0.00000000000E+00  0.00000000000E+00  0.99999998245E-14  0.12500000000E+03  0.12500000000E+03 0.  0.
        -11    1    3    3    0    0  0.45329120748E+02 -0.40517573180E+02 -0.75214288409E+01  0.61261528028E+02  0.51100000000E-03 0. -1.
         23    2    1    0    0    0  0.24978336234E+02 -0.11925142707E+02 -0.73678059034E+01  0.96357184610E+02  0.92001609510E+02 0.  0.
         11    1    3    3    0    0 -0.20350784514E+02  0.28592430473E+02  0.15362293756E+00  0.35095656582E+02  0.51100000000E-03 0.  1.
         22    1    1    0    0    0 -0.24978336234E+02  0.11925142707E+02  0.73678059034E+01  0.28642815390E+02  0.00000000000E+00 0. -1.
</event>
<event>
 5    1  0.1659417E-003  0.9118800E+02  0.7818608E-02  0.1130116E+00
         25   -1    0    0    0    0  0.00000000000E+00  0.00000000000E+00  0.99999998245E-14  0.12500000000E+03  0.12500000000E+03 0.  0.
        -11    1    3    3    0    0  0.32791929318E+02 -0.40235717987E+01 -0.11889515667E+02  0.35112111037E+02  0.51100000000E-03 0.  1.
         23    2    1    0    0    0 -0.19720356809E+02 -0.12724682413E+02  0.17323198811E+02  0.95829754334E+02  0.91282192040E+02 0.  0.
         11    1    3    3    0    0 -0.52512286126E+02 -0.87011106141E+01  0.29212714478E+02  0.60717643297E+02  0.51100000000E-03 0. -1.
         22    1    1    0    0    0  0.19720356809E+02  0.12724682413E+02 -0.17323198811E+02  0.29170245666E+02  0.00000000000E+00 0. -1.
</event>
<event>
 5    1  0.1659417E-003  0.9118800E+02  0.7818608E-02  0.1130116E+00
         25   -1    0    0    0    0  0.00000000000E+00  0.00000000000E+00  0.99999998245E-14  0.12500000000E+03  0.12500000000E+03 0.  0.
        -11    1    3    3    0    0  0.43864382190E+02 -0.52838498646E+01  0.25252687696E+02  0.50889108171E+02  0.51100000000E-03 0.  1.
         23    2    1    0    0    0  0.86456760208E+01  0.19414515740E+02  0.22585323521E+02  0.93987615799E+02  0.88723750764E+02 0.  0.
         11    1    3    3    0    0 -0.35218706170E+02  0.24698365605E+02 -0.26673641744E+01  0.43098507627E+02  0.51100000000E-03 0. -1.
         22    1    1    0    0    0 -0.86456760208E+01 -0.19414515740E+02 -0.22585323521E+02  0.31012384201E+02  0.00000000000E+00 0.  1.
</event>
<event>
 5    1  0.1659417E-003  0.9118800E+02  0.7818608E-02  0.1130116E+00
         25   -1    0    0    0    0  0.00000000000E+00  0.00000000000E+00  0.99999998245E-14  0.12500000000E+03  0.12500000000E+03 0.  0.
        -11    1    3    3    0    0  0.50875677730E+02 -0.26693977899E+02  0.18305447810E+02  0.60299191208E+02  0.51100000000E-03 0. -1.
         23    2    1    0    0    0  0.16753095820E+02 -0.21347815508E+02  0.11625205455E+02  0.95478129321E+02  0.90799407103E+02 0.  0.
         11    1    3    3    0    0 -0.34122581910E+02  0.53461623905E+01 -0.66802423556E+01  0.35178938112E+02  0.51100000000E-03 0.  1.
         22    1    1    0    0    0 -0.16753095820E+02  0.21347815508E+02 -0.11625205455E+02  0.29521870679E+02  0.00000000000E+00 0. -1.
</event>
<event>
 5    1  0.1659417E-003  0.9118800E+02  0.7818608E-02  0.1130116E+00
         25   -1    0    0    0    0  0.00000000000E+00  0.00000000000E+00  0.99999998245E-14  0.12500000000E+03  0.12500000000E+03 0.  0.
        -11    1    3    3    0    0 -0.23278046970E+01  0.16734744346E+01 -0.48361361831E+02  0.48446264147E+02  0.51100000000E-03 0. -1.
         23    2    1    0    0    0 -0.95838050918E+01  0.26829713381E+02 -0.10172330338E+02  0.94748402610E+02  0.89789201202E+02 0.  0.
         11    1    3    3    0    0 -0.72560003948E+01  0.25156238947E+02  0.38189031493E+02  0.46302138463E+02  0.51100000000E-03 0.  1.
         22    1    1    0    0    0  0.95838050918E+01 -0.26829713381E+02  0.10172330338E+02  0.30251597390E+02  0.00000000000E+00 0. -1.
</event>
<event>
 5    1  0.1659417E-003  0.9118800E+02  0.7818608E-02  0.1130116E+00
         25   -1    0    0    0    0  0.00000000000E+00  0.00000000000E+00  0.99999998245E-14  0.12500000000E+03  0.12500000000E+03 0.  0.
        -11    1    3    3    0    0  0.24984704659E+02  0.31100716595E+02  0.20337841785E+02  0.44778542275E+02  0.51100000000E-03 0.  1.
         23    2    1    0    0    0  0.31582946162E+02  0.36241644712E+02 -0.96996817572E+01  0.75958964877E+02  0.58006389470E+02 0.  0.
         11    1    3    3    0    0  0.65982415033E+01  0.51409281174E+01 -0.30037523542E+02  0.31180422602E+02  0.51100000000E-03 0. -1.
         22    1    1    0    0    0 -0.31582946162E+02 -0.36241644712E+02  0.96996817572E+01  0.49041035123E+02  0.00000000000E+00 0. -1.
</event>
<event>
 5    1  0.1659417E-003  0.9118800E+02  0.7818608E-02  0.1130116E+00
         25   -1    0    0    0    0  0.00000000000E+00  0.00000000000E+00  0.99999998245E-14  0.12500000000E+03  0.12500000000E+03 0.  0.
        -11    1    3    3    0    0 -0.28243601482E+02  0.32775445165E+02  0.14104208063E+01  0.43288798985E+02  0.51100000000E-03 0. -1.
         23    2    1    0    0    0 -0.90077277155E+01 -0.16385180181E+02 -0.17525966533E+02  0.99372421280E+02  0.96010964582E+02 0.  0.
         11    1    3    3    0    0  0.19235873767E+02 -0.49160625346E+02 -0.18936387339E+02  0.56083622295E+02  0.51100000000E-03 0.  1.
         22    1    1    0    0    0  0.90077277155E+01  0.16385180181E+02  0.17525966533E+02  0.25627578720E+02  0.00000000000E+00 0.  1.
</event>
<event>
 5    1  0.1659417E-003  0.9118800E+02  0.7818608E-02  0.1130116E+00
         25   -1    0    0    0    0  0.00000000000E+00  0.00000000000E+00  0.99999998245E-14  0.12500000000E+03  0.12500000000E+03 0.  0.
        -11    1    3    3    0    0 -0.12257156029E+02  0.16535215379E+02  0.57550926496E+02  0.61120866833E+02  0.51100000000E-03 0.  1.
         23    2    1    0    0    0 -0.14276076386E+01  0.17869690359E+01  0.33898151227E+02  0.91024774048E+02  0.84446394310E+02 0.  0.
         11    1    3    3    0    0  0.10829548391E+02 -0.14748246343E+02 -0.23652775269E+02  0.29903907215E+02  0.51100000000E-03 0. -1.
         22    1    1    0    0    0  0.14276076386E+01 -0.17869690359E+01 -0.33898151227E+02  0.33975225952E+02  0.00000000000E+00 0.  1.
</event>
<event>
 5    1  0.1659417E-003  0.9118800E+02  0.7818608E-02  0.1130116E+00
         25   -1    0    0    0    0  0.00000000000E+00  0.00000000000E+00  0.99999998245E-14  0.12500000000E+03  0.12500000000E+03 0.  0.
        -11    1    3    3    0    0 -0.69659858210E+01  0.17057583399E+02 -0.44132650606E+02  0.47824438937E+02  0.51100000000E-03 0. -1.
         23    2    1    0    0    0  0.23243458597E+02  0.15781525052E+02 -0.63851665580E+01  0.96188799877E+02  0.91772544747E+02 0.  0.
         11    1    3    3    0    0  0.30209444418E+02 -0.12760583465E+01  0.37747484048E+02  0.48364360940E+02  0.51100000000E-03 0.  1.
         22    1    1    0    0    0 -0.23243458597E+02 -0.15781525052E+02  0.63851665580E+01  0.28811200123E+02  0.00000000000E+00 0.  1.
</event>
<event>
 5    1  0.1659417E-003  0.9118800E+02  0.7818608E-02  0.1130116E+00
         25   -1    0    0    0    0  0.00000000000E+00  0.00000000000E+00  0.99999998245E-14  0.12500000000E+03  0.12500000000E+03 0.  0.
        -11    1    3    3    0    0  0.11940546680E+02 -0.16641348518E+02  0.36387599778E+02  0.41756060079E+02  0.51100000000E-03 0. -1.
         23    2    1    0    0    0 -0.61291085589E+01 -0.42704139292E+02  0.21767572852E+02  0.76677782416E+02  0.59535246737E+02 0.  0.
         11    1    3    3    0    0 -0.18069655239E+02 -0.26062790774E+02 -0.14620026926E+02  0.34921722337E+02  0.51100000000E-03 0.  1.
         22    1    1    0    0    0  0.61291085589E+01  0.42704139292E+02 -0.21767572852E+02  0.48322217584E+02  0.00000000000E+00 0. -1.
</event>
<event>
 5    1  0.1659417E-003  0.9118800E+02  0.7818608E-02  0.1130116E+00
         25   -1    0    0    0    0  0.00000000000E+00  0.00000000000E+00  0.99999998245E-14  0.12500000000E+03  0.12500000000E+03 0.  0.
        -11    1    3    3    0    0  0.23634372745E+01  0.35274766423E+02 -0.47455281119E+01  0.35670926807E+02  0.51100000000E-03 0. -1.
         23    2    1    0    0    0 -0.11573646025E+02 -0.24641064247E+02  0.27336707972E+01  0.97639366133E+02  0.93727485474E+02 0.  0.
         11    1    3    3    0    0 -0.13937083300E+02 -0.59915830671E+02  0.74791989091E+01  0.61968439326E+02  0.51100000000E-03 0.  1.
         22    1    1    0    0    0  0.11573646025E+02  0.24641064247E+02 -0.27336707972E+01  0.27360633867E+02  0.00000000000E+00 0.  1.
</event>
<event>
 5    1  0.1659417E-003  0.9118800E+02  0.7818608E-02  0.1130116E+00
         25   -1    0    0    0    0  0.00000000000E+00  0.00000000000E+00  0.99999998245E-14  0.12500000000E+03  0.12500000000E+03 0.  0.
        -11    1    3    3    0    0  0.25865542438E+02 -0.13893009631E+01 -0.20618543179E+02  0.33107110503E+02  0.51100000000E-03 0.  1.
         23    2    1    0    0    0 -0.19379481332E+02 -0.58809434362E+01  0.21768353727E+02  0.95267677245E+02  0.90509222244E+02 0.  0.
         11    1    3    3    0    0 -0.45245023770E+02 -0.44916424731E+01  0.42386896906E+02  0.62160566742E+02  0.51100000000E-03 0. -1.
         22    1    1    0    0    0  0.19379481332E+02  0.58809434362E+01 -0.21768353727E+02  0.29732322755E+02  0.00000000000E+00 0. -1.
</event>
<event>
 5    1  0.1659417E-003  0.9118800E+02  0.7818608E-02  0.1130116E+00
         25   -1    0    0    0    0  0.00000000000E+00  0.00000000000E+00  0.99999998245E-14  0.12500000000E+03  0.12500000000E+03 0.  0.
        -11    1    3    3    0    0  0.14241034947E+02 -0.38648146134E+02  0.19104683527E+02  0.45403471331E+02  0.51100000000E-03 0.  1.
         23    2    1    0    0    0  0.12637308298E+02  0.15222220215E+02  0.16291875904E+02  0.99371056016E+02  0.96009187081E+02 0.  0.
         11    1    3    3    0    0 -0.16037266494E+01  0.53870366349E+02 -0.28128076231E+01  0.53967584685E+02  0.51100000000E-03 0. -1.
         22    1    1    0    0    0 -0.12637308298E+02 -0.15222220215E+02 -0.16291875904E+02  0.25628943984E+02  0.00000000000E+00 0. -1.
</event>
<event>
 5    1  0.1659417E-003  0.9118800E+02  0.7818608E-02  0.1130116E+00
         25   -1    0    0    0    0  0.00000000000E+00  0.00000000000E+00  0.99999998245E-14  0.12500000000E+03  0.12500000000E+03 0.  0.
        -11    1    3    3    0    0  0.42530594136E+02 -0.26748944192E+02 -0.27778245762E+01  0.50319715446E+02  0.51100000000E-03 0. -1.
         23    2    1    0    0    0  0.23095529577E+02 -0.57421250178E+01  0.25197730853E+02  0.90340208796E+02  0.83426927302E+02 0.  0.
         11    1    3    3    0    0 -0.19435064558E+02  0.21006819174E+02  0.27975555429E+02  0.40020493350E+02  0.51100000000E-03 0.  1.
         22    1    1    0    0    0 -0.23095529577E+02  0.57421250178E+01 -0.25197730853E+02  0.34659791204E+02  0.00000000000E+00 0.  1.
</event>
<event>
 5    1  0.1659417E-003  0.9118800E+02  0.7818608E-02  0.1130116E+00
         25   -1    0    0    0    0  0.00000000000E+00  0.00000000000E+00  0.99999998245E-14  0.12500000000E+03  0.12500000000E+03 0.  0.
        -11    1    3    3    0    0 -0.46546565259E+02  0.18432368676E+02  0.35655058978E+02  0.61462331418E+02  0.51100000000E-03 0. -1.
         23    2    1    0    0    0 -0.15686454756E+02  0.90170521827E+01  0.22046981942E+02  0.96479104053E+02  0.92167109172E+02 0.  0.
         11    1    3    3    0    0  0.30860110502E+02 -0.94153164931E+01 -0.13608077036E+02  0.35016772635E+02  0.51100000000E-03 0.  1.
         22    1    1    0    0    0  0.15686454756E+02 -0.90170521827E+01 -0.22046981942E+02  0.28520895947E+02  0.00000000000E+00 0. -1.
</event>
<event>
 5    1  0.1659417E-003  0.9118800E+02  0.7818608E-02  0.1130116E+00
         25   -1    0    0    0    0  0.00000000000E+00  0.00000000000E+00  0.99999998245E-14  0.12500000000E+03  0.12500000000E+03 0.  0.
        -11    1    3    3    0    0 -0.57019335414E+01 -0.43763024024E+02  0.21073650116E+02  0.48906165740E+02  0.51100000000E-03 0.  1.
         23    2    1    0    0    0 -0.84275441787E+01 -0.22467304440E+02 -0.19016070868E+02  0.94382779013E+02  0.89278747489E+02 0.  0.
         11    1    3    3    0    0 -0.27256106373E+01  0.21295719584E+02 -0.40089720985E+02  0.45476613273E+02  0.51100000000E-03 0. -1.
         22    1    1    0    0    0  0.84275441787E+01  0.22467304440E+02  0.19016070868E+02  0.30617220987E+02  0.00000000000E+00 0. -1.
</event>
<event>
 5    1  0.1659417E-003  0.9118800E+02  0.7818608E-02  0.1130116E+00
         25   -1    0    0    0    0  0.00000000000E+00  0.00000000000E+00  0.99999998245E-14  0.12500000000E+03  0.12500000000E+03 0.  0.
        -11    1    3    3    0    0 -0.25259127708E+02  0.24903385879E+02  0.15052055602E+02  0.38532668464E+02  0.51100000000E-03 0. -1.
         23    2    1    0    0    0  0.34326928673E+01 -0.23619796908E+02  0.18189330065E+02  0.94991169391E+02  0.90126535203E+02 0.  0.
         11    1    3    3    0    0  0.28691820576E+02 -0.48523182786E+02  0.31372744635E+01  0.56458500928E+02  0.51100000000E-03 0.  1.
         22    1    1    0    0    0 -0.34326928673E+01  0.23619796908E+02 -0.18189330065E+02  0.30008830609E+02  0.00000000000E+00 0.  1.
</event>
<event>
 5    1  0.1659417E-003  0.9118800E+02  0.7818608E-02  0.1130116E+00
         25   -1    0    0    0    0  0.00000000000E+00  0.00000000000E+00  0.99999998245E-14  0.12500000000E+03  0.12500000000E+03 0.  0.
        -11    1    3    3    0    0 -0.47268403244E+00 -0.41882270993E+02 -0.94604163186E+01  0.42940045772E+02  0.51100000000E-03 0. -1.
         23    2    1    0    0    0  0.25643701328E+01 -0.93683377353E+01  0.29596767874E+02  0.93850193987E+02  0.88529929949E+02 0.  0.
         11    1    3    3    0    0  0.30370541653E+01  0.32513933258E+02  0.39057184192E+02  0.50910148214E+02  0.51100000000E-03 0.  1.
         22    1    1    0    0    0 -0.25643701328E+01  0.93683377353E+01 -0.29596767874E+02  0.31149806013E+02  0.00000000000E+00 0.  1.
</event>
<event>
 5    1  0.1659417E-003  0.9118800E+02  0.7818608E-02  0.1130116E+00
         25   -1    0    0    0    0  0.00000000000E+00  0.00000000000E+00  0.99999998245E-14  0.12500000000E+03  0.12500000000E+03 0.  0.
        -11    1    3    3    0    0  0.47109515666E+02 -0.34367399718E+01 -0.26075234572E+02  0.53954012883E+02  0.51100000000E-03 0. -1.
         23    2    1    0    0    0  0.12171335473E+02  0.16209949892E+02 -0.23275471279E+02  0.94134947822E+02  0.88931079806E+02 0.  0.
         11    1    3    3    0    0 -0.34938180194E+02  0.19646689864E+02  0.27997632926E+01  0.40180934939E+02  0.51100000000E-03 0.  1.
         22    1    1    0    0    0 -0.12171335473E+02 -0.16209949892E+02  0.23275471279E+02  0.30865052178E+02  0.00000000000E+00 0. -1.
</event>
<event>
 5    1  0.1659417E-003  0.9118800E+02  0.7818608E-02  0.1130116E+00
         25   -1    0    0    0    0  0.00000000000E+00  0.00000000000E+00  0.99999998245E-14  0.12500000000E+03  0.12500000000E+03 0.  0.
        -11    1    3    3    0    0  0.53258576242E+02  0.65213196163E+01 -0.18004075993E+02  0.56596380675E+02  0.51100000000E-03 0. -1.
         23    2    1    0    0    0  0.15123583837E+02 -0.45517971298E+01 -0.23500877288E+02  0.96685112070E+02  0.92446081677E+02 0.  0.
         11    1    3    3    0    0 -0.38134992404E+02 -0.11073116746E+02 -0.54968012946E+01  0.40088731395E+02  0.51100000000E-03 0.  1.
         22    1    1    0    0    0 -0.15123583837E+02  0.45517971298E+01  0.23500877288E+02  0.28314887930E+02  0.00000000000E+00 0. -1.
</event>
<event>
 5    1  0.1659417E-003  0.9118800E+02  0.7818608E-02  0.1130116E+00
         25   -1    0    0    0    0  0.00000000000E+00  0.00000000000E+00  0.99999998245E-14  0.12500000000E+03  0.12500000000E+03 0.  0.
        -11    1    3    3    0    0 -0.38276777680E+02  0.24766298518E+02  0.25737780091E+02  0.52353744624E+02  0.51100000000E-03 0. -1.
         23    2    1    0    0    0 -0.62930497711E+01  0.30369953137E+02 -0.31334992841E+00  0.93983315504E+02  0.88717692012E+02 0.  0.
         11    1    3    3    0    0  0.31983727909E+02  0.56036546191E+01 -0.26051130020E+02  0.41629570880E+02  0.51100000000E-03 0.  1.
         22    1    1    0    0    0  0.62930497711E+01 -0.30369953137E+02  0.31334992841E+00  0.31016684496E+02  0.00000000000E+00 0. -1.
</event>
<event>
 5    1  0.1659417E-003  0.9118800E+02  0.7818608E-02  0.1130116E+00
         25   -1    0    0    0    0  0.00000000000E+00  0.00000000000E+00  0.99999998245E-14  0.12500000000E+03  0.12500000000E+03 0.  0.
        -11    1    3    3    0    0 -0.10263335816E+02 -0.99631830595E+01 -0.51637111673E+02  0.53581642201E+02  0.51100000000E-03 0.  1.
         23    2    1    0    0    0  0.18707515440E+02 -0.38035198839E+00 -0.21985893349E+02  0.96129681195E+02  0.91691986011E+02 0.  0.
         11    1    3    3    0    0  0.28970851256E+02  0.95828310711E+01  0.29651218324E+02  0.42548038994E+02  0.51100000000E-03 0. -1.
         22    1    1    0    0    0 -0.18707515440E+02  0.38035198839E+00  0.21985893349E+02  0.28870318805E+02  0.00000000000E+00 0.  1.
</event>
<event>
 5    1  0.1659417E-003  0.9118800E+02  0.7818608E-02  0.1130116E+00
         25   -1    0    0    0    0  0.00000000000E+00  0.00000000000E+00  0.99999998245E-14  0.12500000000E+03  0.12500000000E+03 0.  0.
        -11    1    3    3    0    0 -0.10789885624E+02 -0.26069284974E+01 -0.59339597336E+02  0.60368911869E+02  0.51100000000E-03 0.  1.
         23    2    1    0    0    0 -0.28784304086E+01  0.10142729424E+02 -0.26766198734E+02  0.96232140913E+02  0.91831558999E+02 0.  0.
         11    1    3    3    0    0  0.79114552151E+01  0.12749657922E+02  0.32573398602E+02  0.35863229044E+02  0.51100000000E-03 0. -1.
         22    1    1    0    0    0  0.28784304086E+01 -0.10142729424E+02  0.26766198734E+02  0.28767859087E+02  0.00000000000E+00 0.  1.
</event>
<event>
 5    1  0.1659417E-003  0.9118800E+02  0.7818608E-02  0.1130116E+00
         25   -1    0    0    0    0  0.00000000000E+00  0.00000000000E+00  0.99999998245E-14  0.12500000000E+03  0.12500000000E+03 0.  0.
        -11    1    3    3    0    0 -0.22687489057E+02  0.23420301930E+02 -0.41950413895E+02  0.53132569376E+02  0.51100000000E-03 0.  1.
         23    2    1    0    0    0  0.13194718540E+02  0.66600955435E+01 -0.24448538102E+02  0.96430987323E+02  0.92101828596E+02 0.  0.
         11    1    3    3    0    0  0.35882207598E+02 -0.16760206387E+02  0.17501875793E+02  0.43298417947E+02  0.51100000000E-03 0. -1.
         22    1    1    0    0    0 -0.13194718540E+02 -0.66600955435E+01  0.24448538102E+02  0.28569012677E+02  0.00000000000E+00 0.  1.
</event>
<event>
 5    1  0.1659417E-003  0.9118800E+02  0.7818608E-02  0.1130116E+00
         25   -1    0    0    0    0  0.00000000000E+00  0.00000000000E+00  0.99999998245E-14  0.12500000000E+03  0.12500000000E+03 0.  0.
        -11    1    3    3    0    0  0.34740933491E+02  0.12771705483E+02  0.49813595334E+01  0.37347862909E+02  0.51100000000E-03 0. -1.
         23    2    1    0    0    0 -0.10088300693E+02 -0.23459316425E+02  0.14294028809E+02  0.95735130316E+02  0.91152523712E+02 0.  0.
         11    1    3    3    0    0 -0.44829234184E+02 -0.36231021908E+02  0.93126692758E+01  0.58387267408E+02  0.51100000000E-03 0.  1.
         22    1    1    0    0    0  0.10088300693E+02  0.23459316425E+02 -0.14294028809E+02  0.29264869684E+02  0.00000000000E+00 0.  1.
</event>
<event>
 5    1  0.1659417E-003  0.9118800E+02  0.7818608E-02  0.1130116E+00
         25   -1    0    0    0    0  0.00000000000E+00  0.00000000000E+00  0.99999998245E-14  0.12500000000E+03  0.12500000000E+03 0.  0.
        -11    1    3    3    0    0  0.14986695268E+02  0.18747350082E+02 -0.26294473232E+02  0.35601453523E+02  0.51100000000E-03 0. -1.
         23    2    1    0    0    0 -0.25880199659E+02 -0.13283550009E+01  0.13237959543E+02  0.95900294946E+02  0.91378737879E+02 0.  0.
         11    1    3    3    0    0 -0.40866894927E+02 -0.20075705083E+02  0.39532432775E+02  0.60298841423E+02  0.51100000000E-03 0.  1.
         22    1    1    0    0    0  0.25880199659E+02  0.13283550009E+01 -0.13237959543E+02  0.29099705054E+02  0.00000000000E+00 0.  1.
</event>
<event>
 5    1  0.1659417E-003  0.9118800E+02  0.7818608E-02  0.1130116E+00
         25   -1    0    0    0    0  0.00000000000E+00  0.00000000000E+00  0.99999998245E-14  0.12500000000E+03  0.12500000000E+03 0.  0.
        -11    1    3    3    0    0  0.21941373515E+01  0.10939855770E+02  0.38823761159E+02  0.40395285786E+02  0.51100000000E-03 0.  1.
         23    2    1    0    0    0  0.14782241066E+02 -0.24445393032E+02 -0.26050116054E+01  0.96314150232E+02  0.91943121320E+02 0.  0.
         11    1    3    3    0    0  0.12588103714E+02 -0.35385248802E+02 -0.41428772764E+02  0.55918864446E+02  0.51100000000E-03 0. -1.
         22    1    1    0    0    0 -0.14782241066E+02  0.24445393032E+02  0.26050116054E+01  0.28685849768E+02  0.00000000000E+00 0. -1.
</event>
<event>
 5    1  0.1659417E-003  0.9118800E+02  0.7818608E-02  0.1130116E+00
         25   -1    0    0    0    0  0.00000000000E+00  0.00000000000E+00  0.99999998245E-14  0.12500000000E+03  0.12500000000E+03 0.  0.
        -11    1    3    3    0    0 -0.35667644103E+02  0.49565522785E+02  0.85208753150E+01  0.61656526023E+02  0.51100000000E-03 0. -1.
         23    2    1    0    0    0 -0.20764978997E+02  0.18097424208E+02  0.73363519571E+01  0.96495207846E+02  0.92188947068E+02 0.  0.
         11    1    3    3    0    0  0.14902665107E+02 -0.31468098577E+02 -0.11845233579E+01  0.34838681823E+02  0.51100000000E-03 0.  1.
         22    1    1    0    0    0  0.20764978997E+02 -0.18097424208E+02 -0.73363519571E+01  0.28504792154E+02  0.00000000000E+00 0. -1.
</event>
<event>
 5    1  0.1659417E-003  0.9118800E+02  0.7818608E-02  0.1130116E+00
         25   -1    0    0    0    0  0.00000000000E+00  0.00000000000E+00  0.99999998245E-14  0.12500000000E+03  0.12500000000E+03 0.  0.
        -11    1    3    3    0    0  0.63112080771E+01  0.36644504902E+02 -0.13738838342E+02  0.39640973325E+02  0.51100000000E-03 0.  1.
         23    2    1    0    0    0 -0.21020241651E+02 -0.13065780664E+02 -0.14385135790E+02  0.96373136478E+02  0.92023280312E+02 0.  0.
         11    1    3    3    0    0 -0.27331449728E+02 -0.49710285566E+02 -0.64629744854E+00  0.56732163152E+02  0.51100000000E-03 0. -1.
         22    1    1    0    0    0  0.21020241651E+02  0.13065780664E+02  0.14385135790E+02  0.28626863522E+02  0.00000000000E+00 0. -1.
</event>
<event>
 5    1  0.1659417E-003  0.9118800E+02  0.7818608E-02  0.1130116E+00
         25   -1    0    0    0    0  0.00000000000E+00  0.00000000000E+00  0.99999998245E-14  0.12500000000E+03  0.12500000000E+03 0.  0.
        -11    1    3    3    0    0 -0.23123553002E+02  0.27835952777E+02 -0.25239225773E+02  0.44119808344E+02  0.51100000000E-03 0.  1.
         23    2    1    0    0    0 -0.14057732039E+02 -0.22014965806E+02 -0.10004248524E+02  0.97029237800E+02  0.92910222527E+02 0.  0.
         11    1    3    3    0    0  0.90658209631E+01 -0.49850918583E+02  0.15234977249E+02  0.52909429456E+02  0.51100000000E-03 0. -1.
         22    1    1    0    0    0  0.14057732039E+02  0.22014965806E+02  0.10004248524E+02  0.27970762200E+02  0.00000000000E+00 0. -1.
</event>
<event>
 5    1  0.1659417E-003  0.9118800E+02  0.7818608E-02  0.1130116E+00
         25   -1    0    0    0    0  0.00000000000E+00  0.00000000000E+00  0.99999998245E-14  0.12500000000E+03  0.12500000000E+03 0.  0.
        -11    1    3    3    0    0 -0.27411351830E+02  0.23981124548E+02 -0.47316599021E+02  0.59710443700E+02  0.51100000000E-03 0. -1.
         23    2    1    0    0    0 -0.22146089779E+02  0.46418715954E+01 -0.14623204947E+02  0.98058686236E+02  0.94285054802E+02 0.  0.
         11    1    3    3    0    0  0.52652620512E+01 -0.19339252953E+02  0.32693394074E+02  0.38348242535E+02  0.51100000000E-03 0.  1.
         22    1    1    0    0    0  0.22146089779E+02 -0.46418715954E+01  0.14623204947E+02  0.26941313764E+02  0.00000000000E+00 0. -1.
</event>
<event>
 5    1  0.1659417E-003  0.9118800E+02  0.7818608E-02  0.1130116E+00
         25   -1    0    0    0    0  0.00000000000E+00  0.00000000000E+00  0.99999998245E-14  0.12500000000E+03  0.12500000000E+03 0.  0.
        -11    1    3    3    0    0  0.22709543382E+02  0.20436867009E+02  0.34936344500E+02  0.46410527480E+02  0.51100000000E-03 0. -1.
         23    2    1    0    0    0 -0.18104599508E+01 -0.19220594339E+02  0.23812600651E+02  0.94344674823E+02  0.89225381511E+02 0.  0.
         11    1    3    3    0    0 -0.24520003333E+02 -0.39657461347E+02 -0.11123743849E+02  0.47934147342E+02  0.51100000000E-03 0.  1.
         22    1    1    0    0    0  0.18104599508E+01  0.19220594339E+02 -0.23812600651E+02  0.30655325177E+02  0.00000000000E+00 0. -1.
</event>
<event>
 5    1  0.1659417E-003  0.9118800E+02  0.7818608E-02  0.1130116E+00
         25   -1    0    0    0    0  0.00000000000E+00  0.00000000000E+00  0.99999998245E-14  0.12500000000E+03  0.12500000000E+03 0.  0.
        -11    1    3    3    0    0  0.16226524329E+02 -0.18999689228E+02 -0.27733198102E+02  0.37328522068E+02  0.51100000000E-03 0.  1.
         23    2    1    0    0    0  0.34454011536E+02 -0.15371257599E+02  0.15365486562E+02  0.84263620087E+02  0.73762490616E+02 0.  0.
         11    1    3    3    0    0  0.18227487207E+02  0.36284316289E+01  0.43098684665E+02  0.46935098019E+02  0.51100000000E-03 0. -1.
         22    1    1    0    0    0 -0.34454011536E+02  0.15371257599E+02 -0.15365486562E+02  0.40736379913E+02  0.00000000000E+00 0. -1.
</event>
<event>
 5    1  0.1659417E-003  0.9118800E+02  0.7818608E-02  0.1130116E+00
         25   -1    0    0    0    0  0.00000000000E+00  0.00000000000E+00  0.99999998245E-14  0.12500000000E+03  0.12500000000E+03 0.  0.
        -11    1    3    3    0    0 -0.44512478795E+02 -0.30938275624E+02  0.29003479004E+02  0.61479585731E+02  0.51100000000E-03 0.  1.
         23    2    1    0    0    0 -0.25939884312E+02 -0.86460414988E+01  0.16417368628E+02  0.93107028606E+02  0.87474322812E+02 0.  0.
         11    1    3    3    0    0  0.18572594483E+02  0.22292234125E+02 -0.12586110376E+02  0.31627442875E+02  0.51100000000E-03 0. -1.
         22    1    1    0    0    0  0.25939884312E+02  0.86460414988E+01 -0.16417368628E+02  0.31892971394E+02  0.00000000000E+00 0.  1.
</event>
<event>
 5    1  0.1659417E-003  0.9118800E+02  0.7818608E-02  0.1130116E+00
         25   -1    0    0    0    0  0.00000000000E+00  0.00000000000E+00  0.99999998245E-14  0.12500000000E+03  0.12500000000E+03 0.  0.
        -11    1    3    3    0    0 -0.66419042412E+01 -0.28249112268E+02 -0.15262271215E+02  0.32788171019E+02  0.51100000000E-03 0.  1.
         23    2    1    0    0    0 -0.26713564002E+02  0.22887609218E+02  0.69719371391E-01  0.89822421655E+02  0.82647476754E+02 0.  0.
         11    1    3    3    0    0 -0.20071659761E+02  0.51136721487E+02  0.15331990586E+02  0.57034250636E+02  0.51100000000E-03 0. -1.
         22    1    1    0    0    0  0.26713564002E+02 -0.22887609218E+02 -0.69719371391E-01  0.35177578345E+02  0.00000000000E+00 0. -1.
</event>
<event>
 5    1  0.1659417E-003  0.9118800E+02  0.7818608E-02  0.1130116E+00
         25   -1    0    0    0    0  0.00000000000E+00  0.00000000000E+00  0.99999998245E-14  0.12500000000E+03  0.12500000000E+03 0.  0.
        -11    1    3    3    0    0 -0.17800127798E+01 -0.17139164166E+02  0.27320138845E+02  0.32300300008E+02  0.51100000000E-03 0.  1.
         23    2    1    0    0    0 -0.38476036933E+02 -0.11714047734E+02 -0.85277605024E+01  0.83886169826E+02  0.73120055091E+02 0.  0.
         11    1    3    3    0    0 -0.36696024154E+02  0.54251164326E+01 -0.35847899347E+02  0.51585869818E+02  0.51100000000E-03 0. -1.
         22    1    1    0    0    0  0.38476036933E+02  0.11714047734E+02  0.85277605024E+01  0.41113830174E+02  0.00000000000E+00 0. -1.
</event>
<event>
 5    1  0.1659417E-003  0.9118800E+02  0.7818608E-02  0.1130116E+00
         25   -1    0    0    0    0  0.00000000000E+00  0.00000000000E+00  0.99999998245E-14  0.12500000000E+03  0.12500000000E+03 0.  0.
        -11    1    3    3    0    0 -0.37715614656E+02 -0.31611167897E+01 -0.42444471015E+01  0.38085109685E+02  0.51100000000E-03 0. -1.
         23    2    1    0    0    0  0.18460610829E+02 -0.18415694600E+02 -0.11025540325E+02  0.96689321816E+02  0.92451773666E+02 0.  0.
         11    1    3    3    0    0  0.56176225485E+02 -0.15254577810E+02 -0.67810932239E+01  0.58604212131E+02  0.51100000000E-03 0.  1.
         22    1    1    0    0    0 -0.18460610829E+02  0.18415694600E+02  0.11025540325E+02  0.28310678184E+02  0.00000000000E+00 0.  1.
</event>
<event>
 5    1  0.1659417E-003  0.9118800E+02  0.7818608E-02  0.1130116E+00
         25   -1    0    0    0    0  0.00000000000E+00  0.00000000000E+00  0.99999998245E-14  0.12500000000E+03  0.12500000000E+03 0.  0.
        -11    1    3    3    0    0 -0.75762759518E+01  0.58000863818E+01  0.37645844544E+02  0.38836201810E+02  0.51100000000E-03 0. -1.
         23    2    1    0    0    0 -0.22060814849E+02 -0.19869829421E+02 -0.89665661815E+01  0.93985664893E+02  0.88721002155E+02 0.  0.
         11    1    3    3    0    0 -0.14484538898E+02 -0.25669915802E+02 -0.46612410726E+02  0.55149463083E+02  0.51100000000E-03 0.  1.
         22    1    1    0    0    0  0.22060814849E+02  0.19869829421E+02  0.89665661815E+01  0.31014335107E+02  0.00000000000E+00 0.  1.
</event>
<event>
 5    1  0.1659417E-003  0.9118800E+02  0.7818608E-02  0.1130116E+00
         25   -1    0    0    0    0  0.00000000000E+00  0.00000000000E+00  0.99999998245E-14  0.12500000000E+03  0.12500000000E+03 0.  0.
        -11    1    3    3    0    0 -0.33016368983E+02  0.26411979620E+01  0.10415285793E+02  0.34720811135E+02  0.51100000000E-03 0.  1.
         23    2    1    0    0    0  0.26738805754E+02  0.11558096474E+02  0.11196627258E+01  0.95848551119E+02  0.91307928350E+02 0.  0.
         11    1    3    3    0    0  0.59755174737E+02  0.89168985116E+01 -0.92956230676E+01  0.61127739983E+02  0.51100000000E-03 0. -1.
         22    1    1    0    0    0 -0.26738805754E+02 -0.11558096474E+02 -0.11196627258E+01  0.29151448881E+02  0.00000000000E+00 0. -1.
</event>
<event>
 5    1  0.1659417E-003  0.9118800E+02  0.7818608E-02  0.1130116E+00
         25   -1    0    0    0    0  0.00000000000E+00  0.00000000000E+00  0.99999998245E-14  0.12500000000E+03  0.12500000000E+03 0.  0.
        -11    1    3    3    0    0 -0.83957848854E+01 -0.33246951382E+02 -0.23481426196E+02  0.41559912855E+02  0.51100000000E-03 0.  1.
         23    2    1    0    0    0  0.18609463205E+02 -0.11655950758E+02  0.18740065080E+02  0.96131966675E+02  0.91695101662E+02 0.  0.
         11    1    3    3    0    0  0.27005248090E+02  0.21591000624E+02  0.42221491276E+02  0.54572053821E+02  0.51100000000E-03 0. -1.
         22    1    1    0    0    0 -0.18609463205E+02  0.11655950758E+02 -0.18740065080E+02  0.28868033325E+02  0.00000000000E+00 0. -1.
</event>
<event>
 5    1  0.1659417E-003  0.9118800E+02  0.7818608E-02  0.1130116E+00
         25   -1    0    0    0    0  0.00000000000E+00  0.00000000000E+00  0.99999998245E-14  0.12500000000E+03  0.12500000000E+03 0.  0.
        -11    1    3    3    0    0  0.42507150379E+02  0.42636895008E+02 -0.14938025221E+02  0.62031502053E+02  0.51100000000E-03 0.  1.
         23    2    1    0    0    0  0.21828124699E+02  0.20461094053E+02 -0.19488074320E+01  0.95017984588E+02  0.90163718573E+02 0.  0.
         11    1    3    3    0    0 -0.20679025679E+02 -0.22175800954E+02  0.12989217789E+02  0.32986482535E+02  0.51100000000E-03 0. -1.
         22    1    1    0    0    0 -0.21828124699E+02 -0.20461094053E+02  0.19488074320E+01  0.29982015412E+02  0.00000000000E+00 0.  1.
</event>
<event>
 5    1  0.1659417E-003  0.9118800E+02  0.7818608E-02  0.1130116E+00
         25   -1    0    0    0    0  0.00000000000E+00  0.00000000000E+00  0.99999998245E-14  0.12500000000E+03  0.12500000000E+03 0.  0.
        -11    1    3    3    0    0  0.56082236942E+02  0.21530286020E+02 -0.70278949703E+01  0.60482739889E+02  0.51100000000E-03 0.  1.
         23    2    1    0    0    0  0.30140267576E+02  0.10753227414E+00 -0.66781239035E+01  0.94128579047E+02  0.88922127515E+02 0.  0.
         11    1    3    3    0    0 -0.25941969366E+02 -0.21422753746E+02  0.34977106674E+00  0.33645839158E+02  0.51100000000E-03 0. -1.
         22    1    1    0    0    0 -0.30140267576E+02 -0.10753227414E+00  0.66781239035E+01  0.30871420953E+02  0.00000000000E+00 0.  1.
</event>
<event>
 5    1  0.1659417E-003  0.9118800E+02  0.7818608E-02  0.1130116E+00
         25   -1    0    0    0    0  0.00000000000E+00  0.00000000000E+00  0.99999998245E-14  0.12500000000E+03  0.12500000000E+03 0.  0.
        -11    1    3    3    0    0  0.51654488202E+02 -0.27464095330E+00  0.64358852952E-02  0.51655218717E+02  0.51100000000E-03 0.  1.
         23    2    1    0    0    0  0.12623456319E+02  0.16394820986E+02 -0.17823823344E+02  0.97690102834E+02  0.93795126252E+02 0.  0.
         11    1    3    3    0    0 -0.39031031883E+02  0.16669461939E+02 -0.17830259230E+02  0.46034884117E+02  0.51100000000E-03 0. -1.
         22    1    1    0    0    0 -0.12623456319E+02 -0.16394820986E+02  0.17823823344E+02  0.27309897166E+02  0.00000000000E+00 0.  1.
</event>
<event>
 5    1  0.1659417E-003  0.9118800E+02  0.7818608E-02  0.1130116E+00
         25   -1    0    0    0    0  0.00000000000E+00  0.00000000000E+00  0.99999998245E-14  0.12500000000E+03  0.12500000000E+03 0.  0.
        -11    1    3    3    0    0  0.14462804338E+02 -0.18691562094E+01  0.35637277475E+02  0.38505609986E+02  0.51100000000E-03 0.  1.
         23    2    1    0    0    0 -0.21527941270E+02  0.23033889047E+02  0.25545798720E+01  0.93368715197E+02  0.87847474632E+02 0.  0.
         11    1    3    3    0    0 -0.35990745608E+02  0.24903045257E+02 -0.33082697603E+02  0.54863105211E+02  0.51100000000E-03 0. -1.
         22    1    1    0    0    0  0.21527941270E+02 -0.23033889047E+02 -0.25545798720E+01  0.31631284803E+02  0.00000000000E+00 0. -1.
</event>
<event>
 5    1  0.1659417E-003  0.9118800E+02  0.7818608E-02  0.1130116E+00
         25   -1    0    0    0    0  0.00000000000E+00  0.00000000000E+00  0.99999998245E-14  0.12500000000E+03  0.12500000000E+03 0.  0.
        -11    1    3    3    0    0  0.45277078938E+02 -0.65316365420E+01 -0.39498316403E+02  0.60438341738E+02  0.51100000000E-03 0.  1.
         23    2    1    0    0    0  0.26911432826E+02  0.20295729024E+00 -0.90920635684E+01  0.96593450960E+02  0.92322059878E+02 0.  0.
         11    1    3    3    0    0 -0.18365646111E+02  0.67345938323E+01  0.30406252835E+02  0.36155109223E+02  0.51100000000E-03 0. -1.
         22    1    1    0    0    0 -0.26911432826E+02 -0.20295729024E+00  0.90920635684E+01  0.28406549040E+02  0.00000000000E+00 0.  1.
</event>
<event>
 5    1  0.1659417E-003  0.9118800E+02  0.7818608E-02  0.1130116E+00
         25   -1    0    0    0    0  0.00000000000E+00  0.00000000000E+00  0.99999998245E-14  0.12500000000E+03  0.12500000000E+03 0.  0.
        -11    1    3    3    0    0  0.66021519465E+01 -0.17330078555E+02  0.44010285818E+02  0.47757986674E+02  0.51100000000E-03 0.  1.
         23    2    1    0    0    0 -0.19034896066E+02 -0.21934472839E+02  0.37398893675E+01  0.95718006566E+02  0.91129038410E+02 0.  0.
         11    1    3    3    0    0 -0.25637048012E+02 -0.46043942846E+01 -0.40270396451E+02  0.47960019893E+02  0.51100000000E-03 0. -1.
         22    1    1    0    0    0  0.19034896066E+02  0.21934472839E+02 -0.37398893675E+01  0.29281993434E+02  0.00000000000E+00 0. -1.
</event>
<event>
 5    1  0.1659417E-003  0.9118800E+02  0.7818608E-02  0.1130116E+00
         25   -1    0    0    0    0  0.00000000000E+00  0.00000000000E+00  0.99999998245E-14  0.12500000000E+03  0.12500000000E+03 0.  0.
        -11    1    3    3    0    0  0.21008355143E+02  0.31846080941E+02 -0.41505541270E+01  0.38376437523E+02  0.51100000000E-03 0. -1.
         23    2    1    0    0    0 -0.11196859523E+02  0.33541424967E+02  0.24876274598E+02  0.81765454902E+02  0.69400026841E+02 0.  0.
         11    1    3    3    0    0 -0.32205214666E+02  0.16953440254E+01  0.29026828725E+02  0.43389017379E+02  0.51100000000E-03 0.  1.
         22    1    1    0    0    0  0.11196859523E+02 -0.33541424967E+02 -0.24876274598E+02  0.43234545098E+02  0.00000000000E+00 0.  1.
</event>
<event>
 5    1  0.1659417E-003  0.9118800E+02  0.7818608E-02  0.1130116E+00
         25   -1    0    0    0    0  0.00000000000E+00  0.00000000000E+00  0.99999998245E-14  0.12500000000E+03  0.12500000000E+03 0.  0.
        -11    1    3    3    0    0  0.55315162352E+02 -0.21672017514E+02  0.17443867341E+02  0.61917138477E+02  0.51100000000E-03 0.  1.
         23    2    1    0    0    0  0.24975200220E+02 -0.67850152389E+01  0.13107140714E+02  0.95989757058E+02  0.91501034227E+02 0.  0.
         11    1    3    3    0    0 -0.30339962132E+02  0.14887002275E+02 -0.43367266266E+01  0.34072618581E+02  0.51100000000E-03 0. -1.
         22    1    1    0    0    0 -0.24975200220E+02  0.67850152389E+01 -0.13107140714E+02  0.29010242942E+02  0.00000000000E+00 0.  1.
</event>
<event>
 5    1  0.1659417E-003  0.9118800E+02  0.7818608E-02  0.1130116E+00
         25   -1    0    0    0    0  0.00000000000E+00  0.00000000000E+00  0.99999998245E-14  0.12500000000E+03  0.12500000000E+03 0.  0.
        -11    1    3    3    0    0  0.15356634165E+02 -0.21591115986E+02  0.92502374993E+01  0.28063666839E+02  0.51100000000E-03 0.  1.
         23    2    1    0    0    0 -0.23147116533E+02 -0.24442555870E+01  0.38458150055E+02  0.80046772143E+02  0.66232114837E+02 0.  0.
         11    1    3    3    0    0 -0.38503750697E+02  0.19146860399E+02  0.29207912555E+02  0.51983105304E+02  0.51100000000E-03 0. -1.
         22    1    1    0    0    0  0.23147116533E+02  0.24442555870E+01 -0.38458150055E+02  0.44953227857E+02  0.00000000000E+00 0. -1.
</event>
<event>
 5    1  0.1659417E-003  0.9118800E+02  0.7818608E-02  0.1130116E+00
         25   -1    0    0    0    0  0.00000000000E+00  0.00000000000E+00  0.99999998245E-14  0.12500000000E+03  0.12500000000E+03 0.  0.
        -11    1    3    3    0    0  0.24186601681E+02  0.41861342692E+02  0.34769464669E+02  0.59550645559E+02  0.51100000000E-03 0. -1.
         23    2    1    0    0    0  0.18784142816E+01  0.28458057085E+02  0.12272032086E+02  0.93951775820E+02  0.88673242610E+02 0.  0.
         11    1    3    3    0    0 -0.22308187399E+02 -0.13403285608E+02 -0.22497432583E+02  0.34401130261E+02  0.51100000000E-03 0.  1.
         22    1    1    0    0    0 -0.18784142816E+01 -0.28458057085E+02 -0.12272032086E+02  0.31048224180E+02  0.00000000000E+00 0. -1.
</event>
<event>
 5    1  0.1659417E-003  0.9118800E+02  0.7818608E-02  0.1130116E+00
         25   -1    0    0    0    0  0.00000000000E+00  0.00000000000E+00  0.99999998245E-14  0.12500000000E+03  0.12500000000E+03 0.  0.
        -11    1    3    3    0    0  0.33393700013E+01 -0.45048819792E+02  0.72342847707E+01  0.45748032013E+02  0.51100000000E-03 0.  1.
         23    2    1    0    0    0 -0.22038105566E+02 -0.40355718029E+01  0.19260613018E+02  0.95454524026E+02  0.90766904797E+02 0.  0.
         11    1    3    3    0    0 -0.25377475567E+02  0.41013247989E+02  0.12026328247E+02  0.49706492012E+02  0.51100000000E-03 0. -1.
         22    1    1    0    0    0  0.22038105566E+02  0.40355718029E+01 -0.19260613018E+02  0.29545475974E+02  0.00000000000E+00 0. -1.
</event>
<event>
 5    1  0.1659417E-003  0.9118800E+02  0.7818608E-02  0.1130116E+00
         25   -1    0    0    0    0  0.00000000000E+00  0.00000000000E+00  0.99999998245E-14  0.12500000000E+03  0.12500000000E+03 0.  0.
        -11    1    3    3    0    0  0.23355881154E+02  0.12540203312E+02 -0.55170581574E+02  0.61209043082E+02  0.51100000000E-03 0. -1.
         23    2    1    0    0    0  0.18165987986E+02  0.86513186318E+01 -0.21283286593E+02  0.95711320928E+02  0.91119867384E+02 0.  0.
         11    1    3    3    0    0 -0.51898931678E+01 -0.38888846802E+01  0.33887294981E+02  0.34502277846E+02  0.51100000000E-03 0.  1.
         22    1    1    0    0    0 -0.18165987986E+02 -0.86513186318E+01  0.21283286593E+02  0.29288679072E+02  0.00000000000E+00 0. -1.
</event>
<event>
 5    1  0.1659417E-003  0.9118800E+02  0.7818608E-02  0.1130116E+00
         25   -1    0    0    0    0  0.00000000000E+00  0.00000000000E+00  0.99999998245E-14  0.12500000000E+03  0.12500000000E+03 0.  0.
        -11    1    3    3    0    0 -0.27079993814E+02 -0.38584540416E+02  0.35287026904E+02  0.58883504414E+02  0.51100000000E-03 0.  1.
         23    2    1    0    0    0 -0.36990844848E+01 -0.11560009469E+02  0.26751571591E+02  0.95623757429E+02  0.90999666798E+02 0.  0.
         11    1    3    3    0    0  0.23380909330E+02  0.27024530947E+02 -0.85354553125E+01  0.36740253015E+02  0.51100000000E-03 0. -1.
         22    1    1    0    0    0  0.36990844848E+01  0.11560009469E+02 -0.26751571591E+02  0.29376242571E+02  0.00000000000E+00 0.  1.
</event>
<event>
 5    1  0.1659417E-003  0.9118800E+02  0.7818608E-02  0.1130116E+00
         25   -1    0    0    0    0  0.00000000000E+00  0.00000000000E+00  0.99999998245E-14  0.12500000000E+03  0.12500000000E+03 0.  0.
        -11    1    3    3    0    0  0.26196538557E+02  0.26668849846E+02 -0.72591641785E+01  0.38081250627E+02  0.51100000000E-03 0.  1.
         23    2    1    0    0    0 -0.20698049670E+02  0.12364837939E+02  0.19549687936E+02  0.93959884411E+02  0.88684672309E+02 0.  0.
         11    1    3    3    0    0 -0.46894588227E+02 -0.14304011906E+02  0.26808852115E+02  0.55878633784E+02  0.51100000000E-03 0. -1.
         22    1    1    0    0    0  0.20698049670E+02 -0.12364837939E+02 -0.19549687936E+02  0.31040115589E+02  0.00000000000E+00 0. -1.
</event>
<event>
 5    1  0.1659417E-003  0.9118800E+02  0.7818608E-02  0.1130116E+00
         25   -1    0    0    0    0  0.00000000000E+00  0.00000000000E+00  0.99999998245E-14  0.12500000000E+03  0.12500000000E+03 0.  0.
        -11    1    3    3    0    0  0.16120346975E+02 -0.15682501878E+02 -0.71380748735E+00  0.22501466022E+02  0.51100000000E-03 0.  1.
         23    2    1    0    0    0 -0.28618823355E+02  0.26545476050E+02 -0.99641772227E+01  0.84713722229E+02  0.74521342964E+02 0.  0.
         11    1    3    3    0    0 -0.44739170330E+02  0.42227977928E+02 -0.92503697353E+01  0.62212256206E+02  0.51100000000E-03 0. -1.
         22    1    1    0    0    0  0.28618823355E+02 -0.26545476050E+02  0.99641772227E+01  0.40286277771E+02  0.00000000000E+00 0. -1.
</event>
<event>
 5    1  0.1659417E-003  0.9118800E+02  0.7818608E-02  0.1130116E+00
         25   -1    0    0    0    0  0.00000000000E+00  0.00000000000E+00  0.99999998245E-14  0.12500000000E+03  0.12500000000E+03 0.  0.
        -11    1    3    3    0    0 -0.17115600815E+02  0.44244211700E+02 -0.14367034583E+02  0.49567184136E+02  0.51100000000E-03 0.  1.
         23    2    1    0    0    0 -0.71904171161E+01  0.20826277153E+01 -0.28815864591E+02  0.95227638847E+02  0.90453909322E+02 0.  0.
         11    1    3    3    0    0  0.99251836990E+01 -0.42161583984E+02 -0.14448830008E+02  0.45660454711E+02  0.51100000000E-03 0. -1.
         22    1    1    0    0    0  0.71904171161E+01 -0.20826277153E+01  0.28815864591E+02  0.29772361153E+02  0.00000000000E+00 0.  1.
</event>
<event>
 5    1  0.1659417E-003  0.9118800E+02  0.7818608E-02  0.1130116E+00
         25   -1    0    0    0    0  0.00000000000E+00  0.00000000000E+00  0.99999998245E-14  0.12500000000E+03  0.12500000000E+03 0.  0.
        -11    1    3    3    0    0 -0.19690665391E+02  0.16539360971E+02 -0.28932686172E+02  0.38708824501E+02  0.51100000000E-03 0. -1.
         23    2    1    0    0    0  0.28480841862E+02  0.73511419969E+01 -0.12228611436E+00  0.95585503647E+02  0.90947105021E+02 0.  0.
         11    1    3    3    0    0  0.48171507253E+02 -0.91882189738E+01  0.28810400058E+02  0.56876679146E+02  0.51100000000E-03 0.  1.
         22    1    1    0    0    0 -0.28480841862E+02 -0.73511419969E+01  0.12228611436E+00  0.29414496353E+02  0.00000000000E+00 0.  1.
</event>
<event>
 5    1  0.1659417E-003  0.9118800E+02  0.7818608E-02  0.1130116E+00
         25   -1    0    0    0    0  0.00000000000E+00  0.00000000000E+00  0.99999998245E-14  0.12500000000E+03  0.12500000000E+03 0.  0.
        -11    1    3    3    0    0 -0.45267055030E+01  0.31830191386E+02 -0.20181554432E+02  0.37959811458E+02  0.51100000000E-03 0. -1.
         23    2    1    0    0    0 -0.25769268102E+02 -0.11198842079E+02  0.10598620033E+02  0.94970015168E+02  0.90097190810E+02 0.  0.
         11    1    3    3    0    0 -0.21242562599E+02 -0.43029033465E+02  0.30780174464E+02  0.57010203710E+02  0.51100000000E-03 0.  1.
         22    1    1    0    0    0  0.25769268102E+02  0.11198842079E+02 -0.10598620033E+02  0.30029984832E+02  0.00000000000E+00 0.  1.
</event>
<event>
 5    1  0.1659417E-003  0.9118800E+02  0.7818608E-02  0.1130116E+00
         25   -1    0    0    0    0  0.00000000000E+00  0.00000000000E+00  0.99999998245E-14  0.12500000000E+03  0.12500000000E+03 0.  0.
        -11    1    3    3    0    0 -0.16418054473E+02 -0.45528694990E+02  0.12764658271E+02  0.50053482209E+02  0.51100000000E-03 0.  1.
         23    2    1    0    0    0 -0.29117063458E+02 -0.38181787874E+01 -0.50646149057E+00  0.95629293898E+02  0.91007271548E+02 0.  0.
         11    1    3    3    0    0 -0.12699008985E+02  0.41710516203E+02 -0.13271119762E+02  0.45575811689E+02  0.51100000000E-03 0. -1.
         22    1    1    0    0    0  0.29117063458E+02  0.38181787874E+01  0.50646149057E+00  0.29370706102E+02  0.00000000000E+00 0.  1.
</event>
<event>
 5    1  0.1659417E-003  0.9118800E+02  0.7818608E-02  0.1130116E+00
         25   -1    0    0    0    0  0.00000000000E+00  0.00000000000E+00  0.99999998245E-14  0.12500000000E+03  0.12500000000E+03 0.  0.
        -11    1    3    3    0    0 -0.67265103877E+01  0.21544177813E+02  0.32866074153E+02  0.39869491721E+02  0.51100000000E-03 0. -1.
         23    2    1    0    0    0 -0.26592312636E+02 -0.52333727154E+01 -0.11660248968E+02  0.95495751368E+02  0.90823663447E+02 0.  0.
         11    1    3    3    0    0 -0.19865802249E+02 -0.26777550528E+02 -0.44526323122E+02  0.55626259647E+02  0.51100000000E-03 0.  1.
         22    1    1    0    0    0  0.26592312636E+02  0.52333727154E+01  0.11660248968E+02  0.29504248632E+02  0.00000000000E+00 0.  1.
</event>
<event>
 5    1  0.1659417E-003  0.9118800E+02  0.7818608E-02  0.1130116E+00
         25   -1    0    0    0    0  0.00000000000E+00  0.00000000000E+00  0.99999998245E-14  0.12500000000E+03  0.12500000000E+03 0.  0.
        -11    1    3    3    0    0 -0.32566139844E+02  0.34609099053E+01 -0.49995527358E+02  0.59766914909E+02  0.51100000000E-03 0. -1.
         23    2    1    0    0    0 -0.20210410437E+02 -0.91011706901E+01 -0.17396284366E+02  0.96823365927E+02  0.92632831554E+02 0.  0.
         11    1    3    3    0    0  0.12355729408E+02 -0.12562080595E+02  0.32599242992E+02  0.37056451018E+02  0.51100000000E-03 0.  1.
         22    1    1    0    0    0  0.20210410437E+02  0.91011706901E+01  0.17396284366E+02  0.28176634073E+02  0.00000000000E+00 0. -1.
</event>
<event>
 5    1  0.1659417E-003  0.9118800E+02  0.7818608E-02  0.1130116E+00
         25   -1    0    0    0    0  0.00000000000E+00  0.00000000000E+00  0.99999998245E-14  0.12500000000E+03  0.12500000000E+03 0.  0.
        -11    1    3    3    0    0  0.30682559649E+01 -0.45421618274E+02 -0.16967113200E+02  0.48584159269E+02  0.51100000000E-03 0.  1.
         23    2    1    0    0    0  0.15201639803E+02 -0.65627777404E+01 -0.29493218507E+02  0.91176785454E+02  0.84671107017E+02 0.  0.
         11    1    3    3    0    0  0.12133383838E+02  0.38858840533E+02 -0.12526105307E+02  0.42592626185E+02  0.51100000000E-03 0. -1.
         22    1    1    0    0    0 -0.15201639803E+02  0.65627777404E+01  0.29493218507E+02  0.33823214546E+02  0.00000000000E+00 0. -1.
</event>
<event>
 5    1  0.1659417E-003  0.9118800E+02  0.7818608E-02  0.1130116E+00
         25   -1    0    0    0    0  0.00000000000E+00  0.00000000000E+00  0.99999998245E-14  0.12500000000E+03  0.12500000000E+03 0.  0.
        -11    1    3    3    0    0 -0.53135663662E+02  0.55195272761E+01  0.30707150590E+02  0.61618122592E+02  0.51100000000E-03 0.  1.
         23    2    1    0    0    0 -0.24935112996E+02 -0.37422033454E+01  0.96912155377E+01  0.97987343622E+02  0.94190423640E+02 0.  0.
         11    1    3    3    0    0  0.28200550666E+02 -0.92617306215E+01 -0.21015935052E+02  0.36369221030E+02  0.51100000000E-03 0. -1.
         22    1    1    0    0    0  0.24935112996E+02  0.37422033454E+01 -0.96912155377E+01  0.27012656378E+02  0.00000000000E+00 0.  1.
</event>
<event>
 5    1  0.1659417E-003  0.9118800E+02  0.7818608E-02  0.1130116E+00
         25   -1    0    0    0    0  0.00000000000E+00  0.00000000000E+00  0.99999998245E-14  0.12500000000E+03  0.12500000000E+03 0.  0.
        -11    1    3    3    0    0  0.17814320196E+02  0.98036818467E+01 -0.50612703021E+02  0.54544549583E+02  0.51100000000E-03 0.  1.
         23    2    1    0    0    0 -0.12885415617E+02  0.84896607384E+01 -0.29123840540E+02  0.92040837952E+02  0.85937241566E+02 0.  0.
         11    1    3    3    0    0 -0.30699735813E+02 -0.13140211083E+01  0.21488862481E+02  0.37496288369E+02  0.51100000000E-03 0. -1.
         22    1    1    0    0    0  0.12885415617E+02 -0.84896607384E+01  0.29123840540E+02  0.32959162048E+02  0.00000000000E+00 0.  1.
</event>
<event>
 5    1  0.1659417E-003  0.9118800E+02  0.7818608E-02  0.1130116E+00
         25   -1    0    0    0    0  0.00000000000E+00  0.00000000000E+00  0.99999998245E-14  0.12500000000E+03  0.12500000000E+03 0.  0.
        -11    1    3    3    0    0 -0.50357502355E+02  0.27126744907E+02  0.10736670553E+02  0.58198062060E+02  0.51100000000E-03 0. -1.
         23    2    1    0    0    0 -0.12859096942E+02  0.23447628995E+02  0.11513595265E+02  0.95884530648E+02  0.91357170829E+02 0.  0.
         11    1    3    3    0    0  0.37498405413E+02 -0.36791159118E+01  0.77692471156E+00  0.37686468588E+02  0.51100000000E-03 0.  1.
         22    1    1    0    0    0  0.12859096942E+02 -0.23447628995E+02 -0.11513595265E+02  0.29115469352E+02  0.00000000000E+00 0. -1.
</event>
<event>
 5    1  0.1659417E-003  0.9118800E+02  0.7818608E-02  0.1130116E+00
         25   -1    0    0    0    0  0.00000000000E+00  0.00000000000E+00  0.99999998245E-14  0.12500000000E+03  0.12500000000E+03 0.  0.
        -11    1    3    3    0    0 -0.38370101894E+02  0.37112352933E+02 -0.27998984893E+02  0.60278807344E+02  0.51100000000E-03 0.  1.
         23    2    1    0    0    0 -0.94503202404E+01  0.25382550936E+02 -0.11564185249E+02  0.95549824701E+02  0.90898053749E+02 0.  0.
         11    1    3    3    0    0  0.28919781653E+02 -0.11729801997E+02  0.16434799644E+02  0.35271017357E+02  0.51100000000E-03 0. -1.
         22    1    1    0    0    0  0.94503202404E+01 -0.25382550936E+02  0.11564185249E+02  0.29450175299E+02  0.00000000000E+00 0.  1.
</event>
<event>
 5    1  0.1659417E-003  0.9118800E+02  0.7818608E-02  0.1130116E+00
         25   -1    0    0    0    0  0.00000000000E+00  0.00000000000E+00  0.99999998245E-14  0.12500000000E+03  0.12500000000E+03 0.  0.
        -11    1    3    3    0    0  0.43078108408E+02 -0.26452398289E+02 -0.34441678433E+02  0.61169289785E+02  0.51100000000E-03 0.  1.
         23    2    1    0    0    0  0.21141046193E+02 -0.44258204202E+01 -0.20434049990E+02  0.95266481548E+02  0.90507570882E+02 0.  0.
         11    1    3    3    0    0 -0.21937062215E+02  0.22026577869E+02  0.14007628442E+02  0.34097191763E+02  0.51100000000E-03 0. -1.
         22    1    1    0    0    0 -0.21141046193E+02  0.44258204202E+01  0.20434049990E+02  0.29733518452E+02  0.00000000000E+00 0.  1.
</event>
<event>
 5    1  0.1659417E-003  0.9118800E+02  0.7818608E-02  0.1130116E+00
         25   -1    0    0    0    0  0.00000000000E+00  0.00000000000E+00  0.99999998245E-14  0.12500000000E+03  0.12500000000E+03 0.  0.
        -11    1    3    3    0    0 -0.13212981306E+02 -0.58570917634E+01 -0.33394905466E+02  0.36388296336E+02  0.51100000000E-03 0.  1.
         23    2    1    0    0    0  0.18238188414E+02  0.22342025658E+02  0.75183217101E+01  0.95195255604E+02  0.90409147220E+02 0.  0.
         11    1    3    3    0    0  0.31451169721E+02  0.28199117421E+02  0.40913227176E+02  0.58806959268E+02  0.51100000000E-03 0. -1.
         22    1    1    0    0    0 -0.18238188414E+02 -0.22342025658E+02 -0.75183217101E+01  0.29804744396E+02  0.00000000000E+00 0. -1.
</event>
<event>
 5    1  0.1659417E-003  0.9118800E+02  0.7818608E-02  0.1130116E+00
         25   -1    0    0    0    0  0.00000000000E+00  0.00000000000E+00  0.99999998245E-14  0.12500000000E+03  0.12500000000E+03 0.  0.
        -11    1    3    3    0    0  0.60525551869E+01  0.36850978700E+02  0.29269651652E+02  0.47448293579E+02  0.51100000000E-03 0.  1.
         23    2    1    0    0    0  0.26824030373E+01 -0.84296915849E+01  0.30875128180E+02  0.92882582195E+02  0.87153000802E+02 0.  0.
         11    1    3    3    0    0 -0.33701521496E+01 -0.45280670285E+02  0.16054765282E+01  0.45434288617E+02  0.51100000000E-03 0. -1.
         22    1    1    0    0    0 -0.26824030373E+01  0.84296915849E+01 -0.30875128180E+02  0.32117417805E+02  0.00000000000E+00 0.  1.
</event>
<event>
 5    1  0.1659417E-003  0.9118800E+02  0.7818608E-02  0.1130116E+00
         25   -1    0    0    0    0  0.00000000000E+00  0.00000000000E+00  0.99999998245E-14  0.12500000000E+03  0.12500000000E+03 0.  0.
        -11    1    3    3    0    0  0.14731904447E+02 -0.25440735902E+02 -0.32434384931E+02  0.43774985757E+02  0.51100000000E-03 0.  1.
         23    2    1    0    0    0 -0.26138520854E+02 -0.15482036345E+02 -0.44570609647E+01  0.94295259091E+02  0.89156125829E+02 0.  0.
         11    1    3    3    0    0 -0.40870425301E+02  0.99586995572E+01  0.27977323967E+02  0.50520273334E+02  0.51100000000E-03 0. -1.
         22    1    1    0    0    0  0.26138520854E+02  0.15482036345E+02  0.44570609647E+01  0.30704740909E+02  0.00000000000E+00 0. -1.
</event>
<event>
 5    1  0.1659417E-003  0.9118800E+02  0.7818608E-02  0.1130116E+00
         25   -1    0    0    0    0  0.00000000000E+00  0.00000000000E+00  0.99999998245E-14  0.12500000000E+03  0.12500000000E+03 0.  0.
        -11    1    3    3    0    0 -0.28976868473E+02 -0.23486563992E+02 -0.30340489806E+02  0.48081419661E+02  0.51100000000E-03 0.  1.
         23    2    1    0    0    0 -0.17527480596E+02 -0.14879088495E+02  0.16264101127E+02  0.96837598895E+02  0.92652035724E+02 0.  0.
         11    1    3    3    0    0  0.11449387877E+02  0.86074754969E+01  0.46604590933E+02  0.48756179234E+02  0.51100000000E-03 0. -1.
         22    1    1    0    0    0  0.17527480596E+02  0.14879088495E+02 -0.16264101127E+02  0.28162401105E+02  0.00000000000E+00 0.  1.
</event>
<event>
 5    1  0.1659417E-003  0.9118800E+02  0.7818608E-02  0.1130116E+00
         25   -1    0    0    0    0  0.00000000000E+00  0.00000000000E+00  0.99999998245E-14  0.12500000000E+03  0.12500000000E+03 0.  0.
        -11    1    3    3    0    0 -0.41746850059E+02 -0.23959367130E+01  0.23961009448E+02  0.48194086531E+02  0.51100000000E-03 0.  1.
         23    2    1    0    0    0 -0.48353123628E+01 -0.27762180572E+02  0.97024730159E+01  0.95196360987E+02  0.90410675514E+02 0.  0.
         11    1    3    3    0    0  0.36911537696E+02 -0.25366243859E+02 -0.14258536432E+02  0.47002274456E+02  0.51100000000E-03 0. -1.
         22    1    1    0    0    0  0.48353123628E+01  0.27762180572E+02 -0.97024730159E+01  0.29803639013E+02  0.00000000000E+00 0. -1.
</event>
<event>
 5    1  0.1659417E-003  0.9118800E+02  0.7818608E-02  0.1130116E+00
         25   -1    0    0    0    0  0.00000000000E+00  0.00000000000E+00  0.99999998245E-14  0.12500000000E+03  0.12500000000E+03 0.  0.
        -11    1    3    3    0    0  0.38052409184E+02 -0.27207029672E+02 -0.40931675363E+02  0.62157946850E+02  0.51100000000E-03 0.  1.
         23    2    1    0    0    0  0.18559037699E+02 -0.85999321100E+01 -0.21066097650E+02  0.95637146208E+02  0.91018056187E+02 0.  0.
         11    1    3    3    0    0 -0.19493371485E+02  0.18607097562E+02  0.19865577714E+02  0.33479199359E+02  0.51100000000E-03 0. -1.
         22    1    1    0    0    0 -0.18559037699E+02  0.85999321100E+01  0.21066097650E+02  0.29362853792E+02  0.00000000000E+00 0.  1.
</event>
<event>
 5    1  0.1659417E-003  0.9118800E+02  0.7818608E-02  0.1130116E+00
         25   -1    0    0    0    0  0.00000000000E+00  0.00000000000E+00  0.99999998245E-14  0.12500000000E+03  0.12500000000E+03 0.  0.
        -11    1    3    3    0    0 -0.27004072076E+02  0.13194464071E+02 -0.53218990124E+02  0.61119348008E+02  0.51100000000E-03 0. -1.
         23    2    1    0    0    0 -0.11668291721E+02  0.15575185802E+02 -0.25071540131E+02  0.93261733365E+02  0.87695115834E+02 0.  0.
         11    1    3    3    0    0  0.15335780355E+02  0.23807217312E+01  0.28147449993E+02  0.32142385357E+02  0.51100000000E-03 0.  1.
         22    1    1    0    0    0  0.11668291721E+02 -0.15575185802E+02  0.25071540131E+02  0.31738266635E+02  0.00000000000E+00 0. -1.
</event>
<event>
 5    1  0.1659417E-003  0.9118800E+02  0.7818608E-02  0.1130116E+00
         25   -1    0    0    0    0  0.00000000000E+00  0.00000000000E+00  0.99999998245E-14  0.12500000000E+03  0.12500000000E+03 0.  0.
        -11    1    3    3    0    0  0.37210152747E+02  0.11841595555E+02  0.32841589941E+02  0.51023415045E+02  0.51100000000E-03 0. -1.
         23    2    1    0    0    0 -0.58185343351E+01 -0.37643442196E+01  0.26951069178E+02  0.97172212466E+02  0.93102379757E+02 0.  0.
         11    1    3    3    0    0 -0.43028687082E+02 -0.15605939775E+02 -0.58905207625E+01  0.46148797421E+02  0.51100000000E-03 0.  1.
         22    1    1    0    0    0  0.58185343351E+01  0.37643442196E+01 -0.26951069178E+02  0.27827787534E+02  0.00000000000E+00 0. -1.
</event>
<event>
 5    1  0.1659417E-003  0.9118800E+02  0.7818608E-02  0.1130116E+00
         25   -1    0    0    0    0  0.00000000000E+00  0.00000000000E+00  0.99999998245E-14  0.12500000000E+03  0.12500000000E+03 0.  0.
        -11    1    3    3    0    0 -0.31603627000E+02  0.10727447169E+02  0.84833198644E+01  0.34435941667E+02  0.51100000000E-03 0.  1.
         23    2    1    0    0    0  0.25676175300E+02 -0.10368308916E+02  0.10171714247E+02  0.95500312230E+02  0.90829940314E+02 0.  0.
         11    1    3    3    0    0  0.57279802300E+02 -0.21095756085E+02  0.16883943829E+01  0.61064370563E+02  0.51100000000E-03 0. -1.
         22    1    1    0    0    0 -0.25676175300E+02  0.10368308916E+02 -0.10171714247E+02  0.29499687770E+02  0.00000000000E+00 0. -1.
</event>
<event>
 5    1  0.1659417E-003  0.9118800E+02  0.7818608E-02  0.1130116E+00
         25   -1    0    0    0    0  0.00000000000E+00  0.00000000000E+00  0.99999998245E-14  0.12500000000E+03  0.12500000000E+03 0.  0.
        -11    1    3    3    0    0  0.76451121917E+01 -0.23453990171E+02  0.48086894737E+02  0.54045229586E+02  0.51100000000E-03 0. -1.
         23    2    1    0    0    0  0.26851571914E+02 -0.17126732489E+02  0.27201803933E+02  0.83115993300E+02  0.71791352718E+02 0.  0.
         11    1    3    3    0    0  0.19206459722E+02  0.63272576816E+01 -0.20885090803E+02  0.29070763714E+02  0.51100000000E-03 0.  1.
         22    1    1    0    0    0 -0.26851571914E+02  0.17126732489E+02 -0.27201803933E+02  0.41884006700E+02  0.00000000000E+00 0. -1.
</event>
<event>
 5    1  0.1659417E-003  0.9118800E+02  0.7818608E-02  0.1130116E+00
         25   -1    0    0    0    0  0.00000000000E+00  0.00000000000E+00  0.99999998245E-14  0.12500000000E+03  0.12500000000E+03 0.  0.
        -11    1    3    3    0    0  0.45917560904E+01 -0.40794535082E+02  0.35193770868E+02  0.54072912117E+02  0.51100000000E-03 0.  1.
         23    2    1    0    0    0  0.24013217756E+02 -0.14455147796E+02  0.10500974571E+02  0.95069139810E+02  0.90234610613E+02 0.  0.
         11    1    3    3    0    0  0.19421461665E+02  0.26339387286E+02 -0.24692796298E+02  0.40996227693E+02  0.51100000000E-03 0. -1.
         22    1    1    0    0    0 -0.24013217756E+02  0.14455147796E+02 -0.10500974571E+02  0.29930860190E+02  0.00000000000E+00 0.  1.
</event>
<event>
 5    1  0.1659417E-003  0.9118800E+02  0.7818608E-02  0.1130116E+00
         25   -1    0    0    0    0  0.00000000000E+00  0.00000000000E+00  0.99999998245E-14  0.12500000000E+03  0.12500000000E+03 0.  0.
        -11    1    3    3    0    0 -0.21465881419E+02 -0.32118363142E+01 -0.35545868184E+02  0.41648633866E+02  0.51100000000E-03 0.  1.
         23    2    1    0    0    0  0.26638231457E+02 -0.34902647987E+01 -0.85735606333E+01  0.96799232892E+02  0.92600260383E+02 0.  0.
         11    1    3    3    0    0  0.48104112877E+02 -0.27842848457E+00  0.26972307551E+02  0.55150599027E+02  0.51100000000E-03 0. -1.
         22    1    1    0    0    0 -0.26638231457E+02  0.34902647987E+01  0.85735606333E+01  0.28200767108E+02  0.00000000000E+00 0. -1.
</event>
<event>
 5    1  0.1659417E-003  0.9118800E+02  0.7818608E-02  0.1130116E+00
         25   -1    0    0    0    0  0.00000000000E+00  0.00000000000E+00  0.99999998245E-14  0.12500000000E+03  0.12500000000E+03 0.  0.
        -11    1    3    3    0    0 -0.53989770073E+02 -0.57779103429E+01 -0.20051434209E+01  0.54335072659E+02  0.51100000000E-03 0. -1.
         23    2    1    0    0    0 -0.19269651838E+02 -0.97012698562E+01  0.19961834128E+02  0.95607672080E+02  0.90977568774E+02 0.  0.
         11    1    3    3    0    0  0.34720118235E+02 -0.39233595133E+01  0.21966977549E+02  0.41272599421E+02  0.51100000000E-03 0.  1.
         22    1    1    0    0    0  0.19269651838E+02  0.97012698562E+01 -0.19961834128E+02  0.29392327920E+02  0.00000000000E+00 0. -1.
</event>
<event>
 5    1  0.1659417E-003  0.9118800E+02  0.7818608E-02  0.1130116E+00
         25   -1    0    0    0    0  0.00000000000E+00  0.00000000000E+00  0.99999998245E-14  0.12500000000E+03  0.12500000000E+03 0.  0.
        -11    1    3    3    0    0 -0.38772146113E+02  0.32001417636E+01  0.20451903353E+02  0.43952253328E+02  0.51100000000E-03 0. -1.
         23    2    1    0    0    0 -0.15040372907E+02 -0.33776008189E+01 -0.24989980582E+02  0.95638117670E+02  0.91019390338E+02 0.  0.
         11    1    3    3    0    0  0.23731773207E+02 -0.65777425826E+01 -0.45441883935E+02  0.51685864343E+02  0.51100000000E-03 0.  1.
         22    1    1    0    0    0  0.15040372907E+02  0.33776008189E+01  0.24989980582E+02  0.29361882330E+02  0.00000000000E+00 0.  1.
</event>
<event>
 5    1  0.1659417E-003  0.9118800E+02  0.7818608E-02  0.1130116E+00
         25   -1    0    0    0    0  0.00000000000E+00  0.00000000000E+00  0.99999998245E-14  0.12500000000E+03  0.12500000000E+03 0.  0.
        -11    1    3    3    0    0 -0.40409920598E+01  0.34322262933E+02 -0.12681274916E+02  0.36812526176E+02  0.51100000000E-03 0.  1.
         23    2    1    0    0    0 -0.12595395206E+02 -0.10675459619E+02  0.24258539199E+02  0.95655730670E+02  0.91043575651E+02 0.  0.
         11    1    3    3    0    0 -0.85544031458E+01 -0.44997722552E+02  0.36939814115E+02  0.58843204494E+02  0.51100000000E-03 0. -1.
         22    1    1    0    0    0  0.12595395206E+02  0.10675459619E+02 -0.24258539199E+02  0.29344269330E+02  0.00000000000E+00 0. -1.
</event>
<event>
 5    1  0.1659417E-003  0.9118800E+02  0.7818608E-02  0.1130116E+00
         25   -1    0    0    0    0  0.00000000000E+00  0.00000000000E+00  0.99999998245E-14  0.12500000000E+03  0.12500000000E+03 0.  0.
        -11    1    3    3    0    0 -0.32003092019E+02  0.30280560260E+02 -0.13292971832E+02  0.46019705875E+02  0.51100000000E-03 0.  1.
         23    2    1    0    0    0  0.14421508924E+02  0.22188805939E+02 -0.17408894976E+02  0.93323626266E+02  0.87783293208E+02 0.  0.
         11    1    3    3    0    0  0.46424600943E+02 -0.80917543210E+01 -0.41159231442E+01  0.47303920391E+02  0.51100000000E-03 0. -1.
         22    1    1    0    0    0 -0.14421508924E+02 -0.22188805939E+02  0.17408894976E+02  0.31676373734E+02  0.00000000000E+00 0. -1.
</event>
<event>
 5    1  0.1659417E-003  0.9118800E+02  0.7818608E-02  0.1130116E+00
         25   -1    0    0    0    0  0.00000000000E+00  0.00000000000E+00  0.99999998245E-14  0.12500000000E+03  0.12500000000E+03 0.  0.
        -11    1    3    3    0    0 -0.39397668961E+02 -0.13247143259E+02  0.99868258182E+00  0.41577163098E+02  0.51100000000E-03 0. -1.
         23    2    1    0    0    0  0.11662207633E+02 -0.24657408740E+02 -0.11548126969E+02  0.95379835768E+02  0.90663989223E+02 0.  0.
         11    1    3    3    0    0  0.51059876595E+02 -0.11410265481E+02 -0.12546809551E+02  0.53802672670E+02  0.51100000000E-03 0.  1.
         22    1    1    0    0    0 -0.11662207633E+02  0.24657408740E+02  0.11548126969E+02  0.29620164232E+02  0.00000000000E+00 0.  1.
</event>
<event>
 5    1  0.1659417E-003  0.9118800E+02  0.7818608E-02  0.1130116E+00
         25   -1    0    0    0    0  0.00000000000E+00  0.00000000000E+00  0.99999998245E-14  0.12500000000E+03  0.12500000000E+03 0.  0.
        -11    1    3    3    0    0  0.27672155207E+02  0.41001994752E+02 -0.22006460000E+02  0.54140521141E+02  0.51100000000E-03 0.  1.
         23    2    1    0    0    0  0.94296717459E+01  0.61854334919E+01 -0.28837404243E+02  0.94035921131E+02  0.88791780491E+02 0.  0.
         11    1    3    3    0    0 -0.18242483461E+02 -0.34816561260E+02 -0.68309442436E+01  0.39895399990E+02  0.51100000000E-03 0. -1.
         22    1    1    0    0    0 -0.94296717459E+01 -0.61854334919E+01  0.28837404243E+02  0.30964078869E+02  0.00000000000E+00 0.  1.
</event>
<event>
 5    1  0.1659417E-003  0.9118800E+02  0.7818608E-02  0.1130116E+00
         25   -1    0    0    0    0  0.00000000000E+00  0.00000000000E+00  0.99999998245E-14  0.12500000000E+03  0.12500000000E+03 0.  0.
        -11    1    3    3    0    0  0.54545840087E+02  0.15827811272E+01 -0.66315428982E+00  0.54572828778E+02  0.51100000000E-03 0.  1.
         23    2    1    0    0    0  0.51440086200E+01  0.11783401123E+02  0.12877730544E+02  0.10680260154E+03  0.10524091593E+03 0.  0.
         11    1    3    3    0    0 -0.49401831467E+02  0.10200619996E+02  0.13540884833E+02  0.52229772764E+02  0.51100000000E-03 0. -1.
         22    1    1    0    0    0 -0.51440086200E+01 -0.11783401123E+02 -0.12877730544E+02  0.18197398459E+02  0.00000000000E+00 0.  1.
</event>
<event>
 5    1  0.1659417E-003  0.9118800E+02  0.7818608E-02  0.1130116E+00
         25   -1    0    0    0    0  0.00000000000E+00  0.00000000000E+00  0.99999998245E-14  0.12500000000E+03  0.12500000000E+03 0.  0.
        -11    1    3    3    0    0 -0.44878989057E+01  0.35930573958E+02  0.30954579026E+00  0.36211092229E+02  0.51100000000E-03 0.  1.
         23    2    1    0    0    0 -0.15586056115E+02 -0.17283522047E+02 -0.20073260946E+02  0.94265962117E+02  0.89115040983E+02 0.  0.
         11    1    3    3    0    0 -0.11098157210E+02 -0.53214096005E+02 -0.20382806736E+02  0.58054869889E+02  0.51100000000E-03 0. -1.
         22    1    1    0    0    0  0.15586056115E+02  0.17283522047E+02  0.20073260946E+02  0.30734037883E+02  0.00000000000E+00 0. -1.
</event>
<event>
 5    1  0.1659417E-003  0.9118800E+02  0.7818608E-02  0.1130116E+00
         25   -1    0    0    0    0  0.00000000000E+00  0.00000000000E+00  0.99999998245E-14  0.12500000000E+03  0.12500000000E+03 0.  0.
        -11    1    3    3    0    0 -0.27729913662E+00  0.93231039884E+01  0.17927394539E+02  0.20208627811E+02  0.51100000000E-03 0.  1.
         23    2    1    0    0    0 -0.94680027812E+01 -0.23845867436E+02 -0.33937863583E+02  0.82455352216E+02  0.70631707144E+02 0.  0.
         11    1    3    3    0    0 -0.91907036446E+01 -0.33168971424E+02 -0.51865258122E+02  0.62246724405E+02  0.51100000000E-03 0. -1.
         22    1    1    0    0    0  0.94680027812E+01  0.23845867436E+02  0.33937863583E+02  0.42544647784E+02  0.00000000000E+00 0. -1.
</event>
<event>
 5    1  0.1659417E-003  0.9118800E+02  0.7818608E-02  0.1130116E+00
         25   -1    0    0    0    0  0.00000000000E+00  0.00000000000E+00  0.99999998245E-14  0.12500000000E+03  0.12500000000E+03 0.  0.
        -11    1    3    3    0    0 -0.37133204684E+02  0.76079173971E+01 -0.44957733640E+02  0.58804363032E+02  0.51100000000E-03 0.  1.
         23    2    1    0    0    0 -0.50794189895E+01  0.96306750347E+01 -0.27638876320E+02  0.95293807327E+02  0.90545302648E+02 0.  0.
         11    1    3    3    0    0  0.32053785695E+02  0.20227576376E+01  0.17318857320E+02  0.36489444295E+02  0.51100000000E-03 0. -1.
         22    1    1    0    0    0  0.50794189895E+01 -0.96306750347E+01  0.27638876320E+02  0.29706192673E+02  0.00000000000E+00 0.  1.
</event>
<event>
 5    1  0.1659417E-003  0.9118800E+02  0.7818608E-02  0.1130116E+00
         25   -1    0    0    0    0  0.00000000000E+00  0.00000000000E+00  0.99999998245E-14  0.12500000000E+03  0.12500000000E+03 0.  0.
        -11    1    3    3    0    0 -0.26669966757E+02 -0.37013203999E+02  0.15059146654E+02  0.48042088789E+02  0.51100000000E-03 0.  1.
         23    2    1    0    0    0  0.15980860680E+02 -0.17907891386E+02  0.18194496046E+02  0.94881564311E+02  0.89974391233E+02 0.  0.
         11    1    3    3    0    0  0.42650827437E+02  0.19105312612E+02  0.31353493923E+01  0.46839475522E+02  0.51100000000E-03 0. -1.
         22    1    1    0    0    0 -0.15980860680E+02  0.17907891386E+02 -0.18194496046E+02  0.30118435689E+02  0.00000000000E+00 0.  1.
</event>
<event>
 5    1  0.1659417E-003  0.9118800E+02  0.7818608E-02  0.1130116E+00
         25   -1    0    0    0    0  0.00000000000E+00  0.00000000000E+00  0.99999998245E-14  0.12500000000E+03  0.12500000000E+03 0.  0.
        -11    1    3    3    0    0 -0.38004271600E+02 -0.21450929917E+02 -0.78433550744E+01  0.44339432487E+02  0.51100000000E-03 0.  1.
         23    2    1    0    0    0 -0.18402521998E+02  0.24140454420E+02 -0.63476297977E+01  0.93988602748E+02  0.88725141234E+02 0.  0.
         11    1    3    3    0    0  0.19601749603E+02  0.45591384337E+02  0.14957252767E+01  0.49649170261E+02  0.51100000000E-03 0. -1.
         22    1    1    0    0    0  0.18402521998E+02 -0.24140454420E+02  0.63476297977E+01  0.31011397252E+02  0.00000000000E+00 0. -1.
</event>
<event>
 5    1  0.1659417E-003  0.9118800E+02  0.7818608E-02  0.1130116E+00
         25   -1    0    0    0    0  0.00000000000E+00  0.00000000000E+00  0.99999998245E-14  0.12500000000E+03  0.12500000000E+03 0.  0.
        -11    1    3    3    0    0  0.22789995997E+02  0.19434876921E+02  0.54157998757E+02  0.61888506107E+02  0.51100000000E-03 0.  1.
         23    2    1    0    0    0  0.15782345624E+02  0.56559606289E+01  0.24850378037E+02  0.95023115362E+02  0.90170831428E+02 0.  0.
         11    1    3    3    0    0 -0.70076503732E+01 -0.13778916292E+02 -0.29307620720E+02  0.33134609255E+02  0.51100000000E-03 0. -1.
         22    1    1    0    0    0 -0.15782345624E+02 -0.56559606289E+01 -0.24850378037E+02  0.29976884638E+02  0.00000000000E+00 0.  1.
</event>
<event>
 5    1  0.1659417E-003  0.9118800E+02  0.7818608E-02  0.1130116E+00
         25   -1    0    0    0    0  0.00000000000E+00  0.00000000000E+00  0.99999998245E-14  0.12500000000E+03  0.12500000000E+03 0.  0.
        -11    1    3    3    0    0 -0.12582473433E+02 -0.39788583909E+02 -0.29803271923E+02  0.51280454997E+02  0.51100000000E-03 0.  1.
         23    2    1    0    0    0 -0.39429569841E+01 -0.27193969359E+02  0.11420750691E+02  0.95242775237E+02  0.90474824173E+02 0.  0.
         11    1    3    3    0    0  0.86395164486E+01  0.12594614550E+02  0.41224022613E+02  0.43962320239E+02  0.51100000000E-03 0. -1.
         22    1    1    0    0    0  0.39429569841E+01  0.27193969359E+02 -0.11420750691E+02  0.29757224763E+02  0.00000000000E+00 0. -1.
</event>
<event>
 5    1  0.1659417E-003  0.9118800E+02  0.7818608E-02  0.1130116E+00
         25   -1    0    0    0    0  0.00000000000E+00  0.00000000000E+00  0.99999998245E-14  0.12500000000E+03  0.12500000000E+03 0.  0.
        -11    1    3    3    0    0  0.38027082699E+02 -0.72415709158E+01  0.18393867910E+01  0.38754131547E+02  0.51100000000E-03 0.  1.
         23    2    1    0    0    0 -0.61030468222E+01  0.17387213782E+02 -0.23377026980E+02  0.95233445379E+02  0.90461933125E+02 0.  0.
         11    1    3    3    0    0 -0.44130129521E+02  0.24628784698E+02 -0.25216413771E+02  0.56479313832E+02  0.51100000000E-03 0. -1.
         22    1    1    0    0    0  0.61030468222E+01 -0.17387213782E+02  0.23377026980E+02  0.29766554621E+02  0.00000000000E+00 0. -1.
</event>
<event>
 5    1  0.1659417E-003  0.9118800E+02  0.7818608E-02  0.1130116E+00
         25   -1    0    0    0    0  0.00000000000E+00  0.00000000000E+00  0.99999998245E-14  0.12500000000E+03  0.12500000000E+03 0.  0.
        -11    1    3    3    0    0  0.21349325445E+02 -0.81497538126E+01  0.28627298832E+02  0.36629693185E+02  0.51100000000E-03 0.  1.
         23    2    1    0    0    0 -0.16745686549E+02  0.23031682401E+02 -0.47824977668E+01  0.96125293125E+02  0.91686003737E+02 0.  0.
         11    1    3    3    0    0 -0.38095011994E+02  0.31181436213E+02 -0.33409796599E+02  0.59495599940E+02  0.51100000000E-03 0. -1.
         22    1    1    0    0    0  0.16745686549E+02 -0.23031682401E+02  0.47824977668E+01  0.28874706875E+02  0.00000000000E+00 0. -1.
</event>
<event>
 5    1  0.1659417E-003  0.9118800E+02  0.7818608E-02  0.1130116E+00
         25   -1    0    0    0    0  0.00000000000E+00  0.00000000000E+00  0.99999998245E-14  0.12500000000E+03  0.12500000000E+03 0.  0.
        -11    1    3    3    0    0 -0.56007090006E+01  0.98000821445E+00 -0.35893806266E+02  0.36341349534E+02  0.51100000000E-03 0.  1.
         23    2    1    0    0    0 -0.58808312783E+01  0.22968272782E+02  0.18444949881E+02  0.94960993571E+02  0.90084673463E+02 0.  0.
         11    1    3    3    0    0 -0.28012227770E+00  0.21988264568E+02  0.54338756147E+02  0.58619644037E+02  0.51100000000E-03 0. -1.
         22    1    1    0    0    0  0.58808312783E+01 -0.22968272782E+02 -0.18444949881E+02  0.30039006429E+02  0.00000000000E+00 0. -1.
</event>
<event>
 5    1  0.1659417E-003  0.9118800E+02  0.7818608E-02  0.1130116E+00
         25   -1    0    0    0    0  0.00000000000E+00  0.00000000000E+00  0.99999998245E-14  0.12500000000E+03  0.12500000000E+03 0.  0.
        -11    1    3    3    0    0  0.49208101065E+02  0.48777808699E+01 -0.12401883239E+02  0.50980747982E+02  0.51100000000E-03 0.  1.
         23    2    1    0    0    0  0.14976284936E+02  0.23108464835E+02  0.99214593324E+01  0.95730124482E+02  0.91145658814E+02 0.  0.
         11    1    3    3    0    0 -0.34231816129E+02  0.18230683965E+02  0.22323342571E+02  0.44749376500E+02  0.51100000000E-03 0. -1.
         22    1    1    0    0    0 -0.14976284936E+02 -0.23108464835E+02 -0.99214593324E+01  0.29269875518E+02  0.00000000000E+00 0. -1.
</event>
<event>
 5    1  0.1659417E-003  0.9118800E+02  0.7818608E-02  0.1130116E+00
         25   -1    0    0    0    0  0.00000000000E+00  0.00000000000E+00  0.99999998245E-14  0.12500000000E+03  0.12500000000E+03 0.  0.
        -11    1    3    3    0    0  0.42959360858E+02  0.11247836517E+02  0.36392078302E+02  0.57414317683E+02  0.51100000000E-03 0. -1.
         23    2    1    0    0    0  0.14369425173E+02  0.21806486049E+02  0.13035631261E+02  0.95812144718E+02  0.91258074599E+02 0.  0.
         11    1    3    3    0    0 -0.28589935685E+02  0.10558649532E+02 -0.23356447040E+02  0.38397827035E+02  0.51100000000E-03 0.  1.
         22    1    1    0    0    0 -0.14369425173E+02 -0.21806486049E+02 -0.13035631261E+02  0.29187855282E+02  0.00000000000E+00 0. -1.
</event>
<event>
 5    1  0.1659417E-003  0.9118800E+02  0.7818608E-02  0.1130116E+00
         25   -1    0    0    0    0  0.00000000000E+00  0.00000000000E+00  0.99999998245E-14  0.12500000000E+03  0.12500000000E+03 0.  0.
        -11    1    3    3    0    0  0.45376912010E+02 -0.13233368767E+02  0.35776256936E+02  0.59280070455E+02  0.51100000000E-03 0.  1.
         23    2    1    0    0    0  0.32104131261E+02 -0.50141632587E+00  0.91998686160E+01  0.91599936454E+02  0.85293517417E+02 0.  0.
         11    1    3    3    0    0 -0.13272780749E+02  0.12731952441E+02 -0.26576388320E+02  0.32319865999E+02  0.51100000000E-03 0. -1.
         22    1    1    0    0    0 -0.32104131261E+02  0.50141632587E+00 -0.91998686160E+01  0.33400063546E+02  0.00000000000E+00 0.  1.
</event>
<event>
 5    1  0.1659417E-003  0.9118800E+02  0.7818608E-02  0.1130116E+00
         25   -1    0    0    0    0  0.00000000000E+00  0.00000000000E+00  0.99999998245E-14  0.12500000000E+03  0.12500000000E+03 0.  0.
        -11    1    3    3    0    0  0.29377077024E+02  0.25562809597E+02 -0.14395776142E-01  0.38941881009E+02  0.51100000000E-03 0.  1.
         23    2    1    0    0    0 -0.15934563754E+02  0.71926110692E+01  0.25492186285E+02  0.94088909149E+02  0.88866345076E+02 0.  0.
         11    1    3    3    0    0 -0.45311640778E+02 -0.18370198528E+02  0.25506582061E+02  0.55147028140E+02  0.51100000000E-03 0. -1.
         22    1    1    0    0    0  0.15934563754E+02 -0.71926110692E+01 -0.25492186285E+02  0.30911090851E+02  0.00000000000E+00 0. -1.
</event>
<event>
 5    1  0.1659417E-003  0.9118800E+02  0.7818608E-02  0.1130116E+00
         25   -1    0    0    0    0  0.00000000000E+00  0.00000000000E+00  0.99999998245E-14  0.12500000000E+03  0.12500000000E+03 0.  0.
        -11    1    3    3    0    0 -0.19988218658E+02  0.46181991296E+02  0.15791439845E+02  0.52741584900E+02  0.51100000000E-03 0.  1.
         23    2    1    0    0    0  0.12904243393E+02  0.25393648571E+02 -0.37257069049E+01  0.96273047895E+02  0.91887224215E+02 0.  0.
         11    1    3    3    0    0  0.32892462050E+02 -0.20788342725E+02 -0.19517146750E+02  0.43531462995E+02  0.51100000000E-03 0. -1.
         22    1    1    0    0    0 -0.12904243393E+02 -0.25393648571E+02  0.37257069049E+01  0.28726952105E+02  0.00000000000E+00 0.  1.
</event>
<event>
 5    1  0.1659417E-003  0.9118800E+02  0.7818608E-02  0.1130116E+00
         25   -1    0    0    0    0  0.00000000000E+00  0.00000000000E+00  0.99999998245E-14  0.12500000000E+03  0.12500000000E+03 0.  0.
        -11    1    3    3    0    0 -0.31489800478E+02  0.45019933238E+02 -0.57045770755E+01  0.55235352110E+02  0.51100000000E-03 0.  1.
         23    2    1    0    0    0 -0.14276289399E+02  0.97728833726E+01 -0.21397012827E+02  0.97483571338E+02  0.93519478370E+02 0.  0.
         11    1    3    3    0    0  0.17213511080E+02 -0.35247049865E+02 -0.15692435751E+02  0.42248219228E+02  0.51100000000E-03 0. -1.
         22    1    1    0    0    0  0.14276289399E+02 -0.97728833726E+01  0.21397012827E+02  0.27516428662E+02  0.00000000000E+00 0.  1.
</event>
<event>
 5    1  0.1659417E-003  0.9118800E+02  0.7818608E-02  0.1130116E+00
         25   -1    0    0    0    0  0.00000000000E+00  0.00000000000E+00  0.99999998245E-14  0.12500000000E+03  0.12500000000E+03 0.  0.
        -11    1    3    3    0    0  0.34294686689E+02  0.16232460661E+02 -0.47458033946E+02  0.60760869813E+02  0.51100000000E-03 0.  1.
         23    2    1    0    0    0  0.90530165694E+01  0.31521206473E+01 -0.28498345798E+02  0.94932597604E+02  0.90045263068E+02 0.  0.
         11    1    3    3    0    0 -0.25241670119E+02 -0.13080340014E+02  0.18959688148E+02  0.34171727791E+02  0.51100000000E-03 0. -1.
         22    1    1    0    0    0 -0.90530165694E+01 -0.31521206473E+01  0.28498345798E+02  0.30067402396E+02  0.00000000000E+00 0.  1.
</event>
<event>
 5    1  0.1659417E-003  0.9118800E+02  0.7818608E-02  0.1130116E+00
         25   -1    0    0    0    0  0.00000000000E+00  0.00000000000E+00  0.99999998245E-14  0.12500000000E+03  0.12500000000E+03 0.  0.
        -11    1    3    3    0    0  0.99854893513E+01 -0.53422054374E+02 -0.19509689894E+02  0.57742998633E+02  0.51100000000E-03 0. -1.
         23    2    1    0    0    0  0.17898465221E+02 -0.16533088404E+02 -0.16462583996E+02  0.95593967604E+02  0.90958737354E+02 0.  0.
         11    1    3    3    0    0  0.79129758693E+01  0.36888965970E+02  0.30471058973E+01  0.37850968971E+02  0.51100000000E-03 0.  1.
         22    1    1    0    0    0 -0.17898465221E+02  0.16533088404E+02  0.16462583996E+02  0.29406032396E+02  0.00000000000E+00 0. -1.
</event>
<event>
 5    1  0.1659417E-003  0.9118800E+02  0.7818608E-02  0.1130116E+00
         25   -1    0    0    0    0  0.00000000000E+00  0.00000000000E+00  0.99999998245E-14  0.12500000000E+03  0.12500000000E+03 0.  0.
        -11    1    3    3    0    0 -0.28653124640E+02  0.13499109461E+02 -0.42820740876E+02  0.53262025471E+02  0.51100000000E-03 0.  1.
         23    2    1    0    0    0 -0.18240733918E+02 -0.16790300618E+02 -0.13083189212E+02  0.96967725589E+02  0.92827428044E+02 0.  0.
         11    1    3    3    0    0  0.10412390722E+02 -0.30289410080E+02  0.29737551664E+02  0.43705700117E+02  0.51100000000E-03 0. -1.
         22    1    1    0    0    0  0.18240733918E+02  0.16790300618E+02  0.13083189212E+02  0.28032274411E+02  0.00000000000E+00 0.  1.
</event>
<event>
 5    1  0.1659417E-003  0.9118800E+02  0.7818608E-02  0.1130116E+00
         25   -1    0    0    0    0  0.00000000000E+00  0.00000000000E+00  0.99999998245E-14  0.12500000000E+03  0.12500000000E+03 0.  0.
        -11    1    3    3    0    0 -0.44977249335E+02 -0.42959691030E+01  0.11014185489E+02  0.46505059838E+02  0.51100000000E-03 0.  1.
         23    2    1    0    0    0  0.58869455809E-01  0.41674100115E+01  0.28977295375E+02  0.95724508218E+02  0.91137956168E+02 0.  0.
         11    1    3    3    0    0  0.45036118791E+02  0.84633791145E+01  0.17963109886E+02  0.49219448380E+02  0.51100000000E-03 0. -1.
         22    1    1    0    0    0 -0.58869455809E-01 -0.41674100115E+01 -0.28977295375E+02  0.29275491782E+02  0.00000000000E+00 0. -1.
</event>
<event>
 5    1  0.1659417E-003  0.9118800E+02  0.7818608E-02  0.1130116E+00
         25   -1    0    0    0    0  0.00000000000E+00  0.00000000000E+00  0.99999998245E-14  0.12500000000E+03  0.12500000000E+03 0.  0.
        -11    1    3    3    0    0  0.20678824906E+02 -0.33759137820E+02 -0.28592232438E+02  0.48834505648E+02  0.51100000000E-03 0.  1.
         23    2    1    0    0    0  0.22040799559E+02  0.11322632043E+02 -0.15395076441E+02  0.95827971956E+02  0.91279751254E+02 0.  0.
         11    1    3    3    0    0  0.13619746523E+01  0.45081769863E+02  0.13197155997E+02  0.46993466308E+02  0.51100000000E-03 0. -1.
         22    1    1    0    0    0 -0.22040799559E+02 -0.11322632043E+02  0.15395076441E+02  0.29172028044E+02  0.00000000000E+00 0. -1.
</event>
<event>
 5    1  0.1659417E-003  0.9118800E+02  0.7818608E-02  0.1130116E+00
         25   -1    0    0    0    0  0.00000000000E+00  0.00000000000E+00  0.99999998245E-14  0.12500000000E+03  0.12500000000E+03 0.  0.
        -11    1    3    3    0    0 -0.60670698096E+01 -0.23633889229E+02 -0.37078510349E+02  0.44386777154E+02  0.51100000000E-03 0.  1.
         23    2    1    0    0    0  0.26699743967E+02 -0.11458403248E+02  0.80591999192E+00  0.95934198103E+02  0.91425103367E+02 0.  0.
         11    1    3    3    0    0  0.32766813776E+02  0.12175485981E+02  0.37884430341E+02  0.51547420949E+02  0.51100000000E-03 0. -1.
         22    1    1    0    0    0 -0.26699743967E+02  0.11458403248E+02 -0.80591999192E+00  0.29065801897E+02  0.00000000000E+00 0.  1.
</event>
<event>
 5    1  0.1659417E-003  0.9118800E+02  0.7818608E-02  0.1130116E+00
         25   -1    0    0    0    0  0.00000000000E+00  0.00000000000E+00  0.99999998245E-14  0.12500000000E+03  0.12500000000E+03 0.  0.
        -11    1    3    3    0    0 -0.31883293179E+02 -0.11346501969E+02  0.15514867710E+02  0.37229002286E+02  0.51100000000E-03 0. -1.
         23    2    1    0    0    0  0.54507119021E+01  0.25228541054E+02 -0.12271567671E+02  0.96420620772E+02  0.92087758106E+02 0.  0.
         11    1    3    3    0    0  0.37334005082E+02  0.36575043022E+02 -0.27786435382E+02  0.59191618486E+02  0.51100000000E-03 0.  1.
         22    1    1    0    0    0 -0.54507119021E+01 -0.25228541054E+02  0.12271567671E+02  0.28579379228E+02  0.00000000000E+00 0.  1.
</event>
<event>
 5    1  0.1659417E-003  0.9118800E+02  0.7818608E-02  0.1130116E+00
         25   -1    0    0    0    0  0.00000000000E+00  0.00000000000E+00  0.99999998245E-14  0.12500000000E+03  0.12500000000E+03 0.  0.
        -11    1    3    3    0    0  0.48167298074E+02  0.43785221796E+00 -0.91768547434E+00  0.48178028863E+02  0.51100000000E-03 0. -1.
         23    2    1    0    0    0  0.77992723272E+01  0.26089590901E+02  0.75312561875E+01  0.96747297085E+02  0.92530126290E+02 0.  0.
         11    1    3    3    0    0 -0.40368025746E+02  0.25651738683E+02  0.84489416618E+01  0.48569268222E+02  0.51100000000E-03 0.  1.
         22    1    1    0    0    0 -0.77992723272E+01 -0.26089590901E+02 -0.75312561875E+01  0.28252702915E+02  0.00000000000E+00 0.  1.
</event>
<event>
 5    1  0.1659417E-003  0.9118800E+02  0.7818608E-02  0.1130116E+00
         25   -1    0    0    0    0  0.00000000000E+00  0.00000000000E+00  0.99999998245E-14  0.12500000000E+03  0.12500000000E+03 0.  0.
        -11    1    3    3    0    0  0.65144280087E+01  0.31481149784E+02 -0.20659658611E+02  0.38214160441E+02  0.51100000000E-03 0.  1.
         23    2    1    0    0    0  0.48697788948E+01 -0.48293283919E+00  0.28065400263E+02  0.96511148452E+02  0.92210558577E+02 0.  0.
         11    1    3    3    0    0 -0.16446491140E+01 -0.31964082624E+02  0.48725058874E+02  0.58296988011E+02  0.51100000000E-03 0. -1.
         22    1    1    0    0    0 -0.48697788948E+01  0.48293283919E+00 -0.28065400263E+02  0.28488851548E+02  0.00000000000E+00 0. -1.
</event>
<event>
 5    1  0.1659417E-003  0.9118800E+02  0.7818608E-02  0.1130116E+00
         25   -1    0    0    0    0  0.00000000000E+00  0.00000000000E+00  0.99999998245E-14  0.12500000000E+03  0.12500000000E+03 0.  0.
        -11    1    3    3    0    0  0.15639251865E+02  0.37159281106E+02  0.30478793135E+02  0.50540629225E+02  0.51100000000E-03 0.  1.
         23    2    1    0    0    0 -0.18265169442E+02  0.90090495472E+01  0.21254216377E+02  0.95563269504E+02  0.90916540717E+02 0.  0.
         11    1    3    3    0    0 -0.33904421307E+02 -0.28150231559E+02 -0.92245767575E+01  0.45022640278E+02  0.51100000000E-03 0. -1.
         22    1    1    0    0    0  0.18265169442E+02 -0.90090495472E+01 -0.21254216377E+02  0.29436730496E+02  0.00000000000E+00 0.  1.
</event>
<event>
 5    1  0.1659417E-003  0.9118800E+02  0.7818608E-02  0.1130116E+00
         25   -1    0    0    0    0  0.00000000000E+00  0.00000000000E+00  0.99999998245E-14  0.12500000000E+03  0.12500000000E+03 0.  0.
        -11    1    3    3    0    0 -0.31827173866E+02  0.15400058946E+02 -0.76590200218E+01  0.36177222113E+02  0.51100000000E-03 0. -1.
         23    2    1    0    0    0  0.26335951967E+02  0.88908814960E-01 -0.11100100929E+02  0.96420242979E+02  0.92087245288E+02 0.  0.
         11    1    3    3    0    0  0.58163125833E+02 -0.15311150131E+02 -0.34410809071E+01  0.60243020866E+02  0.51100000000E-03 0.  1.
         22    1    1    0    0    0 -0.26335951967E+02 -0.88908814960E-01  0.11100100929E+02  0.28579757021E+02  0.00000000000E+00 0.  1.
</event>
<event>
 5    1  0.1659417E-003  0.9118800E+02  0.7818608E-02  0.1130116E+00
         25   -1    0    0    0    0  0.00000000000E+00  0.00000000000E+00  0.99999998245E-14  0.12500000000E+03  0.12500000000E+03 0.  0.
        -11    1    3    3    0    0  0.25679112563E+02 -0.24232698838E+02 -0.12839793236E+01  0.35331135252E+02  0.51100000000E-03 0.  1.
         23    2    1    0    0    0 -0.12317806386E+02  0.21178235491E+02  0.14396919992E+02  0.96583150809E+02  0.92308112874E+02 0.  0.
         11    1    3    3    0    0 -0.37996918949E+02  0.45410934329E+02  0.15680899315E+02  0.61252015558E+02  0.51100000000E-03 0. -1.
         22    1    1    0    0    0  0.12317806386E+02 -0.21178235491E+02 -0.14396919992E+02  0.28416849191E+02  0.00000000000E+00 0. -1.
</event>
<event>
 5    1  0.1659417E-003  0.9118800E+02  0.7818608E-02  0.1130116E+00
         25   -1    0    0    0    0  0.00000000000E+00  0.00000000000E+00  0.99999998245E-14  0.12500000000E+03  0.12500000000E+03 0.  0.
        -11    1    3    3    0    0  0.71776182993E+01 -0.22569497713E+02 -0.23961095716E+02  0.33690273666E+02  0.51100000000E-03 0. -1.
         23    2    1    0    0    0 -0.19757798973E+02 -0.13444029953E+02  0.25065165864E+02  0.90368004657E+02  0.83468563928E+02 0.  0.
         11    1    3    3    0    0 -0.26935417272E+02  0.91254677603E+01  0.49026261581E+02  0.56677730991E+02  0.51100000000E-03 0.  1.
         22    1    1    0    0    0  0.19757798973E+02  0.13444029953E+02 -0.25065165864E+02  0.34631995343E+02  0.00000000000E+00 0.  1.
</event>
<event>
 5    1  0.1659417E-003  0.9118800E+02  0.7818608E-02  0.1130116E+00
         25   -1    0    0    0    0  0.00000000000E+00  0.00000000000E+00  0.99999998245E-14  0.12500000000E+03  0.12500000000E+03 0.  0.
        -11    1    3    3    0    0 -0.28557993247E+02  0.81636709879E+01 -0.14868103826E+02  0.33215433370E+02  0.51100000000E-03 0. -1.
         23    2    1    0    0    0  0.24225122335E+02 -0.10643304949E+02  0.12684482832E+02  0.95656643050E+02  0.91044828313E+02 0.  0.
         11    1    3    3    0    0  0.52783115583E+02 -0.18806975937E+02  0.27552586658E+02  0.62441209680E+02  0.51100000000E-03 0.  1.
         22    1    1    0    0    0 -0.24225122335E+02  0.10643304949E+02 -0.12684482832E+02  0.29343356950E+02  0.00000000000E+00 0.  1.
</event>
<event>
 5    1  0.1659417E-003  0.9118800E+02  0.7818608E-02  0.1130116E+00
         25   -1    0    0    0    0  0.00000000000E+00  0.00000000000E+00  0.99999998245E-14  0.12500000000E+03  0.12500000000E+03 0.  0.
        -11    1    3    3    0    0  0.11245398495E+00  0.55270414144E+02  0.13377820109E+02  0.56866487465E+02  0.51100000000E-03 0.  1.
         23    2    1    0    0    0 -0.13684920739E+02  0.19040181956E+02  0.17340071520E+02  0.95836946921E+02  0.91292040892E+02 0.  0.
         11    1    3    3    0    0 -0.13797374724E+02 -0.36230232188E+02  0.39622514117E+01  0.38970459456E+02  0.51100000000E-03 0. -1.
         22    1    1    0    0    0  0.13684920739E+02 -0.19040181956E+02 -0.17340071520E+02  0.29163053079E+02  0.00000000000E+00 0.  1.
</event>
<event>
 5    1  0.1659417E-003  0.9118800E+02  0.7818608E-02  0.1130116E+00
         25   -1    0    0    0    0  0.00000000000E+00  0.00000000000E+00  0.99999998245E-14  0.12500000000E+03  0.12500000000E+03 0.  0.
        -11    1    3    3    0    0 -0.60073774259E+02 -0.10233672221E+02  0.13540303252E+02  0.62425365143E+02  0.51100000000E-03 0.  1.
         23    2    1    0    0    0 -0.28493848465E+02 -0.34308806371E+01  0.80481585990E+01  0.95193235682E+02  0.90406354425E+02 0.  0.
         11    1    3    3    0    0  0.31579925794E+02  0.68027915834E+01 -0.54921446531E+01  0.32767870539E+02  0.51100000000E-03 0. -1.
         22    1    1    0    0    0  0.28493848465E+02  0.34308806371E+01 -0.80481585990E+01  0.29806764318E+02  0.00000000000E+00 0.  1.
</event>
<event>
 5    1  0.1659417E-003  0.9118800E+02  0.7818608E-02  0.1130116E+00
         25   -1    0    0    0    0  0.00000000000E+00  0.00000000000E+00  0.99999998245E-14  0.12500000000E+03  0.12500000000E+03 0.  0.
        -11    1    3    3    0    0  0.31566754588E+02  0.11721813757E+02  0.39458238440E+02  0.51873051713E+02  0.51100000000E-03 0.  1.
         23    2    1    0    0    0  0.11483058596E+02 -0.20173413371E+02  0.20342814304E+02  0.94134852413E+02  0.88930945702E+02 0.  0.
         11    1    3    3    0    0 -0.20083695992E+02 -0.31895227128E+02 -0.19115424136E+02  0.42261800700E+02  0.51100000000E-03 0. -1.
         22    1    1    0    0    0 -0.11483058596E+02  0.20173413371E+02 -0.20342814304E+02  0.30865147587E+02  0.00000000000E+00 0.  1.
</event>
<event>
 5    1  0.1659417E-003  0.9118800E+02  0.7818608E-02  0.1130116E+00
         25   -1    0    0    0    0  0.00000000000E+00  0.00000000000E+00  0.99999998245E-14  0.12500000000E+03  0.12500000000E+03 0.  0.
        -11    1    3    3    0    0 -0.31098721076E+02 -0.10251678717E+02  0.14080424818E+02  0.35643873701E+02  0.51100000000E-03 0.  1.
         23    2    1    0    0    0  0.25155738180E+02 -0.12455454566E+02 -0.75144863515E+01  0.95941145636E+02  0.91434601815E+02 0.  0.
         11    1    3    3    0    0  0.56254459256E+02 -0.22037758492E+01 -0.21594911170E+02  0.60297271935E+02  0.51100000000E-03 0. -1.
         22    1    1    0    0    0 -0.25155738180E+02  0.12455454566E+02  0.75144863515E+01  0.29058854364E+02  0.00000000000E+00 0. -1.
</event>
<event>
 5    1  0.1659417E-003  0.9118800E+02  0.7818608E-02  0.1130116E+00
         25   -1    0    0    0    0  0.00000000000E+00  0.00000000000E+00  0.99999998245E-14  0.12500000000E+03  0.12500000000E+03 0.  0.
        -11    1    3    3    0    0  0.38415401492E+01 -0.15374945690E+02 -0.57366350838E+02  0.59515078715E+02  0.51100000000E-03 0.  1.
         23    2    1    0    0    0 -0.10488152061E+02 -0.13479625160E+01 -0.27955978567E+02  0.95110953942E+02  0.90292516221E+02 0.  0.
         11    1    3    3    0    0 -0.14329692210E+02  0.14026983174E+02  0.29410372272E+02  0.35595875227E+02  0.51100000000E-03 0. -1.
         22    1    1    0    0    0  0.10488152061E+02  0.13479625160E+01  0.27955978567E+02  0.29889046058E+02  0.00000000000E+00 0.  1.
</event>
<event>
 5    1  0.1659417E-003  0.9118800E+02  0.7818608E-02  0.1130116E+00
         25   -1    0    0    0    0  0.00000000000E+00  0.00000000000E+00  0.99999998245E-14  0.12500000000E+03  0.12500000000E+03 0.  0.
        -11    1    3    3    0    0 -0.26861353367E+02 -0.38015628371E+02 -0.32642750280E+02  0.56853051380E+02  0.51100000000E-03 0.  1.
         23    2    1    0    0    0 -0.32901554577E+02 -0.19551870697E+02 -0.29815866118E+02  0.76484293124E+02  0.59127601685E+02 0.  0.
         11    1    3    3    0    0 -0.60402012100E+01  0.18463757674E+02  0.28268841616E+01  0.19631241744E+02  0.51100000000E-03 0. -1.
         22    1    1    0    0    0  0.32901554577E+02  0.19551870697E+02  0.29815866118E+02  0.48515706876E+02  0.00000000000E+00 0.  1.
</event>
<event>
 5    1  0.1659417E-003  0.9118800E+02  0.7818608E-02  0.1130116E+00
         25   -1    0    0    0    0  0.00000000000E+00  0.00000000000E+00  0.99999998245E-14  0.12500000000E+03  0.12500000000E+03 0.  0.
        -11    1    3    3    0    0  0.15042139429E+02  0.29329006991E+02  0.57013370711E+01  0.33450887198E+02  0.51100000000E-03 0. -1.
         23    2    1    0    0    0  0.24333498210E+02 -0.25453386230E+02  0.72962237061E+01  0.89038508289E+02  0.81453220147E+02 0.  0.
         11    1    3    3    0    0  0.92913587813E+01 -0.54782393220E+02  0.15948866350E+01  0.55587621091E+02  0.51100000000E-03 0.  1.
         22    1    1    0    0    0 -0.24333498210E+02  0.25453386230E+02 -0.72962237061E+01  0.35961491711E+02  0.00000000000E+00 0. -1.
</event>
<event>
 5    1  0.1659417E-003  0.9118800E+02  0.7818608E-02  0.1130116E+00
         25   -1    0    0    0    0  0.00000000000E+00  0.00000000000E+00  0.99999998245E-14  0.12500000000E+03  0.12500000000E+03 0.  0.
        -11    1    3    3    0    0  0.14380759433E+02  0.31439372410E+02  0.36678268215E+02  0.50403727431E+02  0.51100000000E-03 0.  1.
         23    2    1    0    0    0  0.50118407322E+01  0.27496664887E+02 -0.77626990121E+01  0.95992335092E+02  0.91504556024E+02 0.  0.
         11    1    3    3    0    0 -0.93689187012E+01 -0.39427075228E+01 -0.44440967227E+02  0.45588607662E+02  0.51100000000E-03 0. -1.
         22    1    1    0    0    0 -0.50118407322E+01 -0.27496664887E+02  0.77626990121E+01  0.29007664908E+02  0.00000000000E+00 0.  1.
</event>
<event>
 5    1  0.1659417E-003  0.9118800E+02  0.7818608E-02  0.1130116E+00
         25   -1    0    0    0    0  0.00000000000E+00  0.00000000000E+00  0.99999998245E-14  0.12500000000E+03  0.12500000000E+03 0.  0.
        -11    1    3    3    0    0 -0.13508095524E+02 -0.46471031729E+01  0.36433747447E+02  0.39134156000E+02  0.51100000000E-03 0. -1.
         23    2    1    0    0    0 -0.18631084716E+02  0.11580542666E+02 -0.18287460276E+02  0.96440282048E+02  0.92114442473E+02 0.  0.
         11    1    3    3    0    0 -0.51229891921E+01  0.16227645839E+02 -0.54721207723E+02  0.57306126048E+02  0.51100000000E-03 0.  1.
         22    1    1    0    0    0  0.18631084716E+02 -0.11580542666E+02  0.18287460276E+02  0.28559717952E+02  0.00000000000E+00 0.  1.
</event>
<event>
 5    1  0.1659417E-003  0.9118800E+02  0.7818608E-02  0.1130116E+00
         25   -1    0    0    0    0  0.00000000000E+00  0.00000000000E+00  0.99999998245E-14  0.12500000000E+03  0.12500000000E+03 0.  0.
        -11    1    3    3    0    0 -0.29612712673E+02  0.31991606656E+02 -0.36464642782E+02  0.56833492078E+02  0.51100000000E-03 0. -1.
         23    2    1    0    0    0  0.24859968048E+01  0.23045976352E+02 -0.21584287010E+02  0.93327004375E+02  0.87788103373E+02 0.  0.
         11    1    3    3    0    0  0.32098709478E+02 -0.89456303044E+01  0.14880355772E+02  0.36493512298E+02  0.51100000000E-03 0.  1.
         22    1    1    0    0    0 -0.24859968048E+01 -0.23045976352E+02  0.21584287010E+02  0.31672995625E+02  0.00000000000E+00 0. -1.
</event>
<event>
 5    1  0.1659417E-003  0.9118800E+02  0.7818608E-02  0.1130116E+00
         25   -1    0    0    0    0  0.00000000000E+00  0.00000000000E+00  0.99999998245E-14  0.12500000000E+03  0.12500000000E+03 0.  0.
        -11    1    3    3    0    0  0.13889801701E+02  0.17013897285E+02  0.28983220325E+02  0.36365180499E+02  0.51100000000E-03 0. -1.
         23    2    1    0    0    0 -0.14895097517E+02 -0.27142492731E+02  0.87369764804E+01  0.92829926955E+02  0.87077446786E+02 0.  0.
         11    1    3    3    0    0 -0.28784899218E+02 -0.44156390016E+02 -0.20246243844E+02  0.56464746456E+02  0.51100000000E-03 0.  1.
         22    1    1    0    0    0  0.14895097517E+02  0.27142492731E+02 -0.87369764804E+01  0.32170073045E+02  0.00000000000E+00 0.  1.
</event>
<event>
 5    1  0.1659417E-003  0.9118800E+02  0.7818608E-02  0.1130116E+00
         25   -1    0    0    0    0  0.00000000000E+00  0.00000000000E+00  0.99999998245E-14  0.12500000000E+03  0.12500000000E+03 0.  0.
        -11    1    3    3    0    0  0.14930630171E+02 -0.46405632264E+02 -0.25603915603E+01  0.48815592062E+02  0.51100000000E-03 0.  1.
         23    2    1    0    0    0  0.24662425249E+02 -0.48710920862E+01  0.15853686118E+02  0.95279600932E+02  0.90525688249E+02 0.  0.
         11    1    3    3    0    0  0.97317950779E+01  0.41534540178E+02  0.18414077678E+02  0.46464008870E+02  0.51100000000E-03 0. -1.
         22    1    1    0    0    0 -0.24662425249E+02  0.48710920862E+01 -0.15853686118E+02  0.29720399068E+02  0.00000000000E+00 0.  1.
</event>
<event>
 5    1  0.1659417E-003  0.9118800E+02  0.7818608E-02  0.1130116E+00
         25   -1    0    0    0    0  0.00000000000E+00  0.00000000000E+00  0.99999998245E-14  0.12500000000E+03  0.12500000000E+03 0.  0.
        -11    1    3    3    0    0  0.10258107509E+02 -0.27498882995E+01  0.59791170935E+02  0.60727051447E+02  0.51100000000E-03 0. -1.
         23    2    1    0    0    0  0.55691704062E+01  0.91933398267E+01  0.26975111348E+02  0.95962269572E+02  0.91463475732E+02 0.  0.
         11    1    3    3    0    0 -0.46889371028E+01  0.11943228126E+02 -0.32816059587E+02  0.35235218125E+02  0.51100000000E-03 0.  1.
         22    1    1    0    0    0 -0.55691704062E+01 -0.91933398267E+01 -0.26975111348E+02  0.29037730428E+02  0.00000000000E+00 0. -1.
</event>
<event>
 5    1  0.1659417E-003  0.9118800E+02  0.7818608E-02  0.1130116E+00
         25   -1    0    0    0    0  0.00000000000E+00  0.00000000000E+00  0.99999998245E-14  0.12500000000E+03  0.12500000000E+03 0.  0.
        -11    1    3    3    0    0 -0.42325073569E+02 -0.67783822164E+01  0.13032567948E+02  0.44801854266E+02  0.51100000000E-03 0. -1.
         23    2    1    0    0    0 -0.93163227245E+01  0.28898880752E+02  0.25087744285E+01  0.94533081433E+02  0.89488939866E+02 0.  0.
         11    1    3    3    0    0  0.33008750845E+02  0.35677262968E+02 -0.10523793519E+02  0.49731227167E+02  0.51100000000E-03 0.  1.
         22    1    1    0    0    0  0.93163227245E+01 -0.28898880752E+02 -0.25087744285E+01  0.30466918567E+02  0.00000000000E+00 0. -1.
</event>
<event>
 5    1  0.1659417E-003  0.9118800E+02  0.7818608E-02  0.1130116E+00
         25   -1    0    0    0    0  0.00000000000E+00  0.00000000000E+00  0.99999998245E-14  0.12500000000E+03  0.12500000000E+03 0.  0.
        -11    1    3    3    0    0  0.14079454368E+02  0.59512625692E+02 -0.32168310545E+01  0.61239951456E+02  0.51100000000E-03 0.  1.
         23    2    1    0    0    0 -0.14567585107E+01  0.30198051930E+02  0.13875742733E+01  0.94735006227E+02  0.89770549496E+02 0.  0.
         11    1    3    3    0    0 -0.15536212879E+02 -0.29314573762E+02  0.46044053279E+01  0.33495054771E+02  0.51100000000E-03 0. -1.
         22    1    1    0    0    0  0.14567585107E+01 -0.30198051930E+02 -0.13875742733E+01  0.30264993773E+02  0.00000000000E+00 0.  1.
</event>
<event>
 5    1  0.1659417E-003  0.9118800E+02  0.7818608E-02  0.1130116E+00
         25   -1    0    0    0    0  0.00000000000E+00  0.00000000000E+00  0.99999998245E-14  0.12500000000E+03  0.12500000000E+03 0.  0.
        -11    1    3    3    0    0  0.48111027966E+02  0.14359255453E+02  0.14383183128E+02  0.52227724307E+02  0.51100000000E-03 0.  1.
         23    2    1    0    0    0  0.16454161304E+02  0.31282583788E+02  0.90060137263E+01  0.88524696630E+02  0.80660858894E+02 0.  0.
         11    1    3    3    0    0 -0.31656866662E+02  0.16923328335E+02 -0.53771694017E+01  0.36296972323E+02  0.51100000000E-03 0. -1.
         22    1    1    0    0    0 -0.16454161304E+02 -0.31282583788E+02 -0.90060137263E+01  0.36475303370E+02  0.00000000000E+00 0.  1.
</event>
<event>
 5    1  0.1659417E-003  0.9118800E+02  0.7818608E-02  0.1130116E+00
         25   -1    0    0    0    0  0.00000000000E+00  0.00000000000E+00  0.99999998245E-14  0.12500000000E+03  0.12500000000E+03 0.  0.
        -11    1    3    3    0    0 -0.90570725194E+01  0.26557096310E+02 -0.42840629446E+02  0.51211614490E+02  0.51100000000E-03 0. -1.
         23    2    1    0    0    0 -0.12369820045E+02 -0.13509044727E+02 -0.21595109751E+02  0.96682946790E+02  0.92443153870E+02 0.  0.
         11    1    3    3    0    0 -0.33127475252E+01 -0.40066141037E+02  0.21245519695E+02  0.45471332300E+02  0.51100000000E-03 0.  1.
         22    1    1    0    0    0  0.12369820045E+02  0.13509044727E+02  0.21595109751E+02  0.28317053210E+02  0.00000000000E+00 0. -1.
</event>
<event>
 5    1  0.1659417E-003  0.9118800E+02  0.7818608E-02  0.1130116E+00
         25   -1    0    0    0    0  0.00000000000E+00  0.00000000000E+00  0.99999998245E-14  0.12500000000E+03  0.12500000000E+03 0.  0.
        -11    1    3    3    0    0  0.10216051702E+02 -0.27081266706E+02 -0.30186235812E+02  0.41820707210E+02  0.51100000000E-03 0. -1.
         23    2    1    0    0    0 -0.17491085917E+02  0.16950274576E+02 -0.16388522314E+02  0.95642998137E+02  0.91026092601E+02 0.  0.
         11    1    3    3    0    0 -0.27707137619E+02  0.44031541282E+02  0.13797713498E+02  0.53822290928E+02  0.51100000000E-03 0.  1.
         22    1    1    0    0    0  0.17491085917E+02 -0.16950274576E+02  0.16388522314E+02  0.29357001863E+02  0.00000000000E+00 0.  1.
</event>
<event>
 5    1  0.1659417E-003  0.9118800E+02  0.7818608E-02  0.1130116E+00
         25   -1    0    0    0    0  0.00000000000E+00  0.00000000000E+00  0.99999998245E-14  0.12500000000E+03  0.12500000000E+03 0.  0.
        -11    1    3    3    0    0 -0.15935850386E+02 -0.10450553425E+02 -0.28283134014E+02  0.34104267538E+02  0.51100000000E-03 0.  1.
         23    2    1    0    0    0  0.18889753612E+02 -0.15509317874E+02  0.19699475406E+02  0.93608423683E+02  0.88187901215E+02 0.  0.
         11    1    3    3    0    0  0.34825603998E+02 -0.50587644489E+01  0.47982609419E+02  0.59504156145E+02  0.51100000000E-03 0. -1.
         22    1    1    0    0    0 -0.18889753612E+02  0.15509317874E+02 -0.19699475406E+02  0.31391576317E+02  0.00000000000E+00 0. -1.
</event>
<event>
 5    1  0.1659417E-003  0.9118800E+02  0.7818608E-02  0.1130116E+00
         25   -1    0    0    0    0  0.00000000000E+00  0.00000000000E+00  0.99999998245E-14  0.12500000000E+03  0.12500000000E+03 0.  0.
        -11    1    3    3    0    0 -0.30851993988E+02 -0.22302232888E+02  0.79449149912E+01  0.38889031863E+02  0.51100000000E-03 0.  1.
         23    2    1    0    0    0  0.49764890085E+01 -0.36585470623E+02  0.24315772669E+02  0.80790058765E+02  0.67620371865E+02 0.  0.
         11    1    3    3    0    0  0.35828482996E+02 -0.14283237735E+02  0.16370857677E+02  0.41901026901E+02  0.51100000000E-03 0. -1.
         22    1    1    0    0    0 -0.49764890085E+01  0.36585470623E+02 -0.24315772669E+02  0.44209941235E+02  0.00000000000E+00 0. -1.
</event>
<event>
 5    1  0.1659417E-003  0.9118800E+02  0.7818608E-02  0.1130116E+00
         25   -1    0    0    0    0  0.00000000000E+00  0.00000000000E+00  0.99999998245E-14  0.12500000000E+03  0.12500000000E+03 0.  0.
        -11    1    3    3    0    0 -0.18316695770E+02  0.23366109827E+02  0.37832775618E+02  0.48091530893E+02  0.51100000000E-03 0. -1.
         23    2    1    0    0    0 -0.23469984556E+02 -0.11830539084E+02  0.19083257843E+01  0.98647703376E+02  0.95062746878E+02 0.  0.
         11    1    3    3    0    0 -0.51532887855E+01 -0.35196648912E+02 -0.35924449834E+02  0.50556172482E+02  0.51100000000E-03 0.  1.
         22    1    1    0    0    0  0.23469984556E+02  0.11830539084E+02 -0.19083257843E+01  0.26352296624E+02  0.00000000000E+00 0.  1.
</event>
<event>
 5    1  0.1659417E-003  0.9118800E+02  0.7818608E-02  0.1130116E+00
         25   -1    0    0    0    0  0.00000000000E+00  0.00000000000E+00  0.99999998245E-14  0.12500000000E+03  0.12500000000E+03 0.  0.
        -11    1    3    3    0    0 -0.28492902422E+02 -0.15856901883E+02 -0.12575575528E+02  0.34948990342E+02  0.51100000000E-03 0.  1.
         23    2    1    0    0    0  0.25333561692E+02  0.55023422853E+01  0.10152237278E+02  0.97158788813E+02  0.93084355308E+02 0.  0.
         11    1    3    3    0    0  0.53826464114E+02  0.21359244169E+02  0.22727812807E+02  0.62209798471E+02  0.51100000000E-03 0. -1.
         22    1    1    0    0    0 -0.25333561692E+02 -0.55023422853E+01 -0.10152237278E+02  0.27841211187E+02  0.00000000000E+00 0. -1.
</event>
<event>
 5    1  0.1659417E-003  0.9118800E+02  0.7818608E-02  0.1130116E+00
         25   -1    0    0    0    0  0.00000000000E+00  0.00000000000E+00  0.99999998245E-14  0.12500000000E+03  0.12500000000E+03 0.  0.
        -11    1    3    3    0    0 -0.78097521929E+01 -0.12838063683E+02  0.39157514259E+02  0.41941852984E+02  0.51100000000E-03 0.  1.
         23    2    1    0    0    0 -0.20292391698E+02  0.18971110384E+02 -0.39406494139E+01  0.96942685306E+02  0.92793703054E+02 0.  0.
         11    1    3    3    0    0 -0.12482639505E+02  0.31809174068E+02 -0.43098163673E+02  0.55000832322E+02  0.51100000000E-03 0. -1.
         22    1    1    0    0    0  0.20292391698E+02 -0.18971110384E+02  0.39406494139E+01  0.28057314694E+02  0.00000000000E+00 0. -1.
</event>
<event>
 5    1  0.1659417E-003  0.9118800E+02  0.7818608E-02  0.1130116E+00
         25   -1    0    0    0    0  0.00000000000E+00  0.00000000000E+00  0.99999998245E-14  0.12500000000E+03  0.12500000000E+03 0.  0.
        -11    1    3    3    0    0  0.13718736169E+02 -0.14483405040E+01  0.32344641202E+02  0.35163578131E+02  0.51100000000E-03 0.  1.
         23    2    1    0    0    0 -0.48731758161E+00  0.17102803963E+02 -0.23633882507E+02  0.95822889379E+02  0.91272790824E+02 0.  0.
         11    1    3    3    0    0 -0.14206053750E+02  0.18551144467E+02 -0.55978523708E+02  0.60659311248E+02  0.51100000000E-03 0. -1.
         22    1    1    0    0    0  0.48731758161E+00 -0.17102803963E+02  0.23633882507E+02  0.29177110621E+02  0.00000000000E+00 0. -1.
</event>
<event>
 5    1  0.1659417E-003  0.9118800E+02  0.7818608E-02  0.1130116E+00
         25   -1    0    0    0    0  0.00000000000E+00  0.00000000000E+00  0.99999998245E-14  0.12500000000E+03  0.12500000000E+03 0.  0.
        -11    1    3    3    0    0 -0.26055811093E+02 -0.19947382613E+02 -0.46383203951E+02  0.56817294672E+02  0.51100000000E-03 0. -1.
         23    2    1    0    0    0  0.11617427221E+01  0.22526145453E+01 -0.28786957754E+02  0.96101680756E+02  0.91653806189E+02 0.  0.
         11    1    3    3    0    0  0.27217553815E+02  0.22199997158E+02  0.17596246198E+02  0.39284386084E+02  0.51100000000E-03 0.  1.
         22    1    1    0    0    0 -0.11617427221E+01 -0.22526145453E+01  0.28786957754E+02  0.28898319244E+02  0.00000000000E+00 0. -1.
</event>
<event>
 5    1  0.1659417E-003  0.9118800E+02  0.7818608E-02  0.1130116E+00
         25   -1    0    0    0    0  0.00000000000E+00  0.00000000000E+00  0.99999998245E-14  0.12500000000E+03  0.12500000000E+03 0.  0.
        -11    1    3    3    0    0 -0.54181032978E+01 -0.11084147598E+02  0.32369181257E+02  0.34640699572E+02  0.51100000000E-03 0.  1.
         23    2    1    0    0    0  0.19593708860E+02  0.20389010210E+01 -0.21730094056E+02  0.95669682376E+02  0.91062728896E+02 0.  0.
         11    1    3    3    0    0  0.25011812157E+02  0.13123048619E+02 -0.54099275313E+02  0.61028982804E+02  0.51100000000E-03 0. -1.
         22    1    1    0    0    0 -0.19593708860E+02 -0.20389010210E+01  0.21730094056E+02  0.29330317624E+02  0.00000000000E+00 0. -1.
</event>
<event>
 5    1  0.1659417E-003  0.9118800E+02  0.7818608E-02  0.1130116E+00
         25   -1    0    0    0    0  0.00000000000E+00  0.00000000000E+00  0.99999998245E-14  0.12500000000E+03  0.12500000000E+03 0.  0.
        -11    1    3    3    0    0 -0.32170819583E+02 -0.30335898100E+02  0.16605883908E+02  0.47233290451E+02  0.51100000000E-03 0. -1.
         23    2    1    0    0    0  0.15363263242E+02 -0.23287061967E+02  0.52225956783E+01  0.96617036481E+02  0.92353988113E+02 0.  0.
         11    1    3    3    0    0  0.47534082825E+02  0.70488361332E+01 -0.11383288230E+02  0.49383746031E+02  0.51100000000E-03 0.  1.
         22    1    1    0    0    0 -0.15363263242E+02  0.23287061967E+02 -0.52225956783E+01  0.28382963519E+02  0.00000000000E+00 0. -1.
</event>
<event>
 5    1  0.1659417E-003  0.9118800E+02  0.7818608E-02  0.1130116E+00
         25   -1    0    0    0    0  0.00000000000E+00  0.00000000000E+00  0.99999998245E-14  0.12500000000E+03  0.12500000000E+03 0.  0.
        -11    1    3    3    0    0 -0.39978665986E+02  0.96072988240E+01 -0.31584419652E+02  0.51847560113E+02  0.51100000000E-03 0.  1.
         23    2    1    0    0    0  0.37488695753E+01  0.19047761764E+01 -0.28321495138E+02  0.96368037402E+02  0.92016353712E+02 0.  0.
         11    1    3    3    0    0  0.43727535561E+02 -0.77025226475E+01  0.32629245142E+01  0.44520477289E+02  0.51100000000E-03 0. -1.
         22    1    1    0    0    0 -0.37488695753E+01 -0.19047761764E+01  0.28321495138E+02  0.28631962598E+02  0.00000000000E+00 0. -1.
</event>
<event>
 5    1  0.1659417E-003  0.9118800E+02  0.7818608E-02  0.1130116E+00
         25   -1    0    0    0    0  0.00000000000E+00  0.00000000000E+00  0.99999998245E-14  0.12500000000E+03  0.12500000000E+03 0.  0.
        -11    1    3    3    0    0  0.26502587750E+02 -0.18656190499E+02  0.14829538017E+02  0.35642051000E+02  0.51100000000E-03 0. -1.
         23    2    1    0    0    0 -0.21897983780E+02  0.51283771304E+01 -0.15661379593E+02  0.97593782523E+02  0.93666673000E+02 0.  0.
         11    1    3    3    0    0 -0.48400571530E+02  0.23784567630E+02 -0.30490917610E+02  0.61951731524E+02  0.51100000000E-03 0.  1.
         22    1    1    0    0    0  0.21897983780E+02 -0.51283771304E+01  0.15661379593E+02  0.27406217477E+02  0.00000000000E+00 0.  1.
</event>
<event>
 5    1  0.1659417E-003  0.9118800E+02  0.7818608E-02  0.1130116E+00
         25   -1    0    0    0    0  0.00000000000E+00  0.00000000000E+00  0.99999998245E-14  0.12500000000E+03  0.12500000000E+03 0.  0.
        -11    1    3    3    0    0  0.37154556503E+02  0.44746932599E+01  0.20867521392E+02  0.42847840062E+02  0.51100000000E-03 0.  1.
         23    2    1    0    0    0 -0.27544169495E+01  0.30252451181E+02  0.29473131745E+00  0.94620986163E+02  0.89611642886E+02 0.  0.
         11    1    3    3    0    0 -0.39908973453E+02  0.25777757921E+02 -0.20572790075E+02  0.51773146101E+02  0.51100000000E-03 0. -1.
         22    1    1    0    0    0  0.27544169495E+01 -0.30252451181E+02 -0.29473131745E+00  0.30379013837E+02  0.00000000000E+00 0. -1.
</event>
<event>
 5    1  0.1659417E-003  0.9118800E+02  0.7818608E-02  0.1130116E+00
         25   -1    0    0    0    0  0.00000000000E+00  0.00000000000E+00  0.99999998245E-14  0.12500000000E+03  0.12500000000E+03 0.  0.
        -11    1    3    3    0    0 -0.20598818518E+02 -0.13501598480E+02  0.22881210928E+02  0.33617767618E+02  0.51100000000E-03 0.  1.
         23    2    1    0    0    0  0.13239368724E+02  0.53044820732E+01 -0.25621773875E+02  0.95676055675E+02  0.91071476977E+02 0.  0.
         11    1    3    3    0    0  0.33838187242E+02  0.18806080553E+02 -0.48502984802E+02  0.62058288057E+02  0.51100000000E-03 0. -1.
         22    1    1    0    0    0 -0.13239368724E+02 -0.53044820732E+01  0.25621773875E+02  0.29323944325E+02  0.00000000000E+00 0. -1.
</event>
<event>
 5    1  0.1659417E-003  0.9118800E+02  0.7818608E-02  0.1130116E+00
         25   -1    0    0    0    0  0.00000000000E+00  0.00000000000E+00  0.99999998245E-14  0.12500000000E+03  0.12500000000E+03 0.  0.
        -11    1    3    3    0    0  0.30172650947E+02 -0.16563250468E+01  0.22101210374E+02  0.37437892276E+02  0.51100000000E-03 0.  1.
         23    2    1    0    0    0 -0.21615385149E+02  0.19171133981E+02  0.83357321862E+01  0.94929388361E+02  0.90040807917E+02 0.  0.
         11    1    3    3    0    0 -0.51788036095E+02  0.20827459028E+02 -0.13765478187E+02  0.57491496086E+02  0.51100000000E-03 0. -1.
         22    1    1    0    0    0  0.21615385149E+02 -0.19171133981E+02 -0.83357321862E+01  0.30070611639E+02  0.00000000000E+00 0. -1.
</event>
<event>
 5    1  0.1659417E-003  0.9118800E+02  0.7818608E-02  0.1130116E+00
         25   -1    0    0    0    0  0.00000000000E+00  0.00000000000E+00  0.99999998245E-14  0.12500000000E+03  0.12500000000E+03 0.  0.
        -11    1    3    3    0    0  0.36919806823E+02 -0.95080497159E+01  0.18934804540E+02  0.42567616430E+02  0.51100000000E-03 0. -1.
         23    2    1    0    0    0 -0.15103127645E+02 -0.73953310798E+00  0.25114098516E+02  0.95684998411E+02  0.91083750487E+02 0.  0.
         11    1    3    3    0    0 -0.52022934468E+02  0.87685166080E+01  0.61792939760E+01  0.53117381981E+02  0.51100000000E-03 0.  1.
         22    1    1    0    0    0  0.15103127645E+02  0.73953310798E+00 -0.25114098516E+02  0.29315001589E+02  0.00000000000E+00 0.  1.
</event>
<event>
 5    1  0.1659417E-003  0.9118800E+02  0.7818608E-02  0.1130116E+00
         25   -1    0    0    0    0  0.00000000000E+00  0.00000000000E+00  0.99999998245E-14  0.12500000000E+03  0.12500000000E+03 0.  0.
        -11    1    3    3    0    0 -0.46304566707E+02 -0.69453335834E+01  0.18791393921E+01  0.46860236039E+02  0.51100000000E-03 0.  1.
         23    2    1    0    0    0 -0.48731561992E+01 -0.18578447131E+02 -0.21773552208E+02  0.95965642337E+02  0.91468085059E+02 0.  0.
         11    1    3    3    0    0  0.41431410508E+02 -0.11633113547E+02 -0.23652691600E+02  0.49105406298E+02  0.51100000000E-03 0. -1.
         22    1    1    0    0    0  0.48731561992E+01  0.18578447131E+02  0.21773552208E+02  0.29034357663E+02  0.00000000000E+00 0.  1.
</event>
<event>
 5    1  0.1659417E-003  0.9118800E+02  0.7818608E-02  0.1130116E+00
         25   -1    0    0    0    0  0.00000000000E+00  0.00000000000E+00  0.99999998245E-14  0.12500000000E+03  0.12500000000E+03 0.  0.
        -11    1    3    3    0    0 -0.63820197555E+01  0.39846095468E+02  0.31389448123E+02  0.51124739158E+02  0.51100000000E-03 0.  1.
         23    2    1    0    0    0 -0.11647631214E+01  0.31657639667E+02 -0.85175306582E+01  0.92195866862E+02  0.86162443765E+02 0.  0.
         11    1    3    3    0    0  0.52172566341E+01 -0.81884558008E+01 -0.39906978781E+02  0.41071127704E+02  0.51100000000E-03 0. -1.
         22    1    1    0    0    0  0.11647631214E+01 -0.31657639667E+02  0.85175306582E+01  0.32804133138E+02  0.00000000000E+00 0. -1.
</event>
<event>
 5    1  0.1659417E-003  0.9118800E+02  0.7818608E-02  0.1130116E+00
         25   -1    0    0    0    0  0.00000000000E+00  0.00000000000E+00  0.99999998245E-14  0.12500000000E+03  0.12500000000E+03 0.  0.
        -11    1    3    3    0    0 -0.25496698629E+02  0.33276261607E+02 -0.12200669301E+02  0.43660595039E+02  0.51100000000E-03 0.  1.
         23    2    1    0    0    0 -0.19980579724E+02 -0.50297468946E+00  0.24192077223E+02  0.93619541909E+02  0.88203659092E+02 0.  0.
         11    1    3    3    0    0  0.55161189042E+01 -0.33779236296E+02  0.36392746524E+02  0.49958946870E+02  0.51100000000E-03 0. -1.
         22    1    1    0    0    0  0.19980579724E+02  0.50297468946E+00 -0.24192077223E+02  0.31380458091E+02  0.00000000000E+00 0.  1.
</event>
<event>
 5    1  0.1659417E-003  0.9118800E+02  0.7818608E-02  0.1130116E+00
         25   -1    0    0    0    0  0.00000000000E+00  0.00000000000E+00  0.99999998245E-14  0.12500000000E+03  0.12500000000E+03 0.  0.
        -11    1    3    3    0    0 -0.22313010991E+02  0.75049801457E+01  0.30750574423E+02  0.38727161193E+02  0.51100000000E-03 0. -1.
         23    2    1    0    0    0  0.20473304350E+02  0.24013524300E+02  0.93135596433E+00  0.93429872281E+02  0.87934453260E+02 0.  0.
         11    1    3    3    0    0  0.42786315341E+02  0.16508544154E+02 -0.29819218458E+02  0.54702711087E+02  0.51100000000E-03 0.  1.
         22    1    1    0    0    0 -0.20473304350E+02 -0.24013524300E+02 -0.93135596433E+00  0.31570127719E+02  0.00000000000E+00 0.  1.
</event>
<event>
 5    1  0.1659417E-003  0.9118800E+02  0.7818608E-02  0.1130116E+00
         25   -1    0    0    0    0  0.00000000000E+00  0.00000000000E+00  0.99999998245E-14  0.12500000000E+03  0.12500000000E+03 0.  0.
        -11    1    3    3    0    0  0.33084048682E+02  0.10916719209E+02  0.38274442008E+02  0.51755791432E+02  0.51100000000E-03 0. -1.
         23    2    1    0    0    0  0.25265316176E+02  0.15266095561E+02 -0.42188109103E+01  0.95180740441E+02  0.90389076278E+02 0.  0.
         11    1    3    3    0    0 -0.78187325066E+01  0.43493763518E+01 -0.42493252918E+02  0.43424949009E+02  0.51100000000E-03 0.  1.
         22    1    1    0    0    0 -0.25265316176E+02 -0.15266095561E+02  0.42188109103E+01  0.29819259559E+02  0.00000000000E+00 0. -1.
</event>
<event>
 5    1  0.1659417E-003  0.9118800E+02  0.7818608E-02  0.1130116E+00
         25   -1    0    0    0    0  0.00000000000E+00  0.00000000000E+00  0.99999998245E-14  0.12500000000E+03  0.12500000000E+03 0.  0.
        -11    1    3    3    0    0 -0.13992503788E+02  0.26518593148E+02  0.28040640452E+02  0.41052447699E+02  0.51100000000E-03 0.  1.
         23    2    1    0    0    0 -0.25428099222E+02  0.24837116157E+01 -0.17661657159E+02  0.93940521784E+02  0.88657376715E+02 0.  0.
         11    1    3    3    0    0 -0.11435595434E+02 -0.24034881533E+02 -0.45702297612E+02  0.52888074085E+02  0.51100000000E-03 0. -1.
         22    1    1    0    0    0  0.25428099222E+02 -0.24837116157E+01  0.17661657159E+02  0.31059478216E+02  0.00000000000E+00 0.  1.
</event>
<event>
 5    1  0.1659417E-003  0.9118800E+02  0.7818608E-02  0.1130116E+00
         25   -1    0    0    0    0  0.00000000000E+00  0.00000000000E+00  0.99999998245E-14  0.12500000000E+03  0.12500000000E+03 0.  0.
        -11    1    3    3    0    0  0.43894441474E+02  0.37560456432E+01  0.22916406360E+02  0.49658751010E+02  0.51100000000E-03 0.  1.
         23    2    1    0    0    0  0.13786625607E+02 -0.25348645328E+02  0.31240711921E+01  0.95976135916E+02  0.91482424426E+02 0.  0.
         11    1    3    3    0    0 -0.30107815867E+02 -0.29104690971E+02 -0.19792335168E+02  0.46317384905E+02  0.51100000000E-03 0. -1.
         22    1    1    0    0    0 -0.13786625607E+02  0.25348645328E+02 -0.31240711921E+01  0.29023864084E+02  0.00000000000E+00 0.  1.
</event>
<event>
 5    1  0.1659417E-003  0.9118800E+02  0.7818608E-02  0.1130116E+00
         25   -1    0    0    0    0  0.00000000000E+00  0.00000000000E+00  0.99999998245E-14  0.12500000000E+03  0.12500000000E+03 0.  0.
        -11    1    3    3    0    0  0.11626862772E+02 -0.48792187830E+02 -0.29851040335E+02  0.58369051221E+02  0.51100000000E-03 0.  1.
         23    2    1    0    0    0  0.15189562800E+02 -0.12106012402E+02 -0.21235037092E+02  0.96221446273E+02  0.91817000432E+02 0.  0.
         11    1    3    3    0    0  0.35627000280E+01  0.36686175428E+02  0.86160032430E+01  0.37852395052E+02  0.51100000000E-03 0. -1.
         22    1    1    0    0    0 -0.15189562800E+02  0.12106012402E+02  0.21235037092E+02  0.28778553727E+02  0.00000000000E+00 0.  1.
</event>
<event>
 5    1  0.1659417E-003  0.9118800E+02  0.7818608E-02  0.1130116E+00
         25   -1    0    0    0    0  0.00000000000E+00  0.00000000000E+00  0.99999998245E-14  0.12500000000E+03  0.12500000000E+03 0.  0.
        -11    1    3    3    0    0  0.26632350984E+01  0.33552130030E+02 -0.22220931164E+02  0.40331229002E+02  0.51100000000E-03 0. -1.
         23    2    1    0    0    0 -0.29937508254E+02  0.55165368413E+00  0.57651781158E+01  0.94507443515E+02  0.89453121124E+02 0.  0.
         11    1    3    3    0    0 -0.32600743353E+02 -0.33000476346E+02  0.27986109280E+02  0.54176214514E+02  0.51100000000E-03 0.  1.
         22    1    1    0    0    0  0.29937508254E+02 -0.55165368413E+00 -0.57651781158E+01  0.30492556485E+02  0.00000000000E+00 0.  1.
</event>
<event>
 5    1  0.1659417E-003  0.9118800E+02  0.7818608E-02  0.1130116E+00
         25   -1    0    0    0    0  0.00000000000E+00  0.00000000000E+00  0.99999998245E-14  0.12500000000E+03  0.12500000000E+03 0.  0.
        -11    1    3    3    0    0 -0.12778131445E+02 -0.61094008901E+02 -0.10809994117E+01  0.62425372460E+02  0.51100000000E-03 0. -1.
         23    2    1    0    0    0 -0.80076358945E+01 -0.28279804749E+02  0.16379852496E+00  0.95607885084E+02  0.90977861434E+02 0.  0.
         11    1    3    3    0    0  0.47704955508E+01  0.32814204151E+02  0.12447979366E+01  0.33182512624E+02  0.51100000000E-03 0.  1.
         22    1    1    0    0    0  0.80076358945E+01  0.28279804749E+02 -0.16379852496E+00  0.29392114916E+02  0.00000000000E+00 0. -1.
</event>
<event>
 5    1  0.1659417E-003  0.9118800E+02  0.7818608E-02  0.1130116E+00
         25   -1    0    0    0    0  0.00000000000E+00  0.00000000000E+00  0.99999998245E-14  0.12500000000E+03  0.12500000000E+03 0.  0.
        -11    1    3    3    0    0 -0.23298515117E+02  0.51832950393E+02 -0.18966078063E+02  0.59909829497E+02  0.51100000000E-03 0. -1.
         23    2    1    0    0    0 -0.45779779121E+01  0.21431381123E+02 -0.19571264684E+02  0.95618094344E+02  0.90991887474E+02 0.  0.
         11    1    3    3    0    0  0.18720537205E+02 -0.30401569270E+02 -0.60518662163E+00  0.35708264847E+02  0.51100000000E-03 0.  1.
         22    1    1    0    0    0  0.45779779121E+01 -0.21431381123E+02  0.19571264684E+02  0.29381905656E+02  0.00000000000E+00 0. -1.
</event>
<event>
 5    1  0.1659417E-003  0.9118800E+02  0.7818608E-02  0.1130116E+00
         25   -1    0    0    0    0  0.00000000000E+00  0.00000000000E+00  0.99999998245E-14  0.12500000000E+03  0.12500000000E+03 0.  0.
        -11    1    3    3    0    0  0.18630082639E+02 -0.34940917983E+02 -0.20162690398E+02  0.44435141645E+02  0.51100000000E-03 0. -1.
         23    2    1    0    0    0 -0.11778437391E+02  0.63574717885E+01 -0.25704476114E+02  0.96019504366E+02  0.91541663145E+02 0.  0.
         11    1    3    3    0    0 -0.30408520031E+02  0.41298389771E+02 -0.55417857157E+01  0.51584362721E+02  0.51100000000E-03 0.  1.
         22    1    1    0    0    0  0.11778437391E+02 -0.63574717885E+01  0.25704476114E+02  0.28980495634E+02  0.00000000000E+00 0.  1.
</event>
<event>
 5    1  0.1659417E-003  0.9118800E+02  0.7818608E-02  0.1130116E+00
         25   -1    0    0    0    0  0.00000000000E+00  0.00000000000E+00  0.99999998245E-14  0.12500000000E+03  0.12500000000E+03 0.  0.
        -11    1    3    3    0    0  0.32356698754E+00 -0.15093165658E+02  0.59144567587E+02  0.61040873359E+02  0.51100000000E-03 0. -1.
         23    2    1    0    0    0  0.26754113349E+01  0.20793693025E+01  0.28915931729E+02  0.95886210994E+02  0.91359469945E+02 0.  0.
         11    1    3    3    0    0  0.23518443474E+01  0.17172534961E+02 -0.30228635858E+02  0.34845337635E+02  0.51100000000E-03 0.  1.
         22    1    1    0    0    0 -0.26754113349E+01 -0.20793693025E+01 -0.28915931729E+02  0.29113789006E+02  0.00000000000E+00 0. -1.
</event>
<event>
 5    1  0.1659417E-003  0.9118800E+02  0.7818608E-02  0.1130116E+00
         25   -1    0    0    0    0  0.00000000000E+00  0.00000000000E+00  0.99999998245E-14  0.12500000000E+03  0.12500000000E+03 0.  0.
        -11    1    3    3    0    0 -0.29798990625E+02 -0.16675808856E+01  0.28329159725E+02  0.41149750416E+02  0.51100000000E-03 0. -1.
         23    2    1    0    0    0  0.29651478087E+01  0.29065928320E+02 -0.25658826147E+01  0.95670764684E+02  0.91064214546E+02 0.  0.
         11    1    3    3    0    0  0.32764138434E+02  0.30733509206E+02 -0.30895042340E+02  0.54521014268E+02  0.51100000000E-03 0.  1.
         22    1    1    0    0    0 -0.29651478087E+01 -0.29065928320E+02  0.25658826147E+01  0.29329235316E+02  0.00000000000E+00 0.  1.
</event>
<event>
 5    1  0.1659417E-003  0.9118800E+02  0.7818608E-02  0.1130116E+00
         25   -1    0    0    0    0  0.00000000000E+00  0.00000000000E+00  0.99999998245E-14  0.12500000000E+03  0.12500000000E+03 0.  0.
        -11    1    3    3    0    0 -0.12259983783E+02  0.57702746655E+01  0.33430713591E+01  0.13956339006E+02  0.51100000000E-03 0.  1.
         23    2    1    0    0    0  0.39016591566E+02 -0.25832709216E+02  0.16078773249E+02  0.75521214323E+02  0.57055267773E+02 0.  0.
         11    1    3    3    0    0  0.51276575350E+02 -0.31602983882E+02  0.12735701890E+02  0.61564875316E+02  0.51100000000E-03 0. -1.
         22    1    1    0    0    0 -0.39016591566E+02  0.25832709216E+02 -0.16078773249E+02  0.49478785677E+02  0.00000000000E+00 0. -1.
</event>
<event>
 5    1  0.1659417E-003  0.9118800E+02  0.7818608E-02  0.1130116E+00
         25   -1    0    0    0    0  0.00000000000E+00  0.00000000000E+00  0.99999998245E-14  0.12500000000E+03  0.12500000000E+03 0.  0.
        -11    1    3    3    0    0  0.48786216587E+02 -0.23322992897E+01  0.12120822777E+02  0.50323442787E+02  0.51100000000E-03 0. -1.
         23    2    1    0    0    0  0.22232534046E+02 -0.30071678402E+01  0.33678636914E+02  0.84532986114E+02  0.74217562129E+02 0.  0.
         11    1    3    3    0    0 -0.26553682541E+02 -0.67486855052E+00  0.21557814136E+02  0.34209543327E+02  0.51100000000E-03 0.  1.
         22    1    1    0    0    0 -0.22232534046E+02  0.30071678402E+01 -0.33678636914E+02  0.40467013886E+02  0.00000000000E+00 0. -1.
</event>
<event>
 5    1  0.1659417E-003  0.9118800E+02  0.7818608E-02  0.1130116E+00
         25   -1    0    0    0    0  0.00000000000E+00  0.00000000000E+00  0.99999998245E-14  0.12500000000E+03  0.12500000000E+03 0.  0.
        -11    1    3    3    0    0  0.17032997205E+02  0.37217592741E+02 -0.41956925354E+02  0.58614467400E+02  0.51100000000E-03 0.  1.
         23    2    1    0    0    0 -0.25334751918E+01  0.26444716923E+02 -0.12344597185E+02  0.95706133247E+02  0.91112750544E+02 0.  0.
         11    1    3    3    0    0 -0.19566472397E+02 -0.10772875818E+02  0.29612328168E+02  0.37091665846E+02  0.51100000000E-03 0. -1.
         22    1    1    0    0    0  0.25334751918E+01 -0.26444716923E+02  0.12344597185E+02  0.29293866753E+02  0.00000000000E+00 0.  1.
</event>
<event>
 5    1  0.1659417E-003  0.9118800E+02  0.7818608E-02  0.1130116E+00
         25   -1    0    0    0    0  0.00000000000E+00  0.00000000000E+00  0.99999998245E-14  0.12500000000E+03  0.12500000000E+03 0.  0.
        -11    1    3    3    0    0  0.49822826054E+02  0.29536938866E+02 -0.18137812155E+02  0.60693698056E+02  0.51100000000E-03 0.  1.
         23    2    1    0    0    0  0.19491480380E+02  0.19944402424E+02 -0.16606843468E+02  0.92542577961E+02  0.86663974581E+02 0.  0.
         11    1    3    3    0    0 -0.30331345675E+02 -0.95925364423E+01  0.15309686868E+01  0.31848879905E+02  0.51100000000E-03 0. -1.
         22    1    1    0    0    0 -0.19491480380E+02 -0.19944402424E+02  0.16606843468E+02  0.32457422039E+02  0.00000000000E+00 0.  1.
</event>
<event>
 5    1  0.1659417E-003  0.9118800E+02  0.7818608E-02  0.1130116E+00
         25   -1    0    0    0    0  0.00000000000E+00  0.00000000000E+00  0.99999998245E-14  0.12500000000E+03  0.12500000000E+03 0.  0.
        -11    1    3    3    0    0  0.47589417673E+02 -0.37024923061E+02  0.36119132695E+01  0.60404002515E+02  0.51100000000E-03 0. -1.
         23    2    1    0    0    0  0.27735816966E+02 -0.75393760053E+01 -0.94921400501E+00  0.96242066476E+02  0.91845068561E+02 0.  0.
         11    1    3    3    0    0 -0.19853600707E+02  0.29485547055E+02 -0.45611272745E+01  0.35838063961E+02  0.51100000000E-03 0.  1.
         22    1    1    0    0    0 -0.27735816966E+02  0.75393760053E+01  0.94921400501E+00  0.28757933524E+02  0.00000000000E+00 0. -1.
</event>
<event>
 5    1  0.1659417E-003  0.9118800E+02  0.7818608E-02  0.1130116E+00
         25   -1    0    0    0    0  0.00000000000E+00  0.00000000000E+00  0.99999998245E-14  0.12500000000E+03  0.12500000000E+03 0.  0.
        -11    1    3    3    0    0 -0.43799755908E+02 -0.10580396856E+02 -0.42399652271E+02  0.61871592255E+02  0.51100000000E-03 0.  1.
         23    2    1    0    0    0 -0.15071555233E+02 -0.38908319039E+01 -0.23184039475E+02  0.97075279117E+02  0.92972145179E+02 0.  0.
         11    1    3    3    0    0  0.28728200675E+02  0.66895649520E+01  0.19215612796E+02  0.35203686862E+02  0.51100000000E-03 0. -1.
         22    1    1    0    0    0  0.15071555233E+02  0.38908319039E+01  0.23184039475E+02  0.27924720883E+02  0.00000000000E+00 0.  1.
</event>
<event>
 5    1  0.1659417E-003  0.9118800E+02  0.7818608E-02  0.1130116E+00
         25   -1    0    0    0    0  0.00000000000E+00  0.00000000000E+00  0.99999998245E-14  0.12500000000E+03  0.12500000000E+03 0.  0.
        -11    1    3    3    0    0  0.30474946589E+02 -0.17761956735E+02  0.60712742895E+01  0.35792036103E+02  0.51100000000E-03 0. -1.
         23    2    1    0    0    0 -0.26430450470E+02 -0.53294013104E+01  0.14071469140E+02  0.94586557674E+02  0.89563605434E+02 0.  0.
         11    1    3    3    0    0 -0.56905397059E+02  0.12432555425E+02  0.80001948504E+01  0.58794521571E+02  0.51100000000E-03 0.  1.
         22    1    1    0    0    0  0.26430450470E+02  0.53294013104E+01 -0.14071469140E+02  0.30413442326E+02  0.00000000000E+00 0.  1.
</event>
<event>
 5    1  0.1659417E-003  0.9118800E+02  0.7818608E-02  0.1130116E+00
         25   -1    0    0    0    0  0.00000000000E+00  0.00000000000E+00  0.99999998245E-14  0.12500000000E+03  0.12500000000E+03 0.  0.
        -11    1    3    3    0    0 -0.69198415640E+01  0.29843402184E+02  0.63457844504E+01  0.31285489316E+02  0.51100000000E-03 0. -1.
         23    2    1    0    0    0 -0.32219420739E+01 -0.20247590016E+02  0.31465781030E+02  0.87444159070E+02  0.78968599883E+02 0.  0.
         11    1    3    3    0    0  0.36978994901E+01 -0.50090992199E+02  0.25119996579E+02  0.56158669754E+02  0.51100000000E-03 0.  1.
         22    1    1    0    0    0  0.32219420739E+01  0.20247590016E+02 -0.31465781030E+02  0.37555840930E+02  0.00000000000E+00 0.  1.
</event>
<event>
 5    1  0.1659417E-003  0.9118800E+02  0.7818608E-02  0.1130116E+00
         25   -1    0    0    0    0  0.00000000000E+00  0.00000000000E+00  0.99999998245E-14  0.12500000000E+03  0.12500000000E+03 0.  0.
        -11    1    3    3    0    0  0.40536936674E+02 -0.22824160583E+02  0.21821081047E+02  0.51384288645E+02  0.51100000000E-03 0.  1.
         23    2    1    0    0    0 -0.65699033731E+01 -0.22175427614E+02  0.87112786735E+01  0.10028563988E+03  0.97192643595E+02 0.  0.
         11    1    3    3    0    0 -0.47106840047E+02  0.64873296905E+00 -0.13109802374E+02  0.48901351231E+02  0.51100000000E-03 0. -1.
         22    1    1    0    0    0  0.65699033731E+01  0.22175427614E+02 -0.87112786735E+01  0.24714360124E+02  0.00000000000E+00 0.  1.
</event>
<event>
 5    1  0.1659417E-003  0.9118800E+02  0.7818608E-02  0.1130116E+00
         25   -1    0    0    0    0  0.00000000000E+00  0.00000000000E+00  0.99999998245E-14  0.12500000000E+03  0.12500000000E+03 0.  0.
        -11    1    3    3    0    0 -0.14224416528E+02 -0.10658740699E+02 -0.31241669671E+02  0.35944188723E+02  0.51100000000E-03 0. -1.
         23    2    1    0    0    0 -0.21454666577E+02  0.25688992914E+02  0.86871451839E+01  0.90421197732E+02  0.83548186294E+02 0.  0.
         11    1    3    3    0    0 -0.72302500483E+01  0.36347733613E+02  0.39928814855E+02  0.54477009009E+02  0.51100000000E-03 0.  1.
         22    1    1    0    0    0  0.21454666577E+02 -0.25688992914E+02 -0.86871451839E+01  0.34578802268E+02  0.00000000000E+00 0.  1.
</event>
<event>
 5    1  0.1659417E-003  0.9118800E+02  0.7818608E-02  0.1130116E+00
         25   -1    0    0    0    0  0.00000000000E+00  0.00000000000E+00  0.99999998245E-14  0.12500000000E+03  0.12500000000E+03 0.  0.
        -11    1    3    3    0    0 -0.61583380218E+01  0.29108593638E+02 -0.14820440630E+02  0.33239747465E+02  0.51100000000E-03 0. -1.
         23    2    1    0    0    0  0.17441241313E+02 -0.98720545950E+01  0.24443883015E+02  0.93390542913E+02  0.87878528255E+02 0.  0.
         11    1    3    3    0    0  0.23599579335E+02 -0.38980648233E+02  0.39264323645E+02  0.60150795448E+02  0.51100000000E-03 0.  1.
         22    1    1    0    0    0 -0.17441241313E+02  0.98720545950E+01 -0.24443883015E+02  0.31609457087E+02  0.00000000000E+00 0.  1.
</event>
<event>
 5    1  0.1659417E-003  0.9118800E+02  0.7818608E-02  0.1130116E+00
         25   -1    0    0    0    0  0.00000000000E+00  0.00000000000E+00  0.99999998245E-14  0.12500000000E+03  0.12500000000E+03 0.  0.
        -11    1    3    3    0    0  0.34896513163E+02  0.15136376415E+02 -0.12660112897E+02  0.40089337495E+02  0.51100000000E-03 0. -1.
         23    2    1    0    0    0  0.11032002956E+02 -0.28219301410E+02  0.79126701552E+01  0.93684757541E+02  0.88296032670E+02 0.  0.
         11    1    3    3    0    0 -0.23864510207E+02 -0.43355677826E+02  0.20572783052E+02  0.53595420046E+02  0.51100000000E-03 0.  1.
         22    1    1    0    0    0 -0.11032002956E+02  0.28219301410E+02 -0.79126701552E+01  0.31315242459E+02  0.00000000000E+00 0.  1.
</event>
<event>
 5    1  0.1659417E-003  0.9118800E+02  0.7818608E-02  0.1130116E+00
         25   -1    0    0    0    0  0.00000000000E+00  0.00000000000E+00  0.99999998245E-14  0.12500000000E+03  0.12500000000E+03 0.  0.
        -11    1    3    3    0    0  0.48655327513E+02 -0.14877635067E+02  0.54362389236E+01  0.51168717147E+02  0.51100000000E-03 0.  1.
         23    2    1    0    0    0  0.15722188559E+02 -0.54457768344E+01 -0.23633083840E+02  0.96097295106E+02  0.91647824723E+02 0.  0.
         11    1    3    3    0    0 -0.32933138955E+02  0.94318582327E+01 -0.29069322764E+02  0.44928577958E+02  0.51100000000E-03 0. -1.
         22    1    1    0    0    0 -0.15722188559E+02  0.54457768344E+01  0.23633083840E+02  0.28902704894E+02  0.00000000000E+00 0. -1.
</event>
<event>
 5    1  0.1659417E-003  0.9118800E+02  0.7818608E-02  0.1130116E+00
         25   -1    0    0    0    0  0.00000000000E+00  0.00000000000E+00  0.99999998245E-14  0.12500000000E+03  0.12500000000E+03 0.  0.
        -11    1    3    3    0    0 -0.92880656848E+01 -0.26569854992E+02  0.36357881910E+02  0.45979570852E+02  0.51100000000E-03 0.  1.
         23    2    1    0    0    0 -0.75120304351E+01  0.14006837095E+02  0.34934194200E+02  0.86620057178E+02  0.77653166674E+02 0.  0.
         11    1    3    3    0    0  0.17760352497E+01  0.40576692086E+02 -0.14236877105E+01  0.40640486326E+02  0.51100000000E-03 0. -1.
         22    1    1    0    0    0  0.75120304351E+01 -0.14006837095E+02 -0.34934194200E+02  0.38379942822E+02  0.00000000000E+00 0.  1.
</event>
<event>
 5    1  0.1659417E-003  0.9118800E+02  0.7818608E-02  0.1130116E+00
         25   -1    0    0    0    0  0.00000000000E+00  0.00000000000E+00  0.99999998245E-14  0.12500000000E+03  0.12500000000E+03 0.  0.
        -11    1    3    3    0    0 -0.39460679056E+02  0.58523590769E+01 -0.40459171045E+02  0.56818481326E+02  0.51100000000E-03 0.  1.
         23    2    1    0    0    0 -0.28478118772E+02 -0.21246428680E+01 -0.34540064316E+01  0.96234612526E+02  0.91834923267E+02 0.  0.
         11    1    3    3    0    0  0.10982560284E+02 -0.79770019449E+01  0.37005164613E+02  0.39416131200E+02  0.51100000000E-03 0. -1.
         22    1    1    0    0    0  0.28478118772E+02  0.21246428680E+01  0.34540064316E+01  0.28765387474E+02  0.00000000000E+00 0. -1.
</event>
<event>
 5    1  0.1659417E-003  0.9118800E+02  0.7818608E-02  0.1130116E+00
         25   -1    0    0    0    0  0.00000000000E+00  0.00000000000E+00  0.99999998245E-14  0.12500000000E+03  0.12500000000E+03 0.  0.
        -11    1    3    3    0    0 -0.66304153581E+01  0.17928856876E+02  0.29696658352E+02  0.35317103990E+02  0.51100000000E-03 0.  1.
         23    2    1    0    0    0 -0.24642852659E+02 -0.10015502775E+02 -0.17581319388E+02  0.93114528788E+02  0.87485039846E+02 0.  0.
         11    1    3    3    0    0 -0.18012437301E+02 -0.27944359650E+02 -0.47277977740E+02  0.57797424798E+02  0.51100000000E-03 0. -1.
         22    1    1    0    0    0  0.24642852659E+02  0.10015502775E+02  0.17581319388E+02  0.31885471212E+02  0.00000000000E+00 0. -1.
</event>
<event>
 5    1  0.1659417E-003  0.9118800E+02  0.7818608E-02  0.1130116E+00
         25   -1    0    0    0    0  0.00000000000E+00  0.00000000000E+00  0.99999998245E-14  0.12500000000E+03  0.12500000000E+03 0.  0.
        -11    1    3    3    0    0 -0.22906963196E+02 -0.17769474646E+01  0.32587013755E+02  0.39872295782E+02  0.51100000000E-03 0. -1.
         23    2    1    0    0    0  0.14737491389E+02 -0.26104256658E+02  0.45787192907E+00  0.95019414368E+02  0.90165700751E+02 0.  0.
         11    1    3    3    0    0  0.37644454585E+02 -0.24327309194E+02 -0.32129141826E+02  0.55147118586E+02  0.51100000000E-03 0.  1.
         22    1    1    0    0    0 -0.14737491389E+02  0.26104256658E+02 -0.45787192907E+00  0.29980585632E+02  0.00000000000E+00 0.  1.
</event>
<event>
 5    1  0.1659417E-003  0.9118800E+02  0.7818608E-02  0.1130116E+00
         25   -1    0    0    0    0  0.00000000000E+00  0.00000000000E+00  0.99999998245E-14  0.12500000000E+03  0.12500000000E+03 0.  0.
        -11    1    3    3    0    0 -0.20529929544E+02 -0.43531384266E+02 -0.18232582010E+01  0.48164132858E+02  0.51100000000E-03 0.  1.
         23    2    1    0    0    0  0.10562624603E+02 -0.23854389905E+02 -0.22655222115E+02  0.90447720114E+02  0.83587858140E+02 0.  0.
         11    1    3    3    0    0  0.31092554147E+02  0.19676994361E+02 -0.20831963914E+02  0.42283587256E+02  0.51100000000E-03 0. -1.
         22    1    1    0    0    0 -0.10562624603E+02  0.23854389905E+02  0.22655222115E+02  0.34552279886E+02  0.00000000000E+00 0. -1.
</event>
<event>
 5    1  0.1659417E-003  0.9118800E+02  0.7818608E-02  0.1130116E+00
         25   -1    0    0    0    0  0.00000000000E+00  0.00000000000E+00  0.99999998245E-14  0.12500000000E+03  0.12500000000E+03 0.  0.
        -11    1    3    3    0    0  0.50777600292E-02 -0.59504784843E+02  0.12347074572E+02  0.60772277362E+02  0.51100000000E-03 0. -1.
         23    2    1    0    0    0 -0.70519103268E+01 -0.22392992850E+02  0.12184313455E+02  0.98549422267E+02  0.94933427025E+02 0.  0.
         11    1    3    3    0    0 -0.70569880868E+01  0.37111791993E+02 -0.16276111711E+00  0.37777144905E+02  0.51100000000E-03 0.  1.
         22    1    1    0    0    0  0.70519103268E+01  0.22392992850E+02 -0.12184313455E+02  0.26450577733E+02  0.00000000000E+00 0. -1.
</event>
<event>
 5    1  0.1659417E-003  0.9118800E+02  0.7818608E-02  0.1130116E+00
         25   -1    0    0    0    0  0.00000000000E+00  0.00000000000E+00  0.99999998245E-14  0.12500000000E+03  0.12500000000E+03 0.  0.
        -11    1    3    3    0    0 -0.12461025960E+01 -0.47890516673E+02 -0.70191113963E+01  0.48418201990E+02  0.51100000000E-03 0. -1.
         23    2    1    0    0    0 -0.12218982753E+02 -0.37023401546E+01 -0.24647482554E+02  0.97241951466E+02  0.93195964862E+02 0.  0.
         11    1    3    3    0    0 -0.10972880157E+02  0.44188176519E+02 -0.17628371158E+02  0.48823749476E+02  0.51100000000E-03 0.  1.
         22    1    1    0    0    0  0.12218982753E+02  0.37023401546E+01  0.24647482554E+02  0.27758048534E+02  0.00000000000E+00 0.  1.
</event>
<event>
 5    1  0.1659417E-003  0.9118800E+02  0.7818608E-02  0.1130116E+00
         25   -1    0    0    0    0  0.00000000000E+00  0.00000000000E+00  0.99999998245E-14  0.12500000000E+03  0.12500000000E+03 0.  0.
        -11    1    3    3    0    0 -0.57581173087E+01 -0.23090858303E+02  0.45476328718E+02  0.51326797348E+02  0.51100000000E-03 0. -1.
         23    2    1    0    0    0 -0.18196633632E+02  0.10675636525E+02  0.10804076322E+02  0.10129736817E+03  0.98485237682E+02 0.  0.
         11    1    3    3    0    0 -0.12438516323E+02  0.33766494828E+02 -0.34672252396E+02  0.49970570817E+02  0.51100000000E-03 0.  1.
         22    1    1    0    0    0  0.18196633632E+02 -0.10675636525E+02 -0.10804076322E+02  0.23702631835E+02  0.00000000000E+00 0.  1.
</event>
<event>
 5    1  0.1659417E-003  0.9118800E+02  0.7818608E-02  0.1130116E+00
         25   -1    0    0    0    0  0.00000000000E+00  0.00000000000E+00  0.99999998245E-14  0.12500000000E+03  0.12500000000E+03 0.  0.
        -11    1    3    3    0    0 -0.30414421342E+02 -0.21786319105E+02 -0.27024537228E+02  0.46151991705E+02  0.51100000000E-03 0.  1.
         23    2    1    0    0    0  0.15658580636E+02 -0.73411501961E+01 -0.25156366068E+02  0.94472530608E+02  0.89404321215E+02 0.  0.
         11    1    3    3    0    0  0.46073001978E+02  0.14445168909E+02  0.18681711600E+01  0.48320538903E+02  0.51100000000E-03 0. -1.
         22    1    1    0    0    0 -0.15658580636E+02  0.73411501961E+01  0.25156366068E+02  0.30527469392E+02  0.00000000000E+00 0.  1.
</event>
<event>
 5    1  0.1659417E-003  0.9118800E+02  0.7818608E-02  0.1130116E+00
         25   -1    0    0    0    0  0.00000000000E+00  0.00000000000E+00  0.99999998245E-14  0.12500000000E+03  0.12500000000E+03 0.  0.
        -11    1    3    3    0    0 -0.10802710552E+02  0.39527785054E+02 -0.31074962085E+02  0.51427595855E+02  0.51100000000E-03 0.  1.
         23    2    1    0    0    0 -0.16029353340E+02 -0.15151660065E+00 -0.29434842599E+02  0.91483241735E+02  0.85122326294E+02 0.  0.
         11    1    3    3    0    0 -0.52266427882E+01 -0.39679301655E+02  0.16401194857E+01  0.40055645880E+02  0.51100000000E-03 0. -1.
         22    1    1    0    0    0  0.16029353340E+02  0.15151660065E+00  0.29434842599E+02  0.33516758265E+02  0.00000000000E+00 0.  1.
</event>
<event>
 5    1  0.1659417E-003  0.9118800E+02  0.7818608E-02  0.1130116E+00
         25   -1    0    0    0    0  0.00000000000E+00  0.00000000000E+00  0.99999998245E-14  0.12500000000E+03  0.12500000000E+03 0.  0.
        -11    1    3    3    0    0 -0.13061098113E+02  0.42923849358E+02  0.14492095067E+02  0.47149442704E+02  0.51100000000E-03 0.  1.
         23    2    1    0    0    0  0.13866811721E+02  0.62710092331E+01  0.26723599006E+02  0.94246711266E+02  0.89088034082E+02 0.  0.
         11    1    3    3    0    0  0.26927909833E+02 -0.36652840124E+02  0.12231503940E+02  0.47097268563E+02  0.51100000000E-03 0. -1.
         22    1    1    0    0    0 -0.13866811721E+02 -0.62710092331E+01 -0.26723599006E+02  0.30753288734E+02  0.00000000000E+00 0. -1.
</event>
<event>
 5    1  0.1659417E-003  0.9118800E+02  0.7818608E-02  0.1130116E+00
         25   -1    0    0    0    0  0.00000000000E+00  0.00000000000E+00  0.99999998245E-14  0.12500000000E+03  0.12500000000E+03 0.  0.
        -11    1    3    3    0    0 -0.90325440393E+01 -0.41494247025E+02 -0.15048226962E+02  0.45053396353E+02  0.51100000000E-03 0. -1.
         23    2    1    0    0    0  0.28148473652E+02 -0.10313361123E+02 -0.50079613048E+01  0.94606223284E+02  0.89591047661E+02 0.  0.
         11    1    3    3    0    0  0.37181017692E+02  0.31180885901E+02  0.10040265657E+02  0.49552826931E+02  0.51100000000E-03 0.  1.
         22    1    1    0    0    0 -0.28148473652E+02  0.10313361123E+02  0.50079613048E+01  0.30393776716E+02  0.00000000000E+00 0.  1.
</event>
<event>
 5    1  0.1659417E-003  0.9118800E+02  0.7818608E-02  0.1130116E+00
         25   -1    0    0    0    0  0.00000000000E+00  0.00000000000E+00  0.99999998245E-14  0.12500000000E+03  0.12500000000E+03 0.  0.
        -11    1    3    3    0    0  0.15996869119E+02  0.38381386413E+02  0.67568422868E+01  0.42127017014E+02  0.51100000000E-03 0.  1.
         23    2    1    0    0    0 -0.63857776736E+01 -0.56610865418E+01 -0.23458103023E+02  0.10003785557E+03  0.96873442653E+02 0.  0.
         11    1    3    3    0    0 -0.22382646793E+02 -0.44042472955E+02 -0.30214945310E+02  0.57910838551E+02  0.51100000000E-03 0. -1.
         22    1    1    0    0    0  0.63857776736E+01  0.56610865418E+01  0.23458103023E+02  0.24962144434E+02  0.00000000000E+00 0. -1.
</event>
<event>
 5    1  0.1659417E-003  0.9118800E+02  0.7818608E-02  0.1130116E+00
         25   -1    0    0    0    0  0.00000000000E+00  0.00000000000E+00  0.99999998245E-14  0.12500000000E+03  0.12500000000E+03 0.  0.
        -11    1    3    3    0    0  0.44947099497E+02 -0.20368108790E+02  0.24863528757E+02  0.55256643686E+02  0.51100000000E-03 0.  1.
         23    2    1    0    0    0  0.27238742140E+02 -0.39435083624E+01 -0.82725115941E+01  0.96260918950E+02  0.91870722961E+02 0.  0.
         11    1    3    3    0    0 -0.17708357357E+02  0.16424600428E+02 -0.33136040351E+02  0.41004275264E+02  0.51100000000E-03 0. -1.
         22    1    1    0    0    0 -0.27238742140E+02  0.39435083624E+01  0.82725115941E+01  0.28739081050E+02  0.00000000000E+00 0.  1.
</event>
<event>
 5    1  0.1659417E-003  0.9118800E+02  0.7818608E-02  0.1130116E+00
         25   -1    0    0    0    0  0.00000000000E+00  0.00000000000E+00  0.99999998245E-14  0.12500000000E+03  0.12500000000E+03 0.  0.
        -11    1    3    3    0    0 -0.24653276297E+02  0.13355428933E+02  0.41038940878E+02  0.49702577225E+02  0.51100000000E-03 0.  1.
         23    2    1    0    0    0  0.11296818777E+02  0.22856778253E+02  0.12336329445E+02  0.96676238760E+02  0.92434082946E+02 0.  0.
         11    1    3    3    0    0  0.35950095074E+02  0.95013493205E+01 -0.28702611433E+02  0.46973661536E+02  0.51100000000E-03 0. -1.
         22    1    1    0    0    0 -0.11296818777E+02 -0.22856778253E+02 -0.12336329445E+02  0.28323761240E+02  0.00000000000E+00 0.  1.
</event>
<event>
 5    1  0.1659417E-003  0.9118800E+02  0.7818608E-02  0.1130116E+00
         25   -1    0    0    0    0  0.00000000000E+00  0.00000000000E+00  0.99999998245E-14  0.12500000000E+03  0.12500000000E+03 0.  0.
        -11    1    3    3    0    0  0.32914303449E+01 -0.12908175286E+02 -0.49511531210E+02  0.51272275412E+02  0.51100000000E-03 0. -1.
         23    2    1    0    0    0  0.29259369166E+01  0.20737470995E+02 -0.20357646670E+02  0.95793192779E+02  0.91232111642E+02 0.  0.
         11    1    3    3    0    0 -0.36549342830E+00  0.33645646281E+02  0.29153884540E+02  0.44520917366E+02  0.51100000000E-03 0.  1.
         22    1    1    0    0    0 -0.29259369166E+01 -0.20737470995E+02  0.20357646670E+02  0.29206807221E+02  0.00000000000E+00 0.  1.
</event>
<event>
 5    1  0.1659417E-003  0.9118800E+02  0.7818608E-02  0.1130116E+00
         25   -1    0    0    0    0  0.00000000000E+00  0.00000000000E+00  0.99999998245E-14  0.12500000000E+03  0.12500000000E+03 0.  0.
        -11    1    3    3    0    0 -0.41893756003E+02 -0.32381185454E+02  0.28583372786E+02  0.60171730601E+02  0.51100000000E-03 0. -1.
         23    2    1    0    0    0 -0.27136864651E+02 -0.61361865099E+01  0.10700290745E+02  0.95191302780E+02  0.90403681866E+02 0.  0.
         11    1    3    3    0    0  0.14756891352E+02  0.26244998944E+02 -0.17883082042E+02  0.35019572178E+02  0.51100000000E-03 0.  1.
         22    1    1    0    0    0  0.27136864651E+02  0.61361865099E+01 -0.10700290745E+02  0.29808697220E+02  0.00000000000E+00 0. -1.
</event>
<event>
 5    1  0.1659417E-003  0.9118800E+02  0.7818608E-02  0.1130116E+00
         25   -1    0    0    0    0  0.00000000000E+00  0.00000000000E+00  0.99999998245E-14  0.12500000000E+03  0.12500000000E+03 0.  0.
        -11    1    3    3    0    0  0.41724478243E+02  0.21343575991E+02  0.30562144236E+02  0.55951094550E+02  0.51100000000E-03 0.  1.
         23    2    1    0    0    0  0.59189142689E+01  0.47645168417E+01  0.28545856136E+02  0.95460195170E+02  0.90774714499E+02 0.  0.
         11    1    3    3    0    0 -0.35805563975E+02 -0.16579059149E+02 -0.20162880998E+01  0.39509100620E+02  0.51100000000E-03 0. -1.
         22    1    1    0    0    0 -0.59189142689E+01 -0.47645168417E+01 -0.28545856136E+02  0.29539804830E+02  0.00000000000E+00 0. -1.
</event>
<event>
 5    1  0.1659417E-003  0.9118800E+02  0.7818608E-02  0.1130116E+00
         25   -1    0    0    0    0  0.00000000000E+00  0.00000000000E+00  0.99999998245E-14  0.12500000000E+03  0.12500000000E+03 0.  0.
        -11    1    3    3    0    0 -0.23038322536E+02  0.14492752358E+02 -0.41027174422E+02  0.49234471842E+02  0.51100000000E-03 0.  1.
         23    2    1    0    0    0 -0.28914909472E+02  0.46062281999E+00  0.31050740614E+01  0.95915199020E+02  0.91399123381E+02 0.  0.
         11    1    3    3    0    0 -0.58765869354E+01 -0.14032129538E+02  0.44132248483E+02  0.46680727178E+02  0.51100000000E-03 0. -1.
         22    1    1    0    0    0  0.28914909472E+02 -0.46062281999E+00 -0.31050740614E+01  0.29084800980E+02  0.00000000000E+00 0.  1.
</event>
<event>
 5    1  0.1659417E-003  0.9118800E+02  0.7818608E-02  0.1130116E+00
         25   -1    0    0    0    0  0.00000000000E+00  0.00000000000E+00  0.99999998245E-14  0.12500000000E+03  0.12500000000E+03 0.  0.
        -11    1    3    3    0    0  0.36812216730E+02 -0.21644971774E+02 -0.20441285495E+02  0.47344379356E+02  0.51100000000E-03 0.  1.
         23    2    1    0    0    0  0.14713062522E+02 -0.11846348282E+02  0.21886748695E+02  0.96089103354E+02  0.91636651175E+02 0.  0.
         11    1    3    3    0    0 -0.22099154207E+02  0.97986234918E+01  0.42328034190E+02  0.48744723998E+02  0.51100000000E-03 0. -1.
         22    1    1    0    0    0 -0.14713062522E+02  0.11846348282E+02 -0.21886748695E+02  0.28910896646E+02  0.00000000000E+00 0.  1.
</event>
<event>
 5    1  0.1659417E-003  0.9118800E+02  0.7818608E-02  0.1130116E+00
         25   -1    0    0    0    0  0.00000000000E+00  0.00000000000E+00  0.99999998245E-14  0.12500000000E+03  0.12500000000E+03 0.  0.
        -11    1    3    3    0    0  0.38469302060E+02 -0.43644498411E+02 -0.11153335877E+02  0.59237879300E+02  0.51100000000E-03 0. -1.
         23    2    1    0    0    0  0.11822010132E+02 -0.21027997347E+02 -0.18060473256E+02  0.94865015510E+02  0.89951397307E+02 0.  0.
         11    1    3    3    0    0 -0.26647291928E+02  0.22616501064E+02 -0.69071373791E+01  0.35627136210E+02  0.51100000000E-03 0.  1.
         22    1    1    0    0    0 -0.11822010132E+02  0.21027997347E+02  0.18060473256E+02  0.30134984490E+02  0.00000000000E+00 0. -1.
</event>
<event>
 5    1  0.1659417E-003  0.9118800E+02  0.7818608E-02  0.1130116E+00
         25   -1    0    0    0    0  0.00000000000E+00  0.00000000000E+00  0.99999998245E-14  0.12500000000E+03  0.12500000000E+03 0.  0.
        -11    1    3    3    0    0  0.12798838188E+02  0.58593963948E+02  0.12782824387E+02  0.61322617929E+02  0.51100000000E-03 0.  1.
         23    2    1    0    0    0  0.11889178850E+02  0.26732258191E+02 -0.20654125863E+00  0.95742370892E+02  0.91162452375E+02 0.  0.
         11    1    3    3    0    0 -0.90965933803E+00 -0.31861705757E+02 -0.12989365645E+02  0.34419752963E+02  0.51100000000E-03 0. -1.
         22    1    1    0    0    0 -0.11889178850E+02 -0.26732258191E+02  0.20654125863E+00  0.29257629108E+02  0.00000000000E+00 0.  1.
</event>
<event>
 5    1  0.1659417E-003  0.9118800E+02  0.7818608E-02  0.1130116E+00
         25   -1    0    0    0    0  0.00000000000E+00  0.00000000000E+00  0.99999998245E-14  0.12500000000E+03  0.12500000000E+03 0.  0.
        -11    1    3    3    0    0  0.27148328931E+02  0.33485443127E+02  0.26965575127E+02  0.50847309736E+02  0.51100000000E-03 0.  1.
         23    2    1    0    0    0  0.29641141498E+02  0.14620285122E+01 -0.34993574075E+01  0.95117224042E+02  0.90301196064E+02 0.  0.
         11    1    3    3    0    0  0.24928125670E+01 -0.32023414615E+02 -0.30464932535E+02  0.44269914306E+02  0.51100000000E-03 0. -1.
         22    1    1    0    0    0 -0.29641141498E+02 -0.14620285122E+01  0.34993574075E+01  0.29882775958E+02  0.00000000000E+00 0.  1.
</event>
<event>
 5    1  0.1659417E-003  0.9118800E+02  0.7818608E-02  0.1130116E+00
         25   -1    0    0    0    0  0.00000000000E+00  0.00000000000E+00  0.99999998245E-14  0.12500000000E+03  0.12500000000E+03 0.  0.
        -11    1    3    3    0    0  0.15726312008E+02  0.38932940828E+02 -0.26766870235E+02  0.49795141463E+02  0.51100000000E-03 0. -1.
         23    2    1    0    0    0 -0.21181789292E+02  0.17273819918E+02 -0.12871947801E+02  0.94788411290E+02  0.89844882006E+02 0.  0.
         11    1    3    3    0    0 -0.36908101299E+02 -0.21659120909E+02  0.13894922434E+02  0.44993269828E+02  0.51100000000E-03 0.  1.
         22    1    1    0    0    0  0.21181789292E+02 -0.17273819918E+02  0.12871947801E+02  0.30211588710E+02  0.00000000000E+00 0.  1.
</event>
<event>
 5    1  0.1659417E-003  0.9118800E+02  0.7818608E-02  0.1130116E+00
         25   -1    0    0    0    0  0.00000000000E+00  0.00000000000E+00  0.99999998245E-14  0.12500000000E+03  0.12500000000E+03 0.  0.
        -11    1    3    3    0    0  0.34619374215E+02  0.18254068453E+02  0.82761013929E+01  0.40002574176E+02  0.51100000000E-03 0.  1.
         23    2    1    0    0    0 -0.19522842865E+02  0.19665632930E+02 -0.72726482821E+01  0.96350917553E+02  0.91993094242E+02 0.  0.
         11    1    3    3    0    0 -0.54142217080E+02  0.14115644765E+01 -0.15548749675E+02  0.56348343377E+02  0.51100000000E-03 0. -1.
         22    1    1    0    0    0  0.19522842865E+02 -0.19665632930E+02  0.72726482821E+01  0.28649082447E+02  0.00000000000E+00 0. -1.
</event>
<event>
 5    1  0.1659417E-003  0.9118800E+02  0.7818608E-02  0.1130116E+00
         25   -1    0    0    0    0  0.00000000000E+00  0.00000000000E+00  0.99999998245E-14  0.12500000000E+03  0.12500000000E+03 0.  0.
        -11    1    3    3    0    0  0.98596700434E+01 -0.31634763605E+02 -0.16913310059E+02  0.37202572749E+02  0.51100000000E-03 0.  1.
         23    2    1    0    0    0  0.10558414437E+02  0.11365913740E+02  0.23909354545E+02  0.96498748355E+02  0.92193747558E+02 0.  0.
         11    1    3    3    0    0  0.69874439380E+00  0.43000677345E+02  0.40822664604E+02  0.59296175606E+02  0.51100000000E-03 0. -1.
         22    1    1    0    0    0 -0.10558414437E+02 -0.11365913740E+02 -0.23909354545E+02  0.28501251645E+02  0.00000000000E+00 0. -1.
</event>
<event>
 5    1  0.1659417E-003  0.9118800E+02  0.7818608E-02  0.1130116E+00
         25   -1    0    0    0    0  0.00000000000E+00  0.00000000000E+00  0.99999998245E-14  0.12500000000E+03  0.12500000000E+03 0.  0.
        -11    1    3    3    0    0  0.37849855872E+02  0.15809796740E+02 -0.23271273922E+01  0.41084994641E+02  0.51100000000E-03 0.  1.
         23    2    1    0    0    0 -0.64298528279E+00 -0.55584950015E+01  0.29221307062E+02  0.95247771795E+02  0.90481727153E+02 0.  0.
         11    1    3    3    0    0 -0.38492841155E+02 -0.21368291742E+02  0.31548434455E+02  0.54162777153E+02  0.51100000000E-03 0. -1.
         22    1    1    0    0    0  0.64298528279E+00  0.55584950015E+01 -0.29221307062E+02  0.29752228205E+02  0.00000000000E+00 0. -1.
</event>
<event>
 5    1  0.1659417E-003  0.9118800E+02  0.7818608E-02  0.1130116E+00
         25   -1    0    0    0    0  0.00000000000E+00  0.00000000000E+00  0.99999998245E-14  0.12500000000E+03  0.12500000000E+03 0.  0.
        -11    1    3    3    0    0  0.18495422822E+01  0.21090138173E+01  0.51084085847E+02  0.51161045465E+02  0.51100000000E-03 0. -1.
         23    2    1    0    0    0 -0.98064018725E+00  0.45878172724E+01 -0.10834271597E+02  0.11319359650E+03  0.11257619254E+03 0.  0.
         11    1    3    3    0    0 -0.28301824695E+01  0.24788034551E+01 -0.61918357444E+02  0.62032551038E+02  0.51100000000E-03 0.  1.
         22    1    1    0    0    0  0.98064018725E+00 -0.45878172724E+01  0.10834271597E+02  0.11806403497E+02  0.00000000000E+00 0.  1.
</event>
<event>
 5    1  0.1659417E-003  0.9118800E+02  0.7818608E-02  0.1130116E+00
         25   -1    0    0    0    0  0.00000000000E+00  0.00000000000E+00  0.99999998245E-14  0.12500000000E+03  0.12500000000E+03 0.  0.
        -11    1    3    3    0    0 -0.70930068126E+00  0.41011320682E+02  0.84661236651E+00  0.41026190224E+02  0.51100000000E-03 0. -1.
         23    2    1    0    0    0 -0.15591771131E+02 -0.64545597389E+01  0.23811148680E+02  0.95815492640E+02  0.91262660272E+02 0.  0.
         11    1    3    3    0    0 -0.14882470450E+02 -0.47465880421E+02  0.22964536313E+02  0.54789302415E+02  0.51100000000E-03 0.  1.
         22    1    1    0    0    0  0.15591771131E+02  0.64545597389E+01 -0.23811148680E+02  0.29184507360E+02  0.00000000000E+00 0.  1.
</event>
<event>
 5    1  0.1659417E-003  0.9118800E+02  0.7818608E-02  0.1130116E+00
         25   -1    0    0    0    0  0.00000000000E+00  0.00000000000E+00  0.99999998245E-14  0.12500000000E+03  0.12500000000E+03 0.  0.
        -11    1    3    3    0    0 -0.48779216729E+01  0.30682912601E+02  0.53570793559E+02  0.61927902987E+02  0.51100000000E-03 0.  1.
         23    2    1    0    0    0 -0.78538828789E+01  0.13267987295E+02  0.21501424610E+02  0.98541840136E+02  0.94923443015E+02 0.  0.
         11    1    3    3    0    0 -0.29759612060E+01 -0.17414925306E+02 -0.32069368949E+02  0.36613937149E+02  0.51100000000E-03 0. -1.
         22    1    1    0    0    0  0.78538828789E+01 -0.13267987295E+02 -0.21501424610E+02  0.26458159864E+02  0.00000000000E+00 0.  1.
</event>
<event>
 5    1  0.1659417E-003  0.9118800E+02  0.7818608E-02  0.1130116E+00
         25   -1    0    0    0    0  0.00000000000E+00  0.00000000000E+00  0.99999998245E-14  0.12500000000E+03  0.12500000000E+03 0.  0.
        -11    1    3    3    0    0 -0.21926004015E+02 -0.14987536423E+02 -0.22019164275E+02  0.34499557906E+02  0.51100000000E-03 0.  1.
         23    2    1    0    0    0  0.14329263795E+02  0.26123056357E+02  0.35698690302E+01  0.94991903773E+02  0.90127553740E+02 0.  0.
         11    1    3    3    0    0  0.36255267810E+02  0.41110592780E+02  0.25589033305E+02  0.60492345866E+02  0.51100000000E-03 0. -1.
         22    1    1    0    0    0 -0.14329263795E+02 -0.26123056357E+02 -0.35698690302E+01  0.30008096227E+02  0.00000000000E+00 0. -1.
</event>
<event>
 5    1  0.1659417E-003  0.9118800E+02  0.7818608E-02  0.1130116E+00
         25   -1    0    0    0    0  0.00000000000E+00  0.00000000000E+00  0.99999998245E-14  0.12500000000E+03  0.12500000000E+03 0.  0.
        -11    1    3    3    0    0 -0.32464802415E+02 -0.71129676986E+01  0.14972763603E+02  0.36451904690E+02  0.51100000000E-03 0. -1.
         23    2    1    0    0    0  0.24910278937E+02 -0.15409818250E+02  0.44002177671E+01  0.95379966043E+02  0.90664168837E+02 0.  0.
         11    1    3    3    0    0  0.57375081352E+02 -0.82968505513E+01 -0.10572545836E+02  0.58928061354E+02  0.51100000000E-03 0.  1.
         22    1    1    0    0    0 -0.24910278937E+02  0.15409818250E+02 -0.44002177671E+01  0.29620033957E+02  0.00000000000E+00 0.  1.
</event>
<event>
 5    1  0.1659417E-003  0.9118800E+02  0.7818608E-02  0.1130116E+00
         25   -1    0    0    0    0  0.00000000000E+00  0.00000000000E+00  0.99999998245E-14  0.12500000000E+03  0.12500000000E+03 0.  0.
        -11    1    3    3    0    0 -0.72818746200E+01  0.60311856558E+02  0.64014288385E+01  0.61086201641E+02  0.51100000000E-03 0. -1.
         23    2    1    0    0    0  0.29086628374E+01  0.27972465115E+02 -0.40937736653E+01  0.96580321836E+02  0.92304281911E+02 0.  0.
         11    1    3    3    0    0  0.10190537457E+02 -0.32339391443E+02 -0.10495202504E+02  0.35494120196E+02  0.51100000000E-03 0.  1.
         22    1    1    0    0    0 -0.29086628374E+01 -0.27972465115E+02  0.40937736653E+01  0.28419678164E+02  0.00000000000E+00 0. -1.
</event>
<event>
 5    1  0.1659417E-003  0.9118800E+02  0.7818608E-02  0.1130116E+00
         25   -1    0    0    0    0  0.00000000000E+00  0.00000000000E+00  0.99999998245E-14  0.12500000000E+03  0.12500000000E+03 0.  0.
        -11    1    3    3    0    0  0.23592628993E+02 -0.25621450317E+02 -0.56208312398E+01  0.35279804467E+02  0.51100000000E-03 0.  1.
         23    2    1    0    0    0 -0.10575466322E+02  0.11885673733E+02  0.25604382547E+02  0.94855446036E+02  0.89938098207E+02 0.  0.
         11    1    3    3    0    0 -0.34168095316E+02  0.37507124051E+02  0.31225213787E+02  0.59575641569E+02  0.51100000000E-03 0. -1.
         22    1    1    0    0    0  0.10575466322E+02 -0.11885673733E+02 -0.25604382547E+02  0.30144553964E+02  0.00000000000E+00 0. -1.
</event>
<event>
 5    1  0.1659417E-003  0.9118800E+02  0.7818608E-02  0.1130116E+00
         25   -1    0    0    0    0  0.00000000000E+00  0.00000000000E+00  0.99999998245E-14  0.12500000000E+03  0.12500000000E+03 0.  0.
        -11    1    3    3    0    0 -0.14011815777E+02  0.15904908419E+02 -0.26589883801E+02  0.34004691058E+02  0.51100000000E-03 0.  1.
         23    2    1    0    0    0  0.19265963912E+02 -0.20523826899E+02  0.96699423995E+01  0.95235715663E+02  0.90465070142E+02 0.  0.
         11    1    3    3    0    0  0.33277779689E+02 -0.36428735318E+02  0.36259826200E+02  0.61231024605E+02  0.51100000000E-03 0. -1.
         22    1    1    0    0    0 -0.19265963912E+02  0.20523826899E+02 -0.96699423995E+01  0.29764284337E+02  0.00000000000E+00 0. -1.
</event>
<event>
 5    1  0.1659417E-003  0.9118800E+02  0.7818608E-02  0.1130116E+00
         25   -1    0    0    0    0  0.00000000000E+00  0.00000000000E+00  0.99999998245E-14  0.12500000000E+03  0.12500000000E+03 0.  0.
        -11    1    3    3    0    0 -0.15271122932E+02  0.63455297930E+01 -0.44701212111E+02  0.47662053128E+02  0.51100000000E-03 0. -1.
         23    2    1    0    0    0 -0.30829331579E+01 -0.26735416514E+02 -0.12838041143E+02  0.95182181947E+02  0.90391069729E+02 0.  0.
         11    1    3    3    0    0  0.12188189774E+02 -0.33080946307E+02  0.31863170968E+02  0.47520128819E+02  0.51100000000E-03 0.  1.
         22    1    1    0    0    0  0.30829331579E+01  0.26735416514E+02  0.12838041143E+02  0.29817818053E+02  0.00000000000E+00 0. -1.
</event>
<event>
 5    1  0.1659417E-003  0.9118800E+02  0.7818608E-02  0.1130116E+00
         25   -1    0    0    0    0  0.00000000000E+00  0.00000000000E+00  0.99999998245E-14  0.12500000000E+03  0.12500000000E+03 0.  0.
        -11    1    3    3    0    0 -0.36575329193E+01 -0.21377515833E+02  0.57643324815E+02  0.61588380610E+02  0.51100000000E-03 0. -1.
         23    2    1    0    0    0 -0.90266058232E+01 -0.11398157796E+02  0.25839389710E+02  0.95350857105E+02  0.90624027036E+02 0.  0.
         11    1    3    3    0    0 -0.53690729039E+01  0.99793580370E+01 -0.31803935105E+02  0.33762476495E+02  0.51100000000E-03 0.  1.
         22    1    1    0    0    0  0.90266058232E+01  0.11398157796E+02 -0.25839389710E+02  0.29649142895E+02  0.00000000000E+00 0. -1.
</event>
<event>
 5    1  0.1659417E-003  0.9118800E+02  0.7818608E-02  0.1130116E+00
         25   -1    0    0    0    0  0.00000000000E+00  0.00000000000E+00  0.99999998245E-14  0.12500000000E+03  0.12500000000E+03 0.  0.
        -11    1    3    3    0    0 -0.55221451409E+01  0.13412765766E+02 -0.52458172033E+02  0.54426612845E+02  0.51100000000E-03 0. -1.
         23    2    1    0    0    0  0.17801670807E+02  0.11656115120E+02 -0.36529173272E+02  0.82725362176E+02  0.71107949935E+02 0.  0.
         11    1    3    3    0    0  0.23323815948E+02 -0.17566506454E+01  0.15928998761E+02  0.28298749331E+02  0.51100000000E-03 0.  1.
         22    1    1    0    0    0 -0.17801670807E+02 -0.11656115120E+02  0.36529173272E+02  0.42274637824E+02  0.00000000000E+00 0. -1.
</event>
<event>
 5    1  0.1659417E-003  0.9118800E+02  0.7818608E-02  0.1130116E+00
         25   -1    0    0    0    0  0.00000000000E+00  0.00000000000E+00  0.99999998245E-14  0.12500000000E+03  0.12500000000E+03 0.  0.
        -11    1    3    3    0    0 -0.29044039422E+01  0.31653237058E+02 -0.83545942144E+01  0.32865821506E+02  0.51100000000E-03 0. -1.
         23    2    1    0    0    0 -0.12527274919E+02 -0.86564030397E+01  0.31280288232E+02  0.90210312414E+02  0.83232073766E+02 0.  0.
         11    1    3    3    0    0 -0.96228709769E+01 -0.40309640098E+02  0.39634882446E+02  0.57344490908E+02  0.51100000000E-03 0.  1.
         22    1    1    0    0    0  0.12527274919E+02  0.86564030397E+01 -0.31280288232E+02  0.34789687586E+02  0.00000000000E+00 0.  1.
</event>
<event>
 5    1  0.1659417E-003  0.9118800E+02  0.7818608E-02  0.1130116E+00
         25   -1    0    0    0    0  0.00000000000E+00  0.00000000000E+00  0.99999998245E-14  0.12500000000E+03  0.12500000000E+03 0.  0.
        -11    1    3    3    0    0 -0.47720456381E+02  0.11113618140E+02  0.30564381680E+01  0.49092731436E+02  0.51100000000E-03 0.  1.
         23    2    1    0    0    0 -0.12452941114E+02  0.23314248932E+02  0.21693429148E+02  0.90805924288E+02  0.84121822804E+02 0.  0.
         11    1    3    3    0    0  0.35267515267E+02  0.12200630792E+02  0.18636990980E+02  0.41713192851E+02  0.51100000000E-03 0. -1.
         22    1    1    0    0    0  0.12452941114E+02 -0.23314248932E+02 -0.21693429148E+02  0.34194075712E+02  0.00000000000E+00 0.  1.
</event>
<event>
 5    1  0.1659417E-003  0.9118800E+02  0.7818608E-02  0.1130116E+00
         25   -1    0    0    0    0  0.00000000000E+00  0.00000000000E+00  0.99999998245E-14  0.12500000000E+03  0.12500000000E+03 0.  0.
        -11    1    3    3    0    0  0.89813868856E+01  0.10413610660E+02  0.25794713478E+02  0.29231418731E+02  0.51100000000E-03 0.  1.
         23    2    1    0    0    0 -0.17570169192E+02 -0.27943723637E+01 -0.28677086202E+02  0.91252486975E+02  0.84782791555E+02 0.  0.
         11    1    3    3    0    0 -0.26551556077E+02 -0.13207983023E+02 -0.54471799679E+02  0.62021068245E+02  0.51100000000E-03 0. -1.
         22    1    1    0    0    0  0.17570169192E+02  0.27943723637E+01  0.28677086202E+02  0.33747513025E+02  0.00000000000E+00 0. -1.
</event>
<event>
 5    1  0.1659417E-003  0.9118800E+02  0.7818608E-02  0.1130116E+00
         25   -1    0    0    0    0  0.00000000000E+00  0.00000000000E+00  0.99999998245E-14  0.12500000000E+03  0.12500000000E+03 0.  0.
        -11    1    3    3    0    0  0.31097264792E+01  0.36085899604E+02  0.11435930083E+01  0.36237692452E+02  0.51100000000E-03 0. -1.
         23    2    1    0    0    0  0.19485859361E+02 -0.69954403235E+01 -0.27556996683E+02  0.90532290959E+02  0.83714232599E+02 0.  0.
         11    1    3    3    0    0  0.16376132882E+02 -0.43081339928E+02 -0.28700589691E+02  0.54294598507E+02  0.51100000000E-03 0.  1.
         22    1    1    0    0    0 -0.19485859361E+02  0.69954403235E+01  0.27556996683E+02  0.34467709041E+02  0.00000000000E+00 0.  1.
</event>
<event>
 5    1  0.1659417E-003  0.9118800E+02  0.7818608E-02  0.1130116E+00
         25   -1    0    0    0    0  0.00000000000E+00  0.00000000000E+00  0.99999998245E-14  0.12500000000E+03  0.12500000000E+03 0.  0.
        -11    1    3    3    0    0  0.96064915672E+01  0.58819610373E+02 -0.17392345985E+02  0.62084820558E+02  0.51100000000E-03 0.  1.
         23    2    1    0    0    0  0.48552621378E+01  0.26228333931E+02 -0.13047528493E+02  0.95305942160E+02  0.90562053533E+02 0.  0.
         11    1    3    3    0    0 -0.47512294294E+01 -0.32591276442E+02  0.43448174924E+01  0.33221121602E+02  0.51100000000E-03 0. -1.
         22    1    1    0    0    0 -0.48552621378E+01 -0.26228333931E+02  0.13047528493E+02  0.29694057840E+02  0.00000000000E+00 0.  1.
</event>
<event>
 5    1  0.1659417E-003  0.9118800E+02  0.7818608E-02  0.1130116E+00
         25   -1    0    0    0    0  0.00000000000E+00  0.00000000000E+00  0.99999998245E-14  0.12500000000E+03  0.12500000000E+03 0.  0.
        -11    1    3    3    0    0 -0.23586342207E+02  0.36653334548E+02 -0.59941188649E+01  0.43996726394E+02  0.51100000000E-03 0.  1.
         23    2    1    0    0    0  0.19710012596E+01  0.10912452580E+02  0.28725453280E+02  0.94208473026E+02  0.89034365592E+02 0.  0.
         11    1    3    3    0    0  0.25557343467E+02 -0.25740881968E+02  0.34719572145E+02  0.50211746631E+02  0.51100000000E-03 0. -1.
         22    1    1    0    0    0 -0.19710012596E+01 -0.10912452580E+02 -0.28725453280E+02  0.30791526974E+02  0.00000000000E+00 0. -1.
</event>
<event>
 5    1  0.1659417E-003  0.9118800E+02  0.7818608E-02  0.1130116E+00
         25   -1    0    0    0    0  0.00000000000E+00  0.00000000000E+00  0.99999998245E-14  0.12500000000E+03  0.12500000000E+03 0.  0.
        -11    1    3    3    0    0 -0.31814297644E+01 -0.24884531418E+02 -0.46855386241E+02  0.53148740524E+02  0.51100000000E-03 0. -1.
         23    2    1    0    0    0 -0.15472859421E+01  0.12356279833E+02 -0.26730924974E+02  0.95510780019E+02  0.90844344925E+02 0.  0.
         11    1    3    3    0    0  0.16341438223E+01  0.37240811251E+02  0.20124461267E+02  0.42362039495E+02  0.51100000000E-03 0.  1.
         22    1    1    0    0    0  0.15472859421E+01 -0.12356279833E+02  0.26730924974E+02  0.29489219981E+02  0.00000000000E+00 0. -1.
</event>
<event>
 5    1  0.1659417E-003  0.9118800E+02  0.7818608E-02  0.1130116E+00
         25   -1    0    0    0    0  0.00000000000E+00  0.00000000000E+00  0.99999998245E-14  0.12500000000E+03  0.12500000000E+03 0.  0.
        -11    1    3    3    0    0 -0.36176683055E+02 -0.94786604224E+01  0.61038475386E+01  0.37892668886E+02  0.51100000000E-03 0. -1.
         23    2    1    0    0    0  0.76641986399E+01  0.26591677110E+02 -0.76115942796E+01  0.96298195183E+02  0.91921427293E+02 0.  0.
         11    1    3    3    0    0  0.43840881695E+02  0.36070337532E+02 -0.13715441818E+02  0.58405526297E+02  0.51100000000E-03 0.  1.
         22    1    1    0    0    0 -0.76641986399E+01 -0.26591677110E+02  0.76115942796E+01  0.28701804817E+02  0.00000000000E+00 0.  1.
</event>
<event>
 4    1  0.1659417E-003  0.9118800E+02  0.7818608E-02  0.1130116E+00
         25   -1    0    0    0    0  0.00000000000E+00  0.00000000000E+00  0.99999998245E-14  0.12500000000E+03  0.12500000000E+03 0.  0.
        -11    1    1    0    0    0  0.29408121829E+02 -0.38735124309E+02  0.45719567334E+01  0.48848237157E+02  0.51100000000E-03 0. -1.
         11    1    1    0    0    0  0.51293294490E+01 -0.43991081043E+01 -0.18050680354E+02  0.19274055988E+02  0.51100000000E-03 0.  1.
         22    1    1    0    0    0 -0.34537451278E+02  0.43134232413E+02  0.13478723621E+02  0.56877706855E+02  0.00000000000E+00 0. -1.
</event>
<event>
 5    1  0.1659417E-003  0.9118800E+02  0.7818608E-02  0.1130116E+00
         25   -1    0    0    0    0  0.00000000000E+00  0.00000000000E+00  0.99999998245E-14  0.12500000000E+03  0.12500000000E+03 0.  0.
        -11    1    3    3    0    0 -0.31994072412E+02  0.12487152807E+01  0.48034309904E+02  0.57727592082E+02  0.51100000000E-03 0. -1.
         23    2    1    0    0    0 -0.15419588047E+02 -0.16444542026E+02  0.19294211203E+02  0.95327567610E+02  0.90591897554E+02 0.  0.
         11    1    3    3    0    0  0.16574484365E+02 -0.17693257307E+02 -0.28740098701E+02  0.37599975528E+02  0.51100000000E-03 0.  1.
         22    1    1    0    0    0  0.15419588047E+02  0.16444542026E+02 -0.19294211203E+02  0.29672432390E+02  0.00000000000E+00 0. -1.
</event>
<event>
 5    1  0.1659417E-003  0.9118800E+02  0.7818608E-02  0.1130116E+00
         25   -1    0    0    0    0  0.00000000000E+00  0.00000000000E+00  0.99999998245E-14  0.12500000000E+03  0.12500000000E+03 0.  0.
        -11    1    3    3    0    0 -0.35431333752E+02 -0.41844731580E+02  0.12219631699E+02  0.56175442780E+02  0.51100000000E-03 0.  1.
         23    2    1    0    0    0 -0.23504202330E+02 -0.11309165777E+02 -0.11352947954E+02  0.96552958239E+02  0.92267218229E+02 0.  0.
         11    1    3    3    0    0  0.11927131422E+02  0.30535565802E+02 -0.23572579652E+02  0.40377515458E+02  0.51100000000E-03 0. -1.
         22    1    1    0    0    0  0.23504202330E+02  0.11309165777E+02  0.11352947954E+02  0.28447041761E+02  0.00000000000E+00 0.  1.
</event>
<event>
 5    1  0.1659417E-003  0.9118800E+02  0.7818608E-02  0.1130116E+00
         25   -1    0    0    0    0  0.00000000000E+00  0.00000000000E+00  0.99999998245E-14  0.12500000000E+03  0.12500000000E+03 0.  0.
        -11    1    3    3    0    0  0.48066444690E+02  0.26983795668E+02  0.12697831694E+01  0.55137289409E+02  0.51100000000E-03 0.  1.
         23    2    1    0    0    0  0.13884837286E+02  0.15586965035E+02  0.20297346596E+02  0.95884291795E+02  0.91356844016E+02 0.  0.
         11    1    3    3    0    0 -0.34181607404E+02 -0.11396830633E+02  0.19027563427E+02  0.40747002386E+02  0.51100000000E-03 0. -1.
         22    1    1    0    0    0 -0.13884837286E+02 -0.15586965035E+02 -0.20297346596E+02  0.29115708205E+02  0.00000000000E+00 0.  1.
</event>
<event>
 5    1  0.1659417E-003  0.9118800E+02  0.7818608E-02  0.1130116E+00
         25   -1    0    0    0    0  0.00000000000E+00  0.00000000000E+00  0.99999998245E-14  0.12500000000E+03  0.12500000000E+03 0.  0.
        -11    1    3    3    0    0 -0.43109087021E+02  0.43131045203E+02 -0.20464307474E+01  0.61015312202E+02  0.51100000000E-03 0. -1.
         23    2    1    0    0    0 -0.26008194966E+02  0.12570298947E+02 -0.21237091255E+01  0.96035387773E+02  0.91563349345E+02 0.  0.
         11    1    3    3    0    0  0.17100892055E+02 -0.30560746255E+02 -0.77278378110E-01  0.35020075571E+02  0.51100000000E-03 0.  1.
         22    1    1    0    0    0  0.26008194966E+02 -0.12570298947E+02  0.21237091255E+01  0.28964612227E+02  0.00000000000E+00 0. -1.
</event>
<event>
 5    1  0.1659417E-003  0.9118800E+02  0.7818608E-02  0.1130116E+00
         25   -1    0    0    0    0  0.00000000000E+00  0.00000000000E+00  0.99999998245E-14  0.12500000000E+03  0.12500000000E+03 0.  0.
        -11    1    3    3    0    0  0.34221577652E+02  0.45788893485E+02 -0.22170930062E+02  0.61313043340E+02  0.51100000000E-03 0. -1.
         23    2    1    0    0    0  0.11095043637E+02  0.25397875398E+02 -0.42920991373E+01  0.96954070116E+02  0.92809037971E+02 0.  0.
         11    1    3    3    0    0 -0.23126534014E+02 -0.20391018088E+02  0.17878830925E+02  0.35641026776E+02  0.51100000000E-03 0.  1.
         22    1    1    0    0    0 -0.11095043637E+02 -0.25397875398E+02  0.42920991373E+01  0.28045929884E+02  0.00000000000E+00 0. -1.
</event>
<event>
 5    1  0.1659417E-003  0.9118800E+02  0.7818608E-02  0.1130116E+00
         25   -1    0    0    0    0  0.00000000000E+00  0.00000000000E+00  0.99999998245E-14  0.12500000000E+03  0.12500000000E+03 0.  0.
        -11    1    3    3    0    0  0.46773759448E+02  0.31063592553E+01 -0.40697534596E+02  0.62078364694E+02  0.51100000000E-03 0. -1.
         23    2    1    0    0    0  0.21681908666E+02  0.65703490854E+01 -0.19538733158E+02  0.95082835296E+02  0.90253580671E+02 0.  0.
         11    1    3    3    0    0 -0.25091850781E+02  0.34639898301E+01  0.21158801437E+02  0.33004470602E+02  0.51100000000E-03 0.  1.
         22    1    1    0    0    0 -0.21681908666E+02 -0.65703490854E+01  0.19538733158E+02  0.29917164704E+02  0.00000000000E+00 0. -1.
</event>
<event>
 5    1  0.1659417E-003  0.9118800E+02  0.7818608E-02  0.1130116E+00
         25   -1    0    0    0    0  0.00000000000E+00  0.00000000000E+00  0.99999998245E-14  0.12500000000E+03  0.12500000000E+03 0.  0.
        -11    1    3    3    0    0 -0.40934086140E+01 -0.43282786545E+02 -0.11420957866E+01  0.43490918457E+02  0.51100000000E-03 0.  1.
         23    2    1    0    0    0  0.12789486283E+02 -0.12870106007E+01  0.25807306603E+02  0.96168690113E+02  0.91745149890E+02 0.  0.
         11    1    3    3    0    0  0.16882894897E+02  0.41995775944E+02  0.26949402390E+02  0.52677771656E+02  0.51100000000E-03 0. -1.
         22    1    1    0    0    0 -0.12789486283E+02  0.12870106007E+01 -0.25807306603E+02  0.28831309887E+02  0.00000000000E+00 0. -1.
</event>
<event>
 5    1  0.1659417E-003  0.9118800E+02  0.7818608E-02  0.1130116E+00
         25   -1    0    0    0    0  0.00000000000E+00  0.00000000000E+00  0.99999998245E-14  0.12500000000E+03  0.12500000000E+03 0.  0.
        -11    1    3    3    0    0  0.56242997204E+01 -0.28441202567E+02 -0.18552206491E+02  0.34419748935E+02  0.51100000000E-03 0.  1.
         23    2    1    0    0    0 -0.24018555173E+01  0.29562268257E+02 -0.19873145467E+01  0.95273815692E+02  0.90517699501E+02 0.  0.
         11    1    3    3    0    0 -0.80261552378E+01  0.58003470824E+02  0.16564891944E+02  0.60854066757E+02  0.51100000000E-03 0. -1.
         22    1    1    0    0    0  0.24018555173E+01 -0.29562268257E+02  0.19873145467E+01  0.29726184308E+02  0.00000000000E+00 0. -1.
</event>
<event>
 5    1  0.1659417E-003  0.9118800E+02  0.7818608E-02  0.1130116E+00
         25   -1    0    0    0    0  0.00000000000E+00  0.00000000000E+00  0.99999998245E-14  0.12500000000E+03  0.12500000000E+03 0.  0.
        -11    1    3    3    0    0  0.34988280183E+02 -0.26477010438E+02  0.35967396805E+02  0.56735046180E+02  0.51100000000E-03 0.  1.
         23    2    1    0    0    0  0.27919610746E+02  0.55449629704E+00  0.87619446503E+01  0.95732547012E+02  0.91148981086E+02 0.  0.
         11    1    3    3    0    0 -0.70686694373E+01  0.27031506735E+02 -0.27205452155E+02  0.38997500832E+02  0.51100000000E-03 0. -1.
         22    1    1    0    0    0 -0.27919610746E+02 -0.55449629704E+00 -0.87619446503E+01  0.29267452988E+02  0.00000000000E+00 0.  1.
</event>
<event>
 5    1  0.1659417E-003  0.9118800E+02  0.7818608E-02  0.1130116E+00
         25   -1    0    0    0    0  0.00000000000E+00  0.00000000000E+00  0.99999998245E-14  0.12500000000E+03  0.12500000000E+03 0.  0.
        -11    1    3    3    0    0 -0.34292694138E+02 -0.35280613403E+02  0.22934763503E+02  0.54283643305E+02  0.51100000000E-03 0. -1.
         23    2    1    0    0    0  0.53518215588E+01 -0.22491248762E+02  0.16872133279E+02  0.96378903825E+02  0.92031114067E+02 0.  0.
         11    1    3    3    0    0  0.39644515697E+02  0.12789364641E+02 -0.60626302241E+01  0.42095260520E+02  0.51100000000E-03 0.  1.
         22    1    1    0    0    0 -0.53518215588E+01  0.22491248762E+02 -0.16872133279E+02  0.28621096175E+02  0.00000000000E+00 0. -1.
</event>
<event>
 5    1  0.1659417E-003  0.9118800E+02  0.7818608E-02  0.1130116E+00
         25   -1    0    0    0    0  0.00000000000E+00  0.00000000000E+00  0.99999998245E-14  0.12500000000E+03  0.12500000000E+03 0.  0.
        -11    1    3    3    0    0  0.23874063734E+02  0.65877800992E+01  0.72194206133E+01  0.25797088984E+02  0.51100000000E-03 0.  1.
         23    2    1    0    0    0 -0.36422402608E+02  0.53132260661E+01 -0.64360372481E+01  0.87633646707E+02  0.79267973840E+02 0.  0.
         11    1    3    3    0    0 -0.60296466342E+02 -0.12745540331E+01 -0.13655457861E+02  0.61836557723E+02  0.51100000000E-03 0. -1.
         22    1    1    0    0    0  0.36422402608E+02 -0.53132260661E+01  0.64360372481E+01  0.37366353293E+02  0.00000000000E+00 0. -1.
</event>
<event>
 5    1  0.1659417E-003  0.9118800E+02  0.7818608E-02  0.1130116E+00
         25   -1    0    0    0    0  0.00000000000E+00  0.00000000000E+00  0.99999998245E-14  0.12500000000E+03  0.12500000000E+03 0.  0.
        -11    1    3    3    0    0 -0.22761756433E+01 -0.30388700250E+02 -0.18741824996E+02  0.35775830988E+02  0.51100000000E-03 0. -1.
         23    2    1    0    0    0 -0.31084515957E+01  0.27539897163E+02 -0.14123052301E+02  0.93894228617E+02  0.88592082909E+02 0.  0.
         11    1    3    3    0    0 -0.83227595245E+00  0.57928597413E+02  0.46187726954E+01  0.58118397629E+02  0.51100000000E-03 0.  1.
         22    1    1    0    0    0  0.31084515957E+01 -0.27539897163E+02  0.14123052301E+02  0.31105771383E+02  0.00000000000E+00 0.  1.
</event>
<event>
 5    1  0.1659417E-003  0.9118800E+02  0.7818608E-02  0.1130116E+00
         25   -1    0    0    0    0  0.00000000000E+00  0.00000000000E+00  0.99999998245E-14  0.12500000000E+03  0.12500000000E+03 0.  0.
        -11    1    3    3    0    0  0.30442348850E+01  0.26085496806E+01  0.40269699204E+02  0.40468760442E+02  0.51100000000E-03 0.  1.
         23    2    1    0    0    0  0.26104208977E+02 -0.10939250725E+02 -0.79430485642E+01  0.95602909103E+02  0.90971024374E+02 0.  0.
         11    1    3    3    0    0  0.23059974092E+02 -0.13547800406E+02 -0.48212747768E+02  0.55134148661E+02  0.51100000000E-03 0. -1.
         22    1    1    0    0    0 -0.26104208977E+02  0.10939250725E+02  0.79430485642E+01  0.29397090897E+02  0.00000000000E+00 0. -1.
</event>
<event>
 5    1  0.1659417E-003  0.9118800E+02  0.7818608E-02  0.1130116E+00
         25   -1    0    0    0    0  0.00000000000E+00  0.00000000000E+00  0.99999998245E-14  0.12500000000E+03  0.12500000000E+03 0.  0.
        -11    1    3    3    0    0  0.49690674923E+02  0.14261612744E+02 -0.29927732108E+02  0.59734629167E+02  0.51100000000E-03 0.  1.
         23    2    1    0    0    0  0.27445803499E+02 -0.57854524303E+01 -0.14050069486E+02  0.93628866102E+02  0.88216872113E+02 0.  0.
         11    1    3    3    0    0 -0.22244871424E+02 -0.20047065175E+02  0.15877662621E+02  0.33894236935E+02  0.51100000000E-03 0. -1.
         22    1    1    0    0    0 -0.27445803499E+02  0.57854524303E+01  0.14050069486E+02  0.31371133898E+02  0.00000000000E+00 0.  1.
</event>
<event>
 5    1  0.1659417E-003  0.9118800E+02  0.7818608E-02  0.1130116E+00
         25   -1    0    0    0    0  0.00000000000E+00  0.00000000000E+00  0.99999998245E-14  0.12500000000E+03  0.12500000000E+03 0.  0.
        -11    1    3    3    0    0  0.15348391503E+02  0.80453588239E+01 -0.33145076670E+02  0.37401831881E+02  0.51100000000E-03 0. -1.
         23    2    1    0    0    0  0.17580992603E+02 -0.12762093633E+02  0.20590113656E+02  0.95068158841E+02  0.90233251688E+02 0.  0.
         11    1    3    3    0    0  0.22326010993E+01 -0.20807452456E+02  0.53735190326E+02  0.57666326960E+02  0.51100000000E-03 0.  1.
         22    1    1    0    0    0 -0.17580992603E+02  0.12762093633E+02 -0.20590113656E+02  0.29931841159E+02  0.00000000000E+00 0.  1.
</event>
<event>
 5    1  0.1659417E-003  0.9118800E+02  0.7818608E-02  0.1130116E+00
         25   -1    0    0    0    0  0.00000000000E+00  0.00000000000E+00  0.99999998245E-14  0.12500000000E+03  0.12500000000E+03 0.  0.
        -11    1    3    3    0    0  0.46737640459E+02 -0.17734602422E+02  0.87370760470E+01  0.50747016236E+02  0.51100000000E-03 0.  1.
         23    2    1    0    0    0  0.23554677531E+02  0.11494399234E+02 -0.14841356999E+02  0.94880074288E+02  0.89972321143E+02 0.  0.
         11    1    3    3    0    0 -0.23182962927E+02  0.29229001656E+02 -0.23578433046E+02  0.44133058052E+02  0.51100000000E-03 0. -1.
         22    1    1    0    0    0 -0.23554677531E+02 -0.11494399234E+02  0.14841356999E+02  0.30119925712E+02  0.00000000000E+00 0. -1.
</event>
<event>
 5    1  0.1659417E-003  0.9118800E+02  0.7818608E-02  0.1130116E+00
         25   -1    0    0    0    0  0.00000000000E+00  0.00000000000E+00  0.99999998245E-14  0.12500000000E+03  0.12500000000E+03 0.  0.
        -11    1    3    3    0    0  0.17411730671E+02  0.67887795813E+01  0.58012017330E+02  0.60947928990E+02  0.51100000000E-03 0. -1.
         23    2    1    0    0    0  0.24873885270E+01 -0.45839840693E+01  0.29245820511E+02  0.95292794999E+02  0.90543905094E+02 0.  0.
         11    1    3    3    0    0 -0.14924342144E+02 -0.11372763651E+02 -0.28766196819E+02  0.34344866009E+02  0.51100000000E-03 0.  1.
         22    1    1    0    0    0 -0.24873885270E+01  0.45839840693E+01 -0.29245820511E+02  0.29707205001E+02  0.00000000000E+00 0. -1.
</event>
<event>
 5    1  0.1659417E-003  0.9118800E+02  0.7818608E-02  0.1130116E+00
         25   -1    0    0    0    0  0.00000000000E+00  0.00000000000E+00  0.99999998245E-14  0.12500000000E+03  0.12500000000E+03 0.  0.
        -11    1    3    3    0    0  0.50415136480E+02  0.20760086145E+02 -0.23305455790E+02  0.59294278247E+02  0.51100000000E-03 0.  1.
         23    2    1    0    0    0  0.14905168684E+02  0.15142730458E+02 -0.20693359379E+02  0.95340575501E+02  0.90609844251E+02 0.  0.
         11    1    3    3    0    0 -0.35509967796E+02 -0.56173556866E+01  0.26120964104E+01  0.36046297254E+02  0.51100000000E-03 0. -1.
         22    1    1    0    0    0 -0.14905168684E+02 -0.15142730458E+02  0.20693359379E+02  0.29659424499E+02  0.00000000000E+00 0.  1.
</event>
<event>
 5    1  0.1659417E-003  0.9118800E+02  0.7818608E-02  0.1130116E+00
         25   -1    0    0    0    0  0.00000000000E+00  0.00000000000E+00  0.99999998245E-14  0.12500000000E+03  0.12500000000E+03 0.  0.
        -11    1    3    3    0    0  0.20285438180E+02  0.12976132508E+02 -0.93640967378E+00  0.24098877160E+02  0.51100000000E-03 0.  1.
         23    2    1    0    0    0 -0.37383853881E+02 -0.75441882883E+00  0.13729829710E+02  0.85167476823E+02  0.75278610546E+02 0.  0.
         11    1    3    3    0    0 -0.57669292061E+02 -0.13730551337E+02  0.14666239384E+02  0.61068599663E+02  0.51100000000E-03 0. -1.
         22    1    1    0    0    0  0.37383853881E+02  0.75441882883E+00 -0.13729829710E+02  0.39832523177E+02  0.00000000000E+00 0. -1.
</event>
<event>
 5    1  0.1659417E-003  0.9118800E+02  0.7818608E-02  0.1130116E+00
         25   -1    0    0    0    0  0.00000000000E+00  0.00000000000E+00  0.99999998245E-14  0.12500000000E+03  0.12500000000E+03 0.  0.
        -11    1    3    3    0    0 -0.38203370838E+02 -0.49403580620E+02 -0.22633335022E+00  0.62452082019E+02  0.51100000000E-03 0. -1.
         23    2    1    0    0    0 -0.18838451470E+02 -0.21556829287E+02 -0.27689401514E+00  0.96370280949E+02  0.92019401417E+02 0.  0.
         11    1    3    3    0    0  0.19364919368E+02  0.27846751333E+02 -0.50560664922E-01  0.33918198929E+02  0.51100000000E-03 0.  1.
         22    1    1    0    0    0  0.18838451470E+02  0.21556829287E+02  0.27689401514E+00  0.28629719051E+02  0.00000000000E+00 0. -1.
</event>
<event>
 5    1  0.1659417E-003  0.9118800E+02  0.7818608E-02  0.1130116E+00
         25   -1    0    0    0    0  0.00000000000E+00  0.00000000000E+00  0.99999998245E-14  0.12500000000E+03  0.12500000000E+03 0.  0.
        -11    1    3    3    0    0 -0.37171190322E+02  0.45253158541E+02 -0.89055770513E+01  0.59235589393E+02  0.51100000000E-03 0. -1.
         23    2    1    0    0    0 -0.24272411859E+02  0.12318320317E+02 -0.12987502310E+02  0.94840984612E+02  0.89917996825E+02 0.  0.
         11    1    3    3    0    0  0.12898778463E+02 -0.32934838223E+02 -0.40819252590E+01  0.35605395219E+02  0.51100000000E-03 0.  1.
         22    1    1    0    0    0  0.24272411859E+02 -0.12318320317E+02  0.12987502310E+02  0.30159015388E+02  0.00000000000E+00 0. -1.
</event>
<event>
 5    1  0.1659417E-003  0.9118800E+02  0.7818608E-02  0.1130116E+00
         25   -1    0    0    0    0  0.00000000000E+00  0.00000000000E+00  0.99999998245E-14  0.12500000000E+03  0.12500000000E+03 0.  0.
        -11    1    3    3    0    0 -0.37646850272E+01  0.19240317894E+02  0.29858630422E+02  0.35719749396E+02  0.51100000000E-03 0.  1.
         23    2    1    0    0    0  0.20755977927E+02  0.10165190688E+01 -0.21259098656E+02  0.95271340320E+02  0.90514281083E+02 0.  0.
         11    1    3    3    0    0  0.24520662954E+02 -0.18223798825E+02 -0.51117729077E+02  0.59551590924E+02  0.51100000000E-03 0. -1.
         22    1    1    0    0    0 -0.20755977927E+02 -0.10165190688E+01  0.21259098656E+02  0.29728659680E+02  0.00000000000E+00 0. -1.
</event>
<event>
 5    1  0.1659417E-003  0.9118800E+02  0.7818608E-02  0.1130116E+00
         25   -1    0    0    0    0  0.00000000000E+00  0.00000000000E+00  0.99999998245E-14  0.12500000000E+03  0.12500000000E+03 0.  0.
        -11    1    3    3    0    0 -0.97217018544E+01  0.34958982216E+02 -0.16052294190E+02  0.39677677270E+02  0.51100000000E-03 0. -1.
         23    2    1    0    0    0 -0.23092515908E+02 -0.12878871893E+02  0.11143424440E+02  0.96306698683E+02  0.91932990112E+02 0.  0.
         11    1    3    3    0    0 -0.13370814054E+02 -0.47837854109E+02  0.27195718630E+02  0.56629021413E+02  0.51100000000E-03 0.  1.
         22    1    1    0    0    0  0.23092515908E+02  0.12878871893E+02 -0.11143424440E+02  0.28693301317E+02  0.00000000000E+00 0.  1.
</event>
<event>
 5    1  0.1659417E-003  0.9118800E+02  0.7818608E-02  0.1130116E+00
         25   -1    0    0    0    0  0.00000000000E+00  0.00000000000E+00  0.99999998245E-14  0.12500000000E+03  0.12500000000E+03 0.  0.
        -11    1    3    3    0    0 -0.39031991575E+02 -0.19278095134E+02  0.20415218345E+01  0.43581063892E+02  0.51100000000E-03 0. -1.
         23    2    1    0    0    0 -0.11242306505E+02  0.21087643589E+02 -0.16480258316E+02  0.95971099197E+02  0.91475542082E+02 0.  0.
         11    1    3    3    0    0  0.27789685071E+02  0.40365738723E+02 -0.18521780151E+02  0.52390035304E+02  0.51100000000E-03 0.  1.
         22    1    1    0    0    0  0.11242306505E+02 -0.21087643589E+02  0.16480258316E+02  0.29028900803E+02  0.00000000000E+00 0.  1.
</event>
<event>
 5    1  0.1659417E-003  0.9118800E+02  0.7818608E-02  0.1130116E+00
         25   -1    0    0    0    0  0.00000000000E+00  0.00000000000E+00  0.99999998245E-14  0.12500000000E+03  0.12500000000E+03 0.  0.
        -11    1    3    3    0    0 -0.35389490837E+02  0.25238680089E+02  0.41669671635E+02  0.60214355172E+02  0.51100000000E-03 0.  1.
         23    2    1    0    0    0 -0.20340925725E+02  0.19126845467E+02  0.10863846208E+02  0.95039815900E+02  0.90193979705E+02 0.  0.
         11    1    3    3    0    0  0.15048565112E+02 -0.61118346223E+01 -0.30805825427E+02  0.34825460728E+02  0.51100000000E-03 0. -1.
         22    1    1    0    0    0  0.20340925725E+02 -0.19126845467E+02 -0.10863846208E+02  0.29960184100E+02  0.00000000000E+00 0.  1.
</event>
<event>
 5    1  0.1659417E-003  0.9118800E+02  0.7818608E-02  0.1130116E+00
         25   -1    0    0    0    0  0.00000000000E+00  0.00000000000E+00  0.99999998245E-14  0.12500000000E+03  0.12500000000E+03 0.  0.
        -11    1    3    3    0    0 -0.50647436942E+02 -0.97498348558E+01 -0.30451083027E+01  0.51667154298E+02  0.51100000000E-03 0. -1.
         23    2    1    0    0    0 -0.14280727299E+02 -0.28849000774E+02 -0.10358231937E+01  0.92793215815E+02  0.87024731852E+02 0.  0.
         11    1    3    3    0    0  0.36366709642E+02 -0.19099165918E+02  0.20092851090E+01  0.41126061517E+02  0.51100000000E-03 0.  1.
         22    1    1    0    0    0  0.14280727299E+02  0.28849000774E+02  0.10358231937E+01  0.32206784185E+02  0.00000000000E+00 0. -1.
</event>
<event>
 5    1  0.1659417E-003  0.9118800E+02  0.7818608E-02  0.1130116E+00
         25   -1    0    0    0    0  0.00000000000E+00  0.00000000000E+00  0.99999998245E-14  0.12500000000E+03  0.12500000000E+03 0.  0.
        -11    1    3    3    0    0  0.19503841044E+02  0.93886990545E+01  0.21845473395E+02  0.30753409462E+02  0.51100000000E-03 0. -1.
         23    2    1    0    0    0  0.10260635475E+02  0.41987704512E+02 -0.13500551200E+02  0.79717411146E+02  0.65607566535E+02 0.  0.
         11    1    3    3    0    0 -0.92432055684E+01  0.32599005458E+02 -0.35346024596E+02  0.48964001685E+02  0.51100000000E-03 0.  1.
         22    1    1    0    0    0 -0.10260635475E+02 -0.41987704512E+02  0.13500551200E+02  0.45282588854E+02  0.00000000000E+00 0.  1.
</event>
<event>
 5    1  0.1659417E-003  0.9118800E+02  0.7818608E-02  0.1130116E+00
         25   -1    0    0    0    0  0.00000000000E+00  0.00000000000E+00  0.99999998245E-14  0.12500000000E+03  0.12500000000E+03 0.  0.
        -11    1    3    3    0    0 -0.32249015862E+02 -0.13163285886E+02  0.36069391170E+02  0.50142517877E+02  0.51100000000E-03 0. -1.
         23    2    1    0    0    0 -0.27933891329E+02 -0.94192991209E+01 -0.78992601156E+01  0.94480763589E+02  0.89415831357E+02 0.  0.
         11    1    3    3    0    0  0.43151245331E+01  0.37439867649E+01 -0.43968651286E+02  0.44338245712E+02  0.51100000000E-03 0.  1.
         22    1    1    0    0    0  0.27933891329E+02  0.94192991209E+01  0.78992601156E+01  0.30519236411E+02  0.00000000000E+00 0. -1.
</event>
<event>
 5    1  0.1659417E-003  0.9118800E+02  0.7818608E-02  0.1130116E+00
         25   -1    0    0    0    0  0.00000000000E+00  0.00000000000E+00  0.99999998245E-14  0.12500000000E+03  0.12500000000E+03 0.  0.
        -11    1    3    3    0    0  0.37414767242E+02 -0.32077354660E+01 -0.42647198343E+02  0.56823744168E+02  0.51100000000E-03 0. -1.
         23    2    1    0    0    0  0.81234553472E-02  0.22800412388E+01 -0.27264370923E+02  0.97640457316E+02  0.93728940723E+02 0.  0.
         11    1    3    3    0    0 -0.37406643786E+02  0.54877767049E+01  0.15382827420E+02  0.40816713148E+02  0.51100000000E-03 0.  1.
         22    1    1    0    0    0 -0.81234553472E-02 -0.22800412388E+01  0.27264370923E+02  0.27359542684E+02  0.00000000000E+00 0.  1.
</event>
<event>
 5    1  0.1659417E-003  0.9118800E+02  0.7818608E-02  0.1130116E+00
         25   -1    0    0    0    0  0.00000000000E+00  0.00000000000E+00  0.99999998245E-14  0.12500000000E+03  0.12500000000E+03 0.  0.
        -11    1    3    3    0    0 -0.11767785296E+02  0.23238804760E+02  0.55531251884E+02  0.61337123779E+02  0.51100000000E-03 0.  1.
         23    2    1    0    0    0  0.25107127986E+01  0.13753611313E+02  0.25744377562E+02  0.95704292483E+02  0.91110225116E+02 0.  0.
         11    1    3    3    0    0  0.14278498095E+02 -0.94851934473E+01 -0.29786874322E+02  0.34367168704E+02  0.51100000000E-03 0. -1.
         22    1    1    0    0    0 -0.25107127986E+01 -0.13753611313E+02 -0.25744377562E+02  0.29295707517E+02  0.00000000000E+00 0.  1.
</event>
<event>
 5    1  0.1659417E-003  0.9118800E+02  0.7818608E-02  0.1130116E+00
         25   -1    0    0    0    0  0.00000000000E+00  0.00000000000E+00  0.99999998245E-14  0.12500000000E+03  0.12500000000E+03 0.  0.
        -11    1    3    3    0    0 -0.89083144831E+01  0.48979836481E+02 -0.31301976258E+02  0.58806429636E+02  0.51100000000E-03 0.  1.
         23    2    1    0    0    0  0.10164915607E+02  0.19779320384E+02 -0.18872986241E+02  0.95832610096E+02  0.91286102579E+02 0.  0.
         11    1    3    3    0    0  0.19073230090E+02 -0.29200516097E+02  0.12428990017E+02  0.37026180461E+02  0.51100000000E-03 0. -1.
         22    1    1    0    0    0 -0.10164915607E+02 -0.19779320384E+02  0.18872986241E+02  0.29167389904E+02  0.00000000000E+00 0.  1.
</event>
<event>
 5    1  0.1659417E-003  0.9118800E+02  0.7818608E-02  0.1130116E+00
         25   -1    0    0    0    0  0.00000000000E+00  0.00000000000E+00  0.99999998245E-14  0.12500000000E+03  0.12500000000E+03 0.  0.
        -11    1    3    3    0    0  0.94127888092E+01 -0.32767878345E+02  0.48607463485E+02  0.59371878453E+02  0.51100000000E-03 0.  1.
         23    2    1    0    0    0  0.11843463214E+02 -0.24411606446E+02  0.15188807133E+02  0.93905080604E+02  0.88607393319E+02 0.  0.
         11    1    3    3    0    0  0.24306744045E+01  0.83562718996E+01 -0.33418656352E+02  0.34533202150E+02  0.51100000000E-03 0. -1.
         22    1    1    0    0    0 -0.11843463214E+02  0.24411606446E+02 -0.15188807133E+02  0.31094919396E+02  0.00000000000E+00 0.  1.
</event>
<event>
 5    1  0.1659417E-003  0.9118800E+02  0.7818608E-02  0.1130116E+00
         25   -1    0    0    0    0  0.00000000000E+00  0.00000000000E+00  0.99999998245E-14  0.12500000000E+03  0.12500000000E+03 0.  0.
        -11    1    3    3    0    0 -0.36673464443E+02 -0.12915033059E+02  0.41508547455E+02  0.56874428220E+02  0.51100000000E-03 0. -1.
         23    2    1    0    0    0 -0.28786731789E+02  0.47798990389E+01  0.94587240291E+01  0.94324426295E+02  0.89197009892E+02 0.  0.
         11    1    3    3    0    0  0.78867326546E+01  0.17694932098E+02 -0.32049823426E+02  0.37449998075E+02  0.51100000000E-03 0.  1.
         22    1    1    0    0    0  0.28786731789E+02 -0.47798990389E+01 -0.94587240291E+01  0.30675573705E+02  0.00000000000E+00 0. -1.
</event>
<event>
 5    1  0.1659417E-003  0.9118800E+02  0.7818608E-02  0.1130116E+00
         25   -1    0    0    0    0  0.00000000000E+00  0.00000000000E+00  0.99999998245E-14  0.12500000000E+03  0.12500000000E+03 0.  0.
        -11    1    3    3    0    0  0.28380383815E+02 -0.26729887076E+02 -0.42846777801E+01  0.39221059554E+02  0.51100000000E-03 0.  1.
         23    2    1    0    0    0 -0.20544108690E+02 -0.33031421534E+01 -0.20452539410E+02  0.95823339494E+02  0.91273407264E+02 0.  0.
         11    1    3    3    0    0 -0.48924492505E+02  0.23426744922E+02 -0.16167861630E+02  0.56602279941E+02  0.51100000000E-03 0. -1.
         22    1    1    0    0    0  0.20544108690E+02  0.33031421534E+01  0.20452539410E+02  0.29176660506E+02  0.00000000000E+00 0. -1.
</event>
<event>
 5    1  0.1659417E-003  0.9118800E+02  0.7818608E-02  0.1130116E+00
         25   -1    0    0    0    0  0.00000000000E+00  0.00000000000E+00  0.99999998245E-14  0.12500000000E+03  0.12500000000E+03 0.  0.
        -11    1    3    3    0    0  0.57094032658E+02 -0.87213963604E+01  0.17818237629E+02  0.60442376791E+02  0.51100000000E-03 0. -1.
         23    2    1    0    0    0  0.23884568555E+02  0.29602472314E+01  0.16777685619E+02  0.95661860770E+02  0.91051991700E+02 0.  0.
         11    1    3    3    0    0 -0.33209464103E+02  0.11681643592E+02 -0.10405520100E+01  0.35219483979E+02  0.51100000000E-03 0.  1.
         22    1    1    0    0    0 -0.23884568555E+02 -0.29602472314E+01 -0.16777685619E+02  0.29338139230E+02  0.00000000000E+00 0. -1.
</event>
<event>
 5    1  0.1659417E-003  0.9118800E+02  0.7818608E-02  0.1130116E+00
         25   -1    0    0    0    0  0.00000000000E+00  0.00000000000E+00  0.99999998245E-14  0.12500000000E+03  0.12500000000E+03 0.  0.
        -11    1    3    3    0    0  0.60705608607E+01  0.40732343368E+02  0.36800866270E+01  0.41346324422E+02  0.51100000000E-03 0.  1.
         23    2    1    0    0    0 -0.27033675798E+02 -0.14423816230E+01 -0.90556434047E+01  0.96453463093E+02  0.92132327515E+02 0.  0.
         11    1    3    3    0    0 -0.33104236659E+02 -0.42174724991E+02 -0.12735730032E+02  0.55107138671E+02  0.51100000000E-03 0. -1.
         22    1    1    0    0    0  0.27033675798E+02  0.14423816230E+01  0.90556434047E+01  0.28546536907E+02  0.00000000000E+00 0. -1.
</event>
<event>
 5    1  0.1659417E-003  0.9118800E+02  0.7818608E-02  0.1130116E+00
         25   -1    0    0    0    0  0.00000000000E+00  0.00000000000E+00  0.99999998245E-14  0.12500000000E+03  0.12500000000E+03 0.  0.
        -11    1    3    3    0    0  0.10851922328E+02 -0.49824353018E+02  0.27024822575E+02  0.57711102982E+02  0.51100000000E-03 0.  1.
         23    2    1    0    0    0  0.57064857445E+01 -0.29225383820E+02 -0.36317028242E+01  0.95002061665E+02  0.90141640856E+02 0.  0.
         11    1    3    3    0    0 -0.51454365832E+01  0.20598969199E+02 -0.30656525399E+02  0.37290958683E+02  0.51100000000E-03 0. -1.
         22    1    1    0    0    0 -0.57064857445E+01  0.29225383820E+02  0.36317028242E+01  0.29997938335E+02  0.00000000000E+00 0.  1.
</event>
<event>
 5    1  0.1659417E-003  0.9118800E+02  0.7818608E-02  0.1130116E+00
         25   -1    0    0    0    0  0.00000000000E+00  0.00000000000E+00  0.99999998245E-14  0.12500000000E+03  0.12500000000E+03 0.  0.
        -11    1    3    3    0    0  0.43618304032E+02  0.40619177940E+02  0.69073494481E+01  0.60001546145E+02  0.51100000000E-03 0. -1.
         23    2    1    0    0    0  0.21577034253E+02  0.26234368569E+02 -0.77946875683E+01  0.90149352149E+02  0.83140471716E+02 0.  0.
         11    1    3    3    0    0 -0.22041269779E+02 -0.14384809372E+02 -0.14702037016E+02  0.30147806003E+02  0.51100000000E-03 0.  1.
         22    1    1    0    0    0 -0.21577034253E+02 -0.26234368569E+02  0.77946875683E+01  0.34850647851E+02  0.00000000000E+00 0. -1.
</event>
<event>
 5    1  0.1659417E-003  0.9118800E+02  0.7818608E-02  0.1130116E+00
         25   -1    0    0    0    0  0.00000000000E+00  0.00000000000E+00  0.99999998245E-14  0.12500000000E+03  0.12500000000E+03 0.  0.
        -11    1    3    3    0    0 -0.89654468436E+01  0.27654719660E+02  0.19396222658E+02  0.34948193233E+02  0.51100000000E-03 0.  1.
         23    2    1    0    0    0  0.79021277391E+01 -0.79129925481E+01 -0.26989278874E+02  0.95785615735E+02  0.91221729504E+02 0.  0.
         11    1    3    3    0    0  0.16867574583E+02 -0.35567712208E+02 -0.46385501532E+02  0.60837422502E+02  0.51100000000E-03 0. -1.
         22    1    1    0    0    0 -0.79021277391E+01  0.79129925481E+01  0.26989278874E+02  0.29214384265E+02  0.00000000000E+00 0. -1.
</event>
<event>
 5    1  0.1659417E-003  0.9118800E+02  0.7818608E-02  0.1130116E+00
         25   -1    0    0    0    0  0.00000000000E+00  0.00000000000E+00  0.99999998245E-14  0.12500000000E+03  0.12500000000E+03 0.  0.
        -11    1    3    3    0    0  0.37134427226E+02  0.35070962960E+01  0.21632000148E+02  0.43118544044E+02  0.51100000000E-03 0.  1.
         23    2    1    0    0    0 -0.14186597151E+02 -0.15362736641E+02  0.17102132060E+02  0.97986001096E+02  0.94188641958E+02 0.  0.
         11    1    3    3    0    0 -0.51321024377E+02 -0.18869832937E+02 -0.45298680882E+01  0.54867457052E+02  0.51100000000E-03 0. -1.
         22    1    1    0    0    0  0.14186597151E+02  0.15362736641E+02 -0.17102132060E+02  0.27013998904E+02  0.00000000000E+00 0. -1.
</event>
<event>
 5    1  0.1659417E-003  0.9118800E+02  0.7818608E-02  0.1130116E+00
         25   -1    0    0    0    0  0.00000000000E+00  0.00000000000E+00  0.99999998245E-14  0.12500000000E+03  0.12500000000E+03 0.  0.
        -11    1    3    3    0    0 -0.36999966275E+02  0.11714593666E+00  0.28656244136E+02  0.46799482431E+02  0.51100000000E-03 0. -1.
         23    2    1    0    0    0 -0.98927287530E+01  0.28484884011E+02  0.95233069210E+00  0.94831114819E+02  0.89904275231E+02 0.  0.
         11    1    3    3    0    0  0.27107237522E+02  0.28367738074E+02 -0.27703913444E+02  0.48031632389E+02  0.51100000000E-03 0.  1.
         22    1    1    0    0    0  0.98927287530E+01 -0.28484884011E+02 -0.95233069210E+00  0.30168885181E+02  0.00000000000E+00 0. -1.
</event>
<event>
 5    1  0.1659417E-003  0.9118800E+02  0.7818608E-02  0.1130116E+00
         25   -1    0    0    0    0  0.00000000000E+00  0.00000000000E+00  0.99999998245E-14  0.12500000000E+03  0.12500000000E+03 0.  0.
        -11    1    3    3    0    0  0.15516563471E+02  0.39364721793E+02  0.10510086217E+02  0.43598245107E+02  0.51100000000E-03 0. -1.
         23    2    1    0    0    0 -0.24374650574E+02  0.50831914933E+01  0.14219512284E+02  0.96326720523E+02  0.91960209497E+02 0.  0.
         11    1    3    3    0    0 -0.39891214045E+02 -0.34281530300E+02  0.37094260678E+01  0.52728475416E+02  0.51100000000E-03 0.  1.
         22    1    1    0    0    0  0.24374650574E+02 -0.50831914933E+01 -0.14219512284E+02  0.28673279477E+02  0.00000000000E+00 0.  1.
</event>
<event>
 5    1  0.1659417E-003  0.9118800E+02  0.7818608E-02  0.1130116E+00
         25   -1    0    0    0    0  0.00000000000E+00  0.00000000000E+00  0.99999998245E-14  0.12500000000E+03  0.12500000000E+03 0.  0.
        -11    1    3    3    0    0  0.27900407538E+02  0.26361479618E+02  0.37559191194E+02  0.53703381568E+02  0.51100000000E-03 0.  1.
         23    2    1    0    0    0 -0.92669528628E+01  0.20008669054E+02  0.19724612944E+02  0.95414807614E+02  0.90712192695E+02 0.  0.
         11    1    3    3    0    0 -0.37167360401E+02 -0.63528105641E+01 -0.17834578249E+02  0.41711426046E+02  0.51100000000E-03 0. -1.
         22    1    1    0    0    0  0.92669528628E+01 -0.20008669054E+02 -0.19724612944E+02  0.29585192386E+02  0.00000000000E+00 0.  1.
</event>
<event>
 5    1  0.1659417E-003  0.9118800E+02  0.7818608E-02  0.1130116E+00
         25   -1    0    0    0    0  0.00000000000E+00  0.00000000000E+00  0.99999998245E-14  0.12500000000E+03  0.12500000000E+03 0.  0.
        -11    1    3    3    0    0  0.22917673985E+02 -0.15786477419E+02  0.48794225358E+02  0.56172137922E+02  0.51100000000E-03 0.  1.
         23    2    1    0    0    0  0.15642649917E+02  0.11967799679E+02  0.22591610902E+02  0.95028319888E+02  0.90178045954E+02 0.  0.
         11    1    3    3    0    0 -0.72750240689E+01  0.27754277098E+02 -0.26202614456E+02  0.38856181966E+02  0.51100000000E-03 0. -1.
         22    1    1    0    0    0 -0.15642649917E+02 -0.11967799679E+02 -0.22591610902E+02  0.29971680112E+02  0.00000000000E+00 0.  1.
</event>
<event>
 5    1  0.1659417E-003  0.9118800E+02  0.7818608E-02  0.1130116E+00
         25   -1    0    0    0    0  0.00000000000E+00  0.00000000000E+00  0.99999998245E-14  0.12500000000E+03  0.12500000000E+03 0.  0.
        -11    1    3    3    0    0  0.29744392934E+02  0.33240031750E+02 -0.19878320968E+02  0.48834171095E+02  0.51100000000E-03 0. -1.
         23    2    1    0    0    0  0.22997835994E+02 -0.11481528469E+02 -0.17059512519E+02  0.94149506912E+02  0.88951541459E+02 0.  0.
         11    1    3    3    0    0 -0.67465569397E+01 -0.44721560218E+02  0.28188084486E+01  0.45315335817E+02  0.51100000000E-03 0.  1.
         22    1    1    0    0    0 -0.22997835994E+02  0.11481528469E+02  0.17059512519E+02  0.30850493088E+02  0.00000000000E+00 0. -1.
</event>
<event>
 5    1  0.1659417E-003  0.9118800E+02  0.7818608E-02  0.1130116E+00
         25   -1    0    0    0    0  0.00000000000E+00  0.00000000000E+00  0.99999998245E-14  0.12500000000E+03  0.12500000000E+03 0.  0.
        -11    1    3    3    0    0  0.33913445133E+02  0.13354353068E+02  0.83660097104E+01  0.37395863747E+02  0.51100000000E-03 0. -1.
         23    2    1    0    0    0 -0.21897278053E+02  0.16848541255E+02 -0.89863604946E+01  0.95946277286E+02  0.91441617011E+02 0.  0.
         11    1    3    3    0    0 -0.55810723186E+02  0.34941881876E+01 -0.17352370205E+02  0.58550413540E+02  0.51100000000E-03 0.  1.
         22    1    1    0    0    0  0.21897278053E+02 -0.16848541255E+02  0.89863604946E+01  0.29053722714E+02  0.00000000000E+00 0.  1.
</event>
<event>
 5    1  0.1659417E-003  0.9118800E+02  0.7818608E-02  0.1130116E+00
         25   -1    0    0    0    0  0.00000000000E+00  0.00000000000E+00  0.99999998245E-14  0.12500000000E+03  0.12500000000E+03 0.  0.
        -11    1    3    3    0    0 -0.30020547621E+02 -0.38393432450E+02  0.34680594209E+02  0.59816657795E+02  0.51100000000E-03 0.  1.
         23    2    1    0    0    0 -0.16944680919E+02 -0.22433933052E+02  0.42732189808E+01  0.96562982504E+02  0.92280797709E+02 0.  0.
         11    1    3    3    0    0  0.13075866702E+02  0.15959499398E+02 -0.30407375229E+02  0.36746324709E+02  0.51100000000E-03 0. -1.
         22    1    1    0    0    0  0.16944680919E+02  0.22433933052E+02 -0.42732189808E+01  0.28437017496E+02  0.00000000000E+00 0.  1.
</event>
<event>
 5    1  0.1659417E-003  0.9118800E+02  0.7818608E-02  0.1130116E+00
         25   -1    0    0    0    0  0.00000000000E+00  0.00000000000E+00  0.99999998245E-14  0.12500000000E+03  0.12500000000E+03 0.  0.
        -11    1    3    3    0    0  0.17564634571E+02 -0.97782379938E+01 -0.18609419436E+02  0.27394174890E+02  0.51100000000E-03 0. -1.
         23    2    1    0    0    0 -0.34588830042E+02 -0.12230797916E+02 -0.25871291245E+02  0.80107870489E+02  0.66347325661E+02 0.  0.
         11    1    3    3    0    0 -0.52153464613E+02 -0.24525599223E+01 -0.72618718087E+01  0.52713695599E+02  0.51100000000E-03 0.  1.
         22    1    1    0    0    0  0.34588830042E+02  0.12230797916E+02  0.25871291245E+02  0.44892129511E+02  0.00000000000E+00 0.  1.
</event>
<event>
 5    1  0.1659417E-003  0.9118800E+02  0.7818608E-02  0.1130116E+00
         25   -1    0    0    0    0  0.00000000000E+00  0.00000000000E+00  0.99999998245E-14  0.12500000000E+03  0.12500000000E+03 0.  0.
        -11    1    3    3    0    0  0.46205592477E+01  0.56588362595E+02 -0.16512684578E+02  0.59129189925E+02  0.51100000000E-03 0. -1.
         23    2    1    0    0    0 -0.69630608783E+01  0.27496425657E+02  0.36938240993E+01  0.96396119544E+02  0.92054494110E+02 0.  0.
         11    1    3    3    0    0 -0.11583620126E+02 -0.29091936938E+02  0.20206508677E+02  0.37266929619E+02  0.51100000000E-03 0.  1.
         22    1    1    0    0    0  0.69630608783E+01 -0.27496425657E+02 -0.36938240993E+01  0.28603880456E+02  0.00000000000E+00 0. -1.
</event>
<event>
 5    1  0.1659417E-003  0.9118800E+02  0.7818608E-02  0.1130116E+00
         25   -1    0    0    0    0  0.00000000000E+00  0.00000000000E+00  0.99999998245E-14  0.12500000000E+03  0.12500000000E+03 0.  0.
        -11    1    3    3    0    0 -0.25883995120E+02  0.16055474119E+02 -0.77911156411E+01  0.31439798596E+02  0.51100000000E-03 0. -1.
         23    2    1    0    0    0  0.61926668227E+01 -0.26470012062E+02  0.19743481309E+02  0.91402147165E+02  0.85003157536E+02 0.  0.
         11    1    3    3    0    0  0.32076661943E+02 -0.42525486182E+02  0.27534596950E+02  0.59962348568E+02  0.51100000000E-03 0.  1.
         22    1    1    0    0    0 -0.61926668227E+01  0.26470012062E+02 -0.19743481309E+02  0.33597852835E+02  0.00000000000E+00 0.  1.
</event>
<event>
 5    1  0.1659417E-003  0.9118800E+02  0.7818608E-02  0.1130116E+00
         25   -1    0    0    0    0  0.00000000000E+00  0.00000000000E+00  0.99999998245E-14  0.12500000000E+03  0.12500000000E+03 0.  0.
        -11    1    3    3    0    0 -0.19945601249E+01  0.32451778245E+02  0.15232572645E+02  0.35904421051E+02  0.51100000000E-03 0.  1.
         23    2    1    0    0    0 -0.10274098830E+02 -0.26070807010E+02 -0.14491881859E+00  0.96977418277E+02  0.92840479153E+02 0.  0.
         11    1    3    3    0    0 -0.82795387050E+01 -0.58522585256E+02 -0.15377491464E+02  0.61072997226E+02  0.51100000000E-03 0. -1.
         22    1    1    0    0    0  0.10274098830E+02  0.26070807010E+02  0.14491881859E+00  0.28022581723E+02  0.00000000000E+00 0. -1.
</event>
<event>
 5    1  0.1659417E-003  0.9118800E+02  0.7818608E-02  0.1130116E+00
         25   -1    0    0    0    0  0.00000000000E+00  0.00000000000E+00  0.99999998245E-14  0.12500000000E+03  0.12500000000E+03 0.  0.
        -11    1    3    3    0    0 -0.34583692904E+02  0.18101540883E+01 -0.93031365542E+01  0.35858845808E+02  0.51100000000E-03 0. -1.
         23    2    1    0    0    0  0.17989167827E+02 -0.17128569271E+02  0.14095341234E+02  0.96439945923E+02  0.92113986347E+02 0.  0.
         11    1    3    3    0    0  0.52572860732E+02 -0.18938723360E+02  0.23398477788E+02  0.60581100114E+02  0.51100000000E-03 0.  1.
         22    1    1    0    0    0 -0.17989167827E+02  0.17128569271E+02 -0.14095341234E+02  0.28560054077E+02  0.00000000000E+00 0.  1.
</event>
<event>
 5    1  0.1659417E-003  0.9118800E+02  0.7818608E-02  0.1130116E+00
         25   -1    0    0    0    0  0.00000000000E+00  0.00000000000E+00  0.99999998245E-14  0.12500000000E+03  0.12500000000E+03 0.  0.
        -11    1    3    3    0    0  0.19153681842E+02  0.42854635733E+02 -0.10802697546E+02  0.48167225439E+02  0.51100000000E-03 0.  1.
         23    2    1    0    0    0 -0.91313898425E+01  0.20383532942E+02  0.19524187461E+02  0.95334117379E+02  0.90600934569E+02 0.  0.
         11    1    3    3    0    0 -0.28285071684E+02 -0.22471102791E+02  0.30326885007E+02  0.47166891941E+02  0.51100000000E-03 0. -1.
         22    1    1    0    0    0  0.91313898425E+01 -0.20383532942E+02 -0.19524187461E+02  0.29665882621E+02  0.00000000000E+00 0.  1.
</event>
<event>
 5    1  0.1659417E-003  0.9118800E+02  0.7818608E-02  0.1130116E+00
         25   -1    0    0    0    0  0.00000000000E+00  0.00000000000E+00  0.99999998245E-14  0.12500000000E+03  0.12500000000E+03 0.  0.
        -11    1    3    3    0    0  0.20068583296E+01  0.52713501054E+02  0.53976329014E+01  0.53027116788E+02  0.51100000000E-03 0.  1.
         23    2    1    0    0    0  0.17141285644E+02  0.16683033426E+02  0.19048167062E+02  0.94422558213E+02  0.89334425353E+02 0.  0.
         11    1    3    3    0    0  0.15134427315E+02 -0.36030467628E+02  0.13650534160E+02  0.41395441425E+02  0.51100000000E-03 0. -1.
         22    1    1    0    0    0 -0.17141285644E+02 -0.16683033426E+02 -0.19048167062E+02  0.30577441787E+02  0.00000000000E+00 0.  1.
</event>
<event>
 5    1  0.1659417E-003  0.9118800E+02  0.7818608E-02  0.1130116E+00
         25   -1    0    0    0    0  0.00000000000E+00  0.00000000000E+00  0.99999998245E-14  0.12500000000E+03  0.12500000000E+03 0.  0.
        -11    1    3    3    0    0 -0.60299898473E+02 -0.14499533740E+02  0.26950048791E+01  0.62077188130E+02  0.51100000000E-03 0.  1.
         23    2    1    0    0    0 -0.29875318372E+02 -0.51612059871E+01  0.60679157327E+01  0.94080874909E+02  0.88855043341E+02 0.  0.
         11    1    3    3    0    0  0.30424580101E+02  0.93383277530E+01  0.33729108537E+01  0.32003686779E+02  0.51100000000E-03 0. -1.
         22    1    1    0    0    0  0.29875318372E+02  0.51612059871E+01 -0.60679157327E+01  0.30919125091E+02  0.00000000000E+00 0.  1.
</event>
<event>
 5    1  0.1659417E-003  0.9118800E+02  0.7818608E-02  0.1130116E+00
         25   -1    0    0    0    0  0.00000000000E+00  0.00000000000E+00  0.99999998245E-14  0.12500000000E+03  0.12500000000E+03 0.  0.
        -11    1    3    3    0    0 -0.37546815014E+01 -0.38081949529E+02  0.33476618188E+02  0.50843057330E+02  0.51100000000E-03 0.  1.
         23    2    1    0    0    0 -0.24731013881E+02 -0.28189333289E+01  0.15789517873E+02  0.95523258196E+02  0.90861513025E+02 0.  0.
         11    1    3    3    0    0 -0.20976332379E+02  0.35263016200E+02 -0.17687100315E+02  0.44680200866E+02  0.51100000000E-03 0. -1.
         22    1    1    0    0    0  0.24731013881E+02  0.28189333289E+01 -0.15789517873E+02  0.29476741804E+02  0.00000000000E+00 0. -1.
</event>
<event>
 5    1  0.1659417E-003  0.9118800E+02  0.7818608E-02  0.1130116E+00
         25   -1    0    0    0    0  0.00000000000E+00  0.00000000000E+00  0.99999998245E-14  0.12500000000E+03  0.12500000000E+03 0.  0.
        -11    1    3    3    0    0 -0.77697310537E+00 -0.13692539959E+02 -0.39073615946E+02  0.41410588031E+02  0.51100000000E-03 0.  1.
         23    2    1    0    0    0  0.49174432740E+01 -0.25838261948E+02  0.13336387612E+02  0.95510065050E+02  0.90843361136E+02 0.  0.
         11    1    3    3    0    0  0.56944163794E+01 -0.12145721988E+02  0.52410003558E+02  0.54099477019E+02  0.51100000000E-03 0. -1.
         22    1    1    0    0    0 -0.49174432740E+01  0.25838261948E+02 -0.13336387612E+02  0.29489934950E+02  0.00000000000E+00 0. -1.
</event>
<event>
 5    1  0.1659417E-003  0.9118800E+02  0.7818608E-02  0.1130116E+00
         25   -1    0    0    0    0  0.00000000000E+00  0.00000000000E+00  0.99999998245E-14  0.12500000000E+03  0.12500000000E+03 0.  0.
        -11    1    3    3    0    0  0.14139941760E+01 -0.24490544592E+02  0.55649057372E+02  0.60816147039E+02  0.51100000000E-03 0. -1.
         23    2    1    0    0    0  0.15196313588E+01 -0.21917203236E+02  0.24418053809E+02  0.92153167139E+02  0.86100474939E+02 0.  0.
         11    1    3    3    0    0  0.10563718280E+00  0.25733413555E+01 -0.31231003563E+02  0.31337020100E+02  0.51100000000E-03 0.  1.
         22    1    1    0    0    0 -0.15196313588E+01  0.21917203236E+02 -0.24418053809E+02  0.32846832861E+02  0.00000000000E+00 0. -1.
</event>
<event>
 5    1  0.1659417E-003  0.9118800E+02  0.7818608E-02  0.1130116E+00
         25   -1    0    0    0    0  0.00000000000E+00  0.00000000000E+00  0.99999998245E-14  0.12500000000E+03  0.12500000000E+03 0.  0.
        -11    1    3    3    0    0  0.17242017556E+02  0.18861695832E+02  0.46976113677E+02  0.53477153958E+02  0.51100000000E-03 0. -1.
         23    2    1    0    0    0 -0.12350682370E+02  0.20588564914E+02  0.24672830672E+02  0.90573601211E+02  0.83775893328E+02 0.  0.
         11    1    3    3    0    0 -0.29592699926E+02  0.17268690820E+01 -0.22303283005E+02  0.37096447253E+02  0.51100000000E-03 0.  1.
         22    1    1    0    0    0  0.12350682370E+02 -0.20588564914E+02 -0.24672830672E+02  0.34426398789E+02  0.00000000000E+00 0.  1.
</event>
<event>
 5    1  0.1659417E-003  0.9118800E+02  0.7818608E-02  0.1130116E+00
         25   -1    0    0    0    0  0.00000000000E+00  0.00000000000E+00  0.99999998245E-14  0.12500000000E+03  0.12500000000E+03 0.  0.
        -11    1    3    3    0    0  0.46060027131E+01  0.15652167314E+02 -0.45696230087E+02  0.48521655444E+02  0.51100000000E-03 0. -1.
         23    2    1    0    0    0  0.31262180568E+01  0.25834003255E+02  0.34648646320E+01  0.98747871506E+02  0.95194368933E+02 0.  0.
         11    1    3    3    0    0 -0.14797846563E+01  0.10181835942E+02  0.49161094719E+02  0.50226216063E+02  0.51100000000E-03 0.  1.
         22    1    1    0    0    0 -0.31262180568E+01 -0.25834003255E+02 -0.34648646320E+01  0.26252128494E+02  0.00000000000E+00 0.  1.
</event>
<event>
 5    1  0.1659417E-003  0.9118800E+02  0.7818608E-02  0.1130116E+00
         25   -1    0    0    0    0  0.00000000000E+00  0.00000000000E+00  0.99999998245E-14  0.12500000000E+03  0.12500000000E+03 0.  0.
        -11    1    3    3    0    0 -0.14161546749E+02  0.48648083754E+02  0.10271257340E+01  0.50677810201E+02  0.51100000000E-03 0. -1.
         23    2    1    0    0    0 -0.95506586417E+01  0.14409433967E+02 -0.25470429941E+02  0.94217055548E+02  0.89046414229E+02 0.  0.
         11    1    3    3    0    0  0.46108881071E+01 -0.34238649787E+02 -0.26497555675E+02  0.43539245347E+02  0.51100000000E-03 0.  1.
         22    1    1    0    0    0  0.95506586417E+01 -0.14409433967E+02  0.25470429941E+02  0.30782944452E+02  0.00000000000E+00 0.  1.
</event>
<event>
 5    1  0.1659417E-003  0.9118800E+02  0.7818608E-02  0.1130116E+00
         25   -1    0    0    0    0  0.00000000000E+00  0.00000000000E+00  0.99999998245E-14  0.12500000000E+03  0.12500000000E+03 0.  0.
        -11    1    3    3    0    0  0.17260968557E+02 -0.26247267775E+02  0.35679938696E+02  0.47538596180E+02  0.51100000000E-03 0.  1.
         23    2    1    0    0    0  0.50369737471E+01  0.17930148158E+02  0.23591138685E+02  0.94943334484E+02  0.90060166672E+02 0.  0.
         11    1    3    3    0    0 -0.12223994810E+02  0.44177415933E+02 -0.12088800011E+02  0.47404738303E+02  0.51100000000E-03 0. -1.
         22    1    1    0    0    0 -0.50369737471E+01 -0.17930148158E+02 -0.23591138685E+02  0.30056665516E+02  0.00000000000E+00 0.  1.
</event>
<event>
 5    1  0.1659417E-003  0.9118800E+02  0.7818608E-02  0.1130116E+00
         25   -1    0    0    0    0  0.00000000000E+00  0.00000000000E+00  0.99999998245E-14  0.12500000000E+03  0.12500000000E+03 0.  0.
        -11    1    3    3    0    0  0.57608405965E+02 -0.16599562657E+02 -0.11891689604E+02  0.61120260145E+02  0.51100000000E-03 0. -1.
         23    2    1    0    0    0  0.26361085984E+02 -0.14583849842E+02 -0.12361830327E+02  0.92436057064E+02  0.86510197469E+02 0.  0.
         11    1    3    3    0    0 -0.31247319981E+02  0.20157128144E+01 -0.47014072326E+00  0.31315796920E+02  0.51100000000E-03 0.  1.
         22    1    1    0    0    0 -0.26361085984E+02  0.14583849842E+02  0.12361830327E+02  0.32563942936E+02  0.00000000000E+00 0. -1.
</event>
<event>
 5    1  0.1659417E-003  0.9118800E+02  0.7818608E-02  0.1130116E+00
         25   -1    0    0    0    0  0.00000000000E+00  0.00000000000E+00  0.99999998245E-14  0.12500000000E+03  0.12500000000E+03 0.  0.
        -11    1    3    3    0    0  0.54722783831E+02 -0.13104453964E+02  0.19268232260E+02  0.59477513050E+02  0.51100000000E-03 0.  1.
         23    2    1    0    0    0  0.29001160972E+02 -0.15588961499E+01 -0.35399556514E+01  0.95742030472E+02  0.91161985597E+02 0.  0.
         11    1    3    3    0    0 -0.25721622859E+02  0.11545557814E+02 -0.22808187911E+02  0.36264517422E+02  0.51100000000E-03 0. -1.
         22    1    1    0    0    0 -0.29001160972E+02  0.15588961499E+01  0.35399556514E+01  0.29257969528E+02  0.00000000000E+00 0.  1.
</event>
<event>
 5    1  0.1659417E-003  0.9118800E+02  0.7818608E-02  0.1130116E+00
         25   -1    0    0    0    0  0.00000000000E+00  0.00000000000E+00  0.99999998245E-14  0.12500000000E+03  0.12500000000E+03 0.  0.
        -11    1    3    3    0    0 -0.27639974361E+02  0.24405765240E+02 -0.46861808282E+01  0.37169474715E+02  0.51100000000E-03 0. -1.
         23    2    1    0    0    0 -0.24241042389E+01 -0.13203521169E+02 -0.32172434567E+02  0.90139208291E+02  0.83125219234E+02 0.  0.
         11    1    3    3    0    0  0.25215870122E+02 -0.37609286409E+02 -0.27486253739E+02  0.52969733575E+02  0.51100000000E-03 0.  1.
         22    1    1    0    0    0  0.24241042389E+01  0.13203521169E+02  0.32172434567E+02  0.34860791709E+02  0.00000000000E+00 0.  1.
</event>
<event>
 5    1  0.1659417E-003  0.9118800E+02  0.7818608E-02  0.1130116E+00
         25   -1    0    0    0    0  0.00000000000E+00  0.00000000000E+00  0.99999998245E-14  0.12500000000E+03  0.12500000000E+03 0.  0.
        -11    1    3    3    0    0 -0.78515149280E-01  0.10210613487E+02  0.42464429005E+02  0.43674827114E+02  0.51100000000E-03 0.  1.
         23    2    1    0    0    0  0.28685068029E+02 -0.98404157122E+01  0.63378965399E+01  0.94018782436E+02  0.88767649563E+02 0.  0.
         11    1    3    3    0    0  0.28763583178E+02 -0.20051029199E+02 -0.36126532466E+02  0.50343955322E+02  0.51100000000E-03 0. -1.
         22    1    1    0    0    0 -0.28685068029E+02  0.98404157122E+01 -0.63378965399E+01  0.30981217564E+02  0.00000000000E+00 0. -1.
</event>
<event>
 5    1  0.1659417E-003  0.9118800E+02  0.7818608E-02  0.1130116E+00
         25   -1    0    0    0    0  0.00000000000E+00  0.00000000000E+00  0.99999998245E-14  0.12500000000E+03  0.12500000000E+03 0.  0.
        -11    1    3    3    0    0  0.30672858055E+02  0.90245505657E+01  0.24409096688E+02  0.40225249975E+02  0.51100000000E-03 0. -1.
         23    2    1    0    0    0 -0.12804672935E+02  0.26389220156E+02 -0.46126149307E+01  0.95307798904E+02  0.90564616303E+02 0.  0.
         11    1    3    3    0    0 -0.43477530990E+02  0.17364669590E+02 -0.29021711619E+02  0.55082548929E+02  0.51100000000E-03 0.  1.
         22    1    1    0    0    0  0.12804672935E+02 -0.26389220156E+02  0.46126149307E+01  0.29692201096E+02  0.00000000000E+00 0.  1.
</event>
<event>
 5    1  0.1659417E-003  0.9118800E+02  0.7818608E-02  0.1130116E+00
         25   -1    0    0    0    0  0.00000000000E+00  0.00000000000E+00  0.99999998245E-14  0.12500000000E+03  0.12500000000E+03 0.  0.
        -11    1    3    3    0    0 -0.23479843516E+02  0.41791223708E+02 -0.35776253103E+02  0.59814293584E+02  0.51100000000E-03 0.  1.
         23    2    1    0    0    0 -0.23061383515E+02  0.15789161702E+02 -0.13959644027E+02  0.93759054140E+02  0.88401151208E+02 0.  0.
         11    1    3    3    0    0  0.41846000059E+00 -0.26002062006E+02  0.21816609077E+02  0.33944760556E+02  0.51100000000E-03 0. -1.
         22    1    1    0    0    0  0.23061383515E+02 -0.15789161702E+02  0.13959644027E+02  0.31240945860E+02  0.00000000000E+00 0.  1.
</event>
<event>
 5    1  0.1659417E-003  0.9118800E+02  0.7818608E-02  0.1130116E+00
         25   -1    0    0    0    0  0.00000000000E+00  0.00000000000E+00  0.99999998245E-14  0.12500000000E+03  0.12500000000E+03 0.  0.
        -11    1    3    3    0    0  0.34241959783E+02 -0.25252668036E+02 -0.71142167906E+00  0.42552499030E+02  0.51100000000E-03 0.  1.
         23    2    1    0    0    0 -0.60719084712E+01 -0.59115895861E+01  0.28036946544E+02  0.95710320326E+02  0.91118494728E+02 0.  0.
         11    1    3    3    0    0 -0.40313868254E+02  0.19341078449E+02  0.28748368223E+02  0.53157821296E+02  0.51100000000E-03 0. -1.
         22    1    1    0    0    0  0.60719084712E+01  0.59115895861E+01 -0.28036946544E+02  0.29289679674E+02  0.00000000000E+00 0. -1.
</event>
<event>
 5    1  0.1659417E-003  0.9118800E+02  0.7818608E-02  0.1130116E+00
         25   -1    0    0    0    0  0.00000000000E+00  0.00000000000E+00  0.99999998245E-14  0.12500000000E+03  0.12500000000E+03 0.  0.
        -11    1    3    3    0    0  0.19199936205E+02 -0.12945248951E+02  0.27563223385E+02  0.35999281997E+02  0.51100000000E-03 0.  1.
         23    2    1    0    0    0 -0.21050815336E+02  0.17380295078E+02 -0.66394336016E+01  0.96905631136E+02  0.92743774907E+02 0.  0.
         11    1    3    3    0    0 -0.40250751540E+02  0.30325544029E+02 -0.34202656987E+02  0.60906349139E+02  0.51100000000E-03 0. -1.
         22    1    1    0    0    0  0.21050815336E+02 -0.17380295078E+02  0.66394336016E+01  0.28094368864E+02  0.00000000000E+00 0. -1.
</event>
<event>
 5    1  0.1659417E-003  0.9118800E+02  0.7818608E-02  0.1130116E+00
         25   -1    0    0    0    0  0.00000000000E+00  0.00000000000E+00  0.99999998245E-14  0.12500000000E+03  0.12500000000E+03 0.  0.
        -11    1    3    3    0    0  0.12856891663E+02  0.35672854513E+02  0.29338929337E+02  0.47943977591E+02  0.51100000000E-03 0.  1.
         23    2    1    0    0    0  0.18260833821E+02 -0.12371388379E+02  0.14829211397E+02  0.98421534790E+02  0.94764886417E+02 0.  0.
         11    1    3    3    0    0  0.54039421575E+01 -0.48044242892E+02 -0.14509717939E+02  0.50477557199E+02  0.51100000000E-03 0. -1.
         22    1    1    0    0    0 -0.18260833821E+02  0.12371388379E+02 -0.14829211397E+02  0.26578465210E+02  0.00000000000E+00 0. -1.
</event>
<event>
 5    1  0.1659417E-003  0.9118800E+02  0.7818608E-02  0.1130116E+00
         25   -1    0    0    0    0  0.00000000000E+00  0.00000000000E+00  0.99999998245E-14  0.12500000000E+03  0.12500000000E+03 0.  0.
        -11    1    3    3    0    0 -0.13008701384E+02 -0.28440857430E+02 -0.34808742494E+02  0.46794841995E+02  0.51100000000E-03 0. -1.
         23    2    1    0    0    0 -0.26790264971E+02 -0.79438293874E+01  0.77503241303E+01  0.96001892360E+02  0.91517610820E+02 0.  0.
         11    1    3    3    0    0 -0.13781563587E+02  0.20497028042E+02  0.42559066625E+02  0.49207050366E+02  0.51100000000E-03 0.  1.
         22    1    1    0    0    0  0.26790264971E+02  0.79438293874E+01 -0.77503241303E+01  0.28998107640E+02  0.00000000000E+00 0. -1.
</event>
<event>
 5    1  0.1659417E-003  0.9118800E+02  0.7818608E-02  0.1130116E+00
         25   -1    0    0    0    0  0.00000000000E+00  0.00000000000E+00  0.99999998245E-14  0.12500000000E+03  0.12500000000E+03 0.  0.
        -11    1    3    3    0    0 -0.31768586579E+02  0.35934944372E+02  0.26009591627E+01  0.48034657375E+02  0.51100000000E-03 0.  1.
         23    2    1    0    0    0 -0.20085642917E+02 -0.63032995028E+01  0.20724956861E+02  0.95458698863E+02  0.90772654008E+02 0.  0.
         11    1    3    3    0    0  0.11682943663E+02 -0.42238243875E+02  0.18123997698E+02  0.47424041488E+02  0.51100000000E-03 0. -1.
         22    1    1    0    0    0  0.20085642917E+02  0.63032995028E+01 -0.20724956861E+02  0.29541301137E+02  0.00000000000E+00 0. -1.
</event>
<event>
 5    1  0.1659417E-003  0.9118800E+02  0.7818608E-02  0.1130116E+00
         25   -1    0    0    0    0  0.00000000000E+00  0.00000000000E+00  0.99999998245E-14  0.12500000000E+03  0.12500000000E+03 0.  0.
        -11    1    3    3    0    0 -0.13816170574E+00  0.47193617423E+02 -0.38742892073E+02  0.61059547169E+02  0.51100000000E-03 0.  1.
         23    2    1    0    0    0  0.33003452846E+01  0.26778998470E+02 -0.10567656998E+02  0.96022725930E+02  0.91546062081E+02 0.  0.
         11    1    3    3    0    0  0.34385069904E+01 -0.20414618952E+02  0.28175235075E+02  0.34963178761E+02  0.51100000000E-03 0. -1.
         22    1    1    0    0    0 -0.33003452846E+01 -0.26778998470E+02  0.10567656998E+02  0.28977274070E+02  0.00000000000E+00 0.  1.
</event>
<event>
 5    1  0.1659417E-003  0.9118800E+02  0.7818608E-02  0.1130116E+00
         25   -1    0    0    0    0  0.00000000000E+00  0.00000000000E+00  0.99999998245E-14  0.12500000000E+03  0.12500000000E+03 0.  0.
        -11    1    3    3    0    0 -0.35311886492E+01  0.13232600895E+01 -0.60289897763E+02  0.60407715427E+02  0.51100000000E-03 0. -1.
         23    2    1    0    0    0  0.68578683080E+01 -0.70403703188E+01 -0.26689408486E+02  0.96558451215E+02  0.92274659597E+02 0.  0.
         11    1    3    3    0    0  0.10389056957E+02 -0.83636304084E+01  0.33600489277E+02  0.36150735788E+02  0.51100000000E-03 0.  1.
         22    1    1    0    0    0 -0.68578683080E+01  0.70403703188E+01  0.26689408486E+02  0.28441548785E+02  0.00000000000E+00 0. -1.
</event>
<event>
 5    1  0.1659417E-003  0.9118800E+02  0.7818608E-02  0.1130116E+00
         25   -1    0    0    0    0  0.00000000000E+00  0.00000000000E+00  0.99999998245E-14  0.12500000000E+03  0.12500000000E+03 0.  0.
        -11    1    3    3    0    0 -0.76325014067E+01 -0.19177890559E+02  0.26365250396E+02  0.33483921406E+02  0.51100000000E-03 0.  1.
         23    2    1    0    0    0  0.13172362658E+02  0.17356992611E+02 -0.19539717273E+02  0.95732665280E+02  0.91149143276E+02 0.  0.
         11    1    3    3    0    0  0.20804864065E+02  0.36534883170E+02 -0.45904967669E+02  0.62248743874E+02  0.51100000000E-03 0. -1.
         22    1    1    0    0    0 -0.13172362658E+02 -0.17356992611E+02  0.19539717273E+02  0.29267334720E+02  0.00000000000E+00 0. -1.
</event>
<event>
 5    1  0.1659417E-003  0.9118800E+02  0.7818608E-02  0.1130116E+00
         25   -1    0    0    0    0  0.00000000000E+00  0.00000000000E+00  0.99999998245E-14  0.12500000000E+03  0.12500000000E+03 0.  0.
        -11    1    3    3    0    0  0.53762528244E+01  0.10552379651E+02 -0.43714014149E+02  0.45289864694E+02  0.51100000000E-03 0. -1.
         23    2    1    0    0    0  0.28121523067E+02  0.10090373286E+02  0.61596371167E+00  0.95116641689E+02  0.90300389934E+02 0.  0.
         11    1    3    3    0    0  0.22745270242E+02 -0.46200636456E+00  0.44329977861E+02  0.49826776995E+02  0.51100000000E-03 0.  1.
         22    1    1    0    0    0 -0.28121523067E+02 -0.10090373286E+02 -0.61596371167E+00  0.29883358311E+02  0.00000000000E+00 0. -1.
</event>
<event>
 5    1  0.1659417E-003  0.9118800E+02  0.7818608E-02  0.1130116E+00
         25   -1    0    0    0    0  0.00000000000E+00  0.00000000000E+00  0.99999998245E-14  0.12500000000E+03  0.12500000000E+03 0.  0.
        -11    1    3    3    0    0 -0.19807649952E+02  0.45677895810E+02 -0.32127640351E+02  0.59253678679E+02  0.51100000000E-03 0.  1.
         23    2    1    0    0    0  0.62211712127E+01  0.91870863859E+01 -0.92789357066E+00  0.11386597494E+03  0.11332031475E+03 0.  0.
         11    1    3    3    0    0  0.26028821165E+02 -0.36490809424E+02  0.31199746780E+02  0.54612296262E+02  0.51100000000E-03 0. -1.
         22    1    1    0    0    0 -0.62211712127E+01 -0.91870863859E+01  0.92789357066E+00  0.11134025058E+02  0.00000000000E+00 0. -1.
</event>
<event>
 5    1  0.1659417E-003  0.9118800E+02  0.7818608E-02  0.1130116E+00
         25   -1    0    0    0    0  0.00000000000E+00  0.00000000000E+00  0.99999998245E-14  0.12500000000E+03  0.12500000000E+03 0.  0.
        -11    1    3    3    0    0  0.68693283579E+01 -0.38443501197E+02  0.25352400864E+02  0.46560011665E+02  0.51100000000E-03 0. -1.
         23    2    1    0    0    0 -0.18956000856E+02  0.28154137917E+01  0.22679123970E+02  0.95308263989E+02  0.90565258224E+02 0.  0.
         11    1    3    3    0    0 -0.25825329214E+02  0.41258914989E+02 -0.26732768939E+01  0.48748252324E+02  0.51100000000E-03 0.  1.
         22    1    1    0    0    0  0.18956000856E+02 -0.28154137917E+01 -0.22679123970E+02  0.29691736011E+02  0.00000000000E+00 0. -1.
</event>
<event>
 5    1  0.1659417E-003  0.9118800E+02  0.7818608E-02  0.1130116E+00
         25   -1    0    0    0    0  0.00000000000E+00  0.00000000000E+00  0.99999998245E-14  0.12500000000E+03  0.12500000000E+03 0.  0.
        -11    1    3    3    0    0 -0.18485849361E+02 -0.39922742427E+02  0.24651960144E+02  0.50430854927E+02  0.51100000000E-03 0.  1.
         23    2    1    0    0    0 -0.27244140885E+02  0.19539293116E+01  0.63888242302E+01  0.96948651951E+02  0.92801740220E+02 0.  0.
         11    1    3    3    0    0 -0.87582915241E+01  0.41876671738E+02 -0.18263135914E+02  0.46517797024E+02  0.51100000000E-03 0. -1.
         22    1    1    0    0    0  0.27244140885E+02 -0.19539293116E+01 -0.63888242302E+01  0.28051348049E+02  0.00000000000E+00 0. -1.
</event>
<event>
 5    1  0.1659417E-003  0.9118800E+02  0.7818608E-02  0.1130116E+00
         25   -1    0    0    0    0  0.00000000000E+00  0.00000000000E+00  0.99999998245E-14  0.12500000000E+03  0.12500000000E+03 0.  0.
        -11    1    3    3    0    0  0.30707382967E+02 -0.47447895506E+02  0.94241834766E+01  0.57298005124E+02  0.51100000000E-03 0. -1.
         23    2    1    0    0    0 -0.22064291592E+01 -0.28099516652E+02  0.87626881377E+01  0.95483295084E+02  0.90806518328E+02 0.  0.
         11    1    3    3    0    0 -0.32913812127E+02  0.19348378854E+02 -0.66149533889E+00  0.38185289960E+02  0.51100000000E-03 0.  1.
         22    1    1    0    0    0  0.22064291592E+01  0.28099516652E+02 -0.87626881377E+01  0.29516704916E+02  0.00000000000E+00 0. -1.
</event>
<event>
 5    1  0.1659417E-003  0.9118800E+02  0.7818608E-02  0.1130116E+00
         25   -1    0    0    0    0  0.00000000000E+00  0.00000000000E+00  0.99999998245E-14  0.12500000000E+03  0.12500000000E+03 0.  0.
        -11    1    3    3    0    0  0.21455233530E+02 -0.26552248011E+02  0.33536847232E+01  0.34301546929E+02  0.51100000000E-03 0. -1.
         23    2    1    0    0    0  0.35452055151E+01  0.29824807346E+02 -0.64993252209E+01  0.94270065999E+02  0.89120797235E+02 0.  0.
         11    1    3    3    0    0 -0.17910028015E+02  0.56377055357E+02 -0.98530099442E+01  0.59968519070E+02  0.51100000000E-03 0.  1.
         22    1    1    0    0    0 -0.35452055151E+01 -0.29824807346E+02  0.64993252209E+01  0.30729934001E+02  0.00000000000E+00 0.  1.
</event>
<event>
 5    1  0.1659417E-003  0.9118800E+02  0.7818608E-02  0.1130116E+00
         25   -1    0    0    0    0  0.00000000000E+00  0.00000000000E+00  0.99999998245E-14  0.12500000000E+03  0.12500000000E+03 0.  0.
        -11    1    3    3    0    0 -0.35207230689E+02  0.20717109153E+02  0.22990301400E+00  0.40850955437E+02  0.51100000000E-03 0.  1.
         23    2    1    0    0    0  0.29419022307E+01 -0.45478685529E+01  0.29393669743E+02  0.95111445032E+02  0.90293196078E+02 0.  0.
         11    1    3    3    0    0  0.38149132920E+02 -0.25264977705E+02  0.29163766729E+02  0.54260489595E+02  0.51100000000E-03 0. -1.
         22    1    1    0    0    0 -0.29419022307E+01  0.45478685529E+01 -0.29393669743E+02  0.29888554968E+02  0.00000000000E+00 0. -1.
</event>
<event>
 5    1  0.1659417E-003  0.9118800E+02  0.7818608E-02  0.1130116E+00
         25   -1    0    0    0    0  0.00000000000E+00  0.00000000000E+00  0.99999998245E-14  0.12500000000E+03  0.12500000000E+03 0.  0.
        -11    1    3    3    0    0  0.20635121018E+02  0.71096377826E+01  0.21648786223E+02  0.30741260775E+02  0.51100000000E-03 0.  1.
         23    2    1    0    0    0 -0.89283877668E+01  0.20094714956E+02 -0.27649480267E+02  0.89672851285E+02  0.82420948922E+02 0.  0.
         11    1    3    3    0    0 -0.29563508785E+02  0.12985077173E+02 -0.49298266490E+02  0.58931590510E+02  0.51100000000E-03 0. -1.
         22    1    1    0    0    0  0.89283877668E+01 -0.20094714956E+02  0.27649480267E+02  0.35327148715E+02  0.00000000000E+00 0. -1.
</event>
<event>
 5    1  0.1659417E-003  0.9118800E+02  0.7818608E-02  0.1130116E+00
         25   -1    0    0    0    0  0.00000000000E+00  0.00000000000E+00  0.99999998245E-14  0.12500000000E+03  0.12500000000E+03 0.  0.
        -11    1    3    3    0    0  0.98763715333E+01 -0.15227365980E+02 -0.36557437648E+02  0.40814968296E+02  0.51100000000E-03 0. -1.
         23    2    1    0    0    0  0.18450458055E+01 -0.20448688179E+02  0.18900004827E+02  0.97093670525E+02  0.92996868933E+02 0.  0.
         11    1    3    3    0    0 -0.80313257278E+01 -0.52213221993E+01  0.55457442475E+02  0.56278702229E+02  0.51100000000E-03 0.  1.
         22    1    1    0    0    0 -0.18450458055E+01  0.20448688179E+02 -0.18900004827E+02  0.27906329475E+02  0.00000000000E+00 0.  1.
</event>
<event>
 5    1  0.1659417E-003  0.9118800E+02  0.7818608E-02  0.1130116E+00
         25   -1    0    0    0    0  0.00000000000E+00  0.00000000000E+00  0.99999998245E-14  0.12500000000E+03  0.12500000000E+03 0.  0.
        -11    1    3    3    0    0  0.18477357202E+02  0.19064110705E+02 -0.26024802403E+02  0.37177189062E+02  0.51100000000E-03 0. -1.
         23    2    1    0    0    0 -0.97814436466E+01 -0.27282696193E+02 -0.40655217985E+01  0.95733113954E+02  0.91149758576E+02 0.  0.
         11    1    3    3    0    0 -0.28258800849E+02 -0.46346806898E+02  0.21959280605E+02  0.58555924892E+02  0.51100000000E-03 0.  1.
         22    1    1    0    0    0  0.97814436466E+01  0.27282696193E+02  0.40655217985E+01  0.29266886046E+02  0.00000000000E+00 0.  1.
</event>
<event>
 4    1  0.1659417E-003  0.9118800E+02  0.7818608E-02  0.1130116E+00
         25   -1    0    0    0    0  0.00000000000E+00  0.00000000000E+00  0.99999998245E-14  0.12500000000E+03  0.12500000000E+03 0.  0.
        -11    1    1    0    0    0  0.33878014732E+02  0.32127293388E+02 -0.18128955757E+02  0.50085346158E+02  0.51100000000E-03 0. -1.
         11    1    1    0    0    0 -0.34715081605E+01  0.15335501093E+02  0.80102457568E+01  0.17646331064E+02  0.51100000000E-03 0.  1.
         22    1    1    0    0    0 -0.30406506572E+02 -0.47462794480E+02  0.10118710001E+02  0.57268322778E+02  0.00000000000E+00 0. -1.
</event>
<event>
 5    1  0.1659417E-003  0.9118800E+02  0.7818608E-02  0.1130116E+00
         25   -1    0    0    0    0  0.00000000000E+00  0.00000000000E+00  0.99999998245E-14  0.12500000000E+03  0.12500000000E+03 0.  0.
        -11    1    3    3    0    0 -0.32298091851E+02 -0.40005175163E+02 -0.12090385856E+00  0.51415906051E+02  0.51100000000E-03 0.  1.
         23    2    1    0    0    0 -0.11442372287E+01 -0.18221268228E+02 -0.22884633638E+02  0.95724919275E+02  0.91138519951E+02 0.  0.
         11    1    3    3    0    0  0.31153854623E+02  0.21783906934E+02 -0.22763729779E+02  0.44309013224E+02  0.51100000000E-03 0. -1.
         22    1    1    0    0    0  0.11442372287E+01  0.18221268228E+02  0.22884633638E+02  0.29275080725E+02  0.00000000000E+00 0.  1.
</event>
<event>
 5    1  0.1659417E-003  0.9118800E+02  0.7818608E-02  0.1130116E+00
         25   -1    0    0    0    0  0.00000000000E+00  0.00000000000E+00  0.99999998245E-14  0.12500000000E+03  0.12500000000E+03 0.  0.
        -11    1    3    3    0    0 -0.44418425943E+01  0.36096037333E+02  0.65833766819E+01  0.36959365871E+02  0.51100000000E-03 0. -1.
         23    2    1    0    0    0 -0.18158152741E+02 -0.18264962752E+02 -0.12747062963E+02  0.96263003123E+02  0.91873558660E+02 0.  0.
         11    1    3    3    0    0 -0.13716310147E+02 -0.54361000085E+02 -0.19330439644E+02  0.59303637253E+02  0.51100000000E-03 0.  1.
         22    1    1    0    0    0  0.18158152741E+02  0.18264962752E+02  0.12747062963E+02  0.28736996877E+02  0.00000000000E+00 0.  1.
</event>
<event>
 5    1  0.1659417E-003  0.9118800E+02  0.7818608E-02  0.1130116E+00
         25   -1    0    0    0    0  0.00000000000E+00  0.00000000000E+00  0.99999998245E-14  0.12500000000E+03  0.12500000000E+03 0.  0.
        -11    1    3    3    0    0  0.40254483401E+02  0.35004979470E+02  0.29974655964E+01  0.53429924404E+02  0.51100000000E-03 0. -1.
         23    2    1    0    0    0  0.11036526388E+02  0.18385910620E+02 -0.21198687503E+02  0.94846542886E+02  0.89925723359E+02 0.  0.
         11    1    3    3    0    0 -0.29217957013E+02 -0.16619068849E+02 -0.24196153100E+02  0.41416618482E+02  0.51100000000E-03 0.  1.
         22    1    1    0    0    0 -0.11036526388E+02 -0.18385910620E+02  0.21198687503E+02  0.30153457114E+02  0.00000000000E+00 0. -1.
</event>
<event>
 5    1  0.1659417E-003  0.9118800E+02  0.7818608E-02  0.1130116E+00
         25   -1    0    0    0    0  0.00000000000E+00  0.00000000000E+00  0.99999998245E-14  0.12500000000E+03  0.12500000000E+03 0.  0.
        -11    1    3    3    0    0 -0.33327496513E+02  0.20062517729E+02 -0.17087405863E+02  0.42487716823E+02  0.51100000000E-03 0. -1.
         23    2    1    0    0    0 -0.42836879706E+01  0.23627440603E+02  0.22753091309E+02  0.91919656952E+02  0.85760796627E+02 0.  0.
         11    1    3    3    0    0  0.29043808543E+02  0.35649228740E+01  0.39840497172E+02  0.49431940129E+02  0.51100000000E-03 0.  1.
         22    1    1    0    0    0  0.42836879706E+01 -0.23627440603E+02 -0.22753091309E+02  0.33080343048E+02  0.00000000000E+00 0.  1.
</event>
<event>
 5    1  0.1659417E-003  0.9118800E+02  0.7818608E-02  0.1130116E+00
         25   -1    0    0    0    0  0.00000000000E+00  0.00000000000E+00  0.99999998245E-14  0.12500000000E+03  0.12500000000E+03 0.  0.
        -11    1    3    3    0    0 -0.26958576546E+02  0.21857115396E+02 -0.88298651992E+01  0.35811518573E+02  0.51100000000E-03 0.  1.
         23    2    1    0    0    0 -0.87187360545E+00 -0.27167394900E+02  0.12217194065E+02  0.95199205714E+02  0.90414608491E+02 0.  0.
         11    1    3    3    0    0  0.26086702941E+02 -0.49024510295E+02  0.21047059265E+02  0.59387687141E+02  0.51100000000E-03 0. -1.
         22    1    1    0    0    0  0.87187360545E+00  0.27167394900E+02 -0.12217194065E+02  0.29800794286E+02  0.00000000000E+00 0. -1.
</event>
<event>
 5    1  0.1659417E-003  0.9118800E+02  0.7818608E-02  0.1130116E+00
         25   -1    0    0    0    0  0.00000000000E+00  0.00000000000E+00  0.99999998245E-14  0.12500000000E+03  0.12500000000E+03 0.  0.
        -11    1    3    3    0    0 -0.27880306080E+02 -0.20650010173E+02 -0.70286254105E+01  0.35399660489E+02  0.51100000000E-03 0.  1.
         23    2    1    0    0    0  0.49859430931E+01  0.15772604737E+02  0.25744870378E+02  0.94398806568E+02  0.89301184997E+02 0.  0.
         11    1    3    3    0    0  0.32866249173E+02  0.36422614910E+02  0.32773495788E+02  0.58999146079E+02  0.51100000000E-03 0. -1.
         22    1    1    0    0    0 -0.49859430931E+01 -0.15772604737E+02 -0.25744870378E+02  0.30601193432E+02  0.00000000000E+00 0. -1.
</event>
<event>
 5    1  0.1659417E-003  0.9118800E+02  0.7818608E-02  0.1130116E+00
         25   -1    0    0    0    0  0.00000000000E+00  0.00000000000E+00  0.99999998245E-14  0.12500000000E+03  0.12500000000E+03 0.  0.
        -11    1    3    3    0    0 -0.66181354892E+01  0.22126403340E+02  0.31122874825E+02  0.38755783823E+02  0.51100000000E-03 0.  1.
         23    2    1    0    0    0  0.54651084538E+01  0.12768875422E+02 -0.24716234160E+02  0.96648565803E+02  0.92396652812E+02 0.  0.
         11    1    3    3    0    0  0.12083243943E+02 -0.93575279178E+01 -0.55839108985E+02  0.57892781980E+02  0.51100000000E-03 0. -1.
         22    1    1    0    0    0 -0.54651084538E+01 -0.12768875422E+02  0.24716234160E+02  0.28351434197E+02  0.00000000000E+00 0. -1.
</event>
<event>
 5    1  0.1659417E-003  0.9118800E+02  0.7818608E-02  0.1130116E+00
         25   -1    0    0    0    0  0.00000000000E+00  0.00000000000E+00  0.99999998245E-14  0.12500000000E+03  0.12500000000E+03 0.  0.
        -11    1    3    3    0    0 -0.34725031906E+02  0.11847379206E+02 -0.35722860455E+02  0.51208505097E+02  0.51100000000E-03 0. -1.
         23    2    1    0    0    0 -0.13529852903E+02 -0.21109041161E+02 -0.17510395040E+02  0.94417938710E+02  0.89327961341E+02 0.  0.
         11    1    3    3    0    0  0.21195179004E+02 -0.32956420367E+02  0.18212465415E+02  0.43209433613E+02  0.51100000000E-03 0.  1.
         22    1    1    0    0    0  0.13529852903E+02  0.21109041161E+02  0.17510395040E+02  0.30582061290E+02  0.00000000000E+00 0. -1.
</event>
<event>
 5    1  0.1659417E-003  0.9118800E+02  0.7818608E-02  0.1130116E+00
         25   -1    0    0    0    0  0.00000000000E+00  0.00000000000E+00  0.99999998245E-14  0.12500000000E+03  0.12500000000E+03 0.  0.
        -11    1    3    3    0    0 -0.19107937115E+02  0.19702176398E+02  0.41678575325E+02  0.49903834091E+02  0.51100000000E-03 0. -1.
         23    2    1    0    0    0 -0.17470153108E+02  0.25825330679E+02 -0.17299344681E+01  0.93772662176E+02  0.88420390997E+02 0.  0.
         11    1    3    3    0    0  0.16377840077E+01  0.61231542811E+01 -0.43408509793E+02  0.43868828085E+02  0.51100000000E-03 0.  1.
         22    1    1    0    0    0  0.17470153108E+02 -0.25825330679E+02  0.17299344681E+01  0.31227337824E+02  0.00000000000E+00 0. -1.
</event>
<event>
 5    1  0.1659417E-003  0.9118800E+02  0.7818608E-02  0.1130116E+00
         25   -1    0    0    0    0  0.00000000000E+00  0.00000000000E+00  0.99999998245E-14  0.12500000000E+03  0.12500000000E+03 0.  0.
        -11    1    3    3    0    0 -0.45096574034E+02  0.10702567221E+02 -0.33112745792E+02  0.56962267062E+02  0.51100000000E-03 0. -1.
         23    2    1    0    0    0 -0.18004687262E+02 -0.13910063317E+02 -0.10970473921E+02  0.99741141694E+02  0.96489820310E+02 0.  0.
         11    1    3    3    0    0  0.27091886772E+02 -0.24612630538E+02  0.22142271871E+02  0.42778874632E+02  0.51100000000E-03 0.  1.
         22    1    1    0    0    0  0.18004687262E+02  0.13910063317E+02  0.10970473921E+02  0.25258858306E+02  0.00000000000E+00 0. -1.
</event>
<event>
 5    1  0.1659417E-003  0.9118800E+02  0.7818608E-02  0.1130116E+00
         25   -1    0    0    0    0  0.00000000000E+00  0.00000000000E+00  0.99999998245E-14  0.12500000000E+03  0.12500000000E+03 0.  0.
        -11    1    3    3    0    0 -0.20208876566E+02 -0.11977768236E+02 -0.87750281558E+01  0.25077215622E+02  0.51100000000E-03 0.  1.
         23    2    1    0    0    0  0.23038294942E+02  0.25970160452E+02 -0.21717237702E+02  0.84050632713E+02  0.73400668787E+02 0.  0.
         11    1    3    3    0    0  0.43247171508E+02  0.37947928688E+02 -0.12942209547E+02  0.58973417091E+02  0.51100000000E-03 0. -1.
         22    1    1    0    0    0 -0.23038294942E+02 -0.25970160452E+02  0.21717237702E+02  0.40949367287E+02  0.00000000000E+00 0. -1.
</event>
<event>
 5    1  0.1659417E-003  0.9118800E+02  0.7818608E-02  0.1130116E+00
         25   -1    0    0    0    0  0.00000000000E+00  0.00000000000E+00  0.99999998245E-14  0.12500000000E+03  0.12500000000E+03 0.  0.
        -11    1    3    3    0    0 -0.25811134804E+01 -0.58019933284E+02  0.16907568575E+01  0.58101923067E+02  0.51100000000E-03 0. -1.
         23    2    1    0    0    0  0.11124547641E+02 -0.22694392912E+02 -0.10095748377E+02  0.97783917160E+02  0.93920068623E+02 0.  0.
         11    1    3    3    0    0  0.13705661121E+02  0.35325540372E+02 -0.11786505234E+02  0.39681994093E+02  0.51100000000E-03 0.  1.
         22    1    1    0    0    0 -0.11124547641E+02  0.22694392912E+02  0.10095748377E+02  0.27216082840E+02  0.00000000000E+00 0. -1.
</event>
<event>
 5    1  0.1659417E-003  0.9118800E+02  0.7818608E-02  0.1130116E+00
         25   -1    0    0    0    0  0.00000000000E+00  0.00000000000E+00  0.99999998245E-14  0.12500000000E+03  0.12500000000E+03 0.  0.
        -11    1    3    3    0    0 -0.22282584786E+02  0.12434531392E+02 -0.18396370170E+02  0.31457234325E+02  0.51100000000E-03 0. -1.
         23    2    1    0    0    0  0.32347818151E+02  0.11438504616E+02  0.38951252029E+01  0.90468959944E+02  0.83619614841E+02 0.  0.
         11    1    3    3    0    0  0.54630402937E+02 -0.99602677576E+00  0.22291495372E+02  0.59011725620E+02  0.51100000000E-03 0.  1.
         22    1    1    0    0    0 -0.32347818151E+02 -0.11438504616E+02 -0.38951252029E+01  0.34531040056E+02  0.00000000000E+00 0.  1.
</event>
<event>
 5    1  0.1659417E-003  0.9118800E+02  0.7818608E-02  0.1130116E+00
         25   -1    0    0    0    0  0.00000000000E+00  0.00000000000E+00  0.99999998245E-14  0.12500000000E+03  0.12500000000E+03 0.  0.
        -11    1    3    3    0    0  0.41874686860E+02 -0.57365424417E+01  0.40321685023E+02  0.58414344147E+02  0.51100000000E-03 0.  1.
         23    2    1    0    0    0  0.30178700785E+02  0.85486444474E+01  0.13792981055E+02  0.90735154614E+02  0.84016597488E+02 0.  0.
         11    1    3    3    0    0 -0.11695986074E+02  0.14285186889E+02 -0.26528703968E+02  0.32320810466E+02  0.51100000000E-03 0. -1.
         22    1    1    0    0    0 -0.30178700785E+02 -0.85486444474E+01 -0.13792981055E+02  0.34264845386E+02  0.00000000000E+00 0.  1.
</event>
<event>
 5    1  0.1659417E-003  0.9118800E+02  0.7818608E-02  0.1130116E+00
         25   -1    0    0    0    0  0.00000000000E+00  0.00000000000E+00  0.99999998245E-14  0.12500000000E+03  0.12500000000E+03 0.  0.
        -11    1    3    3    0    0  0.15991826157E+02  0.31653952631E+02 -0.10918351900E+02  0.37106894635E+02  0.51100000000E-03 0.  1.
         23    2    1    0    0    0 -0.28392379939E+02 -0.42366748148E+01  0.37714819231E+01  0.96046576576E+02  0.91578622745E+02 0.  0.
         11    1    3    3    0    0 -0.44384206097E+02 -0.35890627445E+02  0.14689833823E+02  0.58939681941E+02  0.51100000000E-03 0. -1.
         22    1    1    0    0    0  0.28392379939E+02  0.42366748148E+01 -0.37714819231E+01  0.28953423424E+02  0.00000000000E+00 0. -1.
</event>
<event>
 5    1  0.1659417E-003  0.9118800E+02  0.7818608E-02  0.1130116E+00
         25   -1    0    0    0    0  0.00000000000E+00  0.00000000000E+00  0.99999998245E-14  0.12500000000E+03  0.12500000000E+03 0.  0.
        -11    1    3    3    0    0  0.70212745814E+01 -0.24718041332E+02  0.40795593641E+02  0.48213694371E+02  0.51100000000E-03 0.  1.
         23    2    1    0    0    0 -0.18898058172E+02  0.91689595279E+01  0.21181086785E+02  0.95169732504E+02  0.90373852004E+02 0.  0.
         11    1    3    3    0    0 -0.25919332754E+02  0.33887000860E+02 -0.19614506857E+02  0.46956038133E+02  0.51100000000E-03 0. -1.
         22    1    1    0    0    0  0.18898058172E+02 -0.91689595279E+01 -0.21181086785E+02  0.29830267496E+02  0.00000000000E+00 0. -1.
</event>
<event>
 5    1  0.1659417E-003  0.9118800E+02  0.7818608E-02  0.1130116E+00
         25   -1    0    0    0    0  0.00000000000E+00  0.00000000000E+00  0.99999998245E-14  0.12500000000E+03  0.12500000000E+03 0.  0.
        -11    1    3    3    0    0 -0.44943790530E+02 -0.86400438313E+01 -0.17692187303E+02  0.49067383835E+02  0.51100000000E-03 0.  1.
         23    2    1    0    0    0 -0.21002082778E+02  0.15171460629E+02  0.14149352180E+02  0.95479416236E+02  0.90801178732E+02 0.  0.
         11    1    3    3    0    0  0.23941707752E+02  0.23811504460E+02  0.31841539482E+02  0.46412032401E+02  0.51100000000E-03 0. -1.
         22    1    1    0    0    0  0.21002082778E+02 -0.15171460629E+02 -0.14149352180E+02  0.29520583764E+02  0.00000000000E+00 0. -1.
</event>
<event>
 5    1  0.1659417E-003  0.9118800E+02  0.7818608E-02  0.1130116E+00
         25   -1    0    0    0    0  0.00000000000E+00  0.00000000000E+00  0.99999998245E-14  0.12500000000E+03  0.12500000000E+03 0.  0.
        -11    1    3    3    0    0  0.46514516514E+01 -0.30314417505E+02 -0.27895808427E+02  0.41458123923E+02  0.51100000000E-03 0. -1.
         23    2    1    0    0    0  0.20442641719E+02 -0.75006819630E+01  0.19101205260E+02  0.96034194768E+02  0.91561720670E+02 0.  0.
         11    1    3    3    0    0  0.15791190068E+02  0.22813735542E+02  0.46997013687E+02  0.54576070845E+02  0.51100000000E-03 0.  1.
         22    1    1    0    0    0 -0.20442641719E+02  0.75006819630E+01 -0.19101205260E+02  0.28965805232E+02  0.00000000000E+00 0. -1.
</event>
<event>
 5    1  0.1659417E-003  0.9118800E+02  0.7818608E-02  0.1130116E+00
         25   -1    0    0    0    0  0.00000000000E+00  0.00000000000E+00  0.99999998245E-14  0.12500000000E+03  0.12500000000E+03 0.  0.
        -11    1    3    3    0    0 -0.14122458045E+02 -0.25489160995E+02  0.53233040715E+02  0.60686883043E+02  0.51100000000E-03 0. -1.
         23    2    1    0    0    0 -0.16373922448E+02 -0.13996809067E+02  0.21271294994E+02  0.94726513397E+02  0.89758722970E+02 0.  0.
         11    1    3    3    0    0 -0.22514644032E+01  0.11492351928E+02 -0.31961745721E+02  0.34039630354E+02  0.51100000000E-03 0.  1.
         22    1    1    0    0    0  0.16373922448E+02  0.13996809067E+02 -0.21271294994E+02  0.30273486603E+02  0.00000000000E+00 0. -1.
</event>
<event>
 5    1  0.1659417E-003  0.9118800E+02  0.7818608E-02  0.1130116E+00
         25   -1    0    0    0    0  0.00000000000E+00  0.00000000000E+00  0.99999998245E-14  0.12500000000E+03  0.12500000000E+03 0.  0.
        -11    1    3    3    0    0 -0.30113296334E+02 -0.68154107707E+01  0.14966493434E+02  0.34311169698E+02  0.51100000000E-03 0.  1.
         23    2    1    0    0    0  0.24653610821E+02  0.23438354243E+01 -0.13590049570E+02  0.96751397587E+02  0.92535665539E+02 0.  0.
         11    1    3    3    0    0  0.54766907155E+02  0.91592461950E+01 -0.28556543004E+02  0.62440227889E+02  0.51100000000E-03 0. -1.
         22    1    1    0    0    0 -0.24653610821E+02 -0.23438354243E+01  0.13590049570E+02  0.28248602413E+02  0.00000000000E+00 0. -1.
</event>
<event>
 5    1  0.1659417E-003  0.9118800E+02  0.7818608E-02  0.1130116E+00
         25   -1    0    0    0    0  0.00000000000E+00  0.00000000000E+00  0.99999998245E-14  0.12500000000E+03  0.12500000000E+03 0.  0.
        -11    1    3    3    0    0  0.30456137114E+00  0.37662902008E+02 -0.24523527215E+02  0.44944302561E+02  0.51100000000E-03 0. -1.
         23    2    1    0    0    0 -0.30764456420E+02  0.54984524754E+01 -0.70062670761E+01  0.92972316087E+02  0.87281607580E+02 0.  0.
         11    1    3    3    0    0 -0.31069017792E+02 -0.32164449533E+02  0.17517260139E+02  0.48028013527E+02  0.51100000000E-03 0.  1.
         22    1    1    0    0    0  0.30764456420E+02 -0.54984524754E+01  0.70062670761E+01  0.32027683913E+02  0.00000000000E+00 0.  1.
</event>
<event>
 5    1  0.1659417E-003  0.9118800E+02  0.7818608E-02  0.1130116E+00
         25   -1    0    0    0    0  0.00000000000E+00  0.00000000000E+00  0.99999998245E-14  0.12500000000E+03  0.12500000000E+03 0.  0.
        -11    1    3    3    0    0 -0.11355450204E+02  0.30583836088E+02  0.31885413892E+02  0.45617944917E+02  0.51100000000E-03 0.  1.
         23    2    1    0    0    0 -0.20672004910E+02 -0.15186468942E+02  0.76911047292E+01  0.98221020970E+02  0.94500027739E+02 0.  0.
         11    1    3    3    0    0 -0.93165547062E+01 -0.45770305030E+02 -0.24194309162E+02  0.52603076053E+02  0.51100000000E-03 0. -1.
         22    1    1    0    0    0  0.20672004910E+02  0.15186468942E+02 -0.76911047292E+01  0.26778979030E+02  0.00000000000E+00 0. -1.
</event>
<event>
 5    1  0.1659417E-003  0.9118800E+02  0.7818608E-02  0.1130116E+00
         25   -1    0    0    0    0  0.00000000000E+00  0.00000000000E+00  0.99999998245E-14  0.12500000000E+03  0.12500000000E+03 0.  0.
        -11    1    3    3    0    0  0.15156418104E+02 -0.41998751665E+02  0.10657429608E+02  0.45904171458E+02  0.51100000000E-03 0.  1.
         23    2    1    0    0    0  0.22975806305E+02  0.57779315256E+01  0.18491913043E+02  0.94946331071E+02  0.90064325723E+02 0.  0.
         11    1    3    3    0    0  0.78193882017E+01  0.47776683191E+02  0.78344834342E+01  0.49042159613E+02  0.51100000000E-03 0. -1.
         22    1    1    0    0    0 -0.22975806305E+02 -0.57779315256E+01 -0.18491913043E+02  0.30053668929E+02  0.00000000000E+00 0.  1.
</event>
<event>
 5    1  0.1659417E-003  0.9118800E+02  0.7818608E-02  0.1130116E+00
         25   -1    0    0    0    0  0.00000000000E+00  0.00000000000E+00  0.99999998245E-14  0.12500000000E+03  0.12500000000E+03 0.  0.
        -11    1    3    3    0    0 -0.48549802687E+02  0.62995871855E+00  0.37754057030E+02  0.61504869819E+02  0.51100000000E-03 0. -1.
         23    2    1    0    0    0 -0.25837139032E+02  0.24985837371E+01  0.10582968273E+02  0.96967877506E+02  0.92827632613E+02 0.  0.
         11    1    3    3    0    0  0.22712663655E+02  0.18686250185E+01 -0.27171088757E+02  0.35463007688E+02  0.51100000000E-03 0.  1.
         22    1    1    0    0    0  0.25837139032E+02 -0.24985837371E+01 -0.10582968273E+02  0.28032122494E+02  0.00000000000E+00 0. -1.
</event>
<event>
 5    1  0.1659417E-003  0.9118800E+02  0.7818608E-02  0.1130116E+00
         25   -1    0    0    0    0  0.00000000000E+00  0.00000000000E+00  0.99999998245E-14  0.12500000000E+03  0.12500000000E+03 0.  0.
        -11    1    3    3    0    0 -0.30038389163E+02 -0.30442385205E+01 -0.16386212434E+02  0.34352294973E+02  0.51100000000E-03 0.  1.
         23    2    1    0    0    0  0.28195349933E+02 -0.69470573736E+01 -0.13993221391E+02  0.92765707564E+02  0.86985210760E+02 0.  0.
         11    1    3    3    0    0  0.58233739096E+02 -0.39028188530E+01  0.23929910434E+01  0.58413412591E+02  0.51100000000E-03 0. -1.
         22    1    1    0    0    0 -0.28195349933E+02  0.69470573736E+01  0.13993221391E+02  0.32234292436E+02  0.00000000000E+00 0. -1.
</event>
<event>
 5    1  0.1659417E-003  0.9118800E+02  0.7818608E-02  0.1130116E+00
         25   -1    0    0    0    0  0.00000000000E+00  0.00000000000E+00  0.99999998245E-14  0.12500000000E+03  0.12500000000E+03 0.  0.
        -11    1    3    3    0    0 -0.11868299115E+02  0.11597320255E+02 -0.49793818751E+02  0.52485986197E+02  0.51100000000E-03 0. -1.
         23    2    1    0    0    0  0.19667776596E+02  0.50005262148E+01 -0.22380579690E+02  0.94788792710E+02  0.89845412669E+02 0.  0.
         11    1    3    3    0    0  0.31536075710E+02 -0.65967940406E+01  0.27413239061E+02  0.42302806514E+02  0.51100000000E-03 0.  1.
         22    1    1    0    0    0 -0.19667776596E+02 -0.50005262148E+01  0.22380579690E+02  0.30211207290E+02  0.00000000000E+00 0. -1.
</event>
<event>
 5    1  0.1659417E-003  0.9118800E+02  0.7818608E-02  0.1130116E+00
         25   -1    0    0    0    0  0.00000000000E+00  0.00000000000E+00  0.99999998245E-14  0.12500000000E+03  0.12500000000E+03 0.  0.
        -11    1    3    3    0    0  0.65882458936E+01 -0.40341869670E+02  0.54496093047E+01  0.41237963993E+02  0.51100000000E-03 0.  1.
         23    2    1    0    0    0  0.22232372302E+02  0.13004272782E+02  0.10765622913E+02  0.97084267420E+02  0.92984229067E+02 0.  0.
         11    1    3    3    0    0  0.15644126408E+02  0.53346142452E+02  0.53160136086E+01  0.55846303428E+02  0.51100000000E-03 0. -1.
         22    1    1    0    0    0 -0.22232372302E+02 -0.13004272782E+02 -0.10765622913E+02  0.27915732580E+02  0.00000000000E+00 0. -1.
</event>
<event>
 5    1  0.1659417E-003  0.9118800E+02  0.7818608E-02  0.1130116E+00
         25   -1    0    0    0    0  0.00000000000E+00  0.00000000000E+00  0.99999998245E-14  0.12500000000E+03  0.12500000000E+03 0.  0.
        -11    1    3    3    0    0 -0.10609950465E+01 -0.40612999165E+01  0.38731792045E+02  0.38958588049E+02  0.51100000000E-03 0.  1.
         23    2    1    0    0    0  0.24923297674E+02 -0.54948640709E+01 -0.12620291511E+02  0.96528328888E+02  0.92233845317E+02 0.  0.
         11    1    3    3    0    0  0.25984292720E+02 -0.14335641544E+01 -0.51352083556E+02  0.57569740838E+02  0.51100000000E-03 0. -1.
         22    1    1    0    0    0 -0.24923297674E+02  0.54948640709E+01  0.12620291511E+02  0.28471671112E+02  0.00000000000E+00 0. -1.
</event>
<event>
 5    1  0.1659417E-003  0.9118800E+02  0.7818608E-02  0.1130116E+00
         25   -1    0    0    0    0  0.00000000000E+00  0.00000000000E+00  0.99999998245E-14  0.12500000000E+03  0.12500000000E+03 0.  0.
        -11    1    3    3    0    0 -0.24876644687E+01 -0.26599904580E+02 -0.57714714064E+01  0.27332275438E+02  0.51100000000E-03 0. -1.
         23    2    1    0    0    0 -0.40157671416E+01  0.26904541371E+02  0.24124057950E+02  0.88641357230E+02  0.80841445481E+02 0.  0.
         11    1    3    3    0    0 -0.15281026730E+01  0.53504445951E+02  0.29895529356E+02  0.61309081791E+02  0.51100000000E-03 0.  1.
         22    1    1    0    0    0  0.40157671416E+01 -0.26904541371E+02 -0.24124057950E+02  0.36358642770E+02  0.00000000000E+00 0.  1.
</event>
<event>
 5    1  0.1659417E-003  0.9118800E+02  0.7818608E-02  0.1130116E+00
         25   -1    0    0    0    0  0.00000000000E+00  0.00000000000E+00  0.99999998245E-14  0.12500000000E+03  0.12500000000E+03 0.  0.
        -11    1    3    3    0    0 -0.22900483378E+02  0.47916122587E+02 -0.15305050777E+02  0.55268721012E+02  0.51100000000E-03 0.  1.
         23    2    1    0    0    0  0.81432958904E+01  0.29310087494E+02  0.39345452503E-01  0.94579677107E+02  0.89554002014E+02 0.  0.
         11    1    3    3    0    0  0.31043779269E+02 -0.18606035093E+02  0.15344396230E+02  0.39310956095E+02  0.51100000000E-03 0. -1.
         22    1    1    0    0    0 -0.81432958904E+01 -0.29310087494E+02 -0.39345452503E-01  0.30420322893E+02  0.00000000000E+00 0.  1.
</event>
<event>
 5    1  0.1659417E-003  0.9118800E+02  0.7818608E-02  0.1130116E+00
         25   -1    0    0    0    0  0.00000000000E+00  0.00000000000E+00  0.99999998245E-14  0.12500000000E+03  0.12500000000E+03 0.  0.
        -11    1    3    3    0    0  0.43768536870E+02  0.16927215798E+02 -0.46014150412E+01  0.47152820436E+02  0.51100000000E-03 0.  1.
         23    2    1    0    0    0  0.78566795663E-01  0.24239288214E+02  0.15947931944E+02  0.95984731620E+02  0.91494168695E+02 0.  0.
         11    1    3    3    0    0 -0.43689970075E+02  0.73120724161E+01  0.20549346985E+02  0.48831911184E+02  0.51100000000E-03 0. -1.
         22    1    1    0    0    0 -0.78566795663E-01 -0.24239288214E+02 -0.15947931944E+02  0.29015268380E+02  0.00000000000E+00 0.  1.
</event>
<event>
 5    1  0.1659417E-003  0.9118800E+02  0.7818608E-02  0.1130116E+00
         25   -1    0    0    0    0  0.00000000000E+00  0.00000000000E+00  0.99999998245E-14  0.12500000000E+03  0.12500000000E+03 0.  0.
        -11    1    3    3    0    0 -0.44742488562E+00  0.23439206493E+01 -0.59056754074E+02  0.59104943575E+02  0.51100000000E-03 0.  1.
         23    2    1    0    0    0 -0.14247836017E+02 -0.22440740370E+01 -0.24985900649E+02  0.96149836557E+02  0.91719458891E+02 0.  0.
         11    1    3    3    0    0 -0.13800411131E+02 -0.45879946863E+01  0.34070853425E+02  0.37044892982E+02  0.51100000000E-03 0. -1.
         22    1    1    0    0    0  0.14247836017E+02  0.22440740370E+01  0.24985900649E+02  0.28850163443E+02  0.00000000000E+00 0.  1.
</event>
<event>
 5    1  0.1659417E-003  0.9118800E+02  0.7818608E-02  0.1130116E+00
         25   -1    0    0    0    0  0.00000000000E+00  0.00000000000E+00  0.99999998245E-14  0.12500000000E+03  0.12500000000E+03 0.  0.
        -11    1    3    3    0    0 -0.27838802898E+02 -0.77615174130E+01 -0.41443076501E+01  0.29196153608E+02  0.51100000000E-03 0. -1.
         23    2    1    0    0    0  0.17396796477E+02 -0.14663022536E+02 -0.34185644871E+02  0.83935281898E+02  0.73203964883E+02 0.  0.
         11    1    3    3    0    0  0.45235599374E+02 -0.69015051229E+01 -0.30041337221E+02  0.54739128290E+02  0.51100000000E-03 0.  1.
         22    1    1    0    0    0 -0.17396796477E+02  0.14663022536E+02  0.34185644871E+02  0.41064718102E+02  0.00000000000E+00 0.  1.
</event>
<event>
 5    1  0.1659417E-003  0.9118800E+02  0.7818608E-02  0.1130116E+00
         25   -1    0    0    0    0  0.00000000000E+00  0.00000000000E+00  0.99999998245E-14  0.12500000000E+03  0.12500000000E+03 0.  0.
        -11    1    3    3    0    0 -0.13989610864E+02  0.29403136723E+02  0.45452206603E+02  0.55912044737E+02  0.51100000000E-03 0.  1.
         23    2    1    0    0    0 -0.25724543517E+02  0.12671648641E+02  0.14860464400E+02  0.92702070955E+02  0.86893715185E+02 0.  0.
         11    1    3    3    0    0 -0.11734932652E+02 -0.16731488082E+02 -0.30591742204E+02  0.36790026218E+02  0.51100000000E-03 0. -1.
         22    1    1    0    0    0  0.25724543517E+02 -0.12671648641E+02 -0.14860464400E+02  0.32297929045E+02  0.00000000000E+00 0.  1.
</event>
<event>
 5    1  0.1659417E-003  0.9118800E+02  0.7818608E-02  0.1130116E+00
         25   -1    0    0    0    0  0.00000000000E+00  0.00000000000E+00  0.99999998245E-14  0.12500000000E+03  0.12500000000E+03 0.  0.
        -11    1    3    3    0    0 -0.95452165948E+01 -0.55619454156E+01  0.49313723914E+02  0.50536024410E+02  0.51100000000E-03 0.  1.
         23    2    1    0    0    0 -0.10982787005E-01 -0.27763600322E+02  0.12543862365E+02  0.94534181343E+02  0.89490476229E+02 0.  0.
         11    1    3    3    0    0  0.95342338078E+01 -0.22201654906E+02 -0.36769861549E+02  0.43998156932E+02  0.51100000000E-03 0. -1.
         22    1    1    0    0    0  0.10982787005E-01  0.27763600322E+02 -0.12543862365E+02  0.30465818657E+02  0.00000000000E+00 0.  1.
</event>
<event>
 5    1  0.1659417E-003  0.9118800E+02  0.7818608E-02  0.1130116E+00
         25   -1    0    0    0    0  0.00000000000E+00  0.00000000000E+00  0.99999998245E-14  0.12500000000E+03  0.12500000000E+03 0.  0.
        -11    1    3    3    0    0 -0.89465281424E-01 -0.12971049668E+02  0.31573863822E+02  0.34134513479E+02  0.51100000000E-03 0.  1.
         23    2    1    0    0    0 -0.20791443098E+02 -0.14151091872E+02 -0.22002612816E+02  0.91583649541E+02  0.85269645158E+02 0.  0.
         11    1    3    3    0    0 -0.20701977816E+02 -0.11800422040E+01 -0.53576476638E+02  0.57449136062E+02  0.51100000000E-03 0. -1.
         22    1    1    0    0    0  0.20791443098E+02  0.14151091872E+02  0.22002612816E+02  0.33416350459E+02  0.00000000000E+00 0. -1.
</event>
<event>
 5    1  0.1659417E-003  0.9118800E+02  0.7818608E-02  0.1130116E+00
         25   -1    0    0    0    0  0.00000000000E+00  0.00000000000E+00  0.99999998245E-14  0.12500000000E+03  0.12500000000E+03 0.  0.
        -11    1    3    3    0    0  0.28232605741E+02 -0.28708497136E+02 -0.15263862532E+02  0.43060925842E+02  0.51100000000E-03 0.  1.
         23    2    1    0    0    0  0.45998271631E+01  0.22408621582E+02  0.21903172512E+01  0.10201952523E+03  0.99397592057E+02 0.  0.
         11    1    3    3    0    0 -0.23632778577E+02  0.51117118718E+02  0.17454179783E+02  0.58958599385E+02  0.51100000000E-03 0. -1.
         22    1    1    0    0    0 -0.45998271631E+01 -0.22408621582E+02 -0.21903172512E+01  0.22980474773E+02  0.00000000000E+00 0. -1.
</event>
<event>
 5    1  0.1659417E-003  0.9118800E+02  0.7818608E-02  0.1130116E+00
         25   -1    0    0    0    0  0.00000000000E+00  0.00000000000E+00  0.99999998245E-14  0.12500000000E+03  0.12500000000E+03 0.  0.
        -11    1    3    3    0    0  0.91550646777E+01  0.59246134260E+02  0.92752435604E+01  0.60662589603E+02  0.51100000000E-03 0. -1.
         23    2    1    0    0    0  0.76383093073E+01  0.27352317519E+02 -0.58677367160E+01  0.96001321118E+02  0.91516830581E+02 0.  0.
         11    1    3    3    0    0 -0.15167553704E+01 -0.31893816741E+02 -0.15142980276E+02  0.35338731515E+02  0.51100000000E-03 0.  1.
         22    1    1    0    0    0 -0.76383093073E+01 -0.27352317519E+02  0.58677367160E+01  0.28998678882E+02  0.00000000000E+00 0. -1.
</event>
<event>
 5    1  0.1659417E-003  0.9118800E+02  0.7818608E-02  0.1130116E+00
         25   -1    0    0    0    0  0.00000000000E+00  0.00000000000E+00  0.99999998245E-14  0.12500000000E+03  0.12500000000E+03 0.  0.
        -11    1    3    3    0    0 -0.26345542865E+02 -0.15343784491E+02 -0.50181172708E+02  0.58716858277E+02  0.51100000000E-03 0. -1.
         23    2    1    0    0    0  0.26487528137E+01 -0.94513846325E+01 -0.26899644339E+02  0.96365485363E+02  0.92012886819E+02 0.  0.
         11    1    3    3    0    0  0.28994295678E+02  0.58923998586E+01  0.23281528369E+02  0.37648627086E+02  0.51100000000E-03 0.  1.
         22    1    1    0    0    0 -0.26487528137E+01  0.94513846325E+01  0.26899644339E+02  0.28634514637E+02  0.00000000000E+00 0. -1.
</event>
<event>
 5    1  0.1659417E-003  0.9118800E+02  0.7818608E-02  0.1130116E+00
         25   -1    0    0    0    0  0.00000000000E+00  0.00000000000E+00  0.99999998245E-14  0.12500000000E+03  0.12500000000E+03 0.  0.
        -11    1    3    3    0    0  0.20301479718E+02  0.11124264379E+02  0.50070180503E+02  0.55162689498E+02  0.51100000000E-03 0. -1.
         23    2    1    0    0    0  0.20851908438E+02 -0.10959653065E+02  0.13606363227E+02  0.97796154663E+02  0.93936354336E+02 0.  0.
         11    1    3    3    0    0  0.55042871996E+00 -0.22083917443E+02 -0.36463817276E+02  0.42633465166E+02  0.51100000000E-03 0.  1.
         22    1    1    0    0    0 -0.20851908438E+02  0.10959653065E+02 -0.13606363227E+02  0.27203845337E+02  0.00000000000E+00 0.  1.
</event>
<event>
 5    1  0.1659417E-003  0.9118800E+02  0.7818608E-02  0.1130116E+00
         25   -1    0    0    0    0  0.00000000000E+00  0.00000000000E+00  0.99999998245E-14  0.12500000000E+03  0.12500000000E+03 0.  0.
        -11    1    3    3    0    0 -0.38020667885E+02  0.22805940614E+02  0.33129662412E+02  0.55346694983E+02  0.51100000000E-03 0. -1.
         23    2    1    0    0    0 -0.11483005623E+02 -0.57284724004E+01  0.27414127659E+02  0.94731052059E+02  0.89765043389E+02 0.  0.
         11    1    3    3    0    0  0.26537662262E+02 -0.28534413015E+02 -0.57155347534E+01  0.39384357075E+02  0.51100000000E-03 0.  1.
         22    1    1    0    0    0  0.11483005623E+02  0.57284724004E+01 -0.27414127659E+02  0.30268947941E+02  0.00000000000E+00 0.  1.
</event>
<event>
 5    1  0.1659417E-003  0.9118800E+02  0.7818608E-02  0.1130116E+00
         25   -1    0    0    0    0  0.00000000000E+00  0.00000000000E+00  0.99999998245E-14  0.12500000000E+03  0.12500000000E+03 0.  0.
        -11    1    3    3    0    0 -0.23220636215E+01  0.30446339283E+02 -0.39170490838E+02  0.49665872669E+02  0.51100000000E-03 0. -1.
         23    2    1    0    0    0 -0.12727743142E+02  0.27193728998E+02  0.44670044568E+01  0.94644630276E+02  0.89644618182E+02 0.  0.
         11    1    3    3    0    0 -0.10405679520E+02 -0.32526102856E+01  0.43637495295E+02  0.44978757607E+02  0.51100000000E-03 0.  1.
         22    1    1    0    0    0  0.12727743142E+02 -0.27193728998E+02 -0.44670044568E+01  0.30355369724E+02  0.00000000000E+00 0. -1.
</event>
<event>
 5    1  0.1659417E-003  0.9118800E+02  0.7818608E-02  0.1130116E+00
         25   -1    0    0    0    0  0.00000000000E+00  0.00000000000E+00  0.99999998245E-14  0.12500000000E+03  0.12500000000E+03 0.  0.
        -11    1    3    3    0    0  0.17244085025E+02  0.11749022223E+02 -0.28195248864E+02  0.35076631114E+02  0.51100000000E-03 0.  1.
         23    2    1    0    0    0  0.61467111781E+00 -0.18170098296E+02  0.22392114047E+02  0.96156680771E+02  0.91728786064E+02 0.  0.
         11    1    3    3    0    0 -0.16629413907E+02 -0.29919120519E+02  0.50587362911E+02  0.61080049657E+02  0.51100000000E-03 0. -1.
         22    1    1    0    0    0 -0.61467111781E+00  0.18170098296E+02 -0.22392114047E+02  0.28843319229E+02  0.00000000000E+00 0. -1.
</event>
<event>
 5    1  0.1659417E-003  0.9118800E+02  0.7818608E-02  0.1130116E+00
         25   -1    0    0    0    0  0.00000000000E+00  0.00000000000E+00  0.99999998245E-14  0.12500000000E+03  0.12500000000E+03 0.  0.
        -11    1    3    3    0    0  0.12171338010E+02  0.49917378922E+02 -0.21271019274E+02  0.55608834267E+02  0.51100000000E-03 0.  1.
         23    2    1    0    0    0  0.14792260017E+02  0.11011037878E+02 -0.24040400921E+02  0.94701571196E+02  0.89723981181E+02 0.  0.
         11    1    3    3    0    0  0.26209220067E+01 -0.38906341044E+02 -0.27693816470E+01  0.39092736929E+02  0.51100000000E-03 0. -1.
         22    1    1    0    0    0 -0.14792260017E+02 -0.11011037878E+02  0.24040400921E+02  0.30298428804E+02  0.00000000000E+00 0.  1.
</event>
<event>
 5    1  0.1659417E-003  0.9118800E+02  0.7818608E-02  0.1130116E+00
         25   -1    0    0    0    0  0.00000000000E+00  0.00000000000E+00  0.99999998245E-14  0.12500000000E+03  0.12500000000E+03 0.  0.
        -11    1    3    3    0    0  0.15837369830E+02  0.17490592609E+02 -0.37894071967E+02  0.44639711059E+02  0.51100000000E-03 0. -1.
         23    2    1    0    0    0 -0.25745316375E+02  0.11383894422E+02 -0.98021152108E+01  0.95192352825E+02  0.90405133739E+02 0.  0.
         11    1    3    3    0    0 -0.41582686206E+02 -0.61066981864E+01  0.28091956756E+02  0.50552641766E+02  0.51100000000E-03 0.  1.
         22    1    1    0    0    0  0.25745316375E+02 -0.11383894422E+02  0.98021152108E+01  0.29807647175E+02  0.00000000000E+00 0. -1.
</event>
<event>
 5    1  0.1659417E-003  0.9118800E+02  0.7818608E-02  0.1130116E+00
         25   -1    0    0    0    0  0.00000000000E+00  0.00000000000E+00  0.99999998245E-14  0.12500000000E+03  0.12500000000E+03 0.  0.
        -11    1    3    3    0    0 -0.16549088542E+02  0.16289998582E+02  0.41603575424E+02  0.47645502135E+02  0.51100000000E-03 0. -1.
         23    2    1    0    0    0 -0.30750659407E+02 -0.33036997841E+01  0.20626773664E+01  0.94003675635E+02  0.88746374059E+02 0.  0.
         11    1    3    3    0    0 -0.14201570865E+02 -0.19593698366E+02 -0.39540898058E+02  0.46358173499E+02  0.51100000000E-03 0.  1.
         22    1    1    0    0    0  0.30750659407E+02  0.33036997841E+01 -0.20626773664E+01  0.30996324365E+02  0.00000000000E+00 0.  1.
</event>
<event>
 5    1  0.1659417E-003  0.9118800E+02  0.7818608E-02  0.1130116E+00
         25   -1    0    0    0    0  0.00000000000E+00  0.00000000000E+00  0.99999998245E-14  0.12500000000E+03  0.12500000000E+03 0.  0.
        -11    1    3    3    0    0 -0.32100799792E+02 -0.10540826844E+01 -0.43765587631E+02  0.54286269890E+02  0.51100000000E-03 0.  1.
         23    2    1    0    0    0 -0.28597203311E+02  0.72202477540E+00 -0.19054626121E+01  0.96330292210E+02  0.91965064305E+02 0.  0.
         11    1    3    3    0    0  0.35035964808E+01  0.17761074598E+01  0.41860125019E+02  0.42044022321E+02  0.51100000000E-03 0. -1.
         22    1    1    0    0    0  0.28597203311E+02 -0.72202477540E+00  0.19054626121E+01  0.28669707790E+02  0.00000000000E+00 0.  1.
</event>
<event>
 5    1  0.1659417E-003  0.9118800E+02  0.7818608E-02  0.1130116E+00
         25   -1    0    0    0    0  0.00000000000E+00  0.00000000000E+00  0.99999998245E-14  0.12500000000E+03  0.12500000000E+03 0.  0.
        -11    1    3    3    0    0  0.14094105100E+02  0.29799077942E+02  0.36537805392E+02  0.49210162242E+02  0.51100000000E-03 0.  1.
         23    2    1    0    0    0  0.64701665614E+01  0.26134734716E+02 -0.98259847494E+01  0.96339270939E+02  0.91977267489E+02 0.  0.
         11    1    3    3    0    0 -0.76239385383E+01 -0.36643432257E+01 -0.46363790141E+02  0.47129108698E+02  0.51100000000E-03 0. -1.
         22    1    1    0    0    0 -0.64701665614E+01 -0.26134734716E+02  0.98259847494E+01  0.28660729061E+02  0.00000000000E+00 0.  1.
</event>
<event>
 5    1  0.1659417E-003  0.9118800E+02  0.7818608E-02  0.1130116E+00
         25   -1    0    0    0    0  0.00000000000E+00  0.00000000000E+00  0.99999998245E-14  0.12500000000E+03  0.12500000000E+03 0.  0.
        -11    1    3    3    0    0 -0.39052261424E+02  0.24999116770E+02  0.40239511610E+01  0.46542745352E+02  0.51100000000E-03 0. -1.
         23    2    1    0    0    0 -0.15137076360E+02 -0.52429205071E+01  0.28567723226E+02  0.92247380158E+02  0.86237144199E+02 0.  0.
         11    1    3    3    0    0  0.23915185065E+02 -0.30242037278E+02  0.24543772065E+02  0.45704634807E+02  0.51100000000E-03 0.  1.
         22    1    1    0    0    0  0.15137076360E+02  0.52429205071E+01 -0.28567723226E+02  0.32752619842E+02  0.00000000000E+00 0.  1.
</event>
<event>
 5    1  0.1659417E-003  0.9118800E+02  0.7818608E-02  0.1130116E+00
         25   -1    0    0    0    0  0.00000000000E+00  0.00000000000E+00  0.99999998245E-14  0.12500000000E+03  0.12500000000E+03 0.  0.
        -11    1    3    3    0    0 -0.53515061855E+01 -0.59409090478E+02  0.10168466083E+01  0.59658298896E+02  0.51100000000E-03 0.  1.
         23    2    1    0    0    0  0.18310440873E+01 -0.27121349501E+02 -0.12105615555E+02  0.95243215073E+02  0.90475431849E+02 0.  0.
         11    1    3    3    0    0  0.71825502728E+01  0.32287740977E+02 -0.13122462163E+02  0.35584916177E+02  0.51100000000E-03 0. -1.
         22    1    1    0    0    0 -0.18310440873E+01  0.27121349501E+02  0.12105615555E+02  0.29756784927E+02  0.00000000000E+00 0.  1.
</event>
<event>
 5    1  0.1659417E-003  0.9118800E+02  0.7818608E-02  0.1130116E+00
         25   -1    0    0    0    0  0.00000000000E+00  0.00000000000E+00  0.99999998245E-14  0.12500000000E+03  0.12500000000E+03 0.  0.
        -11    1    3    3    0    0 -0.34496747062E+02 -0.18554571067E+02  0.42126147106E+01  0.39395986957E+02  0.51100000000E-03 0.  1.
         23    2    1    0    0    0  0.21213146858E+02 -0.19350556138E+02 -0.49602340230E+01  0.95861613908E+02  0.91325809479E+02 0.  0.
         11    1    3    3    0    0  0.55709893920E+02 -0.79598507093E+00 -0.91728487335E+01  0.56465626951E+02  0.51100000000E-03 0. -1.
         22    1    1    0    0    0 -0.21213146858E+02  0.19350556138E+02  0.49602340230E+01  0.29138386092E+02  0.00000000000E+00 0. -1.
</event>
<event>
 5    1  0.1659417E-003  0.9118800E+02  0.7818608E-02  0.1130116E+00
         25   -1    0    0    0    0  0.00000000000E+00  0.00000000000E+00  0.99999998245E-14  0.12500000000E+03  0.12500000000E+03 0.  0.
        -11    1    3    3    0    0 -0.35867540141E+01  0.27932204513E+00  0.34974470900E+02  0.35159016485E+02  0.51100000000E-03 0. -1.
         23    2    1    0    0    0 -0.21302135554E+02  0.64036092487E+01 -0.21134983899E+02  0.94316539717E+02  0.89185957018E+02 0.  0.
         11    1    3    3    0    0 -0.17715381540E+02  0.61242872036E+01 -0.56109454799E+02  0.59157523232E+02  0.51100000000E-03 0.  1.
         22    1    1    0    0    0  0.21302135554E+02 -0.64036092487E+01  0.21134983899E+02  0.30683460283E+02  0.00000000000E+00 0.  1.
</event>
<event>
 5    1  0.1659417E-003  0.9118800E+02  0.7818608E-02  0.1130116E+00
         25   -1    0    0    0    0  0.00000000000E+00  0.00000000000E+00  0.99999998245E-14  0.12500000000E+03  0.12500000000E+03 0.  0.
        -11    1    3    3    0    0 -0.17110242916E+02  0.20025612992E+02 -0.41826097046E+02  0.49428817331E+02  0.51100000000E-03 0. -1.
         23    2    1    0    0    0  0.19097038997E+02  0.18185341913E+02 -0.13907622437E+02  0.95186823034E+02  0.90397487568E+02 0.  0.
         11    1    3    3    0    0  0.36207281914E+02 -0.18402710796E+01  0.27918474609E+02  0.45758005704E+02  0.51100000000E-03 0.  1.
         22    1    1    0    0    0 -0.19097038997E+02 -0.18185341913E+02  0.13907622437E+02  0.29813176966E+02  0.00000000000E+00 0. -1.
</event>
<event>
 5    1  0.1659417E-003  0.9118800E+02  0.7818608E-02  0.1130116E+00
         25   -1    0    0    0    0  0.00000000000E+00  0.00000000000E+00  0.99999998245E-14  0.12500000000E+03  0.12500000000E+03 0.  0.
        -11    1    3    3    0    0  0.76946199928E+01 -0.30410999513E+02 -0.17774510932E+02  0.36055087122E+02  0.51100000000E-03 0.  1.
         23    2    1    0    0    0 -0.43397221653E+01  0.11447639345E+02  0.25038827488E+02  0.97128428157E+02  0.93043576023E+02 0.  0.
         11    1    3    3    0    0 -0.12034342158E+02  0.41858638859E+02  0.42813338420E+02  0.61073341035E+02  0.51100000000E-03 0. -1.
         22    1    1    0    0    0  0.43397221653E+01 -0.11447639345E+02 -0.25038827488E+02  0.27871571843E+02  0.00000000000E+00 0. -1.
</event>
<event>
 5    1  0.1659417E-003  0.9118800E+02  0.7818608E-02  0.1130116E+00
         25   -1    0    0    0    0  0.00000000000E+00  0.00000000000E+00  0.99999998245E-14  0.12500000000E+03  0.12500000000E+03 0.  0.
        -11    1    3    3    0    0 -0.18440853206E+02 -0.49193834592E+02  0.38893881065E+01  0.52680411624E+02  0.51100000000E-03 0. -1.
         23    2    1    0    0    0 -0.73647879711E+01 -0.17602778160E+02 -0.22637875119E+02  0.95393053337E+02  0.90682210682E+02 0.  0.
         11    1    3    3    0    0  0.11076065234E+02  0.31591056432E+02 -0.26527263226E+02  0.42712641713E+02  0.51100000000E-03 0.  1.
         22    1    1    0    0    0  0.73647879711E+01  0.17602778160E+02  0.22637875119E+02  0.29606946663E+02  0.00000000000E+00 0.  1.
</event>
<event>
 5    1  0.1659417E-003  0.9118800E+02  0.7818608E-02  0.1130116E+00
         25   -1    0    0    0    0  0.00000000000E+00  0.00000000000E+00  0.99999998245E-14  0.12500000000E+03  0.12500000000E+03 0.  0.
        -11    1    3    3    0    0 -0.12247326979E+02 -0.33757058928E+02 -0.25020830570E+02  0.43767316667E+02  0.51100000000E-03 0. -1.
         23    2    1    0    0    0  0.25263372753E+02 -0.12821461907E+02  0.50749976346E+01  0.96218348045E+02  0.91812782395E+02 0.  0.
         11    1    3    3    0    0  0.37510699732E+02  0.20935597021E+02  0.30095828205E+02  0.52451031378E+02  0.51100000000E-03 0.  1.
         22    1    1    0    0    0 -0.25263372753E+02  0.12821461907E+02 -0.50749976346E+01  0.28781651955E+02  0.00000000000E+00 0.  1.
</event>
<event>
 5    1  0.1659417E-003  0.9118800E+02  0.7818608E-02  0.1130116E+00
         25   -1    0    0    0    0  0.00000000000E+00  0.00000000000E+00  0.99999998245E-14  0.12500000000E+03  0.12500000000E+03 0.  0.
        -11    1    3    3    0    0  0.22592171181E+02  0.45016090739E+02 -0.23485446855E+02  0.55573562405E+02  0.51100000000E-03 0.  1.
         23    2    1    0    0    0 -0.88612545568E+01  0.25302183533E+02 -0.28619195824E+01  0.98038677563E+02  0.94258524234E+02 0.  0.
         11    1    3    3    0    0 -0.31453425738E+02 -0.19713907206E+02  0.20623527272E+02  0.42465115159E+02  0.51100000000E-03 0. -1.
         22    1    1    0    0    0  0.88612545568E+01 -0.25302183533E+02  0.28619195824E+01  0.26961322437E+02  0.00000000000E+00 0.  1.
</event>
<event>
 5    1  0.1659417E-003  0.9118800E+02  0.7818608E-02  0.1130116E+00
         25   -1    0    0    0    0  0.00000000000E+00  0.00000000000E+00  0.99999998245E-14  0.12500000000E+03  0.12500000000E+03 0.  0.
        -11    1    3    3    0    0 -0.16072697903E+02 -0.38708203948E+02 -0.25994612763E+02  0.49319129794E+02  0.51100000000E-03 0.  1.
         23    2    1    0    0    0 -0.26766075120E+01 -0.27146863790E+02  0.14928240706E+02  0.93903877863E+02  0.88605696576E+02 0.  0.
         11    1    3    3    0    0  0.13396090391E+02  0.11561340158E+02  0.40922853469E+02  0.44584748068E+02  0.51100000000E-03 0. -1.
         22    1    1    0    0    0  0.26766075120E+01  0.27146863790E+02 -0.14928240706E+02  0.31096122137E+02  0.00000000000E+00 0.  1.
</event>
<event>
 5    1  0.1659417E-003  0.9118800E+02  0.7818608E-02  0.1130116E+00
         25   -1    0    0    0    0  0.00000000000E+00  0.00000000000E+00  0.99999998245E-14  0.12500000000E+03  0.12500000000E+03 0.  0.
        -11    1    3    3    0    0 -0.49680610833E+02 -0.29281414088E+02  0.18560446870E+02  0.60580974670E+02  0.51100000000E-03 0.  1.
         23    2    1    0    0    0 -0.16996844775E+02 -0.14111206513E+02  0.17813437481E+02  0.96621532169E+02  0.92360072771E+02 0.  0.
         11    1    3    3    0    0  0.32683766057E+02  0.15170207575E+02 -0.74700938852E+00  0.36040557499E+02  0.51100000000E-03 0. -1.
         22    1    1    0    0    0  0.16996844775E+02  0.14111206513E+02 -0.17813437481E+02  0.28378467831E+02  0.00000000000E+00 0.  1.
</event>
<event>
 5    1  0.1659417E-003  0.9118800E+02  0.7818608E-02  0.1130116E+00
         25   -1    0    0    0    0  0.00000000000E+00  0.00000000000E+00  0.99999998245E-14  0.12500000000E+03  0.12500000000E+03 0.  0.
        -11    1    3    3    0    0  0.20027275800E+02  0.20502745857E+01  0.33172643499E+02  0.38803603941E+02  0.51100000000E-03 0.  1.
         23    2    1    0    0    0 -0.30001554936E+01 -0.26538104786E+02 -0.10893393465E+02  0.96156665245E+02  0.91728764907E+02 0.  0.
         11    1    3    3    0    0 -0.23027431294E+02 -0.28588379371E+02 -0.44066036963E+02  0.57353061304E+02  0.51100000000E-03 0. -1.
         22    1    1    0    0    0  0.30001554936E+01  0.26538104786E+02  0.10893393465E+02  0.28843334755E+02  0.00000000000E+00 0. -1.
</event>
<event>
 5    1  0.1659417E-003  0.9118800E+02  0.7818608E-02  0.1130116E+00
         25   -1    0    0    0    0  0.00000000000E+00  0.00000000000E+00  0.99999998245E-14  0.12500000000E+03  0.12500000000E+03 0.  0.
        -11    1    3    3    0    0 -0.23684689105E+02 -0.19123074791E+02  0.49608829560E+02  0.58203886966E+02  0.51100000000E-03 0. -1.
         23    2    1    0    0    0 -0.46164248952E+00 -0.21386665574E+02  0.23267210503E+02  0.93393581937E+02  0.87882850911E+02 0.  0.
         11    1    3    3    0    0  0.23223046615E+02 -0.22635907835E+01 -0.26341619056E+02  0.35189694970E+02  0.51100000000E-03 0.  1.
         22    1    1    0    0    0  0.46164248952E+00  0.21386665574E+02 -0.23267210503E+02  0.31606418063E+02  0.00000000000E+00 0. -1.
</event>
<event>
 5    1  0.1659417E-003  0.9118800E+02  0.7818608E-02  0.1130116E+00
         25   -1    0    0    0    0  0.00000000000E+00  0.00000000000E+00  0.99999998245E-14  0.12500000000E+03  0.12500000000E+03 0.  0.
        -11    1    3    3    0    0  0.59563365599E+01  0.54255987822E+02  0.10945935267E+02  0.55668695502E+02  0.51100000000E-03 0.  1.
         23    2    1    0    0    0  0.12927434667E+02  0.20910468753E+02 -0.12885946686E+02  0.97243669325E+02  0.93198268928E+02 0.  0.
         11    1    3    3    0    0  0.69710981074E+01 -0.33345519068E+02 -0.23831881952E+02  0.41574973823E+02  0.51100000000E-03 0. -1.
         22    1    1    0    0    0 -0.12927434667E+02 -0.20910468753E+02  0.12885946686E+02  0.27756330675E+02  0.00000000000E+00 0.  1.
</event>
<event>
 5    1  0.1659417E-003  0.9118800E+02  0.7818608E-02  0.1130116E+00
         25   -1    0    0    0    0  0.00000000000E+00  0.00000000000E+00  0.99999998245E-14  0.12500000000E+03  0.12500000000E+03 0.  0.
        -11    1    3    3    0    0  0.10867688783E+02  0.11662967300E+02 -0.30669275966E+02  0.34564952687E+02  0.51100000000E-03 0.  1.
         23    2    1    0    0    0 -0.13724860077E+02 -0.31529626625E+02 -0.58558625572E+01  0.90117622422E+02  0.83092753026E+02 0.  0.
         11    1    3    3    0    0 -0.24592548860E+02 -0.43192593925E+02  0.24813413408E+02  0.55552669735E+02  0.51100000000E-03 0. -1.
         22    1    1    0    0    0  0.13724860077E+02  0.31529626625E+02  0.58558625572E+01  0.34882377578E+02  0.00000000000E+00 0. -1.
</event>
<event>
 5    1  0.1659417E-003  0.9118800E+02  0.7818608E-02  0.1130116E+00
         25   -1    0    0    0    0  0.00000000000E+00  0.00000000000E+00  0.99999998245E-14  0.12500000000E+03  0.12500000000E+03 0.  0.
        -11    1    3    3    0    0  0.13666363245E+02 -0.25180947361E+02  0.21938746550E+02  0.36085429120E+02  0.51100000000E-03 0. -1.
         23    2    1    0    0    0 -0.27705209214E+02  0.98812893106E+01  0.18123880773E+02  0.90450129518E+02  0.83591461164E+02 0.  0.
         11    1    3    3    0    0 -0.41371572459E+02  0.35062236672E+02 -0.38148657772E+01  0.54364700398E+02  0.51100000000E-03 0.  1.
         22    1    1    0    0    0  0.27705209214E+02 -0.98812893106E+01 -0.18123880773E+02  0.34549870482E+02  0.00000000000E+00 0. -1.
</event>
<event>
 5    1  0.1659417E-003  0.9118800E+02  0.7818608E-02  0.1130116E+00
         25   -1    0    0    0    0  0.00000000000E+00  0.00000000000E+00  0.99999998245E-14  0.12500000000E+03  0.12500000000E+03 0.  0.
        -11    1    3    3    0    0 -0.19019904470E+02 -0.16366041651E+02  0.34555335278E+02  0.42704511258E+02  0.51100000000E-03 0.  1.
         23    2    1    0    0    0 -0.10517887891E+02  0.26537090418E+02  0.37326403184E+01  0.96211534649E+02  0.91803505718E+02 0.  0.
         11    1    3    3    0    0  0.85020165792E+01  0.42903132069E+02 -0.30822694960E+02  0.53507023390E+02  0.51100000000E-03 0. -1.
         22    1    1    0    0    0  0.10517887891E+02 -0.26537090418E+02 -0.37326403184E+01  0.28788465351E+02  0.00000000000E+00 0. -1.
</event>
<event>
 5    1  0.1659417E-003  0.9118800E+02  0.7818608E-02  0.1130116E+00
         25   -1    0    0    0    0  0.00000000000E+00  0.00000000000E+00  0.99999998245E-14  0.12500000000E+03  0.12500000000E+03 0.  0.
        -11    1    3    3    0    0  0.27307262842E+02  0.21769808420E+02  0.34631620109E+02  0.49182926653E+02  0.51100000000E-03 0.  1.
         23    2    1    0    0    0  0.27350685643E+02 -0.44752576900E+01 -0.51197213691E+01  0.96816680759E+02  0.92623810059E+02 0.  0.
         11    1    3    3    0    0  0.43422801131E-01 -0.26245066109E+02 -0.39751341478E+02  0.47633754106E+02  0.51100000000E-03 0. -1.
         22    1    1    0    0    0 -0.27350685643E+02  0.44752576900E+01  0.51197213691E+01  0.28183319241E+02  0.00000000000E+00 0. -1.
</event>
<event>
 5    1  0.1659417E-003  0.9118800E+02  0.7818608E-02  0.1130116E+00
         25   -1    0    0    0    0  0.00000000000E+00  0.00000000000E+00  0.99999998245E-14  0.12500000000E+03  0.12500000000E+03 0.  0.
        -11    1    3    3    0    0  0.24370643466E+02 -0.43390634753E+02  0.56709380004E+01  0.50088271934E+02  0.51100000000E-03 0. -1.
         23    2    1    0    0    0  0.12779432752E+01 -0.30549830322E+02  0.27126421888E+02  0.84124970506E+02  0.73527155707E+02 0.  0.
         11    1    3    3    0    0 -0.23092700191E+02  0.12840804431E+02  0.21455483887E+02  0.34036698572E+02  0.51100000000E-03 0.  1.
         22    1    1    0    0    0 -0.12779432752E+01  0.30549830322E+02 -0.27126421888E+02  0.40875029494E+02  0.00000000000E+00 0. -1.
</event>
<event>
 4    1  0.1659417E-003  0.9118800E+02  0.7818608E-02  0.1130116E+00
         25   -1    0    0    0    0  0.00000000000E+00  0.00000000000E+00  0.99999998245E-14  0.12500000000E+03  0.12500000000E+03 0.  0.
        -11    1    1    0    0    0 -0.27605688448E+02  0.31165674265E+02 -0.40488471321E+02  0.58074862009E+02  0.51100000000E-03 0.  1.
         11    1    1    0    0    0  0.19044388715E+00  0.60222677168E+01  0.96528491985E+01  0.11378992716E+02  0.51100000000E-03 0. -1.
         22    1    1    0    0    0  0.27415244561E+02 -0.37187941982E+02  0.30835622123E+02  0.55546145275E+02  0.00000000000E+00 0.  1.
</event>
<event>
 5    1  0.1659417E-003  0.9118800E+02  0.7818608E-02  0.1130116E+00
         25   -1    0    0    0    0  0.00000000000E+00  0.00000000000E+00  0.99999998245E-14  0.12500000000E+03  0.12500000000E+03 0.  0.
        -11    1    3    3    0    0  0.41264515615E+02 -0.23284417334E+02  0.11614764799E+02  0.48783471598E+02  0.51100000000E-03 0.  1.
         23    2    1    0    0    0 -0.20423533196E+01 -0.31041825825E+02  0.19412422586E+01  0.93830550548E+02  0.88502190013E+02 0.  0.
         11    1    3    3    0    0 -0.43306868934E+02 -0.77574084909E+01 -0.96735225408E+01  0.45047078951E+02  0.51100000000E-03 0. -1.
         22    1    1    0    0    0  0.20423533196E+01  0.31041825825E+02 -0.19412422586E+01  0.31169449452E+02  0.00000000000E+00 0. -1.
</event>
<event>
 5    1  0.1659417E-003  0.9118800E+02  0.7818608E-02  0.1130116E+00
         25   -1    0    0    0    0  0.00000000000E+00  0.00000000000E+00  0.99999998245E-14  0.12500000000E+03  0.12500000000E+03 0.  0.
        -11    1    3    3    0    0  0.29624669419E+02  0.26974308456E+02  0.97676107852E+01  0.41238823645E+02  0.51100000000E-03 0. -1.
         23    2    1    0    0    0  0.69034841462E+01 -0.80067384774E+01 -0.26472080881E+02  0.96494964996E+02  0.92188617785E+02 0.  0.
         11    1    3    3    0    0 -0.22721185273E+02 -0.34981046934E+02 -0.36239691666E+02  0.55256141352E+02  0.51100000000E-03 0.  1.
         22    1    1    0    0    0 -0.69034841462E+01  0.80067384774E+01  0.26472080881E+02  0.28505035004E+02  0.00000000000E+00 0.  1.
</event>
<event>
 5    1  0.1659417E-003  0.9118800E+02  0.7818608E-02  0.1130116E+00
         25   -1    0    0    0    0  0.00000000000E+00  0.00000000000E+00  0.99999998245E-14  0.12500000000E+03  0.12500000000E+03 0.  0.
        -11    1    3    3    0    0 -0.34779096195E+02 -0.32778941856E+02  0.23858622731E+02  0.53416087841E+02  0.51100000000E-03 0. -1.
         23    2    1    0    0    0  0.43013838978E+01 -0.17115434581E+02  0.23614950044E+02  0.95519398413E+02  0.90856202889E+02 0.  0.
         11    1    3    3    0    0  0.39080480093E+02  0.15663507276E+02 -0.24367268692E+00  0.42103310572E+02  0.51100000000E-03 0.  1.
         22    1    1    0    0    0 -0.43013838978E+01  0.17115434581E+02 -0.23614950044E+02  0.29480601587E+02  0.00000000000E+00 0.  1.
</event>
<event>
 5    1  0.1659417E-003  0.9118800E+02  0.7818608E-02  0.1130116E+00
         25   -1    0    0    0    0  0.00000000000E+00  0.00000000000E+00  0.99999998245E-14  0.12500000000E+03  0.12500000000E+03 0.  0.
        -11    1    3    3    0    0 -0.39050009647E+02 -0.10324558419E+02  0.49679944594E+01  0.40696200427E+02  0.51100000000E-03 0. -1.
         23    2    1    0    0    0  0.12230972065E+02 -0.74436835187E+01  0.25294782541E+02  0.95934021162E+02  0.91424861447E+02 0.  0.
         11    1    3    3    0    0  0.51280981713E+02  0.28808748998E+01  0.20326788081E+02  0.55237820735E+02  0.51100000000E-03 0.  1.
         22    1    1    0    0    0 -0.12230972065E+02  0.74436835187E+01 -0.25294782541E+02  0.29065978838E+02  0.00000000000E+00 0. -1.
</event>
<event>
 5    1  0.1659417E-003  0.9118800E+02  0.7818608E-02  0.1130116E+00
         25   -1    0    0    0    0  0.00000000000E+00  0.00000000000E+00  0.99999998245E-14  0.12500000000E+03  0.12500000000E+03 0.  0.
        -11    1    3    3    0    0  0.16239860296E+02 -0.13284489798E+01  0.35584607176E+02  0.39137732526E+02  0.51100000000E-03 0. -1.
         23    2    1    0    0    0  0.63599986910E+01  0.20640357622E+02 -0.17350577204E+02  0.97295912298E+02  0.93268312274E+02 0.  0.
         11    1    3    3    0    0 -0.98798616051E+01  0.21968806602E+02 -0.52935184380E+02  0.58158179772E+02  0.51100000000E-03 0.  1.
         22    1    1    0    0    0 -0.63599986910E+01 -0.20640357622E+02  0.17350577204E+02  0.27704087702E+02  0.00000000000E+00 0.  1.
</event>
<event>
 5    1  0.1659417E-003  0.9118800E+02  0.7818608E-02  0.1130116E+00
         25   -1    0    0    0    0  0.00000000000E+00  0.00000000000E+00  0.99999998245E-14  0.12500000000E+03  0.12500000000E+03 0.  0.
        -11    1    3    3    0    0  0.18183122118E+02  0.47662046605E+02  0.25264110350E+02  0.56926021190E+02  0.51100000000E-03 0.  1.
         23    2    1    0    0    0 -0.97629344875E+01  0.25806948752E+02  0.87878140319E+01  0.96042459200E+02  0.91573002572E+02 0.  0.
         11    1    3    3    0    0 -0.27946056606E+02 -0.21855097853E+02 -0.16476296318E+02  0.39116438010E+02  0.51100000000E-03 0. -1.
         22    1    1    0    0    0  0.97629344875E+01 -0.25806948752E+02 -0.87878140319E+01  0.28957540800E+02  0.00000000000E+00 0.  1.
</event>
<event>
 5    1  0.1659417E-003  0.9118800E+02  0.7818608E-02  0.1130116E+00
         25   -1    0    0    0    0  0.00000000000E+00  0.00000000000E+00  0.99999998245E-14  0.12500000000E+03  0.12500000000E+03 0.  0.
        -11    1    3    3    0    0 -0.37122928899E+02  0.50931274025E+01  0.41110123607E+02  0.55624581436E+02  0.51100000000E-03 0. -1.
         23    2    1    0    0    0 -0.19612333150E+01  0.15554048735E+02  0.24543956608E+02  0.95876458420E+02  0.91346125288E+02 0.  0.
         11    1    3    3    0    0  0.35161695584E+02  0.10460921333E+02 -0.16566166999E+02  0.40251876984E+02  0.51100000000E-03 0.  1.
         22    1    1    0    0    0  0.19612333150E+01 -0.15554048735E+02 -0.24543956608E+02  0.29123541580E+02  0.00000000000E+00 0. -1.
</event>
<event>
 5    1  0.1659417E-003  0.9118800E+02  0.7818608E-02  0.1130116E+00
         25   -1    0    0    0    0  0.00000000000E+00  0.00000000000E+00  0.99999998245E-14  0.12500000000E+03  0.12500000000E+03 0.  0.
        -11    1    3    3    0    0 -0.47248306486E+02 -0.20670785981E+02 -0.32668298419E+01  0.51675487770E+02  0.51100000000E-03 0.  1.
         23    2    1    0    0    0 -0.22453549701E+02  0.16992823614E+02 -0.11278554045E+01  0.96818623058E+02  0.92626431241E+02 0.  0.
         11    1    3    3    0    0  0.24794756785E+02  0.37663609595E+02  0.21389744375E+01  0.45143135288E+02  0.51100000000E-03 0. -1.
         22    1    1    0    0    0  0.22453549701E+02 -0.16992823614E+02  0.11278554045E+01  0.28181376942E+02  0.00000000000E+00 0. -1.
</event>
<event>
 5    1  0.1659417E-003  0.9118800E+02  0.7818608E-02  0.1130116E+00
         25   -1    0    0    0    0  0.00000000000E+00  0.00000000000E+00  0.99999998245E-14  0.12500000000E+03  0.12500000000E+03 0.  0.
        -11    1    3    3    0    0 -0.11986275483E+02  0.35127184430E+02  0.84439349027E+01  0.38064286712E+02  0.51100000000E-03 0. -1.
         23    2    1    0    0    0 -0.30604743027E+02 -0.10656513716E+02 -0.10408741342E+02  0.90962469587E+02  0.84354119026E+02 0.  0.
         11    1    3    3    0    0 -0.18618467543E+02 -0.45783698146E+02 -0.18852676245E+02  0.52898182875E+02  0.51100000000E-03 0.  1.
         22    1    1    0    0    0  0.30604743027E+02  0.10656513716E+02  0.10408741342E+02  0.34037530413E+02  0.00000000000E+00 0.  1.
</event>
<event>
 5    1  0.1659417E-003  0.9118800E+02  0.7818608E-02  0.1130116E+00
         25   -1    0    0    0    0  0.00000000000E+00  0.00000000000E+00  0.99999998245E-14  0.12500000000E+03  0.12500000000E+03 0.  0.
        -11    1    3    3    0    0  0.28835576950E+02  0.26268213362E+02 -0.27655885965E+01  0.39104450026E+02  0.51100000000E-03 0.  1.
         23    2    1    0    0    0 -0.22349391876E+02  0.66367796548E+01 -0.17474625770E+02  0.95864030697E+02  0.91329117341E+02 0.  0.
         11    1    3    3    0    0 -0.51184968826E+02 -0.19631433707E+02 -0.14709037174E+02  0.56759580671E+02  0.51100000000E-03 0. -1.
         22    1    1    0    0    0  0.22349391876E+02 -0.66367796548E+01  0.17474625770E+02  0.29135969303E+02  0.00000000000E+00 0. -1.
</event>
<event>
 5    1  0.1659417E-003  0.9118800E+02  0.7818608E-02  0.1130116E+00
         25   -1    0    0    0    0  0.00000000000E+00  0.00000000000E+00  0.99999998245E-14  0.12500000000E+03  0.12500000000E+03 0.  0.
        -11    1    3    3    0    0  0.26069539326E+02  0.10399293632E+02  0.31950584878E+02  0.42527709355E+02  0.51100000000E-03 0.  1.
         23    2    1    0    0    0  0.20250964577E+02 -0.13974633768E+02 -0.15310097642E+02  0.96020851547E+02  0.91543502700E+02 0.  0.
         11    1    3    3    0    0 -0.58185747488E+01 -0.24373927400E+02 -0.47260682520E+02  0.53493142191E+02  0.51100000000E-03 0. -1.
         22    1    1    0    0    0 -0.20250964577E+02  0.13974633768E+02  0.15310097642E+02  0.28979148453E+02  0.00000000000E+00 0. -1.
</event>
<event>
 5    1  0.1659417E-003  0.9118800E+02  0.7818608E-02  0.1130116E+00
         25   -1    0    0    0    0  0.00000000000E+00  0.00000000000E+00  0.99999998245E-14  0.12500000000E+03  0.12500000000E+03 0.  0.
        -11    1    3    3    0    0  0.42655716822E+02 -0.15656692226E+02 -0.40763849755E+02  0.61043702675E+02  0.51100000000E-03 0.  1.
         23    2    1    0    0    0  0.20293756942E+02 -0.16347779819E+02 -0.15983001910E+02  0.94429706807E+02  0.89344427369E+02 0.  0.
         11    1    3    3    0    0 -0.22361959881E+02 -0.69108759310E+00  0.24780847845E+02  0.33386004133E+02  0.51100000000E-03 0. -1.
         22    1    1    0    0    0 -0.20293756942E+02  0.16347779819E+02  0.15983001910E+02  0.30570293193E+02  0.00000000000E+00 0.  1.
</event>
<event>
 5    1  0.1659417E-003  0.9118800E+02  0.7818608E-02  0.1130116E+00
         25   -1    0    0    0    0  0.00000000000E+00  0.00000000000E+00  0.99999998245E-14  0.12500000000E+03  0.12500000000E+03 0.  0.
        -11    1    3    3    0    0 -0.31756835871E+02 -0.45093305589E+00 -0.39791684830E+02  0.50912455716E+02  0.51100000000E-03 0.  1.
         23    2    1    0    0    0  0.66640728351E+01  0.14348830649E+02 -0.26425612445E+02  0.94200457782E+02  0.89023111861E+02 0.  0.
         11    1    3    3    0    0  0.38420908706E+02  0.14799763705E+02  0.13366072385E+02  0.43288002066E+02  0.51100000000E-03 0. -1.
         22    1    1    0    0    0 -0.66640728351E+01 -0.14348830649E+02  0.26425612445E+02  0.30799542218E+02  0.00000000000E+00 0.  1.
</event>
<event>
 5    1  0.1659417E-003  0.9118800E+02  0.7818608E-02  0.1130116E+00
         25   -1    0    0    0    0  0.00000000000E+00  0.00000000000E+00  0.99999998245E-14  0.12500000000E+03  0.12500000000E+03 0.  0.
        -11    1    3    3    0    0  0.22899289782E+02  0.35245609289E+01  0.30301059616E+02  0.38143862106E+02  0.51100000000E-03 0. -1.
         23    2    1    0    0    0 -0.28680864869E+02 -0.60614797885E+00  0.17309466595E+02  0.91495118880E+02  0.85139765798E+02 0.  0.
         11    1    3    3    0    0 -0.51580154651E+02 -0.41307089077E+01 -0.12991593020E+02  0.53351256774E+02  0.51100000000E-03 0.  1.
         22    1    1    0    0    0  0.28680864869E+02  0.60614797885E+00 -0.17309466595E+02  0.33504881120E+02  0.00000000000E+00 0.  1.
</event>
<event>
 5    1  0.1659417E-003  0.9118800E+02  0.7818608E-02  0.1130116E+00
         25   -1    0    0    0    0  0.00000000000E+00  0.00000000000E+00  0.99999998245E-14  0.12500000000E+03  0.12500000000E+03 0.  0.
        -11    1    3    3    0    0  0.10925486931E+02  0.30156117957E+02 -0.11979621750E+02  0.34238414865E+02  0.51100000000E-03 0. -1.
         23    2    1    0    0    0 -0.35861888863E+01 -0.28709710435E+02  0.14379373889E+00  0.96066820074E+02  0.91606249888E+02 0.  0.
         11    1    3    3    0    0 -0.14511675817E+02 -0.58865828392E+02  0.12123415488E+02  0.61828405209E+02  0.51100000000E-03 0.  1.
         22    1    1    0    0    0  0.35861888863E+01  0.28709710435E+02 -0.14379373889E+00  0.28933179926E+02  0.00000000000E+00 0.  1.
</event>
<event>
 5    1  0.1659417E-003  0.9118800E+02  0.7818608E-02  0.1130116E+00
         25   -1    0    0    0    0  0.00000000000E+00  0.00000000000E+00  0.99999998245E-14  0.12500000000E+03  0.12500000000E+03 0.  0.
        -11    1    3    3    0    0  0.62427647265E+01 -0.35743293986E+02  0.20190747901E+02  0.41523745947E+02  0.51100000000E-03 0.  1.
         23    2    1    0    0    0 -0.11846100816E+02  0.14869951131E+02  0.22772973370E+02  0.95334298132E+02  0.90601183950E+02 0.  0.
         11    1    3    3    0    0 -0.18088865543E+02  0.50613245117E+02  0.25822254692E+01  0.53810552185E+02  0.51100000000E-03 0. -1.
         22    1    1    0    0    0  0.11846100816E+02 -0.14869951131E+02 -0.22772973370E+02  0.29665701868E+02  0.00000000000E+00 0. -1.
</event>
<event>
 5    1  0.1659417E-003  0.9118800E+02  0.7818608E-02  0.1130116E+00
         25   -1    0    0    0    0  0.00000000000E+00  0.00000000000E+00  0.99999998245E-14  0.12500000000E+03  0.12500000000E+03 0.  0.
        -11    1    3    3    0    0 -0.46266292104E+02 -0.22668526131E+02  0.25888991204E+02  0.57659966422E+02  0.51100000000E-03 0.  1.
         23    2    1    0    0    0 -0.10453365463E+02 -0.11793869868E+02  0.25420686646E+02  0.95090477678E+02  0.90264164648E+02 0.  0.
         11    1    3    3    0    0  0.35812926642E+02  0.10874656263E+02 -0.46830455813E+00  0.37430511256E+02  0.51100000000E-03 0. -1.
         22    1    1    0    0    0  0.10453365463E+02  0.11793869868E+02 -0.25420686646E+02  0.29909522322E+02  0.00000000000E+00 0.  1.
</event>
<event>
 5    1  0.1659417E-003  0.9118800E+02  0.7818608E-02  0.1130116E+00
         25   -1    0    0    0    0  0.00000000000E+00  0.00000000000E+00  0.99999998245E-14  0.12500000000E+03  0.12500000000E+03 0.  0.
        -11    1    3    3    0    0 -0.76234729567E+01 -0.42578159352E+01 -0.42325998030E+02  0.43217316506E+02  0.51100000000E-03 0.  1.
         23    2    1    0    0    0 -0.26906444506E+02  0.63411784016E+01  0.63506725989E+01  0.96636320021E+02  0.92380084463E+02 0.  0.
         11    1    3    3    0    0 -0.19282971549E+02  0.10598994337E+02  0.48676670629E+02  0.53419003515E+02  0.51100000000E-03 0. -1.
         22    1    1    0    0    0  0.26906444506E+02 -0.63411784016E+01 -0.63506725989E+01  0.28363679979E+02  0.00000000000E+00 0. -1.
</event>
<event>
 5    1  0.1659417E-003  0.9118800E+02  0.7818608E-02  0.1130116E+00
         25   -1    0    0    0    0  0.00000000000E+00  0.00000000000E+00  0.99999998245E-14  0.12500000000E+03  0.12500000000E+03 0.  0.
        -11    1    3    3    0    0  0.37898132295E+02 -0.12060578177E+02  0.14520132364E+02  0.42338637455E+02  0.51100000000E-03 0.  1.
         23    2    1    0    0    0 -0.90355911065E+01  0.13443867537E+02  0.23453726890E+02  0.96496372405E+02  0.92190526093E+02 0.  0.
         11    1    3    3    0    0 -0.46933723402E+02  0.25504445714E+02  0.89335945269E+01  0.54157734950E+02  0.51100000000E-03 0. -1.
         22    1    1    0    0    0  0.90355911065E+01 -0.13443867537E+02 -0.23453726890E+02  0.28503627595E+02  0.00000000000E+00 0.  1.
</event>
<event>
 5    1  0.1659417E-003  0.9118800E+02  0.7818608E-02  0.1130116E+00
         25   -1    0    0    0    0  0.00000000000E+00  0.00000000000E+00  0.99999998245E-14  0.12500000000E+03  0.12500000000E+03 0.  0.
        -11    1    3    3    0    0  0.20213275720E+02 -0.44005737041E+02 -0.26846780269E+02  0.55369946893E+02  0.51100000000E-03 0. -1.
         23    2    1    0    0    0  0.19197779566E+02 -0.38625057819E+01 -0.21562856298E+02  0.95872170302E+02  0.91340257146E+02 0.  0.
         11    1    3    3    0    0 -0.10154961540E+01  0.40143231259E+02  0.52839239707E+01  0.40502223410E+02  0.51100000000E-03 0.  1.
         22    1    1    0    0    0 -0.19197779566E+02  0.38625057819E+01  0.21562856298E+02  0.29127829698E+02  0.00000000000E+00 0. -1.
</event>
<event>
 5    1  0.1659417E-003  0.9118800E+02  0.7818608E-02  0.1130116E+00
         25   -1    0    0    0    0  0.00000000000E+00  0.00000000000E+00  0.99999998245E-14  0.12500000000E+03  0.12500000000E+03 0.  0.
        -11    1    3    3    0    0 -0.25617893047E+02  0.49413971775E+02 -0.23530854243E+01  0.55709550905E+02  0.51100000000E-03 0.  1.
         23    2    1    0    0    0 -0.25036223866E+02  0.11990846611E+02  0.10556391488E+02  0.95301004913E+02  0.90555238547E+02 0.  0.
         11    1    3    3    0    0  0.58166918094E+00 -0.37423125164E+02  0.12909476913E+02  0.39591454008E+02  0.51100000000E-03 0. -1.
         22    1    1    0    0    0  0.25036223866E+02 -0.11990846611E+02 -0.10556391488E+02  0.29698995087E+02  0.00000000000E+00 0.  1.
</event>
<event>
 5    1  0.1659417E-003  0.9118800E+02  0.7818608E-02  0.1130116E+00
         25   -1    0    0    0    0  0.00000000000E+00  0.00000000000E+00  0.99999998245E-14  0.12500000000E+03  0.12500000000E+03 0.  0.
        -11    1    3    3    0    0 -0.32536039332E+02 -0.26265053020E+02  0.23801581469E+02  0.48114053521E+02  0.51100000000E-03 0. -1.
         23    2    1    0    0    0 -0.25231675468E+02  0.29404193103E+01 -0.13647601304E+02  0.96163555455E+02  0.91738153806E+02 0.  0.
         11    1    3    3    0    0  0.73043638638E+01  0.29205472330E+02 -0.37449182773E+02  0.48049501934E+02  0.51100000000E-03 0.  1.
         22    1    1    0    0    0  0.25231675468E+02 -0.29404193103E+01  0.13647601304E+02  0.28836444545E+02  0.00000000000E+00 0.  1.
</event>
<event>
 5    1  0.1659417E-003  0.9118800E+02  0.7818608E-02  0.1130116E+00
         25   -1    0    0    0    0  0.00000000000E+00  0.00000000000E+00  0.99999998245E-14  0.12500000000E+03  0.12500000000E+03 0.  0.
        -11    1    3    3    0    0  0.35513604596E+02 -0.22365201407E+02 -0.36204556115E+02  0.55427323850E+02  0.51100000000E-03 0. -1.
         23    2    1    0    0    0  0.42837569677E+01 -0.27120229981E+02 -0.13014572075E+02  0.94615192377E+02  0.89603560723E+02 0.  0.
         11    1    3    3    0    0 -0.31229847629E+02 -0.47550285745E+01  0.23189984040E+02  0.39187868527E+02  0.51100000000E-03 0.  1.
         22    1    1    0    0    0 -0.42837569677E+01  0.27120229981E+02  0.13014572075E+02  0.30384807623E+02  0.00000000000E+00 0. -1.
</event>
<event>
 5    1  0.1659417E-003  0.9118800E+02  0.7818608E-02  0.1130116E+00
         25   -1    0    0    0    0  0.00000000000E+00  0.00000000000E+00  0.99999998245E-14  0.12500000000E+03  0.12500000000E+03 0.  0.
        -11    1    3    3    0    0 -0.46124413373E+01 -0.19535663298E+02  0.36058199087E+02  0.41268759094E+02  0.51100000000E-03 0.  1.
         23    2    1    0    0    0 -0.19174779315E+02  0.17985151238E+02 -0.44094133623E+01  0.98343279402E+02  0.94661607057E+02 0.  0.
         11    1    3    3    0    0 -0.14562337978E+02  0.37520814535E+02 -0.40467612449E+02  0.57074520308E+02  0.51100000000E-03 0. -1.
         22    1    1    0    0    0  0.19174779315E+02 -0.17985151238E+02  0.44094133623E+01  0.26656720598E+02  0.00000000000E+00 0. -1.
</event>
<event>
 5    1  0.1659417E-003  0.9118800E+02  0.7818608E-02  0.1130116E+00
         25   -1    0    0    0    0  0.00000000000E+00  0.00000000000E+00  0.99999998245E-14  0.12500000000E+03  0.12500000000E+03 0.  0.
        -11    1    3    3    0    0  0.47058347263E+01 -0.35693046504E+02  0.44299724946E+02  0.57084184148E+02  0.51100000000E-03 0. -1.
         23    2    1    0    0    0 -0.31720116116E+00 -0.11973844198E+01  0.30339736419E+02  0.94634988029E+02  0.89631172074E+02 0.  0.
         11    1    3    3    0    0 -0.50230358874E+01  0.34495662085E+02 -0.13959988528E+02  0.37550803881E+02  0.51100000000E-03 0.  1.
         22    1    1    0    0    0  0.31720116116E+00  0.11973844198E+01 -0.30339736419E+02  0.30365011971E+02  0.00000000000E+00 0. -1.
</event>
<event>
 5    1  0.1659417E-003  0.9118800E+02  0.7818608E-02  0.1130116E+00
         25   -1    0    0    0    0  0.00000000000E+00  0.00000000000E+00  0.99999998245E-14  0.12500000000E+03  0.12500000000E+03 0.  0.
        -11    1    3    3    0    0  0.22930384029E+02  0.92712667532E+01  0.52712970665E+02  0.58227280338E+02  0.51100000000E-03 0.  1.
         23    2    1    0    0    0 -0.43039416136E+01  0.11132803424E+02  0.25856983999E+02  0.96521115770E+02  0.92224069214E+02 0.  0.
         11    1    3    3    0    0 -0.27234325643E+02  0.18615366709E+01 -0.26855986666E+02  0.38293835432E+02  0.51100000000E-03 0. -1.
         22    1    1    0    0    0  0.43039416136E+01 -0.11132803424E+02 -0.25856983999E+02  0.28478884230E+02  0.00000000000E+00 0.  1.
</event>
<event>
 5    1  0.1659417E-003  0.9118800E+02  0.7818608E-02  0.1130116E+00
         25   -1    0    0    0    0  0.00000000000E+00  0.00000000000E+00  0.99999998245E-14  0.12500000000E+03  0.12500000000E+03 0.  0.
        -11    1    3    3    0    0 -0.14459957380E+02 -0.28415062325E+02  0.27465494102E+02  0.42081581492E+02  0.51100000000E-03 0. -1.
         23    2    1    0    0    0  0.67585873748E+01  0.21726850075E+02  0.14394930296E+02  0.98075131649E+02  0.94306855065E+02 0.  0.
         11    1    3    3    0    0  0.21218544755E+02  0.50141912401E+02 -0.13070563806E+02  0.55993550157E+02  0.51100000000E-03 0.  1.
         22    1    1    0    0    0 -0.67585873748E+01 -0.21726850075E+02 -0.14394930296E+02  0.26924868351E+02  0.00000000000E+00 0.  1.
</event>
<event>
 5    1  0.1659417E-003  0.9118800E+02  0.7818608E-02  0.1130116E+00
         25   -1    0    0    0    0  0.00000000000E+00  0.00000000000E+00  0.99999998245E-14  0.12500000000E+03  0.12500000000E+03 0.  0.
        -11    1    3    3    0    0 -0.10526705886E+02  0.13791709693E+02  0.49380997100E+02  0.52340287236E+02  0.51100000000E-03 0. -1.
         23    2    1    0    0    0  0.17382524903E+00  0.25537760151E+02  0.56836560381E+01  0.98836832097E+02  0.95311111757E+02 0.  0.
         11    1    3    3    0    0  0.10700531135E+02  0.11746050457E+02 -0.43697341062E+02  0.46496544862E+02  0.51100000000E-03 0.  1.
         22    1    1    0    0    0 -0.17382524903E+00 -0.25537760151E+02 -0.56836560381E+01  0.26163167903E+02  0.00000000000E+00 0.  1.
</event>
<event>
 5    1  0.1659417E-003  0.9118800E+02  0.7818608E-02  0.1130116E+00
         25   -1    0    0    0    0  0.00000000000E+00  0.00000000000E+00  0.99999998245E-14  0.12500000000E+03  0.12500000000E+03 0.  0.
        -11    1    3    3    0    0 -0.19915987930E+02 -0.39014083389E+01  0.30018183394E+02  0.36234774690E+02  0.51100000000E-03 0.  1.
         23    2    1    0    0    0 -0.38312774394E+02 -0.18151221229E+02 -0.89954031216E+01  0.81661186090E+02  0.69211968058E+02 0.  0.
         11    1    3    3    0    0 -0.18396786463E+02 -0.14249812890E+02 -0.39013586516E+02  0.45426411400E+02  0.51100000000E-03 0. -1.
         22    1    1    0    0    0  0.38312774394E+02  0.18151221229E+02  0.89954031216E+01  0.43338813910E+02  0.00000000000E+00 0.  1.
</event>
<event>
 5    1  0.1659417E-003  0.9118800E+02  0.7818608E-02  0.1130116E+00
         25   -1    0    0    0    0  0.00000000000E+00  0.00000000000E+00  0.99999998245E-14  0.12500000000E+03  0.12500000000E+03 0.  0.
        -11    1    3    3    0    0 -0.30064388809E+01  0.39725609593E+02  0.10404593867E+02  0.41175457570E+02  0.51100000000E-03 0. -1.
         23    2    1    0    0    0 -0.20671126541E+02 -0.13356038376E+02  0.12975754939E+02  0.97178255810E+02  0.93110493245E+02 0.  0.
         11    1    3    3    0    0 -0.17664687660E+02 -0.53081647969E+02  0.25711610723E+01  0.56002798240E+02  0.51100000000E-03 0.  1.
         22    1    1    0    0    0  0.20671126541E+02  0.13356038376E+02 -0.12975754939E+02  0.27821744190E+02  0.00000000000E+00 0.  1.
</event>
<event>
 5    1  0.1659417E-003  0.9118800E+02  0.7818608E-02  0.1130116E+00
         25   -1    0    0    0    0  0.00000000000E+00  0.00000000000E+00  0.99999998245E-14  0.12500000000E+03  0.12500000000E+03 0.  0.
        -11    1    3    3    0    0 -0.85511039359E+01 -0.25359835162E+02  0.27335527354E+02  0.38255374445E+02  0.51100000000E-03 0. -1.
         23    2    1    0    0    0 -0.19006700906E+02  0.20780077022E+02 -0.60972886021E+01  0.96186058779E+02  0.91768811123E+02 0.  0.
         11    1    3    3    0    0 -0.10455596970E+02  0.46139912184E+02 -0.33432815956E+02  0.57930684334E+02  0.51100000000E-03 0.  1.
         22    1    1    0    0    0  0.19006700906E+02 -0.20780077022E+02  0.60972886021E+01  0.28813941221E+02  0.00000000000E+00 0.  1.
</event>
<event>
 5    1  0.1659417E-003  0.9118800E+02  0.7818608E-02  0.1130116E+00
         25   -1    0    0    0    0  0.00000000000E+00  0.00000000000E+00  0.99999998245E-14  0.12500000000E+03  0.12500000000E+03 0.  0.
        -11    1    3    3    0    0  0.24803437787E+02 -0.31087479473E+02  0.99896461153E+01  0.41005303752E+02  0.51100000000E-03 0.  1.
         23    2    1    0    0    0 -0.20651908156E+02 -0.17777890217E+02  0.22125079699E+02  0.89899090571E+02  0.82763353260E+02 0.  0.
         11    1    3    3    0    0 -0.45455345943E+02  0.13309589256E+02  0.12135433583E+02  0.48893786819E+02  0.51100000000E-03 0. -1.
         22    1    1    0    0    0  0.20651908156E+02  0.17777890217E+02 -0.22125079699E+02  0.35100909429E+02  0.00000000000E+00 0.  1.
</event>
<event>
 5    1  0.1659417E-003  0.9118800E+02  0.7818608E-02  0.1130116E+00
         25   -1    0    0    0    0  0.00000000000E+00  0.00000000000E+00  0.99999998245E-14  0.12500000000E+03  0.12500000000E+03 0.  0.
        -11    1    3    3    0    0 -0.30986689852E+02  0.25836222291E+02  0.20025585622E+02  0.45041196810E+02  0.51100000000E-03 0. -1.
         23    2    1    0    0    0 -0.13015656001E+02 -0.19570094326E+02  0.20403667715E+02  0.93875965087E+02  0.88566310027E+02 0.  0.
         11    1    3    3    0    0  0.17971033851E+02 -0.45406316616E+02  0.37808209233E+00  0.48834768277E+02  0.51100000000E-03 0.  1.
         22    1    1    0    0    0  0.13015656001E+02  0.19570094326E+02 -0.20403667715E+02  0.31124034913E+02  0.00000000000E+00 0.  1.
</event>
<event>
 5    1  0.1659417E-003  0.9118800E+02  0.7818608E-02  0.1130116E+00
         25   -1    0    0    0    0  0.00000000000E+00  0.00000000000E+00  0.99999998245E-14  0.12500000000E+03  0.12500000000E+03 0.  0.
        -11    1    3    3    0    0 -0.27215411800E+02 -0.29997117588E+02  0.38403978156E+02  0.55815510761E+02  0.51100000000E-03 0. -1.
         23    2    1    0    0    0  0.60419665955E+01 -0.11026311273E+02  0.26096350162E+02  0.96032701327E+02  0.91559681802E+02 0.  0.
         11    1    3    3    0    0  0.33257378396E+02  0.18970806314E+02 -0.12307627994E+02  0.40217190566E+02  0.51100000000E-03 0.  1.
         22    1    1    0    0    0 -0.60419665955E+01  0.11026311273E+02 -0.26096350162E+02  0.28967298673E+02  0.00000000000E+00 0. -1.
</event>
<event>
 5    1  0.1659417E-003  0.9118800E+02  0.7818608E-02  0.1130116E+00
         25   -1    0    0    0    0  0.00000000000E+00  0.00000000000E+00  0.99999998245E-14  0.12500000000E+03  0.12500000000E+03 0.  0.
        -11    1    3    3    0    0  0.34127395065E+02 -0.36969090608E+02  0.12928107945E+01  0.50329555078E+02  0.51100000000E-03 0. -1.
         23    2    1    0    0    0 -0.20733848621E+01 -0.19446275609E+02 -0.20992319696E+02  0.96309687244E+02  0.91937053526E+02 0.  0.
         11    1    3    3    0    0 -0.36200779927E+02  0.17522814999E+02 -0.22285130490E+02  0.45980132166E+02  0.51100000000E-03 0.  1.
         22    1    1    0    0    0  0.20733848621E+01  0.19446275609E+02  0.20992319696E+02  0.28690312756E+02  0.00000000000E+00 0. -1.
</event>
<event>
 5    1  0.1659417E-003  0.9118800E+02  0.7818608E-02  0.1130116E+00
         25   -1    0    0    0    0  0.00000000000E+00  0.00000000000E+00  0.99999998245E-14  0.12500000000E+03  0.12500000000E+03 0.  0.
        -11    1    3    3    0    0  0.32049461830E+02 -0.92267640693E+01 -0.23523542656E+02  0.40812476501E+02  0.51100000000E-03 0. -1.
         23    2    1    0    0    0 -0.16954342457E+02 -0.24196440377E+02 -0.10030683835E+02  0.93798524502E+02  0.88456945038E+02 0.  0.
         11    1    3    3    0    0 -0.49003804287E+02 -0.14969676308E+02  0.13492858820E+02  0.52986048001E+02  0.51100000000E-03 0.  1.
         22    1    1    0    0    0  0.16954342457E+02  0.24196440377E+02  0.10030683835E+02  0.31201475498E+02  0.00000000000E+00 0.  1.
</event>
<event>
 5    1  0.1659417E-003  0.9118800E+02  0.7818608E-02  0.1130116E+00
         25   -1    0    0    0    0  0.00000000000E+00  0.00000000000E+00  0.99999998245E-14  0.12500000000E+03  0.12500000000E+03 0.  0.
        -11    1    3    3    0    0 -0.44352876925E+02 -0.40829779106E+02 -0.44012789345E+00  0.60286335651E+02  0.51100000000E-03 0. -1.
         23    2    1    0    0    0 -0.28515086755E+02 -0.10334224000E+02  0.58084002641E+00  0.94664480663E+02  0.89672293188E+02 0.  0.
         11    1    3    3    0    0  0.15837790170E+02  0.30495555106E+02  0.10209679199E+01  0.34378145012E+02  0.51100000000E-03 0.  1.
         22    1    1    0    0    0  0.28515086755E+02  0.10334224000E+02 -0.58084002641E+00  0.30335519337E+02  0.00000000000E+00 0. -1.
</event>
<event>
 5    1  0.1659417E-003  0.9118800E+02  0.7818608E-02  0.1130116E+00
         25   -1    0    0    0    0  0.00000000000E+00  0.00000000000E+00  0.99999998245E-14  0.12500000000E+03  0.12500000000E+03 0.  0.
        -11    1    3    3    0    0  0.15209791791E+02  0.19218074907E+02 -0.56979473275E+02  0.62026869535E+02  0.51100000000E-03 0.  1.
         23    2    1    0    0    0  0.12082274583E+02  0.95038682642E+01 -0.24454745002E+02  0.96115065792E+02  0.91672059255E+02 0.  0.
         11    1    3    3    0    0 -0.31275172082E+01 -0.97142066424E+01  0.32524728273E+02  0.34088196257E+02  0.51100000000E-03 0. -1.
         22    1    1    0    0    0 -0.12082274583E+02 -0.95038682642E+01  0.24454745002E+02  0.28884934208E+02  0.00000000000E+00 0.  1.
</event>
<event>
 5    1  0.1659417E-003  0.9118800E+02  0.7818608E-02  0.1130116E+00
         25   -1    0    0    0    0  0.00000000000E+00  0.00000000000E+00  0.99999998245E-14  0.12500000000E+03  0.12500000000E+03 0.  0.
        -11    1    3    3    0    0  0.47478218094E+02  0.29088080815E+02  0.29583556102E+01  0.55758851379E+02  0.51100000000E-03 0.  1.
         23    2    1    0    0    0  0.14088809639E+02  0.12854877301E+02 -0.18323230620E+02  0.98552255147E+02  0.94937157040E+02 0.  0.
         11    1    3    3    0    0 -0.33389408455E+02 -0.16233203514E+02 -0.21281586230E+02  0.42793403768E+02  0.51100000000E-03 0. -1.
         22    1    1    0    0    0 -0.14088809639E+02 -0.12854877301E+02  0.18323230620E+02  0.26447744853E+02  0.00000000000E+00 0.  1.
</event>
<event>
 5    1  0.1659417E-003  0.9118800E+02  0.7818608E-02  0.1130116E+00
         25   -1    0    0    0    0  0.00000000000E+00  0.00000000000E+00  0.99999998245E-14  0.12500000000E+03  0.12500000000E+03 0.  0.
        -11    1    3    3    0    0 -0.17814763757E+02  0.12976954454E+02  0.31353232898E+02  0.38324827045E+02  0.51100000000E-03 0. -1.
         23    2    1    0    0    0  0.17540435884E+02 -0.23303495751E+02  0.50701369782E+01  0.95395505507E+02  0.90685590789E+02 0.  0.
         11    1    3    3    0    0  0.35355199641E+02 -0.36280450205E+02 -0.26283095920E+02  0.57070678462E+02  0.51100000000E-03 0.  1.
         22    1    1    0    0    0 -0.17540435884E+02  0.23303495751E+02 -0.50701369782E+01  0.29604494493E+02  0.00000000000E+00 0.  1.
</event>
<event>
 5    1  0.1659417E-003  0.9118800E+02  0.7818608E-02  0.1130116E+00
         25   -1    0    0    0    0  0.00000000000E+00  0.00000000000E+00  0.99999998245E-14  0.12500000000E+03  0.12500000000E+03 0.  0.
        -11    1    3    3    0    0  0.42873540042E+02  0.16316654733E+02  0.39231261701E+02  0.60361126168E+02  0.51100000000E-03 0. -1.
         23    2    1    0    0    0  0.77502013189E+01  0.79537314018E+01  0.21975223729E+02  0.10037810077E+03  0.97311485411E+02 0.  0.
         11    1    3    3    0    0 -0.35123338723E+02 -0.83629233307E+01 -0.17256037972E+02  0.40016974603E+02  0.51100000000E-03 0.  1.
         22    1    1    0    0    0 -0.77502013189E+01 -0.79537314018E+01 -0.21975223729E+02  0.24621899229E+02  0.00000000000E+00 0. -1.
</event>
<event>
 5    1  0.1659417E-003  0.9118800E+02  0.7818608E-02  0.1130116E+00
         25   -1    0    0    0    0  0.00000000000E+00  0.00000000000E+00  0.99999998245E-14  0.12500000000E+03  0.12500000000E+03 0.  0.
        -11    1    3    3    0    0 -0.43598783458E+01 -0.21895967546E+02  0.41185834464E+02  0.46847784309E+02  0.51100000000E-03 0. -1.
         23    2    1    0    0    0 -0.30535320097E+01 -0.29027757014E+02 -0.65127736190E+01  0.95094298951E+02  0.90269456284E+02 0.  0.
         11    1    3    3    0    0  0.13063463361E+01 -0.71317894682E+01 -0.47698608083E+02  0.48246514642E+02  0.51100000000E-03 0.  1.
         22    1    1    0    0    0  0.30535320097E+01  0.29027757014E+02  0.65127736190E+01  0.29905701049E+02  0.00000000000E+00 0.  1.
</event>
<event>
 5    1  0.1659417E-003  0.9118800E+02  0.7818608E-02  0.1130116E+00
         25   -1    0    0    0    0  0.00000000000E+00  0.00000000000E+00  0.99999998245E-14  0.12500000000E+03  0.12500000000E+03 0.  0.
        -11    1    3    3    0    0 -0.26913321856E+02 -0.21980582170E+02  0.16251889872E+02  0.38361397400E+02  0.51100000000E-03 0.  1.
         23    2    1    0    0    0 -0.60266412716E+01  0.29193574976E+02  0.48209104089E+01  0.94803536597E+02  0.89865923181E+02 0.  0.
         11    1    3    3    0    0  0.20886680584E+02  0.51174157145E+02 -0.11430979463E+02  0.56442139197E+02  0.51100000000E-03 0. -1.
         22    1    1    0    0    0  0.60266412716E+01 -0.29193574976E+02 -0.48209104089E+01  0.30196463403E+02  0.00000000000E+00 0. -1.
</event>
<event>
 5    1  0.1659417E-003  0.9118800E+02  0.7818608E-02  0.1130116E+00
         25   -1    0    0    0    0  0.00000000000E+00  0.00000000000E+00  0.99999998245E-14  0.12500000000E+03  0.12500000000E+03 0.  0.
        -11    1    3    3    0    0 -0.76915847729E+01 -0.39792968020E+02  0.42995044300E+02  0.59086501121E+02  0.51100000000E-03 0.  1.
         23    2    1    0    0    0  0.76598930355E+01 -0.28279024754E+02  0.17940793765E+02  0.90645243659E+02  0.83882721193E+02 0.  0.
         11    1    3    3    0    0  0.15351477808E+02  0.11513943266E+02 -0.25054250535E+02  0.31558742538E+02  0.51100000000E-03 0. -1.
         22    1    1    0    0    0 -0.76598930355E+01  0.28279024754E+02 -0.17940793765E+02  0.34354756341E+02  0.00000000000E+00 0.  1.
</event>
<event>
 5    1  0.1659417E-003  0.9118800E+02  0.7818608E-02  0.1130116E+00
         25   -1    0    0    0    0  0.00000000000E+00  0.00000000000E+00  0.99999998245E-14  0.12500000000E+03  0.12500000000E+03 0.  0.
        -11    1    3    3    0    0  0.11688586248E+02  0.16632919055E+02  0.26501536877E+02  0.33400726068E+02  0.51100000000E-03 0. -1.
         23    2    1    0    0    0 -0.77097908131E+01 -0.28626732288E+02 -0.88987306183E+01  0.94046517442E+02  0.88806696596E+02 0.  0.
         11    1    3    3    0    0 -0.19398377061E+02 -0.45259651343E+02 -0.35400267496E+02  0.60645791373E+02  0.51100000000E-03 0.  1.
         22    1    1    0    0    0  0.77097908131E+01  0.28626732288E+02  0.88987306183E+01  0.30953482558E+02  0.00000000000E+00 0.  1.
</event>
<event>
 5    1  0.1659417E-003  0.9118800E+02  0.7818608E-02  0.1130116E+00
         25   -1    0    0    0    0  0.00000000000E+00  0.00000000000E+00  0.99999998245E-14  0.12500000000E+03  0.12500000000E+03 0.  0.
        -11    1    3    3    0    0  0.32023372294E+02 -0.19551704116E+02 -0.78395544997E+00  0.37528390498E+02  0.51100000000E-03 0.  1.
         23    2    1    0    0    0 -0.89255123743E+01  0.22007173448E+02 -0.14112610749E+02  0.97374898435E+02  0.93374111020E+02 0.  0.
         11    1    3    3    0    0 -0.40948884669E+02  0.41558877564E+02 -0.13328655299E+02  0.59846507938E+02  0.51100000000E-03 0. -1.
         22    1    1    0    0    0  0.89255123743E+01 -0.22007173448E+02  0.14112610749E+02  0.27625101565E+02  0.00000000000E+00 0. -1.
</event>
<event>
 5    1  0.1659417E-003  0.9118800E+02  0.7818608E-02  0.1130116E+00
         25   -1    0    0    0    0  0.00000000000E+00  0.00000000000E+00  0.99999998245E-14  0.12500000000E+03  0.12500000000E+03 0.  0.
        -11    1    3    3    0    0 -0.49575144133E+02  0.18078359330E+02 -0.13810269717E+02  0.54545811405E+02  0.51100000000E-03 0. -1.
         23    2    1    0    0    0 -0.65750734192E+01  0.17346213247E+02 -0.19684977320E+02  0.97951505835E+02  0.94142851342E+02 0.  0.
         11    1    3    3    0    0  0.43000070714E+02 -0.73214608350E+00 -0.58747076031E+01  0.43405694430E+02  0.51100000000E-03 0.  1.
         22    1    1    0    0    0  0.65750734192E+01 -0.17346213247E+02  0.19684977320E+02  0.27048494165E+02  0.00000000000E+00 0. -1.
</event>
<event>
 5    1  0.1659417E-003  0.9118800E+02  0.7818608E-02  0.1130116E+00
         25   -1    0    0    0    0  0.00000000000E+00  0.00000000000E+00  0.99999998245E-14  0.12500000000E+03  0.12500000000E+03 0.  0.
        -11    1    3    3    0    0  0.24294875113E+02 -0.24147449905E+02 -0.50924823344E+02  0.61373267198E+02  0.51100000000E-03 0. -1.
         23    2    1    0    0    0  0.10664123731E+02 -0.41957489598E+01 -0.28268609075E+02  0.94496850928E+02  0.89438318030E+02 0.  0.
         11    1    3    3    0    0 -0.13630751383E+02  0.19951700945E+02  0.22656214270E+02  0.33123583730E+02  0.51100000000E-03 0.  1.
         22    1    1    0    0    0 -0.10664123731E+02  0.41957489598E+01  0.28268609075E+02  0.30503149072E+02  0.00000000000E+00 0. -1.
</event>
<event>
 5    1  0.1659417E-003  0.9118800E+02  0.7818608E-02  0.1130116E+00
         25   -1    0    0    0    0  0.00000000000E+00  0.00000000000E+00  0.99999998245E-14  0.12500000000E+03  0.12500000000E+03 0.  0.
        -11    1    3    3    0    0 -0.38894104951E+02 -0.81107456225E+01 -0.17350667577E+02  0.43354137751E+02  0.51100000000E-03 0. -1.
         23    2    1    0    0    0  0.61662709781E+01  0.18789641805E+02 -0.21242289064E+02  0.95977450463E+02  0.91484220583E+02 0.  0.
         11    1    3    3    0    0  0.45060375929E+02  0.26900387428E+02 -0.38916214872E+01  0.52623312712E+02  0.51100000000E-03 0.  1.
         22    1    1    0    0    0 -0.61662709781E+01 -0.18789641805E+02  0.21242289064E+02  0.29022549537E+02  0.00000000000E+00 0.  1.
</event>
<event>
 5    1  0.1659417E-003  0.9118800E+02  0.7818608E-02  0.1130116E+00
         25   -1    0    0    0    0  0.00000000000E+00  0.00000000000E+00  0.99999998245E-14  0.12500000000E+03  0.12500000000E+03 0.  0.
        -11    1    3    3    0    0 -0.17236235088E+02  0.28770572588E+02 -0.11848671630E+02  0.35569996721E+02  0.51100000000E-03 0.  1.
         23    2    1    0    0    0 -0.15411256548E+01 -0.27847694926E+02  0.49412406953E+01  0.96675363364E+02  0.92432899126E+02 0.  0.
         11    1    3    3    0    0  0.15695109433E+02 -0.56618267514E+02  0.16789912325E+02  0.61105366643E+02  0.51100000000E-03 0. -1.
         22    1    1    0    0    0  0.15411256548E+01  0.27847694926E+02 -0.49412406953E+01  0.28324636636E+02  0.00000000000E+00 0. -1.
</event>
<event>
 5    1  0.1659417E-003  0.9118800E+02  0.7818608E-02  0.1130116E+00
         25   -1    0    0    0    0  0.00000000000E+00  0.00000000000E+00  0.99999998245E-14  0.12500000000E+03  0.12500000000E+03 0.  0.
        -11    1    3    3    0    0  0.15745229467E+02  0.26674878655E+02  0.27394120891E+01  0.31096073403E+02  0.51100000000E-03 0. -1.
         23    2    1    0    0    0 -0.20477945455E+02 -0.20760962590E+02  0.15271195904E+02  0.92082326296E+02  0.85997567257E+02 0.  0.
         11    1    3    3    0    0 -0.36223174922E+02 -0.47435841245E+02  0.12531783815E+02  0.60986252893E+02  0.51100000000E-03 0.  1.
         22    1    1    0    0    0  0.20477945455E+02  0.20760962590E+02 -0.15271195904E+02  0.32917673704E+02  0.00000000000E+00 0.  1.
</event>
<event>
 5    1  0.1659417E-003  0.9118800E+02  0.7818608E-02  0.1130116E+00
         25   -1    0    0    0    0  0.00000000000E+00  0.00000000000E+00  0.99999998245E-14  0.12500000000E+03  0.12500000000E+03 0.  0.
        -11    1    3    3    0    0  0.16585621331E+02 -0.18256967069E+02  0.38415604487E+02  0.45652583167E+02  0.51100000000E-03 0.  1.
         23    2    1    0    0    0 -0.17584073465E+02  0.13579520566E+02  0.16967396875E+02  0.97044757644E+02  0.92931100344E+02 0.  0.
         11    1    3    3    0    0 -0.34169694797E+02  0.31836487635E+02 -0.21448207612E+02  0.51392174477E+02  0.51100000000E-03 0. -1.
         22    1    1    0    0    0  0.17584073465E+02 -0.13579520566E+02 -0.16967396875E+02  0.27955242356E+02  0.00000000000E+00 0. -1.
</event>
<event>
 5    1  0.1659417E-003  0.9118800E+02  0.7818608E-02  0.1130116E+00
         25   -1    0    0    0    0  0.00000000000E+00  0.00000000000E+00  0.99999998245E-14  0.12500000000E+03  0.12500000000E+03 0.  0.
        -11    1    3    3    0    0  0.26955618475E+02 -0.39428498021E+02  0.65182099472E+01  0.48204759981E+02  0.51100000000E-03 0. -1.
         23    2    1    0    0    0 -0.16442272329E+02 -0.24039764145E+02 -0.44461619856E+01  0.95537703146E+02  0.90881383058E+02 0.  0.
         11    1    3    3    0    0 -0.43397890804E+02  0.15388733876E+02 -0.10964371933E+02  0.47332943166E+02  0.51100000000E-03 0.  1.
         22    1    1    0    0    0  0.16442272329E+02  0.24039764145E+02  0.44461619856E+01  0.29462296854E+02  0.00000000000E+00 0.  1.
</event>
<event>
 5    1  0.1659417E-003  0.9118800E+02  0.7818608E-02  0.1130116E+00
         25   -1    0    0    0    0  0.00000000000E+00  0.00000000000E+00  0.99999998245E-14  0.12500000000E+03  0.12500000000E+03 0.  0.
        -11    1    3    3    0    0 -0.21571390046E+02 -0.32843305802E+02  0.14495320879E+02  0.41882238863E+02  0.51100000000E-03 0.  1.
         23    2    1    0    0    0  0.22835508884E+02 -0.15534931749E+02 -0.10196189653E+02  0.95559265399E+02  0.90911035357E+02 0.  0.
         11    1    3    3    0    0  0.44406898931E+02  0.17308374054E+02 -0.24691510532E+02  0.53677026535E+02  0.51100000000E-03 0. -1.
         22    1    1    0    0    0 -0.22835508884E+02  0.15534931749E+02  0.10196189653E+02  0.29440734601E+02  0.00000000000E+00 0.  1.
</event>
<event>
 5    1  0.1659417E-003  0.9118800E+02  0.7818608E-02  0.1130116E+00
         25   -1    0    0    0    0  0.00000000000E+00  0.00000000000E+00  0.99999998245E-14  0.12500000000E+03  0.12500000000E+03 0.  0.
        -11    1    3    3    0    0  0.35792560259E+01  0.27303500211E+02  0.29032734863E+02  0.40014895869E+02  0.51100000000E-03 0.  1.
         23    2    1    0    0    0  0.17113870307E+02  0.11078875737E+02 -0.21853640341E+02  0.95113420393E+02  0.90295930684E+02 0.  0.
         11    1    3    3    0    0  0.13534614281E+02 -0.16224624474E+02 -0.50886375204E+02  0.55098524524E+02  0.51100000000E-03 0. -1.
         22    1    1    0    0    0 -0.17113870307E+02 -0.11078875737E+02  0.21853640341E+02  0.29886579607E+02  0.00000000000E+00 0. -1.
</event>
<event>
 5    1  0.1659417E-003  0.9118800E+02  0.7818608E-02  0.1130116E+00
         25   -1    0    0    0    0  0.00000000000E+00  0.00000000000E+00  0.99999998245E-14  0.12500000000E+03  0.12500000000E+03 0.  0.
        -11    1    3    3    0    0  0.13467608967E+02 -0.29744907270E+02 -0.47292131238E+02  0.57468962729E+02  0.51100000000E-03 0.  1.
         23    2    1    0    0    0 -0.38058203992E+01 -0.88654620975E-01 -0.27805077590E+02  0.96935530143E+02  0.92784064018E+02 0.  0.
         11    1    3    3    0    0 -0.17273429367E+02  0.29656252649E+02  0.19487053648E+02  0.39466567414E+02  0.51100000000E-03 0. -1.
         22    1    1    0    0    0  0.38058203992E+01  0.88654620975E-01  0.27805077590E+02  0.28064469857E+02  0.00000000000E+00 0.  1.
</event>
<event>
 5    1  0.1659417E-003  0.9118800E+02  0.7818608E-02  0.1130116E+00
         25   -1    0    0    0    0  0.00000000000E+00  0.00000000000E+00  0.99999998245E-14  0.12500000000E+03  0.12500000000E+03 0.  0.
        -11    1    3    3    0    0 -0.52171342415E+00  0.16311523309E+02 -0.29950452302E+02  0.34108174547E+02  0.51100000000E-03 0.  1.
         23    2    1    0    0    0  0.19421430510E+02 -0.28524612505E+02 -0.23444184759E+01  0.90411826015E+02  0.83534163692E+02 0.  0.
         11    1    3    3    0    0  0.19943143934E+02 -0.44836135814E+02  0.27606033826E+02  0.56303651468E+02  0.51100000000E-03 0. -1.
         22    1    1    0    0    0 -0.19421430510E+02  0.28524612505E+02  0.23444184759E+01  0.34588173985E+02  0.00000000000E+00 0. -1.
</event>
<event>
 5    1  0.1659417E-003  0.9118800E+02  0.7818608E-02  0.1130116E+00
         25   -1    0    0    0    0  0.00000000000E+00  0.00000000000E+00  0.99999998245E-14  0.12500000000E+03  0.12500000000E+03 0.  0.
        -11    1    3    3    0    0 -0.31569325620E+02 -0.39710244873E+02 -0.19681281146E+02  0.54413956810E+02  0.51100000000E-03 0.  1.
         23    2    1    0    0    0 -0.28868614183E+02 -0.42448503631E+01  0.14487363723E+01  0.95785029924E+02  0.91220926771E+02 0.  0.
         11    1    3    3    0    0  0.27007114368E+01  0.35465394510E+02  0.21130017518E+02  0.41371073114E+02  0.51100000000E-03 0. -1.
         22    1    1    0    0    0  0.28868614183E+02  0.42448503631E+01 -0.14487363723E+01  0.29214970076E+02  0.00000000000E+00 0.  1.
</event>
<event>
 5    1  0.1659417E-003  0.9118800E+02  0.7818608E-02  0.1130116E+00
         25   -1    0    0    0    0  0.00000000000E+00  0.00000000000E+00  0.99999998245E-14  0.12500000000E+03  0.12500000000E+03 0.  0.
        -11    1    3    3    0    0  0.43288596241E+02  0.77710200673E+01  0.12763993599E+02  0.45795314720E+02  0.51100000000E-03 0. -1.
         23    2    1    0    0    0 -0.91883311434E+01  0.85809790893E+01  0.22549156519E+02  0.99182891505E+02  0.95763891297E+02 0.  0.
         11    1    3    3    0    0 -0.52476927385E+02  0.80995902198E+00  0.97851629196E+01  0.53387576785E+02  0.51100000000E-03 0.  1.
         22    1    1    0    0    0  0.91883311434E+01 -0.85809790893E+01 -0.22549156519E+02  0.25817108495E+02  0.00000000000E+00 0.  1.
</event>
<event>
 5    1  0.1659417E-003  0.9118800E+02  0.7818608E-02  0.1130116E+00
         25   -1    0    0    0    0  0.00000000000E+00  0.00000000000E+00  0.99999998245E-14  0.12500000000E+03  0.12500000000E+03 0.  0.
        -11    1    3    3    0    0 -0.32528016125E+02  0.25296354348E+02 -0.24341887800E+01  0.41278355728E+02  0.51100000000E-03 0. -1.
         23    2    1    0    0    0 -0.18544704685E+01 -0.34329519389E+01  0.30238204348E+02  0.94511096741E+02  0.89458225923E+02 0.  0.
         11    1    3    3    0    0  0.30673545656E+02 -0.28729306286E+02  0.32672393128E+02  0.53232741014E+02  0.51100000000E-03 0.  1.
         22    1    1    0    0    0  0.18544704685E+01  0.34329519389E+01 -0.30238204348E+02  0.30488903259E+02  0.00000000000E+00 0. -1.
</event>
<event>
 5    1  0.1659417E-003  0.9118800E+02  0.7818608E-02  0.1130116E+00
         25   -1    0    0    0    0  0.00000000000E+00  0.00000000000E+00  0.99999998245E-14  0.12500000000E+03  0.12500000000E+03 0.  0.
        -11    1    3    3    0    0  0.34437251167E+02  0.34039729227E+02 -0.29583439435E+02  0.56743346067E+02  0.51100000000E-03 0.  1.
         23    2    1    0    0    0  0.19607579989E+02  0.25035804770E+02  0.23792721869E+01  0.93110979167E+02  0.87479967946E+02 0.  0.
         11    1    3    3    0    0 -0.14829671178E+02 -0.90039244568E+01  0.31962711621E+02  0.36367633100E+02  0.51100000000E-03 0. -1.
         22    1    1    0    0    0 -0.19607579989E+02 -0.25035804770E+02 -0.23792721869E+01  0.31889020833E+02  0.00000000000E+00 0.  1.
</event>
<event>
 5    1  0.1659417E-003  0.9118800E+02  0.7818608E-02  0.1130116E+00
         25   -1    0    0    0    0  0.00000000000E+00  0.00000000000E+00  0.99999998245E-14  0.12500000000E+03  0.12500000000E+03 0.  0.
        -11    1    3    3    0    0 -0.73887680405E+01 -0.14724243137E+01 -0.32472658481E+02  0.33335198748E+02  0.51100000000E-03 0.  1.
         23    2    1    0    0    0 -0.52013989647E+01 -0.24994259235E+01  0.29290918386E+02  0.95146029057E+02  0.90341060788E+02 0.  0.
         11    1    3    3    0    0  0.21873690758E+01 -0.10270016098E+01  0.61763576867E+02  0.61810830309E+02  0.51100000000E-03 0. -1.
         22    1    1    0    0    0  0.52013989647E+01  0.24994259235E+01 -0.29290918386E+02  0.29853970943E+02  0.00000000000E+00 0. -1.
</event>
<event>
 5    1  0.1659417E-003  0.9118800E+02  0.7818608E-02  0.1130116E+00
         25   -1    0    0    0    0  0.00000000000E+00  0.00000000000E+00  0.99999998245E-14  0.12500000000E+03  0.12500000000E+03 0.  0.
        -11    1    3    3    0    0  0.64080463814E+01  0.23454494650E+02 -0.49487520301E+02  0.55137927450E+02  0.51100000000E-03 0.  1.
         23    2    1    0    0    0  0.67013522463E+00  0.27345823932E+02 -0.90168430374E+01  0.96198148912E+02  0.91785277838E+02 0.  0.
         11    1    3    3    0    0 -0.57379111568E+01  0.38913292823E+01  0.40470677263E+02  0.41060221461E+02  0.51100000000E-03 0. -1.
         22    1    1    0    0    0 -0.67013522463E+00 -0.27345823932E+02  0.90168430374E+01  0.28801851088E+02  0.00000000000E+00 0. -1.
</event>
<event>
 5    1  0.1659417E-003  0.9118800E+02  0.7818608E-02  0.1130116E+00
         25   -1    0    0    0    0  0.00000000000E+00  0.00000000000E+00  0.99999998245E-14  0.12500000000E+03  0.12500000000E+03 0.  0.
        -11    1    3    3    0    0 -0.46136721000E+01 -0.41512149403E+02  0.10679383431E+00  0.41767881482E+02  0.51100000000E-03 0. -1.
         23    2    1    0    0    0 -0.78481399236E+01  0.38712352301E+01  0.28357053607E+02  0.95323371961E+02  0.90586108153E+02 0.  0.
         11    1    3    3    0    0 -0.32344678236E+01  0.45383384634E+02  0.28250259773E+02  0.53555490479E+02  0.51100000000E-03 0.  1.
         22    1    1    0    0    0  0.78481399236E+01 -0.38712352301E+01 -0.28357053607E+02  0.29676628039E+02  0.00000000000E+00 0.  1.
</event>
<event>
 5    1  0.1659417E-003  0.9118800E+02  0.7818608E-02  0.1130116E+00
         25   -1    0    0    0    0  0.00000000000E+00  0.00000000000E+00  0.99999998245E-14  0.12500000000E+03  0.12500000000E+03 0.  0.
        -11    1    3    3    0    0 -0.31720171958E+02  0.67310408791E+01  0.38873971762E+02  0.50622740949E+02  0.51100000000E-03 0. -1.
         23    2    1    0    0    0  0.10663663705E+02  0.86543867091E+01  0.27044111845E+02  0.94668562210E+02  0.89677982540E+02 0.  0.
         11    1    3    3    0    0  0.42383835663E+02  0.19233458299E+01 -0.11829859917E+02  0.44045821261E+02  0.51100000000E-03 0.  1.
         22    1    1    0    0    0 -0.10663663705E+02 -0.86543867091E+01 -0.27044111845E+02  0.30331437790E+02  0.00000000000E+00 0. -1.
</event>
<event>
 5    1  0.1659417E-003  0.9118800E+02  0.7818608E-02  0.1130116E+00
         25   -1    0    0    0    0  0.00000000000E+00  0.00000000000E+00  0.99999998245E-14  0.12500000000E+03  0.12500000000E+03 0.  0.
        -11    1    3    3    0    0  0.21597023926E+02  0.63384854401E+01 -0.53399697869E+02  0.57949422541E+02  0.51100000000E-03 0. -1.
         23    2    1    0    0    0  0.24198149095E+02  0.76293383878E+01 -0.17013267287E+02  0.94451538703E+02  0.89374966717E+02 0.  0.
         11    1    3    3    0    0  0.26011251690E+01  0.12908529477E+01  0.36386430582E+02  0.36502116161E+02  0.51100000000E-03 0.  1.
         22    1    1    0    0    0 -0.24198149095E+02 -0.76293383878E+01  0.17013267287E+02  0.30548461297E+02  0.00000000000E+00 0. -1.
</event>
<event>
 5    1  0.1659417E-003  0.9118800E+02  0.7818608E-02  0.1130116E+00
         25   -1    0    0    0    0  0.00000000000E+00  0.00000000000E+00  0.99999998245E-14  0.12500000000E+03  0.12500000000E+03 0.  0.
        -11    1    3    3    0    0 -0.33875369382E+02 -0.62877152536E+01 -0.77275109100E+01  0.35309919838E+02  0.51100000000E-03 0. -1.
         23    2    1    0    0    0  0.25821201090E+02 -0.19465918495E+01 -0.14122473041E+02  0.95504781907E+02  0.90836091267E+02 0.  0.
         11    1    3    3    0    0  0.59696570472E+02  0.43411234041E+01 -0.63949621312E+01  0.60194862068E+02  0.51100000000E-03 0.  1.
         22    1    1    0    0    0 -0.25821201090E+02  0.19465918495E+01  0.14122473041E+02  0.29495218093E+02  0.00000000000E+00 0.  1.
</event>
<event>
 5    1  0.1659417E-003  0.9118800E+02  0.7818608E-02  0.1130116E+00
         25   -1    0    0    0    0  0.00000000000E+00  0.00000000000E+00  0.99999998245E-14  0.12500000000E+03  0.12500000000E+03 0.  0.
        -11    1    3    3    0    0 -0.13108278700E+02 -0.27680161241E+02  0.48587702708E+02  0.57435034182E+02  0.51100000000E-03 0. -1.
         23    2    1    0    0    0  0.10708207381E+02 -0.18491794855E+02  0.20536788432E+02  0.95362661027E+02  0.90640307021E+02 0.  0.
         11    1    3    3    0    0  0.23816486082E+02  0.91883663855E+01 -0.28050914276E+02  0.37927626845E+02  0.51100000000E-03 0.  1.
         22    1    1    0    0    0 -0.10708207381E+02  0.18491794855E+02 -0.20536788432E+02  0.29637338973E+02  0.00000000000E+00 0. -1.
</event>
<event>
 5    1  0.1659417E-003  0.9118800E+02  0.7818608E-02  0.1130116E+00
         25   -1    0    0    0    0  0.00000000000E+00  0.00000000000E+00  0.99999998245E-14  0.12500000000E+03  0.12500000000E+03 0.  0.
        -11    1    3    3    0    0 -0.15351975174E+02  0.42303746403E+02  0.39106373198E+02  0.59620453927E+02  0.51100000000E-03 0.  1.
         23    2    1    0    0    0 -0.16953521127E+02  0.11526360004E+02  0.22239489491E+02  0.94753120056E+02  0.89795768352E+02 0.  0.
         11    1    3    3    0    0 -0.16015459535E+01 -0.30777386400E+02 -0.16866883707E+02  0.35132666128E+02  0.51100000000E-03 0. -1.
         22    1    1    0    0    0  0.16953521127E+02 -0.11526360004E+02 -0.22239489491E+02  0.30246879944E+02  0.00000000000E+00 0.  1.
</event>
<event>
 5    1  0.1659417E-003  0.9118800E+02  0.7818608E-02  0.1130116E+00
         25   -1    0    0    0    0  0.00000000000E+00  0.00000000000E+00  0.99999998245E-14  0.12500000000E+03  0.12500000000E+03 0.  0.
        -11    1    3    3    0    0  0.43687201016E+02 -0.64713405538E+01  0.49787848692E+01  0.44443650617E+02  0.51100000000E-03 0. -1.
         23    2    1    0    0    0 -0.23111153343E+01 -0.29036666808E+02  0.60364916541E+00  0.95865249860E+02  0.91330785965E+02 0.  0.
         11    1    3    3    0    0 -0.45998316350E+02 -0.22565326254E+02 -0.43751357038E+01  0.51421599243E+02  0.51100000000E-03 0.  1.
         22    1    1    0    0    0  0.23111153343E+01  0.29036666808E+02 -0.60364916541E+00  0.29134750140E+02  0.00000000000E+00 0. -1.
</event>
<event>
 5    1  0.1659417E-003  0.9118800E+02  0.7818608E-02  0.1130116E+00
         25   -1    0    0    0    0  0.00000000000E+00  0.00000000000E+00  0.99999998245E-14  0.12500000000E+03  0.12500000000E+03 0.  0.
        -11    1    3    3    0    0 -0.14893778509E+02  0.36696634016E+02  0.10183577050E+02  0.40892209872E+02  0.51100000000E-03 0. -1.
         23    2    1    0    0    0  0.20757389857E+02 -0.44838188059E+01  0.19520307002E+02  0.96155308110E+02  0.91726915502E+02 0.  0.
         11    1    3    3    0    0  0.35651168366E+02 -0.41180452822E+02  0.93367299516E+01  0.55263098239E+02  0.51100000000E-03 0.  1.
         22    1    1    0    0    0 -0.20757389857E+02  0.44838188059E+01 -0.19520307002E+02  0.28844691890E+02  0.00000000000E+00 0.  1.
</event>
<event>
 5    1  0.1659417E-003  0.9118800E+02  0.7818608E-02  0.1130116E+00
         25   -1    0    0    0    0  0.00000000000E+00  0.00000000000E+00  0.99999998245E-14  0.12500000000E+03  0.12500000000E+03 0.  0.
        -11    1    3    3    0    0 -0.36283531074E+02 -0.32192757226E+02  0.28709549735E+01  0.48591260817E+02  0.51100000000E-03 0. -1.
         23    2    1    0    0    0  0.33198960262E+01 -0.22187795312E+02 -0.19597894186E+02  0.95210783378E+02  0.90430613425E+02 0.  0.
         11    1    3    3    0    0  0.39603427100E+02  0.10004961914E+02 -0.22468849160E+02  0.46619522561E+02  0.51100000000E-03 0.  1.
         22    1    1    0    0    0 -0.33198960262E+01  0.22187795312E+02  0.19597894186E+02  0.29789216622E+02  0.00000000000E+00 0. -1.
</event>
<event>
 5    1  0.1659417E-003  0.9118800E+02  0.7818608E-02  0.1130116E+00
         25   -1    0    0    0    0  0.00000000000E+00  0.00000000000E+00  0.99999998245E-14  0.12500000000E+03  0.12500000000E+03 0.  0.
        -11    1    3    3    0    0  0.21179063965E+02 -0.38234236868E+02 -0.41418453872E+02  0.60215429424E+02  0.51100000000E-03 0.  1.
         23    2    1    0    0    0 -0.58076383391E+00 -0.17322257121E+02 -0.25022518856E+02  0.94561137861E+02  0.89528121087E+02 0.  0.
         11    1    3    3    0    0 -0.21759827799E+02  0.20911979747E+02  0.16395935016E+02  0.34345708437E+02  0.51100000000E-03 0. -1.
         22    1    1    0    0    0  0.58076383391E+00  0.17322257121E+02  0.25022518856E+02  0.30438862139E+02  0.00000000000E+00 0.  1.
</event>
<event>
 5    1  0.1659417E-003  0.9118800E+02  0.7818608E-02  0.1130116E+00
         25   -1    0    0    0    0  0.00000000000E+00  0.00000000000E+00  0.99999998245E-14  0.12500000000E+03  0.12500000000E+03 0.  0.
        -11    1    3    3    0    0 -0.18313789688E+02  0.39016792072E+02  0.12116105726E+02  0.44771698365E+02  0.51100000000E-03 0.  1.
         23    2    1    0    0    0 -0.24990716068E+02 -0.11343519602E+02  0.10551658309E+02  0.95596788957E+02  0.90962614515E+02 0.  0.
         11    1    3    3    0    0 -0.66769263801E+01 -0.50360311673E+02 -0.15644474171E+01  0.50825090592E+02  0.51100000000E-03 0. -1.
         22    1    1    0    0    0  0.24990716068E+02  0.11343519602E+02 -0.10551658309E+02  0.29403211043E+02  0.00000000000E+00 0. -1.
</event>
<event>
 5    1  0.1659417E-003  0.9118800E+02  0.7818608E-02  0.1130116E+00
         25   -1    0    0    0    0  0.00000000000E+00  0.00000000000E+00  0.99999998245E-14  0.12500000000E+03  0.12500000000E+03 0.  0.
        -11    1    3    3    0    0  0.39321327509E+02  0.33821861585E+02  0.39498102918E+01  0.52016210163E+02  0.51100000000E-03 0.  1.
         23    2    1    0    0    0  0.35698726961E+02 -0.14987309523E+01 -0.57189853071E+01  0.88815029445E+02  0.81109539274E+02 0.  0.
         11    1    3    3    0    0 -0.36226005475E+01 -0.35320592538E+02 -0.96687955989E+01  0.36798819282E+02  0.51100000000E-03 0. -1.
         22    1    1    0    0    0 -0.35698726961E+02  0.14987309523E+01  0.57189853071E+01  0.36184970555E+02  0.00000000000E+00 0. -1.
</event>
<event>
 5    1  0.1659417E-003  0.9118800E+02  0.7818608E-02  0.1130116E+00
         25   -1    0    0    0    0  0.00000000000E+00  0.00000000000E+00  0.99999998245E-14  0.12500000000E+03  0.12500000000E+03 0.  0.
        -11    1    3    3    0    0 -0.10697424768E+02 -0.12871559284E+02  0.24878013466E+02  0.29983787108E+02  0.51100000000E-03 0. -1.
         23    2    1    0    0    0  0.19136908095E+02  0.30998566757E+02  0.24681707961E-01  0.88570163305E+02  0.80731287778E+02 0.  0.
         11    1    3    3    0    0  0.29834332863E+02  0.43870126041E+02 -0.24853331758E+02  0.58586376198E+02  0.51100000000E-03 0.  1.
         22    1    1    0    0    0 -0.19136908095E+02 -0.30998566757E+02 -0.24681707961E-01  0.36429836695E+02  0.00000000000E+00 0.  1.
</event>
<event>
 5    1  0.1659417E-003  0.9118800E+02  0.7818608E-02  0.1130116E+00
         25   -1    0    0    0    0  0.00000000000E+00  0.00000000000E+00  0.99999998245E-14  0.12500000000E+03  0.12500000000E+03 0.  0.
        -11    1    3    3    0    0 -0.33908350312E+02 -0.20439550299E+02 -0.46659274675E+02  0.61193458399E+02  0.51100000000E-03 0. -1.
         23    2    1    0    0    0 -0.21115290421E+02 -0.22165620365E+02 -0.32860952253E+02  0.80088838818E+02  0.66311459828E+02 0.  0.
         11    1    3    3    0    0  0.12793059891E+02 -0.17260700659E+01  0.13798322423E+02  0.18895380419E+02  0.51100000000E-03 0.  1.
         22    1    1    0    0    0  0.21115290421E+02  0.22165620365E+02  0.32860952253E+02  0.44911161182E+02  0.00000000000E+00 0. -1.
</event>
<event>
 5    1  0.1659417E-003  0.9118800E+02  0.7818608E-02  0.1130116E+00
         25   -1    0    0    0    0  0.00000000000E+00  0.00000000000E+00  0.99999998245E-14  0.12500000000E+03  0.12500000000E+03 0.  0.
        -11    1    3    3    0    0 -0.27255699737E+02 -0.48410091779E+02  0.19973431017E+02  0.59036836815E+02  0.51100000000E-03 0.  1.
         23    2    1    0    0    0 -0.24343524928E+02 -0.13534093869E+02  0.95994240876E+01  0.95539384840E+02  0.90883696063E+02 0.  0.
         11    1    3    3    0    0  0.29121748093E+01  0.34875997910E+02 -0.10374006929E+02  0.36502548026E+02  0.51100000000E-03 0. -1.
         22    1    1    0    0    0  0.24343524928E+02  0.13534093869E+02 -0.95994240876E+01  0.29460615160E+02  0.00000000000E+00 0.  1.
</event>
<event>
 5    1  0.1659417E-003  0.9118800E+02  0.7818608E-02  0.1130116E+00
         25   -1    0    0    0    0  0.00000000000E+00  0.00000000000E+00  0.99999998245E-14  0.12500000000E+03  0.12500000000E+03 0.  0.
        -11    1    3    3    0    0  0.42490923802E+02 -0.16627139286E+02  0.22833325958E+02  0.51022555218E+02  0.51100000000E-03 0.  1.
         23    2    1    0    0    0  0.25986641422E+00 -0.15669165262E+01  0.28713537455E+02  0.96242566332E+02  0.91845748857E+02 0.  0.
         11    1    3    3    0    0 -0.42231057388E+02  0.15060222760E+02  0.58802114972E+01  0.45220011114E+02  0.51100000000E-03 0. -1.
         22    1    1    0    0    0 -0.25986641422E+00  0.15669165262E+01 -0.28713537455E+02  0.28757433668E+02  0.00000000000E+00 0. -1.
</event>
<event>
 5    1  0.1659417E-003  0.9118800E+02  0.7818608E-02  0.1130116E+00
         25   -1    0    0    0    0  0.00000000000E+00  0.00000000000E+00  0.99999998245E-14  0.12500000000E+03  0.12500000000E+03 0.  0.
        -11    1    3    3    0    0  0.26356796447E+02  0.10257038859E+02  0.17325147082E+02  0.33166975846E+02  0.51100000000E-03 0.  1.
         23    2    1    0    0    0 -0.28102715569E+02  0.11230154463E+01 -0.10471574300E+02  0.94988707886E+02  0.90123121182E+02 0.  0.
         11    1    3    3    0    0 -0.54459512015E+02 -0.91340234124E+01 -0.27796721382E+02  0.61821732040E+02  0.51100000000E-03 0. -1.
         22    1    1    0    0    0  0.28102715569E+02 -0.11230154463E+01  0.10471574300E+02  0.30011292114E+02  0.00000000000E+00 0. -1.
</event>
<event>
 5    1  0.1659417E-003  0.9118800E+02  0.7818608E-02  0.1130116E+00
         25   -1    0    0    0    0  0.00000000000E+00  0.00000000000E+00  0.99999998245E-14  0.12500000000E+03  0.12500000000E+03 0.  0.
        -11    1    3    3    0    0  0.35382106707E+02 -0.32339561080E+02 -0.35135098849E+02  0.59432447848E+02  0.51100000000E-03 0.  1.
         23    2    1    0    0    0  0.94769784093E+01 -0.93662586329E+01 -0.26836945946E+02  0.95037330088E+02  0.90190534548E+02 0.  0.
         11    1    3    3    0    0 -0.25905128298E+02  0.22973302447E+02  0.82981529029E+01  0.35604882240E+02  0.51100000000E-03 0. -1.
         22    1    1    0    0    0 -0.94769784093E+01  0.93662586329E+01  0.26836945946E+02  0.29962669912E+02  0.00000000000E+00 0.  1.
</event>
<event>
 5    1  0.1659417E-003  0.9118800E+02  0.7818608E-02  0.1130116E+00
         25   -1    0    0    0    0  0.00000000000E+00  0.00000000000E+00  0.99999998245E-14  0.12500000000E+03  0.12500000000E+03 0.  0.
        -11    1    3    3    0    0  0.78015067687E+00 -0.65613276460E+01  0.34021049071E+02  0.34656766088E+02  0.51100000000E-03 0.  1.
         23    2    1    0    0    0 -0.67526574004E+01  0.20769072988E+02 -0.19821612017E+02  0.95506796076E+02  0.90838862934E+02 0.  0.
         11    1    3    3    0    0 -0.75328080773E+01  0.27330400634E+02 -0.53842661087E+02  0.60850029988E+02  0.51100000000E-03 0. -1.
         22    1    1    0    0    0  0.67526574004E+01 -0.20769072988E+02  0.19821612017E+02  0.29493203924E+02  0.00000000000E+00 0. -1.
</event>
<event>
 5    1  0.1659417E-003  0.9118800E+02  0.7818608E-02  0.1130116E+00
         25   -1    0    0    0    0  0.00000000000E+00  0.00000000000E+00  0.99999998245E-14  0.12500000000E+03  0.12500000000E+03 0.  0.
        -11    1    3    3    0    0  0.27708441272E+02 -0.29431163638E+02  0.31162392121E+02  0.51039649233E+02  0.51100000000E-03 0.  1.
         23    2    1    0    0    0  0.29216164890E+02 -0.12472077133E+01 -0.32851783938E+01  0.95573273796E+02  0.90930294452E+02 0.  0.
         11    1    3    3    0    0  0.15077236179E+01  0.28183955925E+02 -0.34447570515E+02  0.44533624563E+02  0.51100000000E-03 0. -1.
         22    1    1    0    0    0 -0.29216164890E+02  0.12472077133E+01  0.32851783938E+01  0.29426726204E+02  0.00000000000E+00 0.  1.
</event>
<event>
 5    1  0.1659417E-003  0.9118800E+02  0.7818608E-02  0.1130116E+00
         25   -1    0    0    0    0  0.00000000000E+00  0.00000000000E+00  0.99999998245E-14  0.12500000000E+03  0.12500000000E+03 0.  0.
        -11    1    3    3    0    0 -0.24248959773E+02  0.23457355624E+02  0.16948826979E+01  0.33780648463E+02  0.51100000000E-03 0. -1.
         23    2    1    0    0    0  0.19156216593E+02 -0.74272305915E+01 -0.24401463166E+02  0.93100849650E+02  0.87465492696E+02 0.  0.
         11    1    3    3    0    0  0.43405176366E+02 -0.30884586216E+02 -0.26096345864E+02  0.59320201187E+02  0.51100000000E-03 0.  1.
         22    1    1    0    0    0 -0.19156216593E+02  0.74272305915E+01  0.24401463166E+02  0.31899150350E+02  0.00000000000E+00 0.  1.
</event>
<event>
 5    1  0.1659417E-003  0.9118800E+02  0.7818608E-02  0.1130116E+00
         25   -1    0    0    0    0  0.00000000000E+00  0.00000000000E+00  0.99999998245E-14  0.12500000000E+03  0.12500000000E+03 0.  0.
        -11    1    3    3    0    0 -0.26819531044E+01  0.36782678415E+02 -0.21458568329E+02  0.42668823030E+02  0.51100000000E-03 0. -1.
         23    2    1    0    0    0 -0.26926088708E+02 -0.80289942765E+01 -0.11796270020E+02  0.94526552728E+02  0.89479819971E+02 0.  0.
         11    1    3    3    0    0 -0.24244135604E+02 -0.44811672691E+02  0.96622983089E+01  0.51857729698E+02  0.51100000000E-03 0.  1.
         22    1    1    0    0    0  0.26926088708E+02  0.80289942765E+01  0.11796270020E+02  0.30473447272E+02  0.00000000000E+00 0. -1.
</event>
<event>
 5    1  0.1659417E-003  0.9118800E+02  0.7818608E-02  0.1130116E+00
         25   -1    0    0    0    0  0.00000000000E+00  0.00000000000E+00  0.99999998245E-14  0.12500000000E+03  0.12500000000E+03 0.  0.
        -11    1    3    3    0    0 -0.82265795741E+01 -0.44219768445E+02 -0.16577981365E+02  0.47936353628E+02  0.51100000000E-03 0. -1.
         23    2    1    0    0    0 -0.88498324795E+01 -0.15079424102E+02  0.22385535187E+02  0.96595409670E+02  0.92324711847E+02 0.  0.
         11    1    3    3    0    0 -0.62325290540E+00  0.29140344342E+02  0.38963516552E+02  0.48659056042E+02  0.51100000000E-03 0.  1.
         22    1    1    0    0    0  0.88498324795E+01  0.15079424102E+02 -0.22385535187E+02  0.28404590330E+02  0.00000000000E+00 0. -1.
</event>
<event>
 5    1  0.1659417E-003  0.9118800E+02  0.7818608E-02  0.1130116E+00
         25   -1    0    0    0    0  0.00000000000E+00  0.00000000000E+00  0.99999998245E-14  0.12500000000E+03  0.12500000000E+03 0.  0.
        -11    1    3    3    0    0 -0.61689380428E+01 -0.54599958659E+01 -0.49791212053E+02  0.50468130037E+02  0.51100000000E-03 0.  1.
         23    2    1    0    0    0  0.24243793468E+02 -0.51822709773E+01 -0.18834067867E+02  0.93865781419E+02  0.88551935918E+02 0.  0.
         11    1    3    3    0    0  0.30412731511E+02  0.27772488864E+00  0.30957144186E+02  0.43397651382E+02  0.51100000000E-03 0. -1.
         22    1    1    0    0    0 -0.24243793468E+02  0.51822709773E+01  0.18834067867E+02  0.31134218581E+02  0.00000000000E+00 0. -1.
</event>
<event>
 5    1  0.1659417E-003  0.9118800E+02  0.7818608E-02  0.1130116E+00
         25   -1    0    0    0    0  0.00000000000E+00  0.00000000000E+00  0.99999998245E-14  0.12500000000E+03  0.12500000000E+03 0.  0.
        -11    1    3    3    0    0 -0.42325748628E+01  0.35398809855E+02 -0.44486888883E+02  0.57009417747E+02  0.51100000000E-03 0.  1.
         23    2    1    0    0    0  0.14964820521E+02  0.19493997822E+02 -0.12914704564E+02  0.97237590192E+02  0.93190115077E+02 0.  0.
         11    1    3    3    0    0  0.19197395384E+02 -0.15904812033E+02  0.31572184319E+02  0.40228172445E+02  0.51100000000E-03 0. -1.
         22    1    1    0    0    0 -0.14964820521E+02 -0.19493997822E+02  0.12914704564E+02  0.27762409808E+02  0.00000000000E+00 0.  1.
</event>
<event>
 5    1  0.1659417E-003  0.9118800E+02  0.7818608E-02  0.1130116E+00
         25   -1    0    0    0    0  0.00000000000E+00  0.00000000000E+00  0.99999998245E-14  0.12500000000E+03  0.12500000000E+03 0.  0.
        -11    1    3    3    0    0 -0.40816489261E+02  0.40273217168E+02  0.24207680452E+02  0.62240899815E+02  0.51100000000E-03 0. -1.
         23    2    1    0    0    0 -0.18171347416E+02  0.15993196089E+02  0.14281082075E+02  0.96894315641E+02  0.92728522635E+02 0.  0.
         11    1    3    3    0    0  0.22645141845E+02 -0.24280021079E+02 -0.99265983763E+01  0.34653415825E+02  0.51100000000E-03 0.  1.
         22    1    1    0    0    0  0.18171347416E+02 -0.15993196089E+02 -0.14281082075E+02  0.28105684359E+02  0.00000000000E+00 0. -1.
</event>
<event>
 5    1  0.1659417E-003  0.9118800E+02  0.7818608E-02  0.1130116E+00
         25   -1    0    0    0    0  0.00000000000E+00  0.00000000000E+00  0.99999998245E-14  0.12500000000E+03  0.12500000000E+03 0.  0.
        -11    1    3    3    0    0  0.22548104909E+02  0.18829917752E+02  0.20864720349E+02  0.36032199392E+02  0.51100000000E-03 0.  1.
         23    2    1    0    0    0 -0.90438605572E+01 -0.23831358771E+02 -0.10207396538E+02  0.97542468816E+02  0.93598168807E+02 0.  0.
         11    1    3    3    0    0 -0.31591965466E+02 -0.42661276523E+02 -0.31072116886E+02  0.61510269424E+02  0.51100000000E-03 0. -1.
         22    1    1    0    0    0  0.90438605572E+01  0.23831358771E+02  0.10207396538E+02  0.27457531184E+02  0.00000000000E+00 0. -1.
</event>
<event>
 5    1  0.1659417E-003  0.9118800E+02  0.7818608E-02  0.1130116E+00
         25   -1    0    0    0    0  0.00000000000E+00  0.00000000000E+00  0.99999998245E-14  0.12500000000E+03  0.12500000000E+03 0.  0.
        -11    1    3    3    0    0 -0.15993484912E+02  0.19617879572E+02 -0.46035365086E+02  0.52534822712E+02  0.51100000000E-03 0.  1.
         23    2    1    0    0    0  0.12264394836E+02  0.24002032375E+02 -0.17950477167E+02  0.92615859293E+02  0.86769607716E+02 0.  0.
         11    1    3    3    0    0  0.28257879748E+02  0.43841528027E+01  0.28084887919E+02  0.40081036580E+02  0.51100000000E-03 0. -1.
         22    1    1    0    0    0 -0.12264394836E+02 -0.24002032375E+02  0.17950477167E+02  0.32384140707E+02  0.00000000000E+00 0.  1.
</event>
<event>
 5    1  0.1659417E-003  0.9118800E+02  0.7818608E-02  0.1130116E+00
         25   -1    0    0    0    0  0.00000000000E+00  0.00000000000E+00  0.99999998245E-14  0.12500000000E+03  0.12500000000E+03 0.  0.
        -11    1    3    3    0    0 -0.29733006917E+02 -0.12813637882E+02 -0.12322957204E+02  0.34642405959E+02  0.51100000000E-03 0.  1.
         23    2    1    0    0    0  0.11451635150E+02  0.19984418102E+02  0.18329214509E+02  0.95564018294E+02  0.90917570213E+02 0.  0.
         11    1    3    3    0    0  0.41184642067E+02  0.32798055983E+02  0.30652171713E+02  0.60921612335E+02  0.51100000000E-03 0. -1.
         22    1    1    0    0    0 -0.11451635150E+02 -0.19984418102E+02 -0.18329214509E+02  0.29435981706E+02  0.00000000000E+00 0. -1.
</event>
<event>
 5    1  0.1659417E-003  0.9118800E+02  0.7818608E-02  0.1130116E+00
         25   -1    0    0    0    0  0.00000000000E+00  0.00000000000E+00  0.99999998245E-14  0.12500000000E+03  0.12500000000E+03 0.  0.
        -11    1    3    3    0    0  0.11739995631E+01  0.13964582868E+02 -0.37811207620E+02  0.40324623639E+02  0.51100000000E-03 0.  1.
         23    2    1    0    0    0  0.67558218169E+01 -0.28401209027E+02 -0.26071617275E+01  0.95690153619E+02  0.91090825031E+02 0.  0.
         11    1    3    3    0    0  0.55818222538E+01 -0.42365791895E+02  0.35204045893E+02  0.55365529980E+02  0.51100000000E-03 0. -1.
         22    1    1    0    0    0 -0.67558218169E+01  0.28401209027E+02  0.26071617275E+01  0.29309846381E+02  0.00000000000E+00 0. -1.
</event>
<event>
 5    1  0.1659417E-003  0.9118800E+02  0.7818608E-02  0.1130116E+00
         25   -1    0    0    0    0  0.00000000000E+00  0.00000000000E+00  0.99999998245E-14  0.12500000000E+03  0.12500000000E+03 0.  0.
        -11    1    3    3    0    0 -0.22447601413E+01 -0.14412600154E+02  0.35197308492E+02  0.38100033027E+02  0.51100000000E-03 0.  1.
         23    2    1    0    0    0 -0.23166974640E+02 -0.75022037399E+00 -0.17190421928E+02  0.96142034884E+02  0.91708825753E+02 0.  0.
         11    1    3    3    0    0 -0.20922214499E+02  0.13662379780E+02 -0.52387730420E+02  0.58042001857E+02  0.51100000000E-03 0. -1.
         22    1    1    0    0    0  0.23166974640E+02  0.75022037399E+00  0.17190421928E+02  0.28857965116E+02  0.00000000000E+00 0. -1.
</event>
<event>
 5    1  0.1659417E-003  0.9118800E+02  0.7818608E-02  0.1130116E+00
         25   -1    0    0    0    0  0.00000000000E+00  0.00000000000E+00  0.99999998245E-14  0.12500000000E+03  0.12500000000E+03 0.  0.
        -11    1    3    3    0    0  0.33068840975E+02  0.14212985126E+02  0.11021704356E+02  0.37643527422E+02  0.51100000000E-03 0.  1.
         23    2    1    0    0    0 -0.76575280389E+01 -0.26342012858E+02  0.11833689762E+02  0.95123996411E+02  0.90310570271E+02 0.  0.
         11    1    3    3    0    0 -0.40726369014E+02 -0.40554997985E+02  0.81198540634E+00  0.57480468988E+02  0.51100000000E-03 0. -1.
         22    1    1    0    0    0  0.76575280389E+01  0.26342012858E+02 -0.11833689762E+02  0.29876003589E+02  0.00000000000E+00 0. -1.
</event>
<event>
 5    1  0.1659417E-003  0.9118800E+02  0.7818608E-02  0.1130116E+00
         25   -1    0    0    0    0  0.00000000000E+00  0.00000000000E+00  0.99999998245E-14  0.12500000000E+03  0.12500000000E+03 0.  0.
        -11    1    3    3    0    0 -0.45940317091E+02  0.13393995428E+02  0.31557107754E+01  0.47956963610E+02  0.51100000000E-03 0.  1.
         23    2    1    0    0    0 -0.78468200080E+01  0.10014947519E+02 -0.26005082681E+02  0.96049419983E+02  0.91582503765E+02 0.  0.
         11    1    3    3    0    0  0.38093497083E+02 -0.33790479094E+01 -0.29160793457E+02  0.48092456373E+02  0.51100000000E-03 0. -1.
         22    1    1    0    0    0  0.78468200080E+01 -0.10014947519E+02  0.26005082681E+02  0.28950580017E+02  0.00000000000E+00 0. -1.
</event>
<event>
 5    1  0.1659417E-003  0.9118800E+02  0.7818608E-02  0.1130116E+00
         25   -1    0    0    0    0  0.00000000000E+00  0.00000000000E+00  0.99999998245E-14  0.12500000000E+03  0.12500000000E+03 0.  0.
        -11    1    3    3    0    0 -0.59355810150E+02  0.55463931444E+01 -0.37686931619E+00  0.59615574359E+02  0.51100000000E-03 0.  1.
         23    2    1    0    0    0 -0.25657776081E+02 -0.52984900575E+01  0.10687932361E+02  0.96704640513E+02  0.92472483087E+02 0.  0.
         11    1    3    3    0    0  0.33698034069E+02 -0.10844883202E+02  0.11064801678E+02  0.37089066154E+02  0.51100000000E-03 0. -1.
         22    1    1    0    0    0  0.25657776081E+02  0.52984900575E+01 -0.10687932361E+02  0.28295359487E+02  0.00000000000E+00 0.  1.
</event>
<event>
 5    1  0.1659417E-003  0.9118800E+02  0.7818608E-02  0.1130116E+00
         25   -1    0    0    0    0  0.00000000000E+00  0.00000000000E+00  0.99999998245E-14  0.12500000000E+03  0.12500000000E+03 0.  0.
        -11    1    3    3    0    0  0.24381134664E+02  0.20535960484E+02 -0.98493505467E+01  0.33364278907E+02  0.51100000000E-03 0.  1.
         23    2    1    0    0    0 -0.27253729043E+02 -0.12010356754E+02  0.16595343803E+00  0.95216750401E+02  0.90438861118E+02 0.  0.
         11    1    3    3    0    0 -0.51634863707E+02 -0.32546317238E+02  0.10015303985E+02  0.61852471495E+02  0.51100000000E-03 0. -1.
         22    1    1    0    0    0  0.27253729043E+02  0.12010356754E+02 -0.16595343803E+00  0.29783249599E+02  0.00000000000E+00 0. -1.
</event>
<event>
 5    1  0.1659417E-003  0.9118800E+02  0.7818608E-02  0.1130116E+00
         25   -1    0    0    0    0  0.00000000000E+00  0.00000000000E+00  0.99999998245E-14  0.12500000000E+03  0.12500000000E+03 0.  0.
        -11    1    3    3    0    0  0.10844730667E+01 -0.27964814853E+02  0.35703759893E+02  0.45364803784E+02  0.51100000000E-03 0.  1.
         23    2    1    0    0    0 -0.21380753048E+02 -0.17964558231E+02 -0.83804742757E+01  0.95843623297E+02  0.91301181944E+02 0.  0.
         11    1    3    3    0    0 -0.22465226115E+02  0.10000256622E+02 -0.44084234169E+02  0.50478819513E+02  0.51100000000E-03 0. -1.
         22    1    1    0    0    0  0.21380753048E+02  0.17964558231E+02  0.83804742757E+01  0.29156376703E+02  0.00000000000E+00 0.  1.
</event>
<event>
 5    1  0.1659417E-003  0.9118800E+02  0.7818608E-02  0.1130116E+00
         25   -1    0    0    0    0  0.00000000000E+00  0.00000000000E+00  0.99999998245E-14  0.12500000000E+03  0.12500000000E+03 0.  0.
        -11    1    3    3    0    0 -0.39159235791E+02  0.22089678191E+01  0.12946286095E+02  0.41302924963E+02  0.51100000000E-03 0.  1.
         23    2    1    0    0    0 -0.34641549019E+01  0.49032182171E+01 -0.28388599284E+02  0.95983547988E+02  0.91492551593E+02 0.  0.
         11    1    3    3    0    0  0.35695080889E+02  0.26942503980E+01 -0.41334885379E+02  0.54680623025E+02  0.51100000000E-03 0. -1.
         22    1    1    0    0    0  0.34641549019E+01 -0.49032182171E+01  0.28388599284E+02  0.29016452012E+02  0.00000000000E+00 0. -1.
</event>
<event>
 5    1  0.1659417E-003  0.9118800E+02  0.7818608E-02  0.1130116E+00
         25   -1    0    0    0    0  0.00000000000E+00  0.00000000000E+00  0.99999998245E-14  0.12500000000E+03  0.12500000000E+03 0.  0.
        -11    1    3    3    0    0  0.37700590252E+02  0.28782104869E+02  0.19578097334E+02  0.51313214297E+02  0.51100000000E-03 0.  1.
         23    2    1    0    0    0 -0.10194729834E+02  0.19843666745E+02  0.66223526738E+01  0.10172857587E+03  0.99031025272E+02 0.  0.
         11    1    3    3    0    0 -0.47895320086E+02 -0.89384381235E+01 -0.12955744660E+02  0.50415361569E+02  0.51100000000E-03 0. -1.
         22    1    1    0    0    0  0.10194729834E+02 -0.19843666745E+02 -0.66223526738E+01  0.23271424134E+02  0.00000000000E+00 0. -1.
</event>
<event>
 5    1  0.1659417E-003  0.9118800E+02  0.7818608E-02  0.1130116E+00
         25   -1    0    0    0    0  0.00000000000E+00  0.00000000000E+00  0.99999998245E-14  0.12500000000E+03  0.12500000000E+03 0.  0.
        -11    1    3    3    0    0  0.21852307110E+02  0.12817359798E+02 -0.23649865291E+02  0.34657238302E+02  0.51100000000E-03 0.  1.
         23    2    1    0    0    0 -0.13739875799E+02 -0.47243885375E+01  0.24171732541E+02  0.96797576557E+02  0.92598024489E+02 0.  0.
         11    1    3    3    0    0 -0.35592182909E+02 -0.17541748335E+02  0.47821597832E+02  0.62140338254E+02  0.51100000000E-03 0. -1.
         22    1    1    0    0    0  0.13739875799E+02  0.47243885375E+01 -0.24171732541E+02  0.28202423443E+02  0.00000000000E+00 0. -1.
</event>
<event>
 5    1  0.1659417E-003  0.9118800E+02  0.7818608E-02  0.1130116E+00
         25   -1    0    0    0    0  0.00000000000E+00  0.00000000000E+00  0.99999998245E-14  0.12500000000E+03  0.12500000000E+03 0.  0.
        -11    1    3    3    0    0 -0.30086397599E+01 -0.33464544373E+02  0.27581470290E+02  0.43470278892E+02  0.51100000000E-03 0.  1.
         23    2    1    0    0    0 -0.52373172406E+01 -0.18056676588E+02 -0.22362455572E+02  0.95784379512E+02  0.91220035508E+02 0.  0.
         11    1    3    3    0    0 -0.22286774807E+01  0.15407867785E+02 -0.49943925862E+02  0.52314100621E+02  0.51100000000E-03 0. -1.
         22    1    1    0    0    0  0.52373172406E+01  0.18056676588E+02  0.22362455572E+02  0.29215620488E+02  0.00000000000E+00 0. -1.
</event>
<event>
 5    1  0.1659417E-003  0.9118800E+02  0.7818608E-02  0.1130116E+00
         25   -1    0    0    0    0  0.00000000000E+00  0.00000000000E+00  0.99999998245E-14  0.12500000000E+03  0.12500000000E+03 0.  0.
        -11    1    3    3    0    0 -0.18928542638E+02  0.54072021551E+01  0.22842169571E+02  0.30154473507E+02  0.51100000000E-03 0. -1.
         23    2    1    0    0    0  0.39123880198E+01 -0.33938066381E+02 -0.13382725316E+02  0.88309449901E+02  0.80326598803E+02 0.  0.
         11    1    3    3    0    0  0.22840930658E+02 -0.39345268536E+02 -0.36224894887E+02  0.58154976393E+02  0.51100000000E-03 0.  1.
         22    1    1    0    0    0 -0.39123880198E+01  0.33938066381E+02  0.13382725316E+02  0.36690550099E+02  0.00000000000E+00 0.  1.
</event>
<event>
 5    1  0.1659417E-003  0.9118800E+02  0.7818608E-02  0.1130116E+00
         25   -1    0    0    0    0  0.00000000000E+00  0.00000000000E+00  0.99999998245E-14  0.12500000000E+03  0.12500000000E+03 0.  0.
        -11    1    3    3    0    0  0.30810980384E+02  0.39929923847E+02  0.71582688300E+01  0.50940712044E+02  0.51100000000E-03 0. -1.
         23    2    1    0    0    0  0.50596831489E+01  0.65914617192E+01  0.26451223461E+02  0.97274290203E+02  0.93239329420E+02 0.  0.
         11    1    3    3    0    0 -0.25751297235E+02 -0.33338462128E+02  0.19292954631E+02  0.46333578159E+02  0.51100000000E-03 0.  1.
         22    1    1    0    0    0 -0.50596831489E+01 -0.65914617192E+01 -0.26451223461E+02  0.27725709797E+02  0.00000000000E+00 0.  1.
</event>
<event>
 5    1  0.1659417E-003  0.9118800E+02  0.7818608E-02  0.1130116E+00
         25   -1    0    0    0    0  0.00000000000E+00  0.00000000000E+00  0.99999998245E-14  0.12500000000E+03  0.12500000000E+03 0.  0.
        -11    1    3    3    0    0  0.30106299273E+02  0.49010118303E+02 -0.88427597237E+01  0.58194289684E+02  0.51100000000E-03 0. -1.
         23    2    1    0    0    0  0.59097538878E+01  0.21360975633E+02 -0.18439892838E+02  0.96168660821E+02  0.91745109980E+02 0.  0.
         11    1    3    3    0    0 -0.24196545385E+02 -0.27649142670E+02 -0.95971331142E+01  0.37974371137E+02  0.51100000000E-03 0.  1.
         22    1    1    0    0    0 -0.59097538878E+01 -0.21360975633E+02  0.18439892838E+02  0.28831339179E+02  0.00000000000E+00 0. -1.
</event>
<event>
 5    1  0.1659417E-003  0.9118800E+02  0.7818608E-02  0.1130116E+00
         25   -1    0    0    0    0  0.00000000000E+00  0.00000000000E+00  0.99999998245E-14  0.12500000000E+03  0.12500000000E+03 0.  0.
        -11    1    3    3    0    0 -0.30937437787E+02  0.31024202962E+02 -0.43888264856E+02  0.62014562956E+02  0.51100000000E-03 0.  1.
         23    2    1    0    0    0 -0.12821462672E+02  0.18153732004E+02 -0.16307288303E+02  0.97434159862E+02  0.93453410668E+02 0.  0.
         11    1    3    3    0    0  0.18115975115E+02 -0.12870470958E+02  0.27580976554E+02  0.35419596906E+02  0.51100000000E-03 0. -1.
         22    1    1    0    0    0  0.12821462672E+02 -0.18153732004E+02  0.16307288303E+02  0.27565840138E+02  0.00000000000E+00 0.  1.
</event>
<event>
 5    1  0.1659417E-003  0.9118800E+02  0.7818608E-02  0.1130116E+00
         25   -1    0    0    0    0  0.00000000000E+00  0.00000000000E+00  0.99999998245E-14  0.12500000000E+03  0.12500000000E+03 0.  0.
        -11    1    3    3    0    0  0.10810953083E+02  0.38509912703E+02  0.25461085667E+02  0.47414733644E+02  0.51100000000E-03 0.  1.
         23    2    1    0    0    0 -0.19048626058E+02  0.16092503509E+01  0.23202390530E+02  0.94936886926E+02  0.90051217268E+02 0.  0.
         11    1    3    3    0    0 -0.29859579142E+02 -0.36900662352E+02 -0.22586951376E+01  0.47522153281E+02  0.51100000000E-03 0. -1.
         22    1    1    0    0    0  0.19048626058E+02 -0.16092503509E+01 -0.23202390530E+02  0.30063113074E+02  0.00000000000E+00 0. -1.
</event>
<event>
 5    1  0.1659417E-003  0.9118800E+02  0.7818608E-02  0.1130116E+00
         25   -1    0    0    0    0  0.00000000000E+00  0.00000000000E+00  0.99999998245E-14  0.12500000000E+03  0.12500000000E+03 0.  0.
        -11    1    3    3    0    0  0.16887894280E+02  0.49547113228E+02 -0.32204325963E+02  0.61459222362E+02  0.51100000000E-03 0.  1.
         23    2    1    0    0    0  0.13636876304E+02  0.23892432206E+02 -0.94284738969E+01  0.95918926566E+02  0.91404221136E+02 0.  0.
         11    1    3    3    0    0 -0.32510179757E+01 -0.25654681022E+02  0.22775852066E+02  0.34459704204E+02  0.51100000000E-03 0. -1.
         22    1    1    0    0    0 -0.13636876304E+02 -0.23892432206E+02  0.94284738969E+01  0.29081073434E+02  0.00000000000E+00 0.  1.
</event>
<event>
 5    1  0.1659417E-003  0.9118800E+02  0.7818608E-02  0.1130116E+00
         25   -1    0    0    0    0  0.00000000000E+00  0.00000000000E+00  0.99999998245E-14  0.12500000000E+03  0.12500000000E+03 0.  0.
        -11    1    3    3    0    0  0.49022467358E+02 -0.74069860764E+01 -0.11386121914E+02  0.50869534312E+02  0.51100000000E-03 0.  1.
         23    2    1    0    0    0  0.10432866215E+02 -0.27729596731E+02 -0.40135045552E+01  0.95102116277E+02  0.90280280622E+02 0.  0.
         11    1    3    3    0    0 -0.38589601144E+02 -0.20322610655E+02  0.73726173586E+01  0.44232581964E+02  0.51100000000E-03 0. -1.
         22    1    1    0    0    0 -0.10432866215E+02  0.27729596731E+02  0.40135045552E+01  0.29897883723E+02  0.00000000000E+00 0.  1.
</event>
<event>
 5    1  0.1659417E-003  0.9118800E+02  0.7818608E-02  0.1130116E+00
         25   -1    0    0    0    0  0.00000000000E+00  0.00000000000E+00  0.99999998245E-14  0.12500000000E+03  0.12500000000E+03 0.  0.
        -11    1    3    3    0    0 -0.24939373825E+02 -0.11634001449E+02  0.43175292909E+02  0.51199885494E+02  0.51100000000E-03 0.  1.
         23    2    1    0    0    0  0.85711464549E+01 -0.21217627627E+02  0.78958384813E+01  0.10079263461E+03  0.97842519659E+02 0.  0.
         11    1    3    3    0    0  0.33510520280E+02 -0.95836261779E+01 -0.35279454428E+02  0.49592749119E+02  0.51100000000E-03 0. -1.
         22    1    1    0    0    0 -0.85711464549E+01  0.21217627627E+02 -0.78958384813E+01  0.24207365387E+02  0.00000000000E+00 0. -1.
</event>
<event>
 5    1  0.1659417E-003  0.9118800E+02  0.7818608E-02  0.1130116E+00
         25   -1    0    0    0    0  0.00000000000E+00  0.00000000000E+00  0.99999998245E-14  0.12500000000E+03  0.12500000000E+03 0.  0.
        -11    1    3    3    0    0  0.30795603275E+02  0.38635730462E+01  0.25871628972E+02  0.40405910009E+02  0.51100000000E-03 0. -1.
         23    2    1    0    0    0 -0.34176942069E+01 -0.17779918026E+02 -0.17558370101E+02  0.99778927872E+02  0.96538758890E+02 0.  0.
         11    1    3    3    0    0 -0.34213297482E+02 -0.21643491072E+02 -0.43429999073E+02  0.59373017862E+02  0.51100000000E-03 0.  1.
         22    1    1    0    0    0  0.34176942069E+01  0.17779918026E+02  0.17558370101E+02  0.25221072128E+02  0.00000000000E+00 0.  1.
</event>
<event>
 5    1  0.1659417E-003  0.9118800E+02  0.7818608E-02  0.1130116E+00
         25   -1    0    0    0    0  0.00000000000E+00  0.00000000000E+00  0.99999998245E-14  0.12500000000E+03  0.12500000000E+03 0.  0.
        -11    1    3    3    0    0  0.15890353893E+02 -0.13776091151E+02  0.43742857392E+02  0.48535776571E+02  0.51100000000E-03 0. -1.
         23    2    1    0    0    0 -0.21043535721E+02 -0.26888416456E+01  0.27221620663E+02  0.90488018072E+02  0.83648099309E+02 0.  0.
         11    1    3    3    0    0 -0.36933889615E+02  0.11087249505E+02 -0.16521236729E+02  0.41952241501E+02  0.51100000000E-03 0.  1.
         22    1    1    0    0    0  0.21043535721E+02  0.26888416456E+01 -0.27221620663E+02  0.34511981928E+02  0.00000000000E+00 0.  1.
</event>
<event>
 5    1  0.1659417E-003  0.9118800E+02  0.7818608E-02  0.1130116E+00
         25   -1    0    0    0    0  0.00000000000E+00  0.00000000000E+00  0.99999998245E-14  0.12500000000E+03  0.12500000000E+03 0.  0.
        -11    1    3    3    0    0  0.30235927440E+02 -0.35839804641E+02  0.49907610571E+01  0.47155175761E+02  0.51100000000E-03 0.  1.
         23    2    1    0    0    0  0.19910744872E+02  0.11998603205E+02 -0.11844458485E+02  0.98909859391E+02  0.95406838579E+02 0.  0.
         11    1    3    3    0    0 -0.10325182568E+02  0.47838407846E+02 -0.16835219542E+02  0.51754683630E+02  0.51100000000E-03 0. -1.
         22    1    1    0    0    0 -0.19910744872E+02 -0.11998603205E+02  0.11844458485E+02  0.26090140609E+02  0.00000000000E+00 0. -1.
</event>
<event>
 5    1  0.1659417E-003  0.9118800E+02  0.7818608E-02  0.1130116E+00
         25   -1    0    0    0    0  0.00000000000E+00  0.00000000000E+00  0.99999998245E-14  0.12500000000E+03  0.12500000000E+03 0.  0.
        -11    1    3    3    0    0  0.22824785927E+02 -0.32512467576E+02  0.11200581462E+02  0.41273289496E+02  0.51100000000E-03 0. -1.
         23    2    1    0    0    0  0.22100683998E+02  0.93085819557E+01 -0.20255881887E+02  0.93609066878E+02  0.88188812893E+02 0.  0.
         11    1    3    3    0    0 -0.72410192812E+00  0.41821049532E+02 -0.31456463349E+02  0.52335777382E+02  0.51100000000E-03 0.  1.
         22    1    1    0    0    0 -0.22100683998E+02 -0.93085819557E+01  0.20255881887E+02  0.31390933122E+02  0.00000000000E+00 0.  1.
</event>
<event>
 5    1  0.1659417E-003  0.9118800E+02  0.7818608E-02  0.1130116E+00
         25   -1    0    0    0    0  0.00000000000E+00  0.00000000000E+00  0.99999998245E-14  0.12500000000E+03  0.12500000000E+03 0.  0.
        -11    1    3    3    0    0  0.56095927026E+02 -0.23098209529E+00 -0.24773372019E+02  0.61323130571E+02  0.51100000000E-03 0. -1.
         23    2    1    0    0    0  0.22615822549E+02 -0.23893745888E+01 -0.18999904103E+02  0.95365882898E+02  0.90644750121E+02 0.  0.
         11    1    3    3    0    0 -0.33480104477E+02 -0.21583924935E+01  0.57734679156E+01  0.34042752327E+02  0.51100000000E-03 0.  1.
         22    1    1    0    0    0 -0.22615822549E+02  0.23893745888E+01  0.18999904103E+02  0.29634117102E+02  0.00000000000E+00 0. -1.
</event>
<event>
 5    1  0.1659417E-003  0.9118800E+02  0.7818608E-02  0.1130116E+00
         25   -1    0    0    0    0  0.00000000000E+00  0.00000000000E+00  0.99999998245E-14  0.12500000000E+03  0.12500000000E+03 0.  0.
        -11    1    3    3    0    0  0.11181817144E+01 -0.14664930615E+01  0.47584834350E+02  0.47620556408E+02  0.51100000000E-03 0.  1.
         23    2    1    0    0    0 -0.10669468050E+02  0.19869820061E+02 -0.14710157963E+01  0.10239886761E+03  0.99873504510E+02 0.  0.
         11    1    3    3    0    0 -0.11787649764E+02  0.21336313123E+02 -0.49055850146E+02  0.54778311205E+02  0.51100000000E-03 0. -1.
         22    1    1    0    0    0  0.10669468050E+02 -0.19869820061E+02  0.14710157963E+01  0.22601132388E+02  0.00000000000E+00 0. -1.
</event>
<event>
 5    1  0.1659417E-003  0.9118800E+02  0.7818608E-02  0.1130116E+00
         25   -1    0    0    0    0  0.00000000000E+00  0.00000000000E+00  0.99999998245E-14  0.12500000000E+03  0.12500000000E+03 0.  0.
        -11    1    3    3    0    0 -0.43976312067E+01 -0.12153029941E+02 -0.32197194865E+02  0.34694302910E+02  0.51100000000E-03 0. -1.
         23    2    1    0    0    0  0.93053944609E+01  0.28830550411E+02  0.79499291790E+01  0.93679202165E+02  0.88288167618E+02 0.  0.
         11    1    3    3    0    0  0.13703025668E+02  0.40983580351E+02  0.40147124044E+02  0.58984899255E+02  0.51100000000E-03 0.  1.
         22    1    1    0    0    0 -0.93053944609E+01 -0.28830550411E+02 -0.79499291790E+01  0.31320797835E+02  0.00000000000E+00 0.  1.
</event>
<event>
 5    1  0.1659417E-003  0.9118800E+02  0.7818608E-02  0.1130116E+00
         25   -1    0    0    0    0  0.00000000000E+00  0.00000000000E+00  0.99999998245E-14  0.12500000000E+03  0.12500000000E+03 0.  0.
        -11    1    3    3    0    0  0.91461931798E+01  0.40013447051E+02 -0.23013789537E+02  0.47057021832E+02  0.51100000000E-03 0. -1.
         23    2    1    0    0    0  0.24189842512E+02 -0.67211199065E+01 -0.47000452027E+01  0.99457636005E+02  0.96121844558E+02 0.  0.
         11    1    3    3    0    0  0.15043649332E+02 -0.46734566957E+02  0.18313744335E+02  0.52400614173E+02  0.51100000000E-03 0.  1.
         22    1    1    0    0    0 -0.24189842512E+02  0.67211199065E+01  0.47000452027E+01  0.25542363995E+02  0.00000000000E+00 0.  1.
</event>
<event>
 5    1  0.1659417E-003  0.9118800E+02  0.7818608E-02  0.1130116E+00
         25   -1    0    0    0    0  0.00000000000E+00  0.00000000000E+00  0.99999998245E-14  0.12500000000E+03  0.12500000000E+03 0.  0.
        -11    1    3    3    0    0  0.46916785425E+02  0.29959186157E+01  0.28783044978E+02  0.55123715055E+02  0.51100000000E-03 0. -1.
         23    2    1    0    0    0  0.32997629405E+02 -0.65476061787E+01 -0.31190119360E+01  0.91214752798E+02  0.84727139687E+02 0.  0.
         11    1    3    3    0    0 -0.13919156020E+02 -0.95435247944E+01 -0.31902056914E+02  0.36091037744E+02  0.51100000000E-03 0.  1.
         22    1    1    0    0    0 -0.32997629405E+02  0.65476061787E+01  0.31190119360E+01  0.33785247202E+02  0.00000000000E+00 0. -1.
</event>
<event>
 5    1  0.1659417E-003  0.9118800E+02  0.7818608E-02  0.1130116E+00
         25   -1    0    0    0    0  0.00000000000E+00  0.00000000000E+00  0.99999998245E-14  0.12500000000E+03  0.12500000000E+03 0.  0.
        -11    1    3    3    0    0  0.29356004036E+02 -0.21388092193E+02  0.10715610739E+02  0.37868849657E+02  0.51100000000E-03 0. -1.
         23    2    1    0    0    0 -0.27898589223E+01  0.27264852138E+02 -0.18843367592E+01  0.97528083431E+02  0.93578955208E+02 0.  0.
         11    1    3    3    0    0 -0.32145862958E+02  0.48652944331E+02 -0.12599947498E+02  0.59659233775E+02  0.51100000000E-03 0.  1.
         22    1    1    0    0    0  0.27898589223E+01 -0.27264852138E+02  0.18843367592E+01  0.27471916569E+02  0.00000000000E+00 0.  1.
</event>
<event>
 5    1  0.1659417E-003  0.9118800E+02  0.7818608E-02  0.1130116E+00
         25   -1    0    0    0    0  0.00000000000E+00  0.00000000000E+00  0.99999998245E-14  0.12500000000E+03  0.12500000000E+03 0.  0.
        -11    1    3    3    0    0 -0.46721317399E+02 -0.87211102693E+01 -0.24802353379E+02  0.53610595942E+02  0.51100000000E-03 0. -1.
         23    2    1    0    0    0 -0.51624578074E+01 -0.57947856161E+00 -0.28415727751E+02  0.96113318820E+02  0.91669677129E+02 0.  0.
         11    1    3    3    0    0  0.41558859592E+02  0.81416317077E+01 -0.36133743717E+01  0.42502722878E+02  0.51100000000E-03 0.  1.
         22    1    1    0    0    0  0.51624578074E+01  0.57947856161E+00  0.28415727751E+02  0.28886681180E+02  0.00000000000E+00 0. -1.
</event>
<event>
 5    1  0.1659417E-003  0.9118800E+02  0.7818608E-02  0.1130116E+00
         25   -1    0    0    0    0  0.00000000000E+00  0.00000000000E+00  0.99999998245E-14  0.12500000000E+03  0.12500000000E+03 0.  0.
        -11    1    3    3    0    0  0.19203511608E+02 -0.74810368230E+01  0.39867902863E+02  0.44879733165E+02  0.51100000000E-03 0.  1.
         23    2    1    0    0    0 -0.13968939862E+02  0.21369649320E+02  0.15020774445E+02  0.95378776902E+02  0.90662529335E+02 0.  0.
         11    1    3    3    0    0 -0.33172451469E+02  0.28850686143E+02 -0.24847128418E+02  0.50499043737E+02  0.51100000000E-03 0. -1.
         22    1    1    0    0    0  0.13968939862E+02 -0.21369649320E+02 -0.15020774445E+02  0.29621223098E+02  0.00000000000E+00 0.  1.
</event>
<event>
 5    1  0.1659417E-003  0.9118800E+02  0.7818608E-02  0.1130116E+00
         25   -1    0    0    0    0  0.00000000000E+00  0.00000000000E+00  0.99999998245E-14  0.12500000000E+03  0.12500000000E+03 0.  0.
        -11    1    3    3    0    0  0.52528083974E+02  0.13906091154E+01 -0.19342124517E+02  0.55993313715E+02  0.51100000000E-03 0. -1.
         23    2    1    0    0    0  0.31648664835E+02 -0.13409096174E+02  0.36984598527E+01  0.90429485811E+02  0.83560585521E+02 0.  0.
         11    1    3    3    0    0 -0.20879419139E+02 -0.14799705290E+02  0.23040584369E+02  0.34436172096E+02  0.51100000000E-03 0.  1.
         22    1    1    0    0    0 -0.31648664835E+02  0.13409096174E+02 -0.36984598527E+01  0.34570514189E+02  0.00000000000E+00 0. -1.
</event>
<event>
 5    1  0.1659417E-003  0.9118800E+02  0.7818608E-02  0.1130116E+00
         25   -1    0    0    0    0  0.00000000000E+00  0.00000000000E+00  0.99999998245E-14  0.12500000000E+03  0.12500000000E+03 0.  0.
        -11    1    3    3    0    0  0.63864792975E+01  0.53821553492E+02 -0.28577970870E+02  0.61271911652E+02  0.51100000000E-03 0.  1.
         23    2    1    0    0    0 -0.11578537273E+01  0.26495305851E+02 -0.52955108568E+01  0.97955882477E+02  0.94148662333E+02 0.  0.
         11    1    3    3    0    0 -0.75443330248E+01 -0.27326247642E+02  0.23282460013E+02  0.36683970825E+02  0.51100000000E-03 0. -1.
         22    1    1    0    0    0  0.11578537273E+01 -0.26495305851E+02  0.52955108568E+01  0.27044117523E+02  0.00000000000E+00 0.  1.
</event>
<event>
 5    1  0.1659417E-003  0.9118800E+02  0.7818608E-02  0.1130116E+00
         25   -1    0    0    0    0  0.00000000000E+00  0.00000000000E+00  0.99999998245E-14  0.12500000000E+03  0.12500000000E+03 0.  0.
        -11    1    3    3    0    0 -0.46246234846E+02 -0.12954906234E+02 -0.38069513248E+02  0.61284840476E+02  0.51100000000E-03 0. -1.
         23    2    1    0    0    0 -0.23738672991E+02 -0.78973030123E+01 -0.89618779890E+01  0.98425439847E+02  0.94770037257E+02 0.  0.
         11    1    3    3    0    0  0.22507561855E+02  0.50576032221E+01  0.29107635259E+02  0.37140599371E+02  0.51100000000E-03 0.  1.
         22    1    1    0    0    0  0.23738672991E+02  0.78973030123E+01  0.89618779890E+01  0.26574560153E+02  0.00000000000E+00 0. -1.
</event>
<event>
 5    1  0.1659417E-003  0.9118800E+02  0.7818608E-02  0.1130116E+00
         25   -1    0    0    0    0  0.00000000000E+00  0.00000000000E+00  0.99999998245E-14  0.12500000000E+03  0.12500000000E+03 0.  0.
        -11    1    3    3    0    0 -0.20805357130E+02  0.39221017082E+02 -0.41866658113E+02  0.61024324069E+02  0.51100000000E-03 0.  1.
         23    2    1    0    0    0 -0.13767524215E+02  0.24833730155E+02 -0.13592833639E+02  0.93519466289E+02  0.88061720243E+02 0.  0.
         11    1    3    3    0    0  0.70378329154E+01 -0.14387286927E+02  0.28273824474E+02  0.32495142220E+02  0.51100000000E-03 0. -1.
         22    1    1    0    0    0  0.13767524215E+02 -0.24833730155E+02  0.13592833639E+02  0.31480533711E+02  0.00000000000E+00 0.  1.
</event>
<event>
 5    1  0.1659417E-003  0.9118800E+02  0.7818608E-02  0.1130116E+00
         25   -1    0    0    0    0  0.00000000000E+00  0.00000000000E+00  0.99999998245E-14  0.12500000000E+03  0.12500000000E+03 0.  0.
        -11    1    3    3    0    0 -0.15943178041E+02  0.53793115259E+02 -0.20357179527E+02  0.59684997561E+02  0.51100000000E-03 0. -1.
         23    2    1    0    0    0 -0.55849254384E+01  0.29736391076E+02  0.27580194373E+01  0.94618245317E+02  0.89607819576E+02 0.  0.
         11    1    3    3    0    0  0.10358252602E+02 -0.24056724183E+02  0.23115198964E+02  0.34933247756E+02  0.51100000000E-03 0.  1.
         22    1    1    0    0    0  0.55849254384E+01 -0.29736391076E+02 -0.27580194373E+01  0.30381754683E+02  0.00000000000E+00 0. -1.
</event>
<event>
 5    1  0.1659417E-003  0.9118800E+02  0.7818608E-02  0.1130116E+00
         25   -1    0    0    0    0  0.00000000000E+00  0.00000000000E+00  0.99999998245E-14  0.12500000000E+03  0.12500000000E+03 0.  0.
        -11    1    3    3    0    0 -0.39470240598E+02 -0.39912763258E+02  0.21791710108E+01  0.56175415889E+02  0.51100000000E-03 0.  1.
         23    2    1    0    0    0 -0.16225446033E+02 -0.14160169450E+02 -0.18539989001E+02  0.96583337810E+02  0.92308366103E+02 0.  0.
         11    1    3    3    0    0  0.23244794565E+02  0.25752593808E+02 -0.20719160012E+02  0.40407921922E+02  0.51100000000E-03 0. -1.
         22    1    1    0    0    0  0.16225446033E+02  0.14160169450E+02  0.18539989001E+02  0.28416662190E+02  0.00000000000E+00 0.  1.
</event>
<event>
 5    1  0.1659417E-003  0.9118800E+02  0.7818608E-02  0.1130116E+00
         25   -1    0    0    0    0  0.00000000000E+00  0.00000000000E+00  0.99999998245E-14  0.12500000000E+03  0.12500000000E+03 0.  0.
        -11    1    3    3    0    0  0.23575856311E+02 -0.26030110470E+01 -0.23612836558E+02  0.33468832036E+02  0.51100000000E-03 0. -1.
         23    2    1    0    0    0 -0.27928453061E+02 -0.20453601504E+01  0.10327444642E+02  0.95153088914E+02  0.90350828599E+02 0.  0.
         11    1    3    3    0    0 -0.51504309372E+02  0.55765089654E+00  0.33940281200E+02  0.61684256878E+02  0.51100000000E-03 0.  1.
         22    1    1    0    0    0  0.27928453061E+02  0.20453601504E+01 -0.10327444642E+02  0.29846911086E+02  0.00000000000E+00 0.  1.
</event>
<event>
 5    1  0.1659417E-003  0.9118800E+02  0.7818608E-02  0.1130116E+00
         25   -1    0    0    0    0  0.00000000000E+00  0.00000000000E+00  0.99999998245E-14  0.12500000000E+03  0.12500000000E+03 0.  0.
        -11    1    3    3    0    0 -0.30050306340E+02  0.26147717189E+02  0.30504348154E+02  0.50172096646E+02  0.51100000000E-03 0.  1.
         23    2    1    0    0    0  0.10049503946E+01 -0.62030691512E+01  0.29301316986E+02  0.95032431375E+02  0.90183744897E+02 0.  0.
         11    1    3    3    0    0  0.31055256735E+02 -0.32350786340E+02 -0.12030311681E+01  0.44860334728E+02  0.51100000000E-03 0. -1.
         22    1    1    0    0    0 -0.10049503946E+01  0.62030691512E+01 -0.29301316986E+02  0.29967568625E+02  0.00000000000E+00 0.  1.
</event>
<event>
 5    1  0.1659417E-003  0.9118800E+02  0.7818608E-02  0.1130116E+00
         25   -1    0    0    0    0  0.00000000000E+00  0.00000000000E+00  0.99999998245E-14  0.12500000000E+03  0.12500000000E+03 0.  0.
        -11    1    3    3    0    0  0.11396570431E+02  0.28382372814E+02  0.15060633772E+02  0.34091987241E+02  0.51100000000E-03 0.  1.
         23    2    1    0    0    0  0.10728246855E+02 -0.29563542320E+02  0.20566398816E+01  0.93482892222E+02  0.88009789544E+02 0.  0.
         11    1    3    3    0    0 -0.66832357621E+00 -0.57945915134E+02 -0.13003993890E+02  0.59390904981E+02  0.51100000000E-03 0. -1.
         22    1    1    0    0    0 -0.10728246855E+02  0.29563542320E+02 -0.20566398816E+01  0.31517107778E+02  0.00000000000E+00 0. -1.
</event>
<event>
 5    1  0.1659417E-003  0.9118800E+02  0.7818608E-02  0.1130116E+00
         25   -1    0    0    0    0  0.00000000000E+00  0.00000000000E+00  0.99999998245E-14  0.12500000000E+03  0.12500000000E+03 0.  0.
        -11    1    3    3    0    0  0.79899575435E+01  0.96832009363E+01 -0.45946473579E+02  0.47630685871E+02  0.51100000000E-03 0. -1.
         23    2    1    0    0    0 -0.11070104732E+02 -0.22078430876E+02 -0.13616225578E+02  0.96797058173E+02  0.92597324709E+02 0.  0.
         11    1    3    3    0    0 -0.19060062275E+02 -0.31761631812E+02  0.32330248000E+02  0.49166372302E+02  0.51100000000E-03 0.  1.
         22    1    1    0    0    0  0.11070104732E+02  0.22078430876E+02  0.13616225578E+02  0.28202941827E+02  0.00000000000E+00 0. -1.
</event>
<event>
 5    1  0.1659417E-003  0.9118800E+02  0.7818608E-02  0.1130116E+00
         25   -1    0    0    0    0  0.00000000000E+00  0.00000000000E+00  0.99999998245E-14  0.12500000000E+03  0.12500000000E+03 0.  0.
        -11    1    3    3    0    0  0.48560179162E+01 -0.24284115122E+02 -0.24556610155E+02  0.34875869306E+02  0.51100000000E-03 0.  1.
         23    2    1    0    0    0 -0.15236551927E+02  0.46793590111E+01  0.24795035070E+02  0.95523862541E+02  0.90862344430E+02 0.  0.
         11    1    3    3    0    0 -0.20092569843E+02  0.28963474133E+02  0.49351645225E+02  0.60647993235E+02  0.51100000000E-03 0. -1.
         22    1    1    0    0    0  0.15236551927E+02 -0.46793590111E+01 -0.24795035070E+02  0.29476137459E+02  0.00000000000E+00 0. -1.
</event>
<event>
 5    1  0.1659417E-003  0.9118800E+02  0.7818608E-02  0.1130116E+00
         25   -1    0    0    0    0  0.00000000000E+00  0.00000000000E+00  0.99999998245E-14  0.12500000000E+03  0.12500000000E+03 0.  0.
        -11    1    3    3    0    0 -0.23799058588E+02 -0.97081941638E+01 -0.53305117213E+00  0.25708527134E+02  0.51100000000E-03 0.  1.
         23    2    1    0    0    0  0.68128785863E+01  0.39331905765E+02 -0.88476904752E+01  0.84113623877E+02  0.73507863316E+02 0.  0.
         11    1    3    3    0    0  0.30611937174E+02  0.49040099928E+02 -0.83146393031E+01  0.58405096743E+02  0.51100000000E-03 0. -1.
         22    1    1    0    0    0 -0.68128785863E+01 -0.39331905765E+02  0.88476904752E+01  0.40886376123E+02  0.00000000000E+00 0. -1.
</event>
<event>
 5    1  0.1659417E-003  0.9118800E+02  0.7818608E-02  0.1130116E+00
         25   -1    0    0    0    0  0.00000000000E+00  0.00000000000E+00  0.99999998245E-14  0.12500000000E+03  0.12500000000E+03 0.  0.
        -11    1    3    3    0    0  0.10357554242E+02 -0.33191573649E+02  0.79717438149E+01  0.35672232771E+02  0.51100000000E-03 0.  1.
         23    2    1    0    0    0 -0.25378279558E+02  0.10009490569E+02 -0.12010117380E+02  0.95192452395E+02  0.90405271410E+02 0.  0.
         11    1    3    3    0    0 -0.35735833800E+02  0.43201064218E+02 -0.19981861195E+02  0.59520219623E+02  0.51100000000E-03 0. -1.
         22    1    1    0    0    0  0.25378279558E+02 -0.10009490569E+02  0.12010117380E+02  0.29807547605E+02  0.00000000000E+00 0. -1.
</event>
<event>
 5    1  0.1659417E-003  0.9118800E+02  0.7818608E-02  0.1130116E+00
         25   -1    0    0    0    0  0.00000000000E+00  0.00000000000E+00  0.99999998245E-14  0.12500000000E+03  0.12500000000E+03 0.  0.
        -11    1    3    3    0    0  0.25742585639E+02 -0.48222416626E+02  0.12936339764E+02  0.56173223758E+02  0.51100000000E-03 0.  1.
         23    2    1    0    0    0 -0.65337458921E+00 -0.28234653854E+02 -0.83670616796E+01  0.95544435198E+02  0.90890641980E+02 0.  0.
         11    1    3    3    0    0 -0.26395960228E+02  0.19987762772E+02 -0.21303401444E+02  0.39371211441E+02  0.51100000000E-03 0. -1.
         22    1    1    0    0    0  0.65337458921E+00  0.28234653854E+02  0.83670616796E+01  0.29455564802E+02  0.00000000000E+00 0.  1.
</event>
<event>
 5    1  0.1659417E-003  0.9118800E+02  0.7818608E-02  0.1130116E+00
         25   -1    0    0    0    0  0.00000000000E+00  0.00000000000E+00  0.99999998245E-14  0.12500000000E+03  0.12500000000E+03 0.  0.
        -11    1    3    3    0    0  0.12126185684E+02 -0.11703601663E+02  0.29353052282E+02  0.33847013896E+02  0.51100000000E-03 0.  1.
         23    2    1    0    0    0 -0.35195431210E+01  0.24917240318E+02 -0.16751960480E+02  0.94769481831E+02  0.89818541837E+02 0.  0.
         11    1    3    3    0    0 -0.15645728805E+02  0.36620841981E+02 -0.46105012762E+02  0.60922467935E+02  0.51100000000E-03 0. -1.
         22    1    1    0    0    0  0.35195431210E+01 -0.24917240318E+02  0.16751960480E+02  0.30230518169E+02  0.00000000000E+00 0. -1.
</event>
<event>
 5    1  0.1659417E-003  0.9118800E+02  0.7818608E-02  0.1130116E+00
         25   -1    0    0    0    0  0.00000000000E+00  0.00000000000E+00  0.99999998245E-14  0.12500000000E+03  0.12500000000E+03 0.  0.
        -11    1    3    3    0    0 -0.65921644650E+01  0.25861171227E+01 -0.34546229771E+02  0.35264523615E+02  0.51100000000E-03 0. -1.
         23    2    1    0    0    0  0.19235548593E+02 -0.45199947768E+01  0.20527677580E+02  0.96507505738E+02  0.92205620406E+02 0.  0.
         11    1    3    3    0    0  0.25827713058E+02 -0.71061118995E+01  0.55073907351E+02  0.61242982123E+02  0.51100000000E-03 0.  1.
         22    1    1    0    0    0 -0.19235548593E+02  0.45199947768E+01 -0.20527677580E+02  0.28492494262E+02  0.00000000000E+00 0.  1.
</event>
<event>
 5    1  0.1659417E-003  0.9118800E+02  0.7818608E-02  0.1130116E+00
         25   -1    0    0    0    0  0.00000000000E+00  0.00000000000E+00  0.99999998245E-14  0.12500000000E+03  0.12500000000E+03 0.  0.
        -11    1    3    3    0    0  0.95793465893E+01 -0.40154620807E+02 -0.67491555084E+01  0.41829517731E+02  0.51100000000E-03 0.  1.
         23    2    1    0    0    0  0.14936975175E+02  0.14963947885E+02  0.12476395909E+02  0.10045018496E+03  0.97404036055E+02 0.  0.
         11    1    3    3    0    0  0.53576285855E+01  0.55118568692E+02  0.19225551417E+02  0.58620667228E+02  0.51100000000E-03 0. -1.
         22    1    1    0    0    0 -0.14936975175E+02 -0.14963947885E+02 -0.12476395909E+02  0.24549815041E+02  0.00000000000E+00 0. -1.
</event>
<event>
 5    1  0.1659417E-003  0.9118800E+02  0.7818608E-02  0.1130116E+00
         25   -1    0    0    0    0  0.00000000000E+00  0.00000000000E+00  0.99999998245E-14  0.12500000000E+03  0.12500000000E+03 0.  0.
        -11    1    3    3    0    0  0.70337199349E+01 -0.17996406862E+02 -0.57081942870E+02  0.60263521953E+02  0.51100000000E-03 0. -1.
         23    2    1    0    0    0  0.14768941759E+02 -0.75339356384E+01 -0.23836114770E+02  0.95964811105E+02  0.91466949092E+02 0.  0.
         11    1    3    3    0    0  0.77352218237E+01  0.10462471223E+02  0.33245828100E+02  0.35701289152E+02  0.51100000000E-03 0.  1.
         22    1    1    0    0    0 -0.14768941759E+02  0.75339356384E+01  0.23836114770E+02  0.29035188895E+02  0.00000000000E+00 0. -1.
</event>
<event>
 5    1  0.1659417E-003  0.9118800E+02  0.7818608E-02  0.1130116E+00
         25   -1    0    0    0    0  0.00000000000E+00  0.00000000000E+00  0.99999998245E-14  0.12500000000E+03  0.12500000000E+03 0.  0.
        -11    1    3    3    0    0 -0.25556280607E+01  0.23639042598E+02  0.41883299267E+02  0.48161668653E+02  0.51100000000E-03 0.  1.
         23    2    1    0    0    0 -0.10067309328E+02  0.22015680401E+02 -0.86626271474E+01  0.99288484881E+02  0.95901622616E+02 0.  0.
         11    1    3    3    0    0 -0.75116812669E+01 -0.16233621971E+01 -0.50545926414E+02  0.51126816228E+02  0.51100000000E-03 0. -1.
         22    1    1    0    0    0  0.10067309328E+02 -0.22015680401E+02  0.86626271474E+01  0.25711515119E+02  0.00000000000E+00 0. -1.
</event>
<event>
 5    1  0.1659417E-003  0.9118800E+02  0.7818608E-02  0.1130116E+00
         25   -1    0    0    0    0  0.00000000000E+00  0.00000000000E+00  0.99999998245E-14  0.12500000000E+03  0.12500000000E+03 0.  0.
        -11    1    3    3    0    0  0.14577603974E+02 -0.28070321572E+02 -0.13070987132E+02  0.34224263259E+02  0.51100000000E-03 0. -1.
         23    2    1    0    0    0 -0.64482504318E+01  0.25412462209E+02  0.11050211456E+02  0.96548631977E+02  0.92261356993E+02 0.  0.
         11    1    3    3    0    0 -0.21025854406E+02  0.53482783781E+02  0.24121198588E+02  0.62324368718E+02  0.51100000000E-03 0.  1.
         22    1    1    0    0    0  0.64482504318E+01 -0.25412462209E+02 -0.11050211456E+02  0.28451368023E+02  0.00000000000E+00 0.  1.
</event>
<event>
 5    1  0.1659417E-003  0.9118800E+02  0.7818608E-02  0.1130116E+00
         25   -1    0    0    0    0  0.00000000000E+00  0.00000000000E+00  0.99999998245E-14  0.12500000000E+03  0.12500000000E+03 0.  0.
        -11    1    3    3    0    0 -0.20752822622E+02  0.14580028311E+01 -0.50160607720E+02  0.54303701403E+02  0.51100000000E-03 0.  1.
         23    2    1    0    0    0  0.12574568460E+02  0.68789762939E+00 -0.27900987250E+02  0.94388595841E+02  0.89286891312E+02 0.  0.
         11    1    3    3    0    0  0.33327391081E+02 -0.77010520170E+00  0.22259620470E+02  0.40084894437E+02  0.51100000000E-03 0. -1.
         22    1    1    0    0    0 -0.12574568460E+02 -0.68789762939E+00  0.27900987250E+02  0.30611404159E+02  0.00000000000E+00 0.  1.
</event>
<event>
 5    1  0.1659417E-003  0.9118800E+02  0.7818608E-02  0.1130116E+00
         25   -1    0    0    0    0  0.00000000000E+00  0.00000000000E+00  0.99999998245E-14  0.12500000000E+03  0.12500000000E+03 0.  0.
        -11    1    3    3    0    0 -0.47748105013E+01  0.22540350351E+02 -0.45859290602E+02  0.51321932388E+02  0.51100000000E-03 0. -1.
         23    2    1    0    0    0  0.17032413966E+02  0.19635346447E+02 -0.38770997571E+01  0.98719173184E+02  0.95156677622E+02 0.  0.
         11    1    3    3    0    0  0.21807224467E+02 -0.29050039044E+01  0.41982190845E+02  0.47397240796E+02  0.51100000000E-03 0.  1.
         22    1    1    0    0    0 -0.17032413966E+02 -0.19635346447E+02  0.38770997571E+01  0.26280826816E+02  0.00000000000E+00 0. -1.
</event>
<event>
 5    1  0.1659417E-003  0.9118800E+02  0.7818608E-02  0.1130116E+00
         25   -1    0    0    0    0  0.00000000000E+00  0.00000000000E+00  0.99999998245E-14  0.12500000000E+03  0.12500000000E+03 0.  0.
        -11    1    3    3    0    0  0.47813656090E+02  0.12605895613E+02 -0.14957324286E+02  0.51660196118E+02  0.51100000000E-03 0. -1.
         23    2    1    0    0    0  0.17592444009E+02 -0.20410526030E+02 -0.74331022000E+01  0.97047635746E+02  0.92934971548E+02 0.  0.
         11    1    3    3    0    0 -0.30221212081E+02 -0.33016421643E+02  0.75242220858E+01  0.45387439628E+02  0.51100000000E-03 0.  1.
         22    1    1    0    0    0 -0.17592444009E+02  0.20410526030E+02  0.74331022000E+01  0.27952364254E+02  0.00000000000E+00 0.  1.
</event>
<event>
 5    1  0.1659417E-003  0.9118800E+02  0.7818608E-02  0.1130116E+00
         25   -1    0    0    0    0  0.00000000000E+00  0.00000000000E+00  0.99999998245E-14  0.12500000000E+03  0.12500000000E+03 0.  0.
        -11    1    3    3    0    0 -0.18170619300E+02 -0.87839776558E+01  0.56119940029E+02  0.59638723480E+02  0.51100000000E-03 0.  1.
         23    2    1    0    0    0 -0.18485798746E+02 -0.10111038514E+02  0.19478384656E+02  0.96305656935E+02  0.91931573650E+02 0.  0.
         11    1    3    3    0    0 -0.31517944635E+00 -0.13270608584E+01 -0.36641555373E+02  0.36666933455E+02  0.51100000000E-03 0. -1.
         22    1    1    0    0    0  0.18485798746E+02  0.10111038514E+02 -0.19478384656E+02  0.28694343065E+02  0.00000000000E+00 0.  1.
</event>
<event>
 5    1  0.1659417E-003  0.9118800E+02  0.7818608E-02  0.1130116E+00
         25   -1    0    0    0    0  0.00000000000E+00  0.00000000000E+00  0.99999998245E-14  0.12500000000E+03  0.12500000000E+03 0.  0.
        -11    1    3    3    0    0  0.26906946272E+02 -0.24278800673E+02  0.40860692408E+02  0.54617214357E+02  0.51100000000E-03 0.  1.
         23    2    1    0    0    0  0.27357855727E+02 -0.10094552840E+02  0.22509585968E+01  0.95752451699E+02  0.91176273914E+02 0.  0.
         11    1    3    3    0    0  0.45090945440E+00  0.14184247834E+02 -0.38609733811E+02  0.41135237342E+02  0.51100000000E-03 0. -1.
         22    1    1    0    0    0 -0.27357855727E+02  0.10094552840E+02 -0.22509585968E+01  0.29247548301E+02  0.00000000000E+00 0.  1.
</event>
<event>
 5    1  0.1659417E-003  0.9118800E+02  0.7818608E-02  0.1130116E+00
         25   -1    0    0    0    0  0.00000000000E+00  0.00000000000E+00  0.99999998245E-14  0.12500000000E+03  0.12500000000E+03 0.  0.
        -11    1    3    3    0    0  0.94314923910E+01 -0.34851265873E+02 -0.19968396629E+02  0.41258946253E+02  0.51100000000E-03 0.  1.
         23    2    1    0    0    0 -0.28807452931E+02 -0.33129208355E+01  0.29213809438E+01  0.95855888151E+02  0.91317972151E+02 0.  0.
         11    1    3    3    0    0 -0.38238945322E+02  0.31538345038E+02  0.22889777573E+02  0.54596941898E+02  0.51100000000E-03 0. -1.
         22    1    1    0    0    0  0.28807452931E+02  0.33129208355E+01 -0.29213809438E+01  0.29144111849E+02  0.00000000000E+00 0. -1.
</event>
<event>
 5    1  0.1659417E-003  0.9118800E+02  0.7818608E-02  0.1130116E+00
         25   -1    0    0    0    0  0.00000000000E+00  0.00000000000E+00  0.99999998245E-14  0.12500000000E+03  0.12500000000E+03 0.  0.
        -11    1    3    3    0    0  0.17525925865E+02 -0.53824479781E+02  0.15048380496E+02  0.58572062085E+02  0.51100000000E-03 0.  1.
         23    2    1    0    0    0  0.11487461415E+02 -0.16298262125E+02  0.19827359019E+02  0.96880268783E+02  0.92709585242E+02 0.  0.
         11    1    3    3    0    0 -0.60384644497E+01  0.37526217656E+02  0.47789785230E+01  0.38308206698E+02  0.51100000000E-03 0. -1.
         22    1    1    0    0    0 -0.11487461415E+02  0.16298262125E+02 -0.19827359019E+02  0.28119731217E+02  0.00000000000E+00 0.  1.
</event>
<event>
 5    1  0.1659417E-003  0.9118800E+02  0.7818608E-02  0.1130116E+00
         25   -1    0    0    0    0  0.00000000000E+00  0.00000000000E+00  0.99999998245E-14  0.12500000000E+03  0.12500000000E+03 0.  0.
        -11    1    3    3    0    0 -0.31440685791E+02 -0.47444450128E+02 -0.16974058811E+02  0.59393697003E+02  0.51100000000E-03 0. -1.
         23    2    1    0    0    0 -0.24482284661E+02 -0.20805847364E+02  0.19649720022E+01  0.92811078587E+02  0.87050385679E+02 0.  0.
         11    1    3    3    0    0  0.69584011298E+01  0.26638602764E+02  0.18939030813E+02  0.33417381584E+02  0.51100000000E-03 0.  1.
         22    1    1    0    0    0  0.24482284661E+02  0.20805847364E+02 -0.19649720022E+01  0.32188921413E+02  0.00000000000E+00 0. -1.
</event>
<event>
 5    1  0.1659417E-003  0.9118800E+02  0.7818608E-02  0.1130116E+00
         25   -1    0    0    0    0  0.00000000000E+00  0.00000000000E+00  0.99999998245E-14  0.12500000000E+03  0.12500000000E+03 0.  0.
        -11    1    3    3    0    0  0.28770082824E+02 -0.34998612974E+01 -0.29415547871E+02  0.41294565642E+02  0.51100000000E-03 0.  1.
         23    2    1    0    0    0  0.86916555125E+01  0.23916103187E+02  0.13626808507E+02  0.96134540065E+02  0.91698609674E+02 0.  0.
         11    1    3    3    0    0 -0.20078427311E+02  0.27415964484E+02  0.43042356378E+02  0.54839974423E+02  0.51100000000E-03 0. -1.
         22    1    1    0    0    0 -0.86916555125E+01 -0.23916103187E+02 -0.13626808507E+02  0.28865459935E+02  0.00000000000E+00 0. -1.
</event>
<event>
 5    1  0.1659417E-003  0.9118800E+02  0.7818608E-02  0.1130116E+00
         25   -1    0    0    0    0  0.00000000000E+00  0.00000000000E+00  0.99999998245E-14  0.12500000000E+03  0.12500000000E+03 0.  0.
        -11    1    3    3    0    0  0.27097200581E+01 -0.88580940333E+01  0.25190003025E+02  0.26839237421E+02  0.51100000000E-03 0.  1.
         23    2    1    0    0    0 -0.13359550937E+02 -0.15440315929E+02 -0.32240747065E+02  0.86837888835E+02  0.78003026921E+02 0.  0.
         11    1    3    3    0    0 -0.16069270995E+02 -0.65822218955E+01 -0.57430750090E+02  0.59998651414E+02  0.51100000000E-03 0. -1.
         22    1    1    0    0    0  0.13359550937E+02  0.15440315929E+02  0.32240747065E+02  0.38162111165E+02  0.00000000000E+00 0. -1.
</event>
<event>
 5    1  0.1659417E-003  0.9118800E+02  0.7818608E-02  0.1130116E+00
         25   -1    0    0    0    0  0.00000000000E+00  0.00000000000E+00  0.99999998245E-14  0.12500000000E+03  0.12500000000E+03 0.  0.
        -11    1    3    3    0    0  0.10802929683E+02  0.60336672469E+02 -0.57715331968E+01  0.61567263461E+02  0.51100000000E-03 0.  1.
         23    2    1    0    0    0  0.11982460162E+02  0.27489724411E+02 -0.59088055613E+01  0.94435669762E+02  0.89352769629E+02 0.  0.
         11    1    3    3    0    0  0.11795304785E+01 -0.32846948057E+02 -0.13727236448E+00  0.32868406301E+02  0.51100000000E-03 0. -1.
         22    1    1    0    0    0 -0.11982460162E+02 -0.27489724411E+02  0.59088055613E+01  0.30564330238E+02  0.00000000000E+00 0.  1.
</event>
<event>
 5    1  0.1659417E-003  0.9118800E+02  0.7818608E-02  0.1130116E+00
         25   -1    0    0    0    0  0.00000000000E+00  0.00000000000E+00  0.99999998245E-14  0.12500000000E+03  0.12500000000E+03 0.  0.
        -11    1    3    3    0    0 -0.13771261134E+01 -0.31862495815E+02 -0.22758090289E+02  0.39179660409E+02  0.51100000000E-03 0. -1.
         23    2    1    0    0    0  0.25140903891E+02  0.19653002855E+01  0.14368016823E+02  0.95976434384E+02  0.91482832247E+02 0.  0.
         11    1    3    3    0    0  0.26518030004E+02  0.33827796101E+02  0.37126107113E+02  0.56796773975E+02  0.51100000000E-03 0.  1.
         22    1    1    0    0    0 -0.25140903891E+02 -0.19653002855E+01 -0.14368016823E+02  0.29023565616E+02  0.00000000000E+00 0.  1.
</event>
<event>
 5    1  0.1659417E-003  0.9118800E+02  0.7818608E-02  0.1130116E+00
         25   -1    0    0    0    0  0.00000000000E+00  0.00000000000E+00  0.99999998245E-14  0.12500000000E+03  0.12500000000E+03 0.  0.
        -11    1    3    3    0    0  0.22854563028E+02  0.21360582228E+02  0.14504425850E+02  0.34481645753E+02  0.51100000000E-03 0.  1.
         23    2    1    0    0    0 -0.24478476822E+02 -0.14979005115E+02  0.11025931895E+02  0.94256909786E+02  0.89102342542E+02 0.  0.
         11    1    3    3    0    0 -0.47333039850E+02 -0.36339587343E+02 -0.34784939556E+01  0.59775264033E+02  0.51100000000E-03 0. -1.
         22    1    1    0    0    0  0.24478476822E+02  0.14979005115E+02 -0.11025931895E+02  0.30743090214E+02  0.00000000000E+00 0. -1.
</event>
<event>
 5    1  0.1659417E-003  0.9118800E+02  0.7818608E-02  0.1130116E+00
         25   -1    0    0    0    0  0.00000000000E+00  0.00000000000E+00  0.99999998245E-14  0.12500000000E+03  0.12500000000E+03 0.  0.
        -11    1    3    3    0    0  0.59645518234E+01  0.36873363294E+02  0.12333766331E+02  0.39336275767E+02  0.51100000000E-03 0.  1.
         23    2    1    0    0    0 -0.58322238679E+01 -0.22869174681E+02  0.65522320220E+01  0.10050621037E+03  0.97475907757E+02 0.  0.
         11    1    3    3    0    0 -0.11796775691E+02 -0.59742537975E+02 -0.57815343087E+01  0.61169934605E+02  0.51100000000E-03 0. -1.
         22    1    1    0    0    0  0.58322238679E+01  0.22869174681E+02 -0.65522320220E+01  0.24493789628E+02  0.00000000000E+00 0. -1.
</event>
<event>
 5    1  0.1659417E-003  0.9118800E+02  0.7818608E-02  0.1130116E+00
         25   -1    0    0    0    0  0.00000000000E+00  0.00000000000E+00  0.99999998245E-14  0.12500000000E+03  0.12500000000E+03 0.  0.
        -11    1    3    3    0    0  0.12278349092E+02 -0.29303806612E+02 -0.14490240823E+02  0.34920452714E+02  0.51100000000E-03 0.  1.
         23    2    1    0    0    0 -0.10067694179E+02  0.26248387780E+02  0.13378613594E+01  0.96855263367E+02  0.92675864397E+02 0.  0.
         11    1    3    3    0    0 -0.22346043271E+02  0.55552194392E+02  0.15828102182E+02  0.61934810653E+02  0.51100000000E-03 0. -1.
         22    1    1    0    0    0  0.10067694179E+02 -0.26248387780E+02 -0.13378613594E+01  0.28144736633E+02  0.00000000000E+00 0. -1.
</event>
<event>
 5    1  0.1659417E-003  0.9118800E+02  0.7818608E-02  0.1130116E+00
         25   -1    0    0    0    0  0.00000000000E+00  0.00000000000E+00  0.99999998245E-14  0.12500000000E+03  0.12500000000E+03 0.  0.
        -11    1    3    3    0    0  0.27422747195E+02 -0.35079072747E+02 -0.21791136699E+01  0.44579108842E+02  0.51100000000E-03 0. -1.
         23    2    1    0    0    0  0.13279052203E+02  0.57762011733E+01  0.25329799988E+02  0.95823014295E+02  0.91272961898E+02 0.  0.
         11    1    3    3    0    0 -0.14143694992E+02  0.40855273920E+02  0.27508913658E+02  0.51243905453E+02  0.51100000000E-03 0.  1.
         22    1    1    0    0    0 -0.13279052203E+02 -0.57762011733E+01 -0.25329799988E+02  0.29176985705E+02  0.00000000000E+00 0.  1.
</event>
<event>
 5    1  0.1659417E-003  0.9118800E+02  0.7818608E-02  0.1130116E+00
         25   -1    0    0    0    0  0.00000000000E+00  0.00000000000E+00  0.99999998245E-14  0.12500000000E+03  0.12500000000E+03 0.  0.
        -11    1    3    3    0    0 -0.21792376257E+02 -0.38117506100E+02 -0.25340476236E+02  0.50695085268E+02  0.51100000000E-03 0.  1.
         23    2    1    0    0    0 -0.27611045888E+02 -0.90263243522E+01  0.75470252782E+01  0.94986636695E+02  0.90120248412E+02 0.  0.
         11    1    3    3    0    0 -0.58186696305E+01  0.29091181748E+02  0.32887501514E+02  0.44291551427E+02  0.51100000000E-03 0. -1.
         22    1    1    0    0    0  0.27611045888E+02  0.90263243522E+01 -0.75470252782E+01  0.30013363305E+02  0.00000000000E+00 0.  1.
</event>
<event>
 5    1  0.1659417E-003  0.9118800E+02  0.7818608E-02  0.1130116E+00
         25   -1    0    0    0    0  0.00000000000E+00  0.00000000000E+00  0.99999998245E-14  0.12500000000E+03  0.12500000000E+03 0.  0.
        -11    1    3    3    0    0  0.33070881802E+02  0.15206493585E+02  0.43940411502E+02  0.57058570202E+02  0.51100000000E-03 0. -1.
         23    2    1    0    0    0  0.27523837667E+02  0.18009256799E+01  0.72985523303E+01  0.96468020760E+02  0.92152076428E+02 0.  0.
         11    1    3    3    0    0 -0.55470441350E+01 -0.13405567905E+02 -0.36641859171E+02  0.39409450558E+02  0.51100000000E-03 0.  1.
         22    1    1    0    0    0 -0.27523837667E+02 -0.18009256799E+01 -0.72985523303E+01  0.28531979240E+02  0.00000000000E+00 0. -1.
</event>
<event>
 5    1  0.1659417E-003  0.9118800E+02  0.7818608E-02  0.1130116E+00
         25   -1    0    0    0    0  0.00000000000E+00  0.00000000000E+00  0.99999998245E-14  0.12500000000E+03  0.12500000000E+03 0.  0.
        -11    1    3    3    0    0 -0.23275305893E+02 -0.31293107085E+02  0.40468554483E+01  0.39209379678E+02  0.51100000000E-03 0.  1.
         23    2    1    0    0    0 -0.13453979175E+02  0.18732152315E+02 -0.18963194190E+02  0.95141905287E+02  0.90335354772E+02 0.  0.
         11    1    3    3    0    0  0.98213267182E+01  0.50025259399E+02 -0.23010049638E+02  0.55932525610E+02  0.51100000000E-03 0. -1.
         22    1    1    0    0    0  0.13453979175E+02 -0.18732152315E+02  0.18963194190E+02  0.29858094713E+02  0.00000000000E+00 0. -1.
</event>
<event>
 5    1  0.1659417E-003  0.9118800E+02  0.7818608E-02  0.1130116E+00
         25   -1    0    0    0    0  0.00000000000E+00  0.00000000000E+00  0.99999998245E-14  0.12500000000E+03  0.12500000000E+03 0.  0.
        -11    1    3    3    0    0  0.52368267201E+02 -0.76877906851E+01  0.15343210323E+02  0.55108544152E+02  0.51100000000E-03 0. -1.
         23    2    1    0    0    0  0.12513184534E+02 -0.10114000258E+02  0.24134748182E+02  0.95993813449E+02  0.91506575514E+02 0.  0.
         11    1    3    3    0    0 -0.39855082667E+02 -0.24262095726E+01  0.87915378589E+01  0.40885269297E+02  0.51100000000E-03 0.  1.
         22    1    1    0    0    0 -0.12513184534E+02  0.10114000258E+02 -0.24134748182E+02  0.29006186551E+02  0.00000000000E+00 0. -1.
</event>
<event>
 5    1  0.1659417E-003  0.9118800E+02  0.7818608E-02  0.1130116E+00
         25   -1    0    0    0    0  0.00000000000E+00  0.00000000000E+00  0.99999998245E-14  0.12500000000E+03  0.12500000000E+03 0.  0.
        -11    1    3    3    0    0 -0.10787042003E+02 -0.52124228809E+02  0.30992824448E+02  0.61594242196E+02  0.51100000000E-03 0. -1.
         23    2    1    0    0    0 -0.12224652350E+02 -0.22206454385E+02  0.13505628164E+02  0.96277696235E+02  0.91893547428E+02 0.  0.
         11    1    3    3    0    0 -0.14376103469E+01  0.29917774424E+02 -0.17487196284E+02  0.34683454040E+02  0.51100000000E-03 0.  1.
         22    1    1    0    0    0  0.12224652350E+02  0.22206454385E+02 -0.13505628164E+02  0.28722303765E+02  0.00000000000E+00 0. -1.
</event>
<event>
 5    1  0.1659417E-003  0.9118800E+02  0.7818608E-02  0.1130116E+00
         25   -1    0    0    0    0  0.00000000000E+00  0.00000000000E+00  0.99999998245E-14  0.12500000000E+03  0.12500000000E+03 0.  0.
        -11    1    3    3    0    0 -0.32498267994E+02  0.34939794166E+02  0.24983012679E+02  0.53861652052E+02  0.51100000000E-03 0. -1.
         23    2    1    0    0    0 -0.25153325958E+02 -0.50166494945E+01  0.13155531922E+02  0.96174237234E+02  0.91752707363E+02 0.  0.
         11    1    3    3    0    0  0.73449420360E+01 -0.39956443660E+02 -0.11827480757E+02  0.42312585182E+02  0.51100000000E-03 0.  1.
         22    1    1    0    0    0  0.25153325958E+02  0.50166494945E+01 -0.13155531922E+02  0.28825762766E+02  0.00000000000E+00 0.  1.
</event>
<event>
 5    1  0.1659417E-003  0.9118800E+02  0.7818608E-02  0.1130116E+00
         25   -1    0    0    0    0  0.00000000000E+00  0.00000000000E+00  0.99999998245E-14  0.12500000000E+03  0.12500000000E+03 0.  0.
        -11    1    3    3    0    0  0.23579551780E+01  0.34985279851E+02 -0.16432898959E+02  0.38724280850E+02  0.51100000000E-03 0.  1.
         23    2    1    0    0    0 -0.24037497904E+02 -0.70860238406E+01  0.13319492676E+02  0.96620043613E+02  0.92358058140E+02 0.  0.
         11    1    3    3    0    0 -0.26395453082E+02 -0.42071303692E+02  0.29752391634E+02  0.57895762764E+02  0.51100000000E-03 0. -1.
         22    1    1    0    0    0  0.24037497904E+02  0.70860238406E+01 -0.13319492676E+02  0.28379956387E+02  0.00000000000E+00 0. -1.
</event>
<event>
 5    1  0.1659417E-003  0.9118800E+02  0.7818608E-02  0.1130116E+00
         25   -1    0    0    0    0  0.00000000000E+00  0.00000000000E+00  0.99999998245E-14  0.12500000000E+03  0.12500000000E+03 0.  0.
        -11    1    3    3    0    0 -0.73420251220E+01 -0.27689186825E+01 -0.52011987429E+02  0.52600561595E+02  0.51100000000E-03 0. -1.
         23    2    1    0    0    0  0.18385415629E+02  0.10596896641E+02 -0.19245378081E+02  0.96352097743E+02  0.91994697868E+02 0.  0.
         11    1    3    3    0    0  0.25727440751E+02  0.13365815324E+02  0.32766609348E+02  0.43751536148E+02  0.51100000000E-03 0.  1.
         22    1    1    0    0    0 -0.18385415629E+02 -0.10596896641E+02  0.19245378081E+02  0.28647902257E+02  0.00000000000E+00 0. -1.
</event>
<event>
 5    1  0.1659417E-003  0.9118800E+02  0.7818608E-02  0.1130116E+00
         25   -1    0    0    0    0  0.00000000000E+00  0.00000000000E+00  0.99999998245E-14  0.12500000000E+03  0.12500000000E+03 0.  0.
        -11    1    3    3    0    0  0.15953522326E+02  0.24484243946E+02  0.19997040367E+02  0.35410093193E+02  0.51100000000E-03 0. -1.
         23    2    1    0    0    0 -0.10679078438E+02 -0.25998805499E+02 -0.25466762686E+01  0.96778267883E+02  0.92571955638E+02 0.  0.
         11    1    3    3    0    0 -0.26632600764E+02 -0.50483049445E+02 -0.22543716636E+02  0.61368174690E+02  0.51100000000E-03 0.  1.
         22    1    1    0    0    0  0.10679078438E+02  0.25998805499E+02  0.25466762686E+01  0.28221732117E+02  0.00000000000E+00 0.  1.
</event>
<event>
 5    1  0.1659417E-003  0.9118800E+02  0.7818608E-02  0.1130116E+00
         25   -1    0    0    0    0  0.00000000000E+00  0.00000000000E+00  0.99999998245E-14  0.12500000000E+03  0.12500000000E+03 0.  0.
        -11    1    3    3    0    0  0.35052186929E+02 -0.24722673489E+01  0.69925298539E+01  0.35828248470E+02  0.51100000000E-03 0.  1.
         23    2    1    0    0    0 -0.12387515879E+02 -0.51981606814E+01 -0.27398192282E+02  0.94485538437E+02  0.89422506168E+02 0.  0.
         11    1    3    3    0    0 -0.47439702809E+02 -0.27258933325E+01 -0.34390722136E+02  0.58657289968E+02  0.51100000000E-03 0. -1.
         22    1    1    0    0    0  0.12387515879E+02  0.51981606814E+01  0.27398192282E+02  0.30514461563E+02  0.00000000000E+00 0. -1.
</event>
<event>
 5    1  0.1659417E-003  0.9118800E+02  0.7818608E-02  0.1130116E+00
         25   -1    0    0    0    0  0.00000000000E+00  0.00000000000E+00  0.99999998245E-14  0.12500000000E+03  0.12500000000E+03 0.  0.
        -11    1    3    3    0    0  0.17289082265E+02  0.37382180999E+02 -0.32707188197E+01  0.41316309415E+02  0.51100000000E-03 0.  1.
         23    2    1    0    0    0 -0.16615407407E+02  0.41657805742E+01 -0.25938710534E+02  0.93915563456E+02  0.88622180429E+02 0.  0.
         11    1    3    3    0    0 -0.33904489672E+02 -0.33216400425E+02 -0.22667991714E+02  0.52599254041E+02  0.51100000000E-03 0. -1.
         22    1    1    0    0    0  0.16615407407E+02 -0.41657805742E+01  0.25938710534E+02  0.31084436544E+02  0.00000000000E+00 0. -1.
</event>
<event>
 5    1  0.1659417E-003  0.9118800E+02  0.7818608E-02  0.1130116E+00
         25   -1    0    0    0    0  0.00000000000E+00  0.00000000000E+00  0.99999998245E-14  0.12500000000E+03  0.12500000000E+03 0.  0.
        -11    1    3    3    0    0  0.22426323276E+02  0.18070627447E+02 -0.22769736737E+02  0.36714417650E+02  0.51100000000E-03 0. -1.
         23    2    1    0    0    0 -0.12400236725E+02 -0.26026491883E+02 -0.11118041192E+02  0.94100890134E+02  0.88883196013E+02 0.  0.
         11    1    3    3    0    0 -0.34826560001E+02 -0.44097119331E+02  0.11651695545E+02  0.57386472484E+02  0.51100000000E-03 0.  1.
         22    1    1    0    0    0  0.12400236725E+02  0.26026491883E+02  0.11118041192E+02  0.30899109866E+02  0.00000000000E+00 0.  1.
</event>
<event>
 5    1  0.1659417E-003  0.9118800E+02  0.7818608E-02  0.1130116E+00
         25   -1    0    0    0    0  0.00000000000E+00  0.00000000000E+00  0.99999998245E-14  0.12500000000E+03  0.12500000000E+03 0.  0.
        -11    1    3    3    0    0 -0.31352614469E+02 -0.28305596131E+02  0.40883225451E+01  0.42437101549E+02  0.51100000000E-03 0. -1.
         23    2    1    0    0    0  0.21179987214E+02 -0.20266030279E+02  0.18176916438E+01  0.95629813678E+02  0.91007985471E+02 0.  0.
         11    1    3    3    0    0  0.52532601683E+02  0.80395658519E+01 -0.22706309014E+01  0.53192712129E+02  0.51100000000E-03 0.  1.
         22    1    1    0    0    0 -0.21179987214E+02  0.20266030279E+02 -0.18176916438E+01  0.29370186322E+02  0.00000000000E+00 0.  1.
</event>
<event>
 5    1  0.1659417E-003  0.9118800E+02  0.7818608E-02  0.1130116E+00
         25   -1    0    0    0    0  0.00000000000E+00  0.00000000000E+00  0.99999998245E-14  0.12500000000E+03  0.12500000000E+03 0.  0.
        -11    1    3    3    0    0 -0.52530781438E+02  0.32662772812E+02 -0.46214658864E+01  0.62029812779E+02  0.51100000000E-03 0. -1.
         23    2    1    0    0    0 -0.25304243107E+02  0.15992081760E+02  0.31898402183E+01  0.94896404221E+02  0.89995005724E+02 0.  0.
         11    1    3    3    0    0  0.27226538331E+02 -0.16670691052E+02  0.78113061047E+01  0.32866591441E+02  0.51100000000E-03 0.  1.
         22    1    1    0    0    0  0.25304243107E+02 -0.15992081760E+02 -0.31898402183E+01  0.30103595779E+02  0.00000000000E+00 0. -1.
</event>
<event>
 5    1  0.1659417E-003  0.9118800E+02  0.7818608E-02  0.1130116E+00
         25   -1    0    0    0    0  0.00000000000E+00  0.00000000000E+00  0.99999998245E-14  0.12500000000E+03  0.12500000000E+03 0.  0.
        -11    1    3    3    0    0  0.15587763236E+02  0.71575892262E+01 -0.60064149814E+02  0.62465282672E+02  0.51100000000E-03 0.  1.
         23    2    1    0    0    0  0.79124682369E+01  0.46002333885E+01 -0.27613027571E+02  0.95909647777E+02  0.91391531031E+02 0.  0.
         11    1    3    3    0    0 -0.76752949988E+01 -0.25573558377E+01  0.32451122242E+02  0.33444365105E+02  0.51100000000E-03 0. -1.
         22    1    1    0    0    0 -0.79124682369E+01 -0.46002333885E+01  0.27613027571E+02  0.29090352223E+02  0.00000000000E+00 0.  1.
</event>
<event>
 5    1  0.1659417E-003  0.9118800E+02  0.7818608E-02  0.1130116E+00
         25   -1    0    0    0    0  0.00000000000E+00  0.00000000000E+00  0.99999998245E-14  0.12500000000E+03  0.12500000000E+03 0.  0.
        -11    1    3    3    0    0 -0.94746593555E+01 -0.55471741991E+00 -0.33107000620E+02  0.34440533846E+02  0.51100000000E-03 0. -1.
         23    2    1    0    0    0  0.20539540280E+01 -0.16642747176E+02  0.24476289536E+02  0.95330343613E+02  0.90595727842E+02 0.  0.
         11    1    3    3    0    0  0.11528613384E+02 -0.16088029756E+02  0.57583290156E+02  0.60889809766E+02  0.51100000000E-03 0.  1.
         22    1    1    0    0    0 -0.20539540280E+01  0.16642747176E+02 -0.24476289536E+02  0.29669656387E+02  0.00000000000E+00 0.  1.
</event>
<event>
 5    1  0.1659417E-003  0.9118800E+02  0.7818608E-02  0.1130116E+00
         25   -1    0    0    0    0  0.00000000000E+00  0.00000000000E+00  0.99999998245E-14  0.12500000000E+03  0.12500000000E+03 0.  0.
        -11    1    3    3    0    0 -0.95051839483E+01 -0.28069618583E+02 -0.46004704256E+02  0.54723713537E+02  0.51100000000E-03 0.  1.
         23    2    1    0    0    0 -0.12846585344E+02  0.72256653085E+01 -0.25131781001E+02  0.95864945333E+02  0.91330369173E+02 0.  0.
         11    1    3    3    0    0 -0.33414013958E+01  0.35295283891E+02  0.20872923255E+02  0.41141231796E+02  0.51100000000E-03 0. -1.
         22    1    1    0    0    0  0.12846585344E+02 -0.72256653085E+01  0.25131781001E+02  0.29135054667E+02  0.00000000000E+00 0.  1.
</event>
<event>
 5    1  0.1659417E-003  0.9118800E+02  0.7818608E-02  0.1130116E+00
         25   -1    0    0    0    0  0.00000000000E+00  0.00000000000E+00  0.99999998245E-14  0.12500000000E+03  0.12500000000E+03 0.  0.
        -11    1    3    3    0    0 -0.32790958860E+02  0.68534039265E+01  0.79688164909E+01  0.34434258593E+02  0.51100000000E-03 0.  1.
         23    2    1    0    0    0  0.27324943611E+02 -0.68145525454E+01  0.64794913050E+01  0.96102344778E+02  0.91654711797E+02 0.  0.
         11    1    3    3    0    0  0.60115902471E+02 -0.13667956472E+02 -0.14893251859E+01  0.61668086185E+02  0.51100000000E-03 0. -1.
         22    1    1    0    0    0 -0.27324943611E+02  0.68145525454E+01 -0.64794913050E+01  0.28897655222E+02  0.00000000000E+00 0. -1.
</event>
<event>
 5    1  0.1659417E-003  0.9118800E+02  0.7818608E-02  0.1130116E+00
         25   -1    0    0    0    0  0.00000000000E+00  0.00000000000E+00  0.99999998245E-14  0.12500000000E+03  0.12500000000E+03 0.  0.
        -11    1    3    3    0    0  0.37457146751E+02 -0.34884986812E+02  0.41243041254E+01  0.51351825989E+02  0.51100000000E-03 0. -1.
         23    2    1    0    0    0  0.10435351441E+02 -0.11166537580E+02  0.27005367165E+02  0.93969724833E+02  0.88698541185E+02 0.  0.
         11    1    3    3    0    0 -0.27021795311E+02  0.23718449233E+02  0.22881063039E+02  0.42617898844E+02  0.51100000000E-03 0.  1.
         22    1    1    0    0    0 -0.10435351441E+02  0.11166537580E+02 -0.27005367165E+02  0.31030275167E+02  0.00000000000E+00 0. -1.
</event>
<event>
 5    1  0.1659417E-003  0.9118800E+02  0.7818608E-02  0.1130116E+00
         25   -1    0    0    0    0  0.00000000000E+00  0.00000000000E+00  0.99999998245E-14  0.12500000000E+03  0.12500000000E+03 0.  0.
        -11    1    3    3    0    0 -0.11332231486E+02  0.29106630754E+02 -0.43390008497E+02  0.53463148635E+02  0.51100000000E-03 0.  1.
         23    2    1    0    0    0 -0.13536076256E+02  0.22447646224E+02  0.13524941740E+01  0.98752115859E+02  0.95199942042E+02 0.  0.
         11    1    3    3    0    0 -0.22038447697E+01 -0.66589845300E+01  0.44742502671E+02  0.45288967225E+02  0.51100000000E-03 0. -1.
         22    1    1    0    0    0  0.13536076256E+02 -0.22447646224E+02 -0.13524941740E+01  0.26247884141E+02  0.00000000000E+00 0.  1.
</event>
<event>
 5    1  0.1659417E-003  0.9118800E+02  0.7818608E-02  0.1130116E+00
         25   -1    0    0    0    0  0.00000000000E+00  0.00000000000E+00  0.99999998245E-14  0.12500000000E+03  0.12500000000E+03 0.  0.
        -11    1    3    3    0    0 -0.37809713785E+02 -0.20855128734E+02 -0.44252233857E+02  0.61828561787E+02  0.51100000000E-03 0.  1.
         23    2    1    0    0    0 -0.28494354194E+02 -0.13542452624E+02 -0.23729220261E+02  0.85523397585E+02  0.75867314414E+02 0.  0.
         11    1    3    3    0    0  0.93153595906E+01  0.73126761101E+01  0.20523013596E+02  0.23694835799E+02  0.51100000000E-03 0. -1.
         22    1    1    0    0    0  0.28494354194E+02  0.13542452624E+02  0.23729220261E+02  0.39476602415E+02  0.00000000000E+00 0.  1.
</event>
<event>
 5    1  0.1659417E-003  0.9118800E+02  0.7818608E-02  0.1130116E+00
         25   -1    0    0    0    0  0.00000000000E+00  0.00000000000E+00  0.99999998245E-14  0.12500000000E+03  0.12500000000E+03 0.  0.
        -11    1    3    3    0    0 -0.18969060385E+02  0.34779985810E+02 -0.50165319861E+01  0.39932921985E+02  0.51100000000E-03 0. -1.
         23    2    1    0    0    0  0.90667683117E+01 -0.59884579819E+01 -0.28351547845E+02  0.94637553099E+02  0.89634749259E+02 0.  0.
         11    1    3    3    0    0  0.28035828697E+02 -0.40768443792E+02 -0.23335015859E+02  0.54704631114E+02  0.51100000000E-03 0.  1.
         22    1    1    0    0    0 -0.90667683117E+01  0.59884579819E+01  0.28351547845E+02  0.30362446901E+02  0.00000000000E+00 0.  1.
</event>
<event>
 5    1  0.1659417E-003  0.9118800E+02  0.7818608E-02  0.1130116E+00
         25   -1    0    0    0    0  0.00000000000E+00  0.00000000000E+00  0.99999998245E-14  0.12500000000E+03  0.12500000000E+03 0.  0.
        -11    1    3    3    0    0 -0.11226737230E+02 -0.28713894762E+01  0.59989192672E+02  0.61098181184E+02  0.51100000000E-03 0.  1.
         23    2    1    0    0    0  0.29839546806E+01  0.34070840461E+01  0.27719655302E+02  0.96912787655E+02  0.92753419958E+02 0.  0.
         11    1    3    3    0    0  0.14210691910E+02  0.62784735223E+01 -0.32269537370E+02  0.35814606471E+02  0.51100000000E-03 0. -1.
         22    1    1    0    0    0 -0.29839546806E+01 -0.34070840461E+01 -0.27719655302E+02  0.28087212345E+02  0.00000000000E+00 0.  1.
</event>
<event>
 5    1  0.1659417E-003  0.9118800E+02  0.7818608E-02  0.1130116E+00
         25   -1    0    0    0    0  0.00000000000E+00  0.00000000000E+00  0.99999998245E-14  0.12500000000E+03  0.12500000000E+03 0.  0.
        -11    1    3    3    0    0 -0.18480436494E+02 -0.52290457796E+02 -0.87209845315E+00  0.55466918659E+02  0.51100000000E-03 0.  1.
         23    2    1    0    0    0 -0.22852565627E+02 -0.15579605468E+02  0.12322435037E+02  0.94721191115E+02  0.89751310736E+02 0.  0.
         11    1    3    3    0    0 -0.43721291325E+01  0.36710852328E+02  0.13194533490E+02  0.39254272457E+02  0.51100000000E-03 0. -1.
         22    1    1    0    0    0  0.22852565627E+02  0.15579605468E+02 -0.12322435037E+02  0.30278808885E+02  0.00000000000E+00 0.  1.
</event>
<event>
 5    1  0.1659417E-003  0.9118800E+02  0.7818608E-02  0.1130116E+00
         25   -1    0    0    0    0  0.00000000000E+00  0.00000000000E+00  0.99999998245E-14  0.12500000000E+03  0.12500000000E+03 0.  0.
        -11    1    3    3    0    0 -0.46293755458E+02 -0.25707179981E+02  0.11172744450E+02  0.54118399050E+02  0.51100000000E-03 0.  1.
         23    2    1    0    0    0 -0.51957446813E+01 -0.28194211264E+02  0.22835751488E+01  0.96240235970E+02  0.91842577232E+02 0.  0.
         11    1    3    3    0    0  0.41098010777E+02 -0.24870312825E+01 -0.88891693008E+01  0.42121836920E+02  0.51100000000E-03 0. -1.
         22    1    1    0    0    0  0.51957446813E+01  0.28194211264E+02 -0.22835751488E+01  0.28759764030E+02  0.00000000000E+00 0.  1.
</event>
<event>
 5    1  0.1659417E-003  0.9118800E+02  0.7818608E-02  0.1130116E+00
         25   -1    0    0    0    0  0.00000000000E+00  0.00000000000E+00  0.99999998245E-14  0.12500000000E+03  0.12500000000E+03 0.  0.
        -11    1    3    3    0    0  0.33438590716E+02  0.16156859321E+02  0.39187714468E+01  0.37343543245E+02  0.51100000000E-03 0. -1.
         23    2    1    0    0    0 -0.77721875996E+01 -0.70961656890E+01 -0.28444600675E+02  0.94670842822E+02  0.89681161375E+02 0.  0.
         11    1    3    3    0    0 -0.41210778315E+02 -0.23253025010E+02 -0.32363372122E+02  0.57327299577E+02  0.51100000000E-03 0.  1.
         22    1    1    0    0    0  0.77721875996E+01  0.70961656890E+01  0.28444600675E+02  0.30329157178E+02  0.00000000000E+00 0.  1.
</event>
<event>
 5    1  0.1659417E-003  0.9118800E+02  0.7818608E-02  0.1130116E+00
         25   -1    0    0    0    0  0.00000000000E+00  0.00000000000E+00  0.99999998245E-14  0.12500000000E+03  0.12500000000E+03 0.  0.
        -11    1    3    3    0    0  0.53077484505E+02 -0.13396768709E+02 -0.25969297994E+02  0.60589580060E+02  0.51100000000E-03 0.  1.
         23    2    1    0    0    0  0.28491276312E+02 -0.37656314337E+01 -0.20999427329E+01  0.96184334721E+02  0.91766462720E+02 0.  0.
         11    1    3    3    0    0 -0.24586208193E+02  0.96311372749E+01  0.23869355261E+02  0.35594754661E+02  0.51100000000E-03 0. -1.
         22    1    1    0    0    0 -0.28491276312E+02  0.37656314337E+01  0.20999427329E+01  0.28815665279E+02  0.00000000000E+00 0.  1.
</event>
<event>
 5    1  0.1659417E-003  0.9118800E+02  0.7818608E-02  0.1130116E+00
         25   -1    0    0    0    0  0.00000000000E+00  0.00000000000E+00  0.99999998245E-14  0.12500000000E+03  0.12500000000E+03 0.  0.
        -11    1    3    3    0    0  0.24141413879E+02 -0.33717486269E+02  0.35837533697E+02  0.54808809202E+02  0.51100000000E-03 0. -1.
         23    2    1    0    0    0 -0.43183424917E+01 -0.31354603690E+02  0.16409591464E+02  0.89348436970E+02  0.81927463299E+02 0.  0.
         11    1    3    3    0    0 -0.28459756370E+02  0.23628825790E+01 -0.19427942233E+02  0.34539627769E+02  0.51100000000E-03 0.  1.
         22    1    1    0    0    0  0.43183424917E+01  0.31354603690E+02 -0.16409591464E+02  0.35651563030E+02  0.00000000000E+00 0.  1.
</event>
<event>
 5    1  0.1659417E-003  0.9118800E+02  0.7818608E-02  0.1130116E+00
         25   -1    0    0    0    0  0.00000000000E+00  0.00000000000E+00  0.99999998245E-14  0.12500000000E+03  0.12500000000E+03 0.  0.
        -11    1    3    3    0    0  0.32416776272E+02  0.45644126120E+02  0.21372243558E+02  0.59925006701E+02  0.51100000000E-03 0.  1.
         23    2    1    0    0    0  0.19516250223E+02  0.21804686695E+02 -0.19340135747E+01  0.95673070513E+02  0.91067379606E+02 0.  0.
         11    1    3    3    0    0 -0.12900526049E+02 -0.23839439426E+02 -0.23306257133E+02  0.35748063812E+02  0.51100000000E-03 0. -1.
         22    1    1    0    0    0 -0.19516250223E+02 -0.21804686695E+02  0.19340135747E+01  0.29326929487E+02  0.00000000000E+00 0.  1.
</event>
<event>
 5    1  0.1659417E-003  0.9118800E+02  0.7818608E-02  0.1130116E+00
         25   -1    0    0    0    0  0.00000000000E+00  0.00000000000E+00  0.99999998245E-14  0.12500000000E+03  0.12500000000E+03 0.  0.
        -11    1    3    3    0    0  0.88863195898E+00 -0.59158570285E+01  0.36058097843E+02  0.36550970595E+02  0.51100000000E-03 0.  1.
         23    2    1    0    0    0 -0.16764138182E+02  0.11101291274E+02 -0.19320730026E+02  0.97115136621E+02  0.93025717709E+02 0.  0.
         11    1    3    3    0    0 -0.17652770141E+02  0.17017148302E+02 -0.55378827869E+02  0.60564166026E+02  0.51100000000E-03 0. -1.
         22    1    1    0    0    0  0.16764138182E+02 -0.11101291274E+02  0.19320730026E+02  0.27884863379E+02  0.00000000000E+00 0. -1.
</event>
<event>
 5    1  0.1659417E-003  0.9118800E+02  0.7818608E-02  0.1130116E+00
         25   -1    0    0    0    0  0.00000000000E+00  0.00000000000E+00  0.99999998245E-14  0.12500000000E+03  0.12500000000E+03 0.  0.
        -11    1    3    3    0    0 -0.20642881186E+02 -0.26373311915E+02  0.37879662498E+02  0.50562327441E+02  0.51100000000E-03 0. -1.
         23    2    1    0    0    0  0.85816033869E+00 -0.32360435018E+02  0.23211017201E+01  0.92545081931E+02  0.86667586113E+02 0.  0.
         11    1    3    3    0    0  0.21501041525E+02 -0.59871231024E+01 -0.35558560778E+02  0.41982754490E+02  0.51100000000E-03 0.  1.
         22    1    1    0    0    0 -0.85816033869E+00  0.32360435018E+02 -0.23211017201E+01  0.32454918069E+02  0.00000000000E+00 0. -1.
</event>
<event>
 5    1  0.1659417E-003  0.9118800E+02  0.7818608E-02  0.1130116E+00
         25   -1    0    0    0    0  0.00000000000E+00  0.00000000000E+00  0.99999998245E-14  0.12500000000E+03  0.12500000000E+03 0.  0.
        -11    1    3    3    0    0 -0.30150506005E+02 -0.13394346495E+02  0.10600173126E+02  0.34652924854E+02  0.51100000000E-03 0. -1.
         23    2    1    0    0    0  0.25291664708E+02  0.99704540029E+01  0.13001171530E+02  0.94865157742E+02  0.89951594959E+02 0.  0.
         11    1    3    3    0    0  0.55442170714E+02  0.23364800498E+02  0.24009984033E+01  0.60212232888E+02  0.51100000000E-03 0.  1.
         22    1    1    0    0    0 -0.25291664708E+02 -0.99704540029E+01 -0.13001171530E+02  0.30134842258E+02  0.00000000000E+00 0.  1.
</event>
<event>
 5    1  0.1659417E-003  0.9118800E+02  0.7818608E-02  0.1130116E+00
         25   -1    0    0    0    0  0.00000000000E+00  0.00000000000E+00  0.99999998245E-14  0.12500000000E+03  0.12500000000E+03 0.  0.
        -11    1    3    3    0    0 -0.86974069157E+01  0.32992161952E+02 -0.43299282651E+02  0.55126722338E+02  0.51100000000E-03 0.  1.
         23    2    1    0    0    0  0.13575195959E+02  0.23030933498E+02 -0.98931936911E+01  0.96494121228E+02  0.92187473699E+02 0.  0.
         11    1    3    3    0    0  0.22272602875E+02 -0.99612284537E+01  0.33406088960E+02  0.41367398891E+02  0.51100000000E-03 0. -1.
         22    1    1    0    0    0 -0.13575195959E+02 -0.23030933498E+02  0.98931936911E+01  0.28505878772E+02  0.00000000000E+00 0.  1.
</event>
<event>
 5    1  0.1659417E-003  0.9118800E+02  0.7818608E-02  0.1130116E+00
         25   -1    0    0    0    0  0.00000000000E+00  0.00000000000E+00  0.99999998245E-14  0.12500000000E+03  0.12500000000E+03 0.  0.
        -11    1    3    3    0    0  0.32711799449E+02  0.81683162602E+01 -0.11829787429E+02  0.35731317980E+02  0.51100000000E-03 0.  1.
         23    2    1    0    0    0 -0.26969694754E+02 -0.15435169061E+01  0.24941188090E+01  0.97871278906E+02  0.94036268144E+02 0.  0.
         11    1    3    3    0    0 -0.59681494203E+02 -0.97118331663E+01  0.14323906238E+02  0.62139960926E+02  0.51100000000E-03 0. -1.
         22    1    1    0    0    0  0.26969694754E+02  0.15435169061E+01 -0.24941188090E+01  0.27128721094E+02  0.00000000000E+00 0. -1.
</event>
<event>
 5    1  0.1659417E-003  0.9118800E+02  0.7818608E-02  0.1130116E+00
         25   -1    0    0    0    0  0.00000000000E+00  0.00000000000E+00  0.99999998245E-14  0.12500000000E+03  0.12500000000E+03 0.  0.
        -11    1    3    3    0    0  0.21495932275E+01 -0.16264037527E+02 -0.40858094219E+02  0.44028667152E+02  0.51100000000E-03 0.  1.
         23    2    1    0    0    0  0.22777163699E+02  0.18322782063E+02 -0.21512321009E+02  0.88705324304E+02  0.80940293278E+02 0.  0.
         11    1    3    3    0    0  0.20627570471E+02  0.34586819590E+02  0.19345773210E+02  0.44676657152E+02  0.51100000000E-03 0. -1.
         22    1    1    0    0    0 -0.22777163699E+02 -0.18322782063E+02  0.21512321009E+02  0.36294675696E+02  0.00000000000E+00 0. -1.
</event>
<event>
 5    1  0.1659417E-003  0.9118800E+02  0.7818608E-02  0.1130116E+00
         25   -1    0    0    0    0  0.00000000000E+00  0.00000000000E+00  0.99999998245E-14  0.12500000000E+03  0.12500000000E+03 0.  0.
        -11    1    3    3    0    0 -0.25299973195E+02  0.21043990767E+02  0.10231069988E+02  0.34461761191E+02  0.51100000000E-03 0. -1.
         23    2    1    0    0    0  0.14237389447E+02 -0.25194841157E+02  0.61966958286E+00  0.96054062986E+02  0.91588840732E+02 0.  0.
         11    1    3    3    0    0  0.39537362642E+02 -0.46238831924E+02 -0.96114004047E+01  0.61592301795E+02  0.51100000000E-03 0.  1.
         22    1    1    0    0    0 -0.14237389447E+02  0.25194841157E+02 -0.61966958286E+00  0.28945937014E+02  0.00000000000E+00 0.  1.
</event>
<event>
 5    1  0.1659417E-003  0.9118800E+02  0.7818608E-02  0.1130116E+00
         25   -1    0    0    0    0  0.00000000000E+00  0.00000000000E+00  0.99999998245E-14  0.12500000000E+03  0.12500000000E+03 0.  0.
        -11    1    3    3    0    0 -0.16768390265E+02  0.18303266343E+02 -0.27056987443E+02  0.36718783213E+02  0.51100000000E-03 0.  1.
         23    2    1    0    0    0  0.58711115779E+01  0.12592066948E+02  0.26463757021E+02  0.95110862560E+02  0.90292389713E+02 0.  0.
         11    1    3    3    0    0  0.22639501843E+02 -0.57111993942E+01  0.53520744464E+02  0.58392079347E+02  0.51100000000E-03 0. -1.
         22    1    1    0    0    0 -0.58711115779E+01 -0.12592066948E+02 -0.26463757021E+02  0.29889137440E+02  0.00000000000E+00 0. -1.
</event>
<event>
 5    1  0.1659417E-003  0.9118800E+02  0.7818608E-02  0.1130116E+00
         25   -1    0    0    0    0  0.00000000000E+00  0.00000000000E+00  0.99999998245E-14  0.12500000000E+03  0.12500000000E+03 0.  0.
        -11    1    3    3    0    0 -0.36882754305E+02  0.37293975842E+01  0.70181272916E+01  0.37729300052E+02  0.51100000000E-03 0.  1.
         23    2    1    0    0    0  0.18486641211E+02 -0.68616508471E+01 -0.16960606380E+02  0.98990380156E+02  0.95512276903E+02 0.  0.
         11    1    3    3    0    0  0.55369395517E+02 -0.10591048431E+02 -0.23978733672E+02  0.61261080104E+02  0.51100000000E-03 0. -1.
         22    1    1    0    0    0 -0.18486641211E+02  0.68616508471E+01  0.16960606380E+02  0.26009619844E+02  0.00000000000E+00 0. -1.
</event>
<event>
 5    1  0.1659417E-003  0.9118800E+02  0.7818608E-02  0.1130116E+00
         25   -1    0    0    0    0  0.00000000000E+00  0.00000000000E+00  0.99999998245E-14  0.12500000000E+03  0.12500000000E+03 0.  0.
        -11    1    3    3    0    0 -0.18861137939E+02 -0.36578689267E+02  0.12802326120E+02  0.43100378040E+02  0.51100000000E-03 0.  1.
         23    2    1    0    0    0 -0.19003282744E+02  0.16941155206E+02  0.12539414214E+02  0.96621057038E+02  0.92359429727E+02 0.  0.
         11    1    3    3    0    0 -0.14214480583E+00  0.53519844473E+02 -0.26291190568E+00  0.53520678999E+02  0.51100000000E-03 0. -1.
         22    1    1    0    0    0  0.19003282744E+02 -0.16941155206E+02 -0.12539414214E+02  0.28378942962E+02  0.00000000000E+00 0. -1.
</event>
<event>
 5    1  0.1659417E-003  0.9118800E+02  0.7818608E-02  0.1130116E+00
         25   -1    0    0    0    0  0.00000000000E+00  0.00000000000E+00  0.99999998245E-14  0.12500000000E+03  0.12500000000E+03 0.  0.
        -11    1    3    3    0    0  0.25486446773E+02  0.12349606348E+02  0.22633611362E+02  0.36253994396E+02  0.51100000000E-03 0.  1.
         23    2    1    0    0    0  0.63332416631E+01 -0.19699583790E+02 -0.22235599380E+02  0.94625579327E+02  0.89618049698E+02 0.  0.
         11    1    3    3    0    0 -0.19153205110E+02 -0.32049190138E+02 -0.44869210742E+02  0.58371584931E+02  0.51100000000E-03 0. -1.
         22    1    1    0    0    0 -0.63332416631E+01  0.19699583790E+02  0.22235599380E+02  0.30374420673E+02  0.00000000000E+00 0. -1.
</event>
<event>
 5    1  0.1659417E-003  0.9118800E+02  0.7818608E-02  0.1130116E+00
         25   -1    0    0    0    0  0.00000000000E+00  0.00000000000E+00  0.99999998245E-14  0.12500000000E+03  0.12500000000E+03 0.  0.
        -11    1    3    3    0    0 -0.31392154468E+02 -0.78614307056E+01  0.42960637023E+02  0.53785553716E+02  0.51100000000E-03 0.  1.
         23    2    1    0    0    0 -0.37901120511E+02  0.19919256470E+01  0.14905883247E+02  0.84224418347E+02  0.73696028298E+02 0.  0.
         11    1    3    3    0    0 -0.65089660422E+01  0.98533563526E+01 -0.28054753776E+02  0.30438864631E+02  0.51100000000E-03 0. -1.
         22    1    1    0    0    0  0.37901120511E+02 -0.19919256470E+01 -0.14905883247E+02  0.40775581653E+02  0.00000000000E+00 0.  1.
</event>
<event>
 5    1  0.1659417E-003  0.9118800E+02  0.7818608E-02  0.1130116E+00
         25   -1    0    0    0    0  0.00000000000E+00  0.00000000000E+00  0.99999998245E-14  0.12500000000E+03  0.12500000000E+03 0.  0.
        -11    1    3    3    0    0 -0.27964482769E+02 -0.26400737877E+02  0.46882195034E+01  0.38742620708E+02  0.51100000000E-03 0.  1.
         23    2    1    0    0    0  0.47128002595E+01  0.51375818330E+01 -0.28927192242E+02  0.95244535219E+02  0.90477255731E+02 0.  0.
         11    1    3    3    0    0  0.32677283029E+02  0.31538319710E+02 -0.33615411745E+02  0.56501914510E+02  0.51100000000E-03 0. -1.
         22    1    1    0    0    0 -0.47128002595E+01 -0.51375818330E+01  0.28927192242E+02  0.29755464781E+02  0.00000000000E+00 0. -1.
</event>
<event>
 5    1  0.1659417E-003  0.9118800E+02  0.7818608E-02  0.1130116E+00
         25   -1    0    0    0    0  0.00000000000E+00  0.00000000000E+00  0.99999998245E-14  0.12500000000E+03  0.12500000000E+03 0.  0.
        -11    1    3    3    0    0  0.13950868569E+02 -0.46727598998E+02  0.74291541518E+01  0.49328364797E+02  0.51100000000E-03 0.  1.
         23    2    1    0    0    0  0.29339427632E+02 -0.36600116446E+01  0.24934715678E+01  0.95328210376E+02  0.90592784448E+02 0.  0.
         11    1    3    3    0    0  0.15388559064E+02  0.43067587353E+02 -0.49356825841E+01  0.45999845579E+02  0.51100000000E-03 0. -1.
         22    1    1    0    0    0 -0.29339427632E+02  0.36600116446E+01 -0.24934715678E+01  0.29671789624E+02  0.00000000000E+00 0.  1.
</event>
<event>
 5    1  0.1659417E-003  0.9118800E+02  0.7818608E-02  0.1130116E+00
         25   -1    0    0    0    0  0.00000000000E+00  0.00000000000E+00  0.99999998245E-14  0.12500000000E+03  0.12500000000E+03 0.  0.
        -11    1    3    3    0    0  0.25395109109E+02  0.22112510853E+02  0.94374424029E+01  0.34970559365E+02  0.51100000000E-03 0.  1.
         23    2    1    0    0    0 -0.22918158029E+02 -0.15650031737E+02  0.71891739892E+01  0.96332079192E+02  0.91967493159E+02 0.  0.
         11    1    3    3    0    0 -0.48313267138E+02 -0.37762542590E+02 -0.22482684137E+01  0.61361519827E+02  0.51100000000E-03 0. -1.
         22    1    1    0    0    0  0.22918158029E+02  0.15650031737E+02 -0.71891739892E+01  0.28667920808E+02  0.00000000000E+00 0. -1.
</event>
<event>
 5    1  0.1659417E-003  0.9118800E+02  0.7818608E-02  0.1130116E+00
         25   -1    0    0    0    0  0.00000000000E+00  0.00000000000E+00  0.99999998245E-14  0.12500000000E+03  0.12500000000E+03 0.  0.
        -11    1    3    3    0    0 -0.62402099156E+01 -0.58003911575E+02 -0.24774942465E+01  0.58391197588E+02  0.51100000000E-03 0.  1.
         23    2    1    0    0    0 -0.14959294452E+02 -0.23037048360E+02  0.88078975957E+01  0.96154460523E+02  0.91725760454E+02 0.  0.
         11    1    3    3    0    0 -0.87190845360E+01  0.34966863215E+02  0.11285391842E+02  0.37763262935E+02  0.51100000000E-03 0. -1.
         22    1    1    0    0    0  0.14959294452E+02  0.23037048360E+02 -0.88078975957E+01  0.28845539477E+02  0.00000000000E+00 0.  1.
</event>
<event>
 5    1  0.1659417E-003  0.9118800E+02  0.7818608E-02  0.1130116E+00
         25   -1    0    0    0    0  0.00000000000E+00  0.00000000000E+00  0.99999998245E-14  0.12500000000E+03  0.12500000000E+03 0.  0.
        -11    1    3    3    0    0  0.35558014798E+02  0.32926509239E+02 -0.17997678073E+01  0.48495016150E+02  0.51100000000E-03 0.  1.
         23    2    1    0    0    0 -0.15499087595E+01  0.32810671732E+02 -0.16294087118E+02  0.88333398417E+02  0.80363857574E+02 0.  0.
         11    1    3    3    0    0 -0.37107923557E+02 -0.11583750666E+00 -0.14494319311E+02  0.39838382266E+02  0.51100000000E-03 0. -1.
         22    1    1    0    0    0  0.15499087595E+01 -0.32810671732E+02  0.16294087118E+02  0.36666601583E+02  0.00000000000E+00 0.  1.
</event>
<event>
 5    1  0.1659417E-003  0.9118800E+02  0.7818608E-02  0.1130116E+00
         25   -1    0    0    0    0  0.00000000000E+00  0.00000000000E+00  0.99999998245E-14  0.12500000000E+03  0.12500000000E+03 0.  0.
        -11    1    3    3    0    0  0.34660012669E+02 -0.69879756261E+01 -0.42181912936E+02  0.55040549241E+02  0.51100000000E-03 0.  1.
         23    2    1    0    0    0  0.28207761960E+02 -0.50761218786E+01 -0.14736686482E+01  0.96301279690E+02  0.91925621687E+02 0.  0.
         11    1    3    3    0    0 -0.64522507087E+01  0.19118537474E+01  0.40708244288E+02  0.41260730449E+02  0.51100000000E-03 0. -1.
         22    1    1    0    0    0 -0.28207761960E+02  0.50761218786E+01  0.14736686482E+01  0.28698720310E+02  0.00000000000E+00 0.  1.
</event>
<event>
 5    1  0.1659417E-003  0.9118800E+02  0.7818608E-02  0.1130116E+00
         25   -1    0    0    0    0  0.00000000000E+00  0.00000000000E+00  0.99999998245E-14  0.12500000000E+03  0.12500000000E+03 0.  0.
        -11    1    3    3    0    0 -0.50710691908E+02 -0.22668544622E+02 -0.17829830593E+02  0.58338152596E+02  0.51100000000E-03 0.  1.
         23    2    1    0    0    0 -0.16423802321E+02 -0.18561900709E+02 -0.20306480681E+02  0.92958798427E+02  0.87262246170E+02 0.  0.
         11    1    3    3    0    0  0.34286889587E+02  0.41066439132E+01 -0.24766500886E+01  0.34620645831E+02  0.51100000000E-03 0. -1.
         22    1    1    0    0    0  0.16423802321E+02  0.18561900709E+02  0.20306480681E+02  0.32041201573E+02  0.00000000000E+00 0.  1.
</event>
<event>
 5    1  0.1659417E-003  0.9118800E+02  0.7818608E-02  0.1130116E+00
         25   -1    0    0    0    0  0.00000000000E+00  0.00000000000E+00  0.99999998245E-14  0.12500000000E+03  0.12500000000E+03 0.  0.
        -11    1    3    3    0    0 -0.32077897341E+01 -0.24893280545E+02 -0.31225944701E+02  0.40062762686E+02  0.51100000000E-03 0.  1.
         23    2    1    0    0    0 -0.18742161486E+02  0.21428112552E+02 -0.32901167861E+01  0.96342409502E+02  0.91981532796E+02 0.  0.
         11    1    3    3    0    0 -0.15534371751E+02  0.46321393097E+02  0.27935827915E+02  0.56279646816E+02  0.51100000000E-03 0. -1.
         22    1    1    0    0    0  0.18742161486E+02 -0.21428112552E+02  0.32901167861E+01  0.28657590498E+02  0.00000000000E+00 0. -1.
</event>
<event>
 5    1  0.1659417E-003  0.9118800E+02  0.7818608E-02  0.1130116E+00
         25   -1    0    0    0    0  0.00000000000E+00  0.00000000000E+00  0.99999998245E-14  0.12500000000E+03  0.12500000000E+03 0.  0.
        -11    1    3    3    0    0 -0.37813663162E+02  0.58244110314E+01  0.79571750811E+01  0.39078299875E+02  0.51100000000E-03 0.  1.
         23    2    1    0    0    0  0.17105973504E+02  0.97478083362E+01  0.21569816901E+02  0.95795700693E+02  0.91235547750E+02 0.  0.
         11    1    3    3    0    0  0.54919636666E+02  0.39233973048E+01  0.13612641820E+02  0.56717400818E+02  0.51100000000E-03 0. -1.
         22    1    1    0    0    0 -0.17105973504E+02 -0.97478083362E+01 -0.21569816901E+02  0.29204299307E+02  0.00000000000E+00 0. -1.
</event>
<event>
 5    1  0.1659417E-003  0.9118800E+02  0.7818608E-02  0.1130116E+00
         25   -1    0    0    0    0  0.00000000000E+00  0.00000000000E+00  0.99999998245E-14  0.12500000000E+03  0.12500000000E+03 0.  0.
        -11    1    3    3    0    0  0.57674159801E+01 -0.18331775154E+02  0.57356456469E+02  0.60490331181E+02  0.51100000000E-03 0. -1.
         23    2    1    0    0    0  0.12615413117E+02 -0.12520908249E+02  0.23397000117E+02  0.95617328134E+02  0.90990834888E+02 0.  0.
         11    1    3    3    0    0  0.68479971371E+01  0.58108669050E+01 -0.33959456352E+02  0.35126996954E+02  0.51100000000E-03 0.  1.
         22    1    1    0    0    0 -0.12615413117E+02  0.12520908249E+02 -0.23397000117E+02  0.29382671866E+02  0.00000000000E+00 0. -1.
</event>
<event>
 5    1  0.1659417E-003  0.9118800E+02  0.7818608E-02  0.1130116E+00
         25   -1    0    0    0    0  0.00000000000E+00  0.00000000000E+00  0.99999998245E-14  0.12500000000E+03  0.12500000000E+03 0.  0.
        -11    1    3    3    0    0  0.30022415265E+02 -0.31213070645E+02  0.26668800323E+02  0.50860850449E+02  0.51100000000E-03 0.  1.
         23    2    1    0    0    0  0.38104808378E+01 -0.23913655341E+02  0.37676713558E+02  0.80212530541E+02  0.66544215641E+02 0.  0.
         11    1    3    3    0    0 -0.26211934427E+02  0.72994153046E+01  0.11007913235E+02  0.29351680092E+02  0.51100000000E-03 0. -1.
         22    1    1    0    0    0 -0.38104808378E+01  0.23913655341E+02 -0.37676713558E+02  0.44787469459E+02  0.00000000000E+00 0.  1.
</event>
<event>
 5    1  0.1659417E-003  0.9118800E+02  0.7818608E-02  0.1130116E+00
         25   -1    0    0    0    0  0.00000000000E+00  0.00000000000E+00  0.99999998245E-14  0.12500000000E+03  0.12500000000E+03 0.  0.
        -11    1    3    3    0    0  0.39172551504E+02 -0.34460461423E+02  0.33653741030E+02  0.62085316125E+02  0.51100000000E-03 0. -1.
         23    2    1    0    0    0  0.14463948370E+02 -0.15575330825E+02  0.19108796174E+02  0.96417788329E+02  0.92083913265E+02 0.  0.
         11    1    3    3    0    0 -0.24708603134E+02  0.18885130598E+02 -0.14544944856E+02  0.34332472204E+02  0.51100000000E-03 0.  1.
         22    1    1    0    0    0 -0.14463948370E+02  0.15575330825E+02 -0.19108796174E+02  0.28582211671E+02  0.00000000000E+00 0. -1.
</event>
<event>
 5    1  0.1659417E-003  0.9118800E+02  0.7818608E-02  0.1130116E+00
         25   -1    0    0    0    0  0.00000000000E+00  0.00000000000E+00  0.99999998245E-14  0.12500000000E+03  0.12500000000E+03 0.  0.
        -11    1    3    3    0    0  0.14923304410E+02 -0.42316979416E+02 -0.34708937514E+01  0.45005320409E+02  0.51100000000E-03 0.  1.
         23    2    1    0    0    0 -0.24038003262E+02 -0.10723640998E+02 -0.12315080010E+02  0.95940005631E+02  0.91433043304E+02 0.  0.
         11    1    3    3    0    0 -0.38961307672E+02  0.31593338417E+02 -0.88441862588E+01  0.50934685222E+02  0.51100000000E-03 0. -1.
         22    1    1    0    0    0  0.24038003262E+02  0.10723640998E+02  0.12315080010E+02  0.29059994369E+02  0.00000000000E+00 0. -1.
</event>
<event>
 5    1  0.1659417E-003  0.9118800E+02  0.7818608E-02  0.1130116E+00
         25   -1    0    0    0    0  0.00000000000E+00  0.00000000000E+00  0.99999998245E-14  0.12500000000E+03  0.12500000000E+03 0.  0.
        -11    1    3    3    0    0  0.32620161374E+02 -0.10650120867E+02  0.74073842310E+01  0.35105118486E+02  0.51100000000E-03 0. -1.
         23    2    1    0    0    0 -0.13551728933E+02  0.26301998225E+01 -0.27323074758E+02  0.94387621419E+02  0.89285527129E+02 0.  0.
         11    1    3    3    0    0 -0.46171890307E+02  0.13280320689E+02 -0.34730458989E+02  0.59282502932E+02  0.51100000000E-03 0.  1.
         22    1    1    0    0    0  0.13551728933E+02 -0.26301998225E+01  0.27323074758E+02  0.30612378581E+02  0.00000000000E+00 0.  1.
</event>
<event>
 5    1  0.1659417E-003  0.9118800E+02  0.7818608E-02  0.1130116E+00
         25   -1    0    0    0    0  0.00000000000E+00  0.00000000000E+00  0.99999998245E-14  0.12500000000E+03  0.12500000000E+03 0.  0.
        -11    1    3    3    0    0  0.15179052675E+02 -0.47696372820E+01 -0.42589636888E+01  0.16470939617E+02  0.51100000000E-03 0. -1.
         23    2    1    0    0    0 -0.38931545321E+02 -0.28354633810E+02  0.62733274626E+01  0.76430409544E+02  0.59013577981E+02 0.  0.
         11    1    3    3    0    0 -0.54110597996E+02 -0.23584996528E+02  0.10532291151E+02  0.59959469927E+02  0.51100000000E-03 0.  1.
         22    1    1    0    0    0  0.38931545321E+02  0.28354633810E+02 -0.62733274626E+01  0.48569590456E+02  0.00000000000E+00 0.  1.
</event>
<event>
 5    1  0.1659417E-003  0.9118800E+02  0.7818608E-02  0.1130116E+00
         25   -1    0    0    0    0  0.00000000000E+00  0.00000000000E+00  0.99999998245E-14  0.12500000000E+03  0.12500000000E+03 0.  0.
        -11    1    3    3    0    0 -0.13808795443E+02 -0.21073731558E+01 -0.59007089582E+02  0.60637945829E+02  0.51100000000E-03 0. -1.
         23    2    1    0    0    0 -0.15904966774E+02  0.31121367490E+01 -0.24341783945E+02  0.95756610853E+02  0.91181975813E+02 0.  0.
         11    1    3    3    0    0 -0.20961713305E+01  0.52195099048E+01  0.34665305637E+02  0.35118665024E+02  0.51100000000E-03 0.  1.
         22    1    1    0    0    0  0.15904966774E+02 -0.31121367490E+01  0.24341783945E+02  0.29243389147E+02  0.00000000000E+00 0. -1.
</event>
<event>
 5    1  0.1659417E-003  0.9118800E+02  0.7818608E-02  0.1130116E+00
         25   -1    0    0    0    0  0.00000000000E+00  0.00000000000E+00  0.99999998245E-14  0.12500000000E+03  0.12500000000E+03 0.  0.
        -11    1    3    3    0    0 -0.92015786277E+01  0.16392592429E+02 -0.30258476528E+02  0.35622486408E+02  0.51100000000E-03 0. -1.
         23    2    1    0    0    0 -0.14793800620E+02 -0.13268252072E+02  0.21614989033E+02  0.95638276605E+02  0.91019608608E+02 0.  0.
         11    1    3    3    0    0 -0.55922219923E+01 -0.29660844501E+02  0.51873465562E+02  0.60015790197E+02  0.51100000000E-03 0.  1.
         22    1    1    0    0    0  0.14793800620E+02  0.13268252072E+02 -0.21614989033E+02  0.29361723395E+02  0.00000000000E+00 0.  1.
</event>
<event>
 5    1  0.1659417E-003  0.9118800E+02  0.7818608E-02  0.1130116E+00
         25   -1    0    0    0    0  0.00000000000E+00  0.00000000000E+00  0.99999998245E-14  0.12500000000E+03  0.12500000000E+03 0.  0.
        -11    1    3    3    0    0  0.24182778912E+02 -0.28665554984E+01 -0.44877783416E+02  0.51059175286E+02  0.51100000000E-03 0.  1.
         23    2    1    0    0    0 -0.13709331329E+02 -0.12237908771E+02 -0.22118406943E+02  0.96243503303E+02  0.91847024044E+02 0.  0.
         11    1    3    3    0    0 -0.37892110241E+02 -0.93713532727E+01  0.22759376473E+02  0.45184328017E+02  0.51100000000E-03 0. -1.
         22    1    1    0    0    0  0.13709331329E+02  0.12237908771E+02  0.22118406943E+02  0.28756496697E+02  0.00000000000E+00 0.  1.
</event>
<event>
 5    1  0.1659417E-003  0.9118800E+02  0.7818608E-02  0.1130116E+00
         25   -1    0    0    0    0  0.00000000000E+00  0.00000000000E+00  0.99999998245E-14  0.12500000000E+03  0.12500000000E+03 0.  0.
        -11    1    3    3    0    0  0.42933389741E+02  0.54484449672E+01 -0.26247227700E+02  0.50615002415E+02  0.51100000000E-03 0. -1.
         23    2    1    0    0    0  0.17920837842E+02 -0.22726009868E+02 -0.86033097960E+00  0.96045412749E+02  0.91577034169E+02 0.  0.
         11    1    3    3    0    0 -0.25012551899E+02 -0.28174454835E+02  0.25386896721E+02  0.45430410334E+02  0.51100000000E-03 0.  1.
         22    1    1    0    0    0 -0.17920837842E+02  0.22726009868E+02  0.86033097960E+00  0.28954587251E+02  0.00000000000E+00 0.  1.
</event>
<event>
 5    1  0.1659417E-003  0.9118800E+02  0.7818608E-02  0.1130116E+00
         25   -1    0    0    0    0  0.00000000000E+00  0.00000000000E+00  0.99999998245E-14  0.12500000000E+03  0.12500000000E+03 0.  0.
        -11    1    3    3    0    0 -0.50642267981E+01 -0.78584998209E+00  0.39837931841E+02  0.40166214246E+02  0.51100000000E-03 0. -1.
         23    2    1    0    0    0  0.28422508950E+02  0.52307847885E+01 -0.41791964458E+01  0.95799558095E+02  0.91240832547E+02 0.  0.
         11    1    3    3    0    0  0.33486735748E+02  0.60166347706E+01 -0.44017128286E+02  0.55633343849E+02  0.51100000000E-03 0.  1.
         22    1    1    0    0    0 -0.28422508950E+02 -0.52307847885E+01  0.41791964458E+01  0.29200441905E+02  0.00000000000E+00 0. -1.
</event>
<event>
 5    1  0.1659417E-003  0.9118800E+02  0.7818608E-02  0.1130116E+00
         25   -1    0    0    0    0  0.00000000000E+00  0.00000000000E+00  0.99999998245E-14  0.12500000000E+03  0.12500000000E+03 0.  0.
        -11    1    3    3    0    0  0.40568564055E+02  0.11262093896E+02 -0.31763844140E+02  0.52740733244E+02  0.51100000000E-03 0. -1.
         23    2    1    0    0    0  0.37731189831E+02  0.87549193299E+01  0.15174236591E+01  0.86236694245E+02  0.77033587228E+02 0.  0.
         11    1    3    3    0    0 -0.28373742241E+01 -0.25071745663E+01  0.33281267799E+02  0.33495961000E+02  0.51100000000E-03 0.  1.
         22    1    1    0    0    0 -0.37731189831E+02 -0.87549193299E+01 -0.15174236591E+01  0.38763305755E+02  0.00000000000E+00 0. -1.
</event>
<event>
 5    1  0.1659417E-003  0.9118800E+02  0.7818608E-02  0.1130116E+00
         25   -1    0    0    0    0  0.00000000000E+00  0.00000000000E+00  0.99999998245E-14  0.12500000000E+03  0.12500000000E+03 0.  0.
        -11    1    3    3    0    0 -0.19565281287E+02  0.13791195246E+02  0.53709156925E+02  0.58801962859E+02  0.51100000000E-03 0. -1.
         23    2    1    0    0    0 -0.86172423432E+00  0.19173949107E+02  0.25133224249E+02  0.93376245413E+02  0.87858188880E+02 0.  0.
         11    1    3    3    0    0  0.18703557053E+02  0.53827538612E+01 -0.28575932676E+02  0.34574282554E+02  0.51100000000E-03 0.  1.
         22    1    1    0    0    0  0.86172423432E+00 -0.19173949107E+02 -0.25133224249E+02  0.31623754587E+02  0.00000000000E+00 0. -1.
</event>
<event>
 5    1  0.1659417E-003  0.9118800E+02  0.7818608E-02  0.1130116E+00
         25   -1    0    0    0    0  0.00000000000E+00  0.00000000000E+00  0.99999998245E-14  0.12500000000E+03  0.12500000000E+03 0.  0.
        -11    1    3    3    0    0 -0.59612353792E+01 -0.41248666947E+02 -0.42960825852E+02  0.59855003219E+02  0.51100000000E-03 0.  1.
         23    2    1    0    0    0 -0.89658767552E+01 -0.97763089503E+01 -0.26187594003E+02  0.95644366089E+02  0.91027971098E+02 0.  0.
         11    1    3    3    0    0 -0.30046413760E+01  0.31472357997E+02  0.16773231849E+02  0.35789362870E+02  0.51100000000E-03 0. -1.
         22    1    1    0    0    0  0.89658767552E+01  0.97763089503E+01  0.26187594003E+02  0.29355633911E+02  0.00000000000E+00 0.  1.
</event>
<event>
 5    1  0.1659417E-003  0.9118800E+02  0.7818608E-02  0.1130116E+00
         25   -1    0    0    0    0  0.00000000000E+00  0.00000000000E+00  0.99999998245E-14  0.12500000000E+03  0.12500000000E+03 0.  0.
        -11    1    3    3    0    0 -0.67046830293E+01 -0.30259263315E+02  0.33339013769E+02  0.45519947608E+02  0.51100000000E-03 0. -1.
         23    2    1    0    0    0 -0.16619048161E+00  0.18433251833E+02  0.22646116672E+02  0.95799674783E+02  0.91240992409E+02 0.  0.
         11    1    3    3    0    0  0.65384925477E+01  0.48692515148E+02 -0.10692897097E+02  0.50279727175E+02  0.51100000000E-03 0.  1.
         22    1    1    0    0    0  0.16619048161E+00 -0.18433251833E+02 -0.22646116672E+02  0.29200325217E+02  0.00000000000E+00 0.  1.
</event>
<event>
 5    1  0.1659417E-003  0.9118800E+02  0.7818608E-02  0.1130116E+00
         25   -1    0    0    0    0  0.00000000000E+00  0.00000000000E+00  0.99999998245E-14  0.12500000000E+03  0.12500000000E+03 0.  0.
        -11    1    3    3    0    0  0.95402497270E+01  0.54910727827E+02 -0.16452081914E+02  0.58110888781E+02  0.51100000000E-03 0.  1.
         23    2    1    0    0    0  0.16346539103E+01  0.26995578148E+02  0.87846329146E+01  0.96564052532E+02  0.92282247118E+02 0.  0.
         11    1    3    3    0    0 -0.79055958167E+01 -0.27915149680E+02  0.25236714829E+02  0.38453163751E+02  0.51100000000E-03 0. -1.
         22    1    1    0    0    0 -0.16346539103E+01 -0.26995578148E+02 -0.87846329146E+01  0.28435947468E+02  0.00000000000E+00 0.  1.
</event>
<event>
 5    1  0.1659417E-003  0.9118800E+02  0.7818608E-02  0.1130116E+00
         25   -1    0    0    0    0  0.00000000000E+00  0.00000000000E+00  0.99999998245E-14  0.12500000000E+03  0.12500000000E+03 0.  0.
        -11    1    3    3    0    0 -0.36759246480E+02 -0.18125121503E+02  0.46279953131E+02  0.61819060922E+02  0.51100000000E-03 0.  1.
         23    2    1    0    0    0 -0.20195817323E+02 -0.14234126115E+02  0.19601943583E+02  0.93460856451E+02  0.87978486647E+02 0.  0.
         11    1    3    3    0    0  0.16563429157E+02  0.38909953886E+01 -0.26678009548E+02  0.31641795528E+02  0.51100000000E-03 0. -1.
         22    1    1    0    0    0  0.20195817323E+02  0.14234126115E+02 -0.19601943583E+02  0.31539143549E+02  0.00000000000E+00 0.  1.
</event>
<event>
 5    1  0.1659417E-003  0.9118800E+02  0.7818608E-02  0.1130116E+00
         25   -1    0    0    0    0  0.00000000000E+00  0.00000000000E+00  0.99999998245E-14  0.12500000000E+03  0.12500000000E+03 0.  0.
        -11    1    3    3    0    0  0.32916435676E+02 -0.22526546217E+02  0.16766586455E+01  0.39921776095E+02  0.51100000000E-03 0.  1.
         23    2    1    0    0    0 -0.23162830851E+02 -0.15046031660E+02 -0.51341467264E+01  0.96906241541E+02  0.92744597607E+02 0.  0.
         11    1    3    3    0    0 -0.56079266526E+02  0.74805145569E+01 -0.68108053720E+01  0.56984465447E+02  0.51100000000E-03 0. -1.
         22    1    1    0    0    0  0.23162830851E+02  0.15046031660E+02  0.51341467264E+01  0.28093758459E+02  0.00000000000E+00 0. -1.
</event>
<event>
 5    1  0.1659417E-003  0.9118800E+02  0.7818608E-02  0.1130116E+00
         25   -1    0    0    0    0  0.00000000000E+00  0.00000000000E+00  0.99999998245E-14  0.12500000000E+03  0.12500000000E+03 0.  0.
        -11    1    3    3    0    0  0.19503186573E+02 -0.29233596616E+02 -0.18713554196E+02  0.39814250822E+02  0.51100000000E-03 0.  1.
         23    2    1    0    0    0 -0.92382222702E+01 -0.78052759001E+01  0.25524645546E+02  0.96755095807E+02  0.92540661073E+02 0.  0.
         11    1    3    3    0    0 -0.28741408843E+02  0.21428320716E+02  0.44238199743E+02  0.56940844986E+02  0.51100000000E-03 0. -1.
         22    1    1    0    0    0  0.92382222702E+01  0.78052759001E+01 -0.25524645546E+02  0.28244904193E+02  0.00000000000E+00 0.  1.
</event>
<event>
 5    1  0.1659417E-003  0.9118800E+02  0.7818608E-02  0.1130116E+00
         25   -1    0    0    0    0  0.00000000000E+00  0.00000000000E+00  0.99999998245E-14  0.12500000000E+03  0.12500000000E+03 0.  0.
        -11    1    3    3    0    0 -0.14631470977E+02 -0.23545585878E+02  0.23758986270E+02  0.36509779321E+02  0.51100000000E-03 0. -1.
         23    2    1    0    0    0  0.84509353593E+01  0.27610450582E+02  0.49253570033E+01  0.95708116630E+02  0.91115471559E+02 0.  0.
         11    1    3    3    0    0  0.23082406336E+02  0.51156036459E+02 -0.18833629266E+02  0.59198337308E+02  0.51100000000E-03 0.  1.
         22    1    1    0    0    0 -0.84509353593E+01 -0.27610450582E+02 -0.49253570033E+01  0.29291883370E+02  0.00000000000E+00 0.  1.
</event>
<event>
 5    1  0.1659417E-003  0.9118800E+02  0.7818608E-02  0.1130116E+00
         25   -1    0    0    0    0  0.00000000000E+00  0.00000000000E+00  0.99999998245E-14  0.12500000000E+03  0.12500000000E+03 0.  0.
        -11    1    3    3    0    0  0.18517087757E+02  0.27625272343E+02  0.14691226727E+02  0.36357535038E+02  0.51100000000E-03 0.  1.
         23    2    1    0    0    0 -0.15781476944E+02 -0.20448407302E+02  0.14429232310E+02  0.95412923078E+02  0.90709595796E+02 0.  0.
         11    1    3    3    0    0 -0.34298564701E+02 -0.48073679645E+02 -0.26199441689E+00  0.59055388040E+02  0.51100000000E-03 0. -1.
         22    1    1    0    0    0  0.15781476944E+02  0.20448407302E+02 -0.14429232310E+02  0.29587076922E+02  0.00000000000E+00 0. -1.
</event>
<event>
 5    1  0.1659417E-003  0.9118800E+02  0.7818608E-02  0.1130116E+00
         25   -1    0    0    0    0  0.00000000000E+00  0.00000000000E+00  0.99999998245E-14  0.12500000000E+03  0.12500000000E+03 0.  0.
        -11    1    3    3    0    0  0.34802560785E+02 -0.20547199042E+00 -0.42318479209E+00  0.34805740067E+02  0.51100000000E-03 0. -1.
         23    2    1    0    0    0 -0.20953057521E+02  0.16698457896E+02 -0.14203424059E+02  0.94674987706E+02  0.89686938439E+02 0.  0.
         11    1    3    3    0    0 -0.55755618307E+02  0.16903929887E+02 -0.13780239267E+02  0.59869247639E+02  0.51100000000E-03 0.  1.
         22    1    1    0    0    0  0.20953057521E+02 -0.16698457896E+02  0.14203424059E+02  0.30325012294E+02  0.00000000000E+00 0.  1.
</event>
<event>
 5    1  0.1659417E-003  0.9118800E+02  0.7818608E-02  0.1130116E+00
         25   -1    0    0    0    0  0.00000000000E+00  0.00000000000E+00  0.99999998245E-14  0.12500000000E+03  0.12500000000E+03 0.  0.
        -11    1    3    3    0    0 -0.15322258592E+02  0.25824037188E+02  0.41961045763E+02  0.51598273875E+02  0.51100000000E-03 0.  1.
         23    2    1    0    0    0 -0.28415061724E-01 -0.23815862842E+00 -0.11761345683E+02  0.11323620898E+03  0.11262349775E+03 0.  0.
         11    1    3    3    0    0  0.15293843530E+02 -0.26062195817E+02 -0.53722391446E+02  0.61637935102E+02  0.51100000000E-03 0. -1.
         22    1    1    0    0    0  0.28415061724E-01  0.23815862842E+00  0.11761345683E+02  0.11763791023E+02  0.00000000000E+00 0. -1.
</event>
<event>
 5    1  0.1659417E-003  0.9118800E+02  0.7818608E-02  0.1130116E+00
         25   -1    0    0    0    0  0.00000000000E+00  0.00000000000E+00  0.99999998245E-14  0.12500000000E+03  0.12500000000E+03 0.  0.
        -11    1    3    3    0    0  0.92465096188E+01 -0.52664034923E+02  0.11246630867E+02  0.54639593891E+02  0.51100000000E-03 0.  1.
         23    2    1    0    0    0 -0.17025785399E+02 -0.24388699831E+02 -0.13093218839E+01  0.95227523252E+02  0.90453749580E+02 0.  0.
         11    1    3    3    0    0 -0.26272295018E+02  0.28275335092E+02 -0.12555952750E+02  0.40587929361E+02  0.51100000000E-03 0. -1.
         22    1    1    0    0    0  0.17025785399E+02  0.24388699831E+02  0.13093218839E+01  0.29772476748E+02  0.00000000000E+00 0.  1.
</event>
<event>
 5    1  0.1659417E-003  0.9118800E+02  0.7818608E-02  0.1130116E+00
         25   -1    0    0    0    0  0.00000000000E+00  0.00000000000E+00  0.99999998245E-14  0.12500000000E+03  0.12500000000E+03 0.  0.
        -11    1    3    3    0    0  0.27776269570E+02 -0.49160542041E+02  0.14837711981E+02  0.58381827156E+02  0.51100000000E-03 0.  1.
         23    2    1    0    0    0  0.15288203232E+02 -0.15207450253E+02  0.20791511232E+02  0.95045323561E+02  0.90201612459E+02 0.  0.
         11    1    3    3    0    0 -0.12488066338E+02  0.33953091788E+02  0.59537992512E+01  0.36663496404E+02  0.51100000000E-03 0. -1.
         22    1    1    0    0    0 -0.15288203232E+02  0.15207450253E+02 -0.20791511232E+02  0.29954676439E+02  0.00000000000E+00 0.  1.
</event>
<event>
 5    1  0.1659417E-003  0.9118800E+02  0.7818608E-02  0.1130116E+00
         25   -1    0    0    0    0  0.00000000000E+00  0.00000000000E+00  0.99999998245E-14  0.12500000000E+03  0.12500000000E+03 0.  0.
        -11    1    3    3    0    0  0.17169722797E+02  0.18509272951E+02  0.21254052428E+02  0.33001928898E+02  0.51100000000E-03 0. -1.
         23    2    1    0    0    0 -0.27130019560E+02 -0.23808997134E+00 -0.15693434262E+02  0.93657081708E+02  0.88256843513E+02 0.  0.
         11    1    3    3    0    0 -0.44299742357E+02 -0.18747362922E+02 -0.36947486690E+02  0.60655152810E+02  0.51100000000E-03 0.  1.
         22    1    1    0    0    0  0.27130019560E+02  0.23808997134E+00  0.15693434262E+02  0.31342918292E+02  0.00000000000E+00 0.  1.
</event>
<event>
 5    1  0.1659417E-003  0.9118800E+02  0.7818608E-02  0.1130116E+00
         25   -1    0    0    0    0  0.00000000000E+00  0.00000000000E+00  0.99999998245E-14  0.12500000000E+03  0.12500000000E+03 0.  0.
        -11    1    3    3    0    0  0.25944886266E+02 -0.23022394926E+02 -0.57002283503E+01  0.35151961467E+02  0.51100000000E-03 0.  1.
         23    2    1    0    0    0 -0.29566779847E+02 -0.42290057183E+00  0.64979220269E+00  0.95423057201E+02  0.90723559786E+02 0.  0.
         11    1    3    3    0    0 -0.55511666113E+02  0.22599494354E+02  0.63500205530E+01  0.60271095734E+02  0.51100000000E-03 0. -1.
         22    1    1    0    0    0  0.29566779847E+02  0.42290057183E+00 -0.64979220269E+00  0.29576942799E+02  0.00000000000E+00 0. -1.
</event>
<event>
 5    1  0.1659417E-003  0.9118800E+02  0.7818608E-02  0.1130116E+00
         25   -1    0    0    0    0  0.00000000000E+00  0.00000000000E+00  0.99999998245E-14  0.12500000000E+03  0.12500000000E+03 0.  0.
        -11    1    3    3    0    0  0.54679015528E+02  0.22502756900E+02  0.17003951957E+02  0.61524817673E+02  0.51100000000E-03 0.  1.
         23    2    1    0    0    0  0.25884408305E+02  0.18322804493E+02  0.12230070064E+02  0.91010260791E+02  0.84424908633E+02 0.  0.
         11    1    3    3    0    0 -0.28794607223E+02 -0.41799524078E+01 -0.47738818933E+01  0.29485443118E+02  0.51100000000E-03 0. -1.
         22    1    1    0    0    0 -0.25884408305E+02 -0.18322804493E+02 -0.12230070064E+02  0.33989739209E+02  0.00000000000E+00 0.  1.
</event>
<event>
 5    1  0.1659417E-003  0.9118800E+02  0.7818608E-02  0.1130116E+00
         25   -1    0    0    0    0  0.00000000000E+00  0.00000000000E+00  0.99999998245E-14  0.12500000000E+03  0.12500000000E+03 0.  0.
        -11    1    3    3    0    0 -0.33990370799E+01  0.45262416163E+02  0.20004923217E+02  0.49602789469E+02  0.51100000000E-03 0. -1.
         23    2    1    0    0    0 -0.14697363786E+02  0.17811296254E+02 -0.16473825566E+02  0.96633792899E+02  0.92376664937E+02 0.  0.
         11    1    3    3    0    0 -0.11298326707E+02 -0.27451119909E+02 -0.36478748783E+02  0.47031003430E+02  0.51100000000E-03 0.  1.
         22    1    1    0    0    0  0.14697363786E+02 -0.17811296254E+02  0.16473825566E+02  0.28366207101E+02  0.00000000000E+00 0.  1.
</event>
<event>
 5    1  0.1659417E-003  0.9118800E+02  0.7818608E-02  0.1130116E+00
         25   -1    0    0    0    0  0.00000000000E+00  0.00000000000E+00  0.99999998245E-14  0.12500000000E+03  0.12500000000E+03 0.  0.
        -11    1    3    3    0    0 -0.54101648461E+02 -0.19008487731E+02  0.42780602373E+00  0.57345392058E+02  0.51100000000E-03 0.  1.
         23    2    1    0    0    0 -0.27031176506E+02  0.82469377897E+01 -0.54827104144E+01  0.96211867033E+02  0.91803958293E+02 0.  0.
         11    1    3    3    0    0  0.27070471955E+02  0.27255425521E+02 -0.59105164381E+01  0.38866474975E+02  0.51100000000E-03 0. -1.
         22    1    1    0    0    0  0.27031176506E+02 -0.82469377897E+01  0.54827104144E+01  0.28788132967E+02  0.00000000000E+00 0. -1.
</event>
<event>
 5    1  0.1659417E-003  0.9118800E+02  0.7818608E-02  0.1130116E+00
         25   -1    0    0    0    0  0.00000000000E+00  0.00000000000E+00  0.99999998245E-14  0.12500000000E+03  0.12500000000E+03 0.  0.
        -11    1    3    3    0    0 -0.25978891971E+01 -0.12457637152E+02  0.26024690233E+02  0.28969402025E+02  0.51100000000E-03 0.  1.
         23    2    1    0    0    0  0.40720320999E+02 -0.32053772394E+01 -0.61180446372E+01  0.83698069589E+02  0.72797784288E+02 0.  0.
         11    1    3    3    0    0  0.43318210196E+02  0.92522599123E+01 -0.32142734871E+02  0.54728667564E+02  0.51100000000E-03 0. -1.
         22    1    1    0    0    0 -0.40720320999E+02  0.32053772394E+01  0.61180446372E+01  0.41301930411E+02  0.00000000000E+00 0. -1.
</event>
<event>
 5    1  0.1659417E-003  0.9118800E+02  0.7818608E-02  0.1130116E+00
         25   -1    0    0    0    0  0.00000000000E+00  0.00000000000E+00  0.99999998245E-14  0.12500000000E+03  0.12500000000E+03 0.  0.
        -11    1    3    3    0    0  0.20574411533E+02 -0.16632657778E+02  0.26239812074E+02  0.37262306057E+02  0.51100000000E-03 0. -1.
         23    2    1    0    0    0 -0.21007664893E+02  0.40422386361E+01 -0.14596445140E+02  0.99101778282E+02  0.95657956128E+02 0.  0.
         11    1    3    3    0    0 -0.41582076426E+02  0.20674896414E+02 -0.40836257214E+02  0.61839472226E+02  0.51100000000E-03 0.  1.
         22    1    1    0    0    0  0.21007664893E+02 -0.40422386361E+01  0.14596445140E+02  0.25898221718E+02  0.00000000000E+00 0.  1.
</event>
<event>
 5    1  0.1659417E-003  0.9118800E+02  0.7818608E-02  0.1130116E+00
         25   -1    0    0    0    0  0.00000000000E+00  0.00000000000E+00  0.99999998245E-14  0.12500000000E+03  0.12500000000E+03 0.  0.
        -11    1    3    3    0    0 -0.43126343408E+02  0.41227709951E+01 -0.32184845243E+02  0.53969834167E+02  0.51100000000E-03 0.  1.
         23    2    1    0    0    0 -0.11051451595E+02 -0.19032721824E+02 -0.19725883383E+02  0.95445143248E+02  0.90753985103E+02 0.  0.
         11    1    3    3    0    0  0.32074891813E+02 -0.23155492819E+02  0.12458961860E+02  0.41475309081E+02  0.51100000000E-03 0. -1.
         22    1    1    0    0    0  0.11051451595E+02  0.19032721824E+02  0.19725883383E+02  0.29554856752E+02  0.00000000000E+00 0.  1.
</event>
<event>
 4    1  0.1659417E-003  0.9118800E+02  0.7818608E-02  0.1130116E+00
         25   -1    0    0    0    0  0.00000000000E+00  0.00000000000E+00  0.99999998245E-14  0.12500000000E+03  0.12500000000E+03 0.  0.
        -11    1    1    0    0    0 -0.69779106414E+01 -0.32835167123E+01  0.70971953113E+01  0.10480596379E+02  0.51100000000E-03 0.  1.
         11    1    1    0    0    0  0.58002711083E+02  0.61898028305E+01 -0.20249256591E+02  0.61746745217E+02  0.51100000000E-03 0. -1.
         22    1    1    0    0    0 -0.51024800442E+02 -0.29062861183E+01  0.13152061280E+02  0.52772658404E+02  0.00000000000E+00 0. -1.
</event>
<event>
 5    1  0.1659417E-003  0.9118800E+02  0.7818608E-02  0.1130116E+00
         25   -1    0    0    0    0  0.00000000000E+00  0.00000000000E+00  0.99999998245E-14  0.12500000000E+03  0.12500000000E+03 0.  0.
        -11    1    3    3    0    0 -0.20518026741E+02  0.34637255676E+00  0.45683921636E+02  0.50081234924E+02  0.51100000000E-03 0. -1.
         23    2    1    0    0    0  0.17727812915E+02  0.70754651557E+01  0.23211868421E+02  0.94947905339E+02  0.90066510617E+02 0.  0.
         11    1    3    3    0    0  0.38245839655E+02  0.67290925989E+01 -0.22472053214E+02  0.44866670414E+02  0.51100000000E-03 0.  1.
         22    1    1    0    0    0 -0.17727812915E+02 -0.70754651557E+01 -0.23211868421E+02  0.30052094661E+02  0.00000000000E+00 0. -1.
</event>
<event>
 5    1  0.1659417E-003  0.9118800E+02  0.7818608E-02  0.1130116E+00
         25   -1    0    0    0    0  0.00000000000E+00  0.00000000000E+00  0.99999998245E-14  0.12500000000E+03  0.12500000000E+03 0.  0.
        -11    1    3    3    0    0 -0.36607651508E+02  0.13879745139E+02  0.18302689530E+02  0.43217541790E+02  0.51100000000E-03 0.  1.
         23    2    1    0    0    0  0.14168962800E+02  0.24035675131E+02  0.73808244958E+01  0.96139131059E+02  0.91704867726E+02 0.  0.
         11    1    3    3    0    0  0.50776614309E+02  0.10155929992E+02 -0.10921865034E+02  0.52921589269E+02  0.51100000000E-03 0. -1.
         22    1    1    0    0    0 -0.14168962800E+02 -0.24035675131E+02 -0.73808244958E+01  0.28860868941E+02  0.00000000000E+00 0. -1.
</event>
<event>
 5    1  0.1659417E-003  0.9118800E+02  0.7818608E-02  0.1130116E+00
         25   -1    0    0    0    0  0.00000000000E+00  0.00000000000E+00  0.99999998245E-14  0.12500000000E+03  0.12500000000E+03 0.  0.
        -11    1    3    3    0    0  0.10525636713E+02  0.44592734908E+02  0.35521685505E+01  0.45955619204E+02  0.51100000000E-03 0. -1.
         23    2    1    0    0    0  0.11401786766E+02  0.28962529970E+01 -0.25590899140E+02  0.96834717441E+02  0.92648148175E+02 0.  0.
         11    1    3    3    0    0  0.87615005318E+00 -0.41696481911E+02 -0.29143067690E+02  0.50879098236E+02  0.51100000000E-03 0.  1.
         22    1    1    0    0    0 -0.11401786766E+02 -0.28962529970E+01  0.25590899140E+02  0.28165282559E+02  0.00000000000E+00 0.  1.
</event>
<event>
 5    1  0.1659417E-003  0.9118800E+02  0.7818608E-02  0.1130116E+00
         25   -1    0    0    0    0  0.00000000000E+00  0.00000000000E+00  0.99999998245E-14  0.12500000000E+03  0.12500000000E+03 0.  0.
        -11    1    3    3    0    0 -0.24106205366E+02 -0.10953075498E+02 -0.49176550538E+02  0.55851697585E+02  0.51100000000E-03 0. -1.
         23    2    1    0    0    0  0.48955456472E+01  0.84086504036E+01 -0.24692138622E+02  0.98459964610E+02  0.94815563873E+02 0.  0.
         11    1    3    3    0    0  0.29001751013E+02  0.19361725902E+02  0.24484411916E+02  0.42608267025E+02  0.51100000000E-03 0.  1.
         22    1    1    0    0    0 -0.48955456472E+01 -0.84086504036E+01  0.24692138622E+02  0.26540035390E+02  0.00000000000E+00 0. -1.
</event>
<event>
 5    1  0.1659417E-003  0.9118800E+02  0.7818608E-02  0.1130116E+00
         25   -1    0    0    0    0  0.00000000000E+00  0.00000000000E+00  0.99999998245E-14  0.12500000000E+03  0.12500000000E+03 0.  0.
        -11    1    3    3    0    0 -0.20592388957E+02 -0.30322924849E+02 -0.33837203181E+02  0.49884692780E+02  0.51100000000E-03 0.  1.
         23    2    1    0    0    0  0.15274345012E+02 -0.26963055810E+02 -0.14208528548E+02  0.90909029382E+02  0.84274891549E+02 0.  0.
         11    1    3    3    0    0  0.35866733970E+02  0.33598690395E+01  0.19628674632E+02  0.41024336603E+02  0.51100000000E-03 0. -1.
         22    1    1    0    0    0 -0.15274345012E+02  0.26963055810E+02  0.14208528548E+02  0.34090970618E+02  0.00000000000E+00 0.  1.
</event>
<event>
 5    1  0.1659417E-003  0.9118800E+02  0.7818608E-02  0.1130116E+00
         25   -1    0    0    0    0  0.00000000000E+00  0.00000000000E+00  0.99999998245E-14  0.12500000000E+03  0.12500000000E+03 0.  0.
        -11    1    3    3    0    0  0.46413947786E+02 -0.13426996528E+02  0.38961449586E+02  0.62068779100E+02  0.51100000000E-03 0. -1.
         23    2    1    0    0    0  0.25158244497E+02 -0.38827229283E+01  0.15184105957E+02  0.95359320567E+02  0.90635700151E+02 0.  0.
         11    1    3    3    0    0 -0.21255703289E+02  0.95442735996E+01 -0.23777343629E+02  0.33290541467E+02  0.51100000000E-03 0.  1.
         22    1    1    0    0    0 -0.25158244497E+02  0.38827229283E+01 -0.15184105957E+02  0.29640679433E+02  0.00000000000E+00 0. -1.
</event>
<event>
 5    1  0.1659417E-003  0.9118800E+02  0.7818608E-02  0.1130116E+00
         25   -1    0    0    0    0  0.00000000000E+00  0.00000000000E+00  0.99999998245E-14  0.12500000000E+03  0.12500000000E+03 0.  0.
        -11    1    3    3    0    0  0.34598337690E+01  0.25873783058E+02 -0.22874227065E+02  0.34708116680E+02  0.51100000000E-03 0.  1.
         23    2    1    0    0    0  0.16418982258E+02 -0.21937158035E+02  0.11791801419E+02  0.95169336887E+02  0.90373304807E+02 0.  0.
         11    1    3    3    0    0  0.12959148489E+02 -0.47810941093E+02  0.34666028484E+02  0.60461220206E+02  0.51100000000E-03 0. -1.
         22    1    1    0    0    0 -0.16418982258E+02  0.21937158035E+02 -0.11791801419E+02  0.29830663113E+02  0.00000000000E+00 0. -1.
</event>
<event>
 5    1  0.1659417E-003  0.9118800E+02  0.7818608E-02  0.1130116E+00
         25   -1    0    0    0    0  0.00000000000E+00  0.00000000000E+00  0.99999998245E-14  0.12500000000E+03  0.12500000000E+03 0.  0.
        -11    1    3    3    0    0  0.36618295564E+02 -0.73644573540E+01 -0.90622689228E+01  0.38435133933E+02  0.51100000000E-03 0. -1.
         23    2    1    0    0    0 -0.16934618516E+02 -0.24535423352E+02 -0.43742257053E+01  0.94868585266E+02  0.89956357843E+02 0.  0.
         11    1    3    3    0    0 -0.53552914081E+02 -0.17170965998E+02  0.46880432175E+01  0.56433451333E+02  0.51100000000E-03 0.  1.
         22    1    1    0    0    0  0.16934618516E+02  0.24535423352E+02  0.43742257053E+01  0.30131414734E+02  0.00000000000E+00 0.  1.
</event>
<event>
 5    1  0.1659417E-003  0.9118800E+02  0.7818608E-02  0.1130116E+00
         25   -1    0    0    0    0  0.00000000000E+00  0.00000000000E+00  0.99999998245E-14  0.12500000000E+03  0.12500000000E+03 0.  0.
        -11    1    3    3    0    0  0.19481061504E+02 -0.31456435448E+02  0.49738221281E+00  0.37003600875E+02  0.51100000000E-03 0. -1.
         23    2    1    0    0    0  0.62234946289E+01  0.26039958861E+02  0.92910921126E+01  0.96660350469E+02  0.92412594473E+02 0.  0.
         11    1    3    3    0    0 -0.13257566875E+02  0.57496394309E+02  0.87937098998E+01  0.59656749594E+02  0.51100000000E-03 0.  1.
         22    1    1    0    0    0 -0.62234946289E+01 -0.26039958861E+02 -0.92910921126E+01  0.28339649531E+02  0.00000000000E+00 0.  1.
</event>
<event>
 5    1  0.1659417E-003  0.9118800E+02  0.7818608E-02  0.1130116E+00
         25   -1    0    0    0    0  0.00000000000E+00  0.00000000000E+00  0.99999998245E-14  0.12500000000E+03  0.12500000000E+03 0.  0.
        -11    1    3    3    0    0 -0.20507879517E+02  0.22541694071E+02 -0.31315674220E+02  0.43696367653E+02  0.51100000000E-03 0. -1.
         23    2    1    0    0    0 -0.56152910267E+01  0.18496396529E+02  0.19942229686E+02  0.97226978870E+02  0.93175880556E+02 0.  0.
         11    1    3    3    0    0  0.14892588490E+02 -0.40452975426E+01  0.51257903906E+02  0.53530611217E+02  0.51100000000E-03 0.  1.
         22    1    1    0    0    0  0.56152910267E+01 -0.18496396529E+02 -0.19942229686E+02  0.27773021130E+02  0.00000000000E+00 0.  1.
</event>
<event>
 5    1  0.1659417E-003  0.9118800E+02  0.7818608E-02  0.1130116E+00
         25   -1    0    0    0    0  0.00000000000E+00  0.00000000000E+00  0.99999998245E-14  0.12500000000E+03  0.12500000000E+03 0.  0.
        -11    1    3    3    0    0 -0.45234595698E+02 -0.34394016879E+02 -0.81929271029E+01  0.57412900117E+02  0.51100000000E-03 0. -1.
         23    2    1    0    0    0 -0.88702159979E+01 -0.41524167196E+01 -0.16864915493E+02  0.10549747014E+03  0.10367915670E+03 0.  0.
         11    1    3    3    0    0  0.36364379700E+02  0.30241600160E+02 -0.86719883897E+01  0.48084570021E+02  0.51100000000E-03 0.  1.
         22    1    1    0    0    0  0.88702159979E+01  0.41524167196E+01  0.16864915493E+02  0.19502529862E+02  0.00000000000E+00 0. -1.
</event>
<event>
 5    1  0.1659417E-003  0.9118800E+02  0.7818608E-02  0.1130116E+00
         25   -1    0    0    0    0  0.00000000000E+00  0.00000000000E+00  0.99999998245E-14  0.12500000000E+03  0.12500000000E+03 0.  0.
        -11    1    3    3    0    0 -0.16259308503E+02  0.40704163652E+02  0.41167508628E+02  0.60132834779E+02  0.51100000000E-03 0.  1.
         23    2    1    0    0    0 -0.18165400735E+02  0.14999954282E+02  0.13933593549E+02  0.97629843962E+02  0.93714785335E+02 0.  0.
         11    1    3    3    0    0 -0.19060922324E+01 -0.25704209370E+02 -0.27233915079E+02  0.37497009183E+02  0.51100000000E-03 0. -1.
         22    1    1    0    0    0  0.18165400735E+02 -0.14999954282E+02 -0.13933593549E+02  0.27370156038E+02  0.00000000000E+00 0.  1.
</event>
<event>
 5    1  0.1659417E-003  0.9118800E+02  0.7818608E-02  0.1130116E+00
         25   -1    0    0    0    0  0.00000000000E+00  0.00000000000E+00  0.99999998245E-14  0.12500000000E+03  0.12500000000E+03 0.  0.
        -11    1    3    3    0    0  0.17120107126E+02 -0.11155786447E+02  0.44351924058E+02  0.48832804621E+02  0.51100000000E-03 0. -1.
         23    2    1    0    0    0 -0.12473386430E+02 -0.24867809343E+02  0.12232996220E+02  0.94608561944E+02  0.89594310568E+02 0.  0.
         11    1    3    3    0    0 -0.29593493557E+02 -0.13712022896E+02 -0.32118927838E+02  0.45775757323E+02  0.51100000000E-03 0.  1.
         22    1    1    0    0    0  0.12473386430E+02  0.24867809343E+02 -0.12232996220E+02  0.30391438056E+02  0.00000000000E+00 0. -1.
</event>
<event>
 5    1  0.1659417E-003  0.9118800E+02  0.7818608E-02  0.1130116E+00
         25   -1    0    0    0    0  0.00000000000E+00  0.00000000000E+00  0.99999998245E-14  0.12500000000E+03  0.12500000000E+03 0.  0.
        -11    1    3    3    0    0 -0.16642677651E+01  0.37730995852E+02  0.11572373433E+02  0.39500856476E+02  0.51100000000E-03 0.  1.
         23    2    1    0    0    0 -0.48203909417E+01 -0.31870804828E+00 -0.29225701855E+02  0.95377721347E+02  0.90661073989E+02 0.  0.
         11    1    3    3    0    0 -0.31561231766E+01 -0.38049703900E+02 -0.40798075288E+02  0.55876864872E+02  0.51100000000E-03 0. -1.
         22    1    1    0    0    0  0.48203909417E+01  0.31870804828E+00  0.29225701855E+02  0.29622278653E+02  0.00000000000E+00 0. -1.
</event>
<event>
 5    1  0.1659417E-003  0.9118800E+02  0.7818608E-02  0.1130116E+00
         25   -1    0    0    0    0  0.00000000000E+00  0.00000000000E+00  0.99999998245E-14  0.12500000000E+03  0.12500000000E+03 0.  0.
        -11    1    3    3    0    0 -0.19877787665E+02  0.28911056997E+02  0.67238013698E+01  0.35723733907E+02  0.51100000000E-03 0. -1.
         23    2    1    0    0    0  0.42396319974E+01 -0.27224163503E+02  0.58848049190E+01  0.96826244715E+02  0.92636716149E+02 0.  0.
         11    1    3    3    0    0  0.24117419663E+02 -0.56135220500E+02 -0.83899645083E+00  0.61102510808E+02  0.51100000000E-03 0.  1.
         22    1    1    0    0    0 -0.42396319974E+01  0.27224163503E+02 -0.58848049190E+01  0.28173755285E+02  0.00000000000E+00 0.  1.
</event>
<event>
 5    1  0.1659417E-003  0.9118800E+02  0.7818608E-02  0.1130116E+00
         25   -1    0    0    0    0  0.00000000000E+00  0.00000000000E+00  0.99999998245E-14  0.12500000000E+03  0.12500000000E+03 0.  0.
        -11    1    3    3    0    0  0.44369599605E+02  0.41064807233E+02 -0.12242083923E+02  0.61683453058E+02  0.51100000000E-03 0. -1.
         23    2    1    0    0    0  0.20349963759E+02  0.20999729499E+02  0.11709812318E+01  0.95734305730E+02  0.91151392927E+02 0.  0.
         11    1    3    3    0    0 -0.24019635846E+02 -0.20065077733E+02  0.13413065155E+02  0.34050852672E+02  0.51100000000E-03 0.  1.
         22    1    1    0    0    0 -0.20349963759E+02 -0.20999729499E+02 -0.11709812318E+01  0.29265694270E+02  0.00000000000E+00 0. -1.
</event>
<event>
 5    1  0.1659417E-003  0.9118800E+02  0.7818608E-02  0.1130116E+00
         25   -1    0    0    0    0  0.00000000000E+00  0.00000000000E+00  0.99999998245E-14  0.12500000000E+03  0.12500000000E+03 0.  0.
        -11    1    3    3    0    0  0.15396297785E+02 -0.54721347712E+01  0.37305569248E+02  0.40727088548E+02  0.51100000000E-03 0.  1.
         23    2    1    0    0    0 -0.73178852605E+01 -0.26491512145E+02 -0.86992062156E+01  0.96172446354E+02  0.91750267512E+02 0.  0.
         11    1    3    3    0    0 -0.22714183045E+02 -0.21019377374E+02 -0.46004775463E+02  0.55445357806E+02  0.51100000000E-03 0. -1.
         22    1    1    0    0    0  0.73178852605E+01  0.26491512145E+02  0.86992062156E+01  0.28827553646E+02  0.00000000000E+00 0. -1.
</event>
<event>
 5    1  0.1659417E-003  0.9118800E+02  0.7818608E-02  0.1130116E+00
         25   -1    0    0    0    0  0.00000000000E+00  0.00000000000E+00  0.99999998245E-14  0.12500000000E+03  0.12500000000E+03 0.  0.
        -11    1    3    3    0    0 -0.31389498052E+02  0.15861900776E+02 -0.15302837113E+02  0.38354625642E+02  0.51100000000E-03 0.  1.
         23    2    1    0    0    0  0.13712580029E+02 -0.20433359577E+02 -0.14868631891E+02  0.96248769610E+02  0.91854190990E+02 0.  0.
         11    1    3    3    0    0  0.45102078081E+02 -0.36295260353E+02  0.43420522195E+00  0.57894143968E+02  0.51100000000E-03 0. -1.
         22    1    1    0    0    0 -0.13712580029E+02  0.20433359577E+02  0.14868631891E+02  0.28751230390E+02  0.00000000000E+00 0. -1.
</event>
<event>
 5    1  0.1659417E-003  0.9118800E+02  0.7818608E-02  0.1130116E+00
         25   -1    0    0    0    0  0.00000000000E+00  0.00000000000E+00  0.99999998245E-14  0.12500000000E+03  0.12500000000E+03 0.  0.
        -11    1    3    3    0    0 -0.25153672544E+02 -0.47108851710E+02 -0.18497996147E+02  0.56516608298E+02  0.51100000000E-03 0.  1.
         23    2    1    0    0    0 -0.20729980683E+02 -0.17865809722E+02  0.82744175464E+01  0.96410049985E+02  0.92073408193E+02 0.  0.
         11    1    3    3    0    0  0.44236918602E+01  0.29243041988E+02  0.26772413693E+02  0.39893441687E+02  0.51100000000E-03 0. -1.
         22    1    1    0    0    0  0.20729980683E+02  0.17865809722E+02 -0.82744175464E+01  0.28589950015E+02  0.00000000000E+00 0.  1.
</event>
<event>
 5    1  0.1659417E-003  0.9118800E+02  0.7818608E-02  0.1130116E+00
         25   -1    0    0    0    0  0.00000000000E+00  0.00000000000E+00  0.99999998245E-14  0.12500000000E+03  0.12500000000E+03 0.  0.
        -11    1    3    3    0    0 -0.24919776840E+02 -0.11689299793E+02 -0.21215292960E+02  0.34752318815E+02  0.51100000000E-03 0. -1.
         23    2    1    0    0    0 -0.66384301293E+00  0.12008865221E+02  0.28003919857E+02  0.94522581166E+02  0.89474271673E+02 0.  0.
         11    1    3    3    0    0  0.24255933828E+02  0.23698165014E+02  0.49219212817E+02  0.59770262350E+02  0.51100000000E-03 0.  1.
         22    1    1    0    0    0  0.66384301293E+00 -0.12008865221E+02 -0.28003919857E+02  0.30477418834E+02  0.00000000000E+00 0.  1.
</event>
<event>
 5    1  0.1659417E-003  0.9118800E+02  0.7818608E-02  0.1130116E+00
         25   -1    0    0    0    0  0.00000000000E+00  0.00000000000E+00  0.99999998245E-14  0.12500000000E+03  0.12500000000E+03 0.  0.
        -11    1    3    3    0    0  0.57147597393E+01  0.26792131682E+02 -0.25038879093E+02  0.37113639884E+02  0.51100000000E-03 0. -1.
         23    2    1    0    0    0  0.20259721112E+02 -0.15948217319E+02  0.12976901997E+02  0.96134762765E+02  0.91698913250E+02 0.  0.
         11    1    3    3    0    0  0.14544961373E+02 -0.42740349001E+02  0.38015781089E+02  0.59021122881E+02  0.51100000000E-03 0.  1.
         22    1    1    0    0    0 -0.20259721112E+02  0.15948217319E+02 -0.12976901997E+02  0.28865237235E+02  0.00000000000E+00 0.  1.
</event>
<event>
 5    1  0.1659417E-003  0.9118800E+02  0.7818608E-02  0.1130116E+00
         25   -1    0    0    0    0  0.00000000000E+00  0.00000000000E+00  0.99999998245E-14  0.12500000000E+03  0.12500000000E+03 0.  0.
        -11    1    3    3    0    0 -0.18316887618E+02 -0.63832144331E+01 -0.54893190606E+02  0.58219551473E+02  0.51100000000E-03 0.  1.
         23    2    1    0    0    0 -0.15506160879E+02 -0.12100095240E+02 -0.11217405490E+02  0.10235748433E+03  0.99821696450E+02 0.  0.
         11    1    3    3    0    0  0.28107267390E+01 -0.57168808065E+01  0.43675785116E+02  0.44137932855E+02  0.51100000000E-03 0. -1.
         22    1    1    0    0    0  0.15506160879E+02  0.12100095240E+02  0.11217405490E+02  0.22642515672E+02  0.00000000000E+00 0.  1.
</event>
<event>
 5    1  0.1659417E-003  0.9118800E+02  0.7818608E-02  0.1130116E+00
         25   -1    0    0    0    0  0.00000000000E+00  0.00000000000E+00  0.99999998245E-14  0.12500000000E+03  0.12500000000E+03 0.  0.
        -11    1    3    3    0    0 -0.25837766251E+02 -0.31051642440E+02  0.62549640874E+01  0.40876879027E+02  0.51100000000E-03 0. -1.
         23    2    1    0    0    0 -0.15894542932E+02  0.21729943177E+02  0.13167458933E+02  0.95029866530E+02  0.90180189800E+02 0.  0.
         11    1    3    3    0    0  0.99432233189E+01  0.52781585617E+02  0.69124948456E+01  0.54152987502E+02  0.51100000000E-03 0.  1.
         22    1    1    0    0    0  0.15894542932E+02 -0.21729943177E+02 -0.13167458933E+02  0.29970133470E+02  0.00000000000E+00 0.  1.
</event>
<event>
 5    1  0.1659417E-003  0.9118800E+02  0.7818608E-02  0.1130116E+00
         25   -1    0    0    0    0  0.00000000000E+00  0.00000000000E+00  0.99999998245E-14  0.12500000000E+03  0.12500000000E+03 0.  0.
        -11    1    3    3    0    0  0.36907130924E+02 -0.22851894782E+02 -0.13560785003E+02  0.45477910005E+02  0.51100000000E-03 0.  1.
         23    2    1    0    0    0  0.14998374246E+02  0.22465092105E+02 -0.10864703472E+02  0.95885169160E+02  0.91358044474E+02 0.  0.
         11    1    3    3    0    0 -0.21908756678E+02  0.45316986887E+02  0.26960815317E+01  0.50407259156E+02  0.51100000000E-03 0. -1.
         22    1    1    0    0    0 -0.14998374246E+02 -0.22465092105E+02  0.10864703472E+02  0.29114830840E+02  0.00000000000E+00 0. -1.
</event>
<event>
 5    1  0.1659417E-003  0.9118800E+02  0.7818608E-02  0.1130116E+00
         25   -1    0    0    0    0  0.00000000000E+00  0.00000000000E+00  0.99999998245E-14  0.12500000000E+03  0.12500000000E+03 0.  0.
        -11    1    3    3    0    0 -0.38018105715E+02 -0.24316830563E+02 -0.16116313396E+02  0.47920978376E+02  0.51100000000E-03 0. -1.
         23    2    1    0    0    0 -0.64260573730E+01 -0.15218543860E+02  0.21504648984E+02  0.97882695220E+02  0.94051442334E+02 0.  0.
         11    1    3    3    0    0  0.31592048342E+02  0.90982867030E+01  0.37620962380E+02  0.49961716844E+02  0.51100000000E-03 0.  1.
         22    1    1    0    0    0  0.64260573730E+01  0.15218543860E+02 -0.21504648984E+02  0.27117304780E+02  0.00000000000E+00 0. -1.
</event>
<event>
 5    1  0.1659417E-003  0.9118800E+02  0.7818608E-02  0.1130116E+00
         25   -1    0    0    0    0  0.00000000000E+00  0.00000000000E+00  0.99999998245E-14  0.12500000000E+03  0.12500000000E+03 0.  0.
        -11    1    3    3    0    0  0.38334945863E+02 -0.42426053082E+02  0.14518653579E+02  0.58994316307E+02  0.51100000000E-03 0.  1.
         23    2    1    0    0    0  0.12053858681E+02 -0.23712999366E+02  0.20000170354E+02  0.91719244867E+02  0.85468188332E+02 0.  0.
         11    1    3    3    0    0 -0.26281087182E+02  0.18713053717E+02  0.54815167752E+01  0.32724928560E+02  0.51100000000E-03 0. -1.
         22    1    1    0    0    0 -0.12053858681E+02  0.23712999366E+02 -0.20000170354E+02  0.33280755133E+02  0.00000000000E+00 0.  1.
</event>
<event>
 5    1  0.1659417E-003  0.9118800E+02  0.7818608E-02  0.1130116E+00
         25   -1    0    0    0    0  0.00000000000E+00  0.00000000000E+00  0.99999998245E-14  0.12500000000E+03  0.12500000000E+03 0.  0.
        -11    1    3    3    0    0 -0.15513378621E+02 -0.61337708502E+01 -0.53749343760E+02  0.56278592875E+02  0.51100000000E-03 0.  1.
         23    2    1    0    0    0 -0.44914691535E+01  0.14289532947E+02 -0.37527375305E+02  0.84593714050E+02  0.74319772016E+02 0.  0.
         11    1    3    3    0    0  0.11021909468E+02  0.20423303798E+02  0.16221968455E+02  0.28315121175E+02  0.51100000000E-03 0. -1.
         22    1    1    0    0    0  0.44914691535E+01 -0.14289532947E+02  0.37527375305E+02  0.40406285950E+02  0.00000000000E+00 0.  1.
</event>
<event>
 5    1  0.1659417E-003  0.9118800E+02  0.7818608E-02  0.1130116E+00
         25   -1    0    0    0    0  0.00000000000E+00  0.00000000000E+00  0.99999998245E-14  0.12500000000E+03  0.12500000000E+03 0.  0.
        -11    1    3    3    0    0 -0.13048275685E+02 -0.15765828936E+02  0.25917771779E+02  0.33023472783E+02  0.51100000000E-03 0. -1.
         23    2    1    0    0    0 -0.38174258947E+00  0.17204204768E+02 -0.24791930683E+02  0.94821030235E+02  0.89890252858E+02 0.  0.
         11    1    3    3    0    0  0.12666533096E+02  0.32970033704E+02 -0.50709702462E+02  0.61797557452E+02  0.51100000000E-03 0.  1.
         22    1    1    0    0    0  0.38174258947E+00 -0.17204204768E+02  0.24791930683E+02  0.30178969765E+02  0.00000000000E+00 0.  1.
</event>
<event>
 5    1  0.1659417E-003  0.9118800E+02  0.7818608E-02  0.1130116E+00
         25   -1    0    0    0    0  0.00000000000E+00  0.00000000000E+00  0.99999998245E-14  0.12500000000E+03  0.12500000000E+03 0.  0.
        -11    1    3    3    0    0  0.14899928930E+01 -0.32827863034E+02  0.31067231562E+01  0.33008186851E+02  0.51100000000E-03 0. -1.
         23    2    1    0    0    0 -0.31827027443E+01  0.24350519851E+02 -0.18439862825E+02  0.94289969802E+02  0.89148709752E+02 0.  0.
         11    1    3    3    0    0 -0.46726956373E+01  0.57178382885E+02 -0.21546585981E+02  0.61281782950E+02  0.51100000000E-03 0.  1.
         22    1    1    0    0    0  0.31827027443E+01 -0.24350519851E+02  0.18439862825E+02  0.30710030198E+02  0.00000000000E+00 0.  1.
</event>
<event>
 5    1  0.1659417E-003  0.9118800E+02  0.7818608E-02  0.1130116E+00
         25   -1    0    0    0    0  0.00000000000E+00  0.00000000000E+00  0.99999998245E-14  0.12500000000E+03  0.12500000000E+03 0.  0.
        -11    1    3    3    0    0  0.22981504133E+02 -0.27217615997E+02 -0.31115548965E+02  0.47298261495E+02  0.51100000000E-03 0.  1.
         23    2    1    0    0    0  0.20079934278E+02 -0.14840371435E+02  0.15496766082E+02  0.95613095707E+02  0.90985020342E+02 0.  0.
         11    1    3    3    0    0 -0.29015698543E+01  0.12377244562E+02  0.46612315047E+02  0.48314834212E+02  0.51100000000E-03 0. -1.
         22    1    1    0    0    0 -0.20079934278E+02  0.14840371435E+02 -0.15496766082E+02  0.29386904293E+02  0.00000000000E+00 0. -1.
</event>
<event>
 5    1  0.1659417E-003  0.9118800E+02  0.7818608E-02  0.1130116E+00
         25   -1    0    0    0    0  0.00000000000E+00  0.00000000000E+00  0.99999998245E-14  0.12500000000E+03  0.12500000000E+03 0.  0.
        -11    1    3    3    0    0  0.31141940353E+02 -0.15640673954E+02  0.10639903384E+01  0.34865214848E+02  0.51100000000E-03 0. -1.
         23    2    1    0    0    0 -0.27998712416E+02 -0.48029075257E+01 -0.75538517758E+01  0.95605162115E+02  0.90974120104E+02 0.  0.
         11    1    3    3    0    0 -0.59140652769E+02  0.10837766429E+02 -0.86178421142E+01  0.60739947267E+02  0.51100000000E-03 0.  1.
         22    1    1    0    0    0  0.27998712416E+02  0.48029075257E+01  0.75538517758E+01  0.29394837885E+02  0.00000000000E+00 0.  1.
</event>
<event>
 5    1  0.1659417E-003  0.9118800E+02  0.7818608E-02  0.1130116E+00
         25   -1    0    0    0    0  0.00000000000E+00  0.00000000000E+00  0.99999998245E-14  0.12500000000E+03  0.12500000000E+03 0.  0.
        -11    1    3    3    0    0 -0.38595066470E+01 -0.46560758266E+02  0.27529728023E+02  0.54228091679E+02  0.51100000000E-03 0.  1.
         23    2    1    0    0    0  0.73930262804E+01 -0.46828570757E+02  0.77839123813E+01  0.76956674046E+02  0.60117954985E+02 0.  0.
         11    1    3    3    0    0  0.11252532927E+02 -0.26781249164E+00 -0.19745815642E+02  0.22728582367E+02  0.51100000000E-03 0. -1.
         22    1    1    0    0    0 -0.73930262804E+01  0.46828570757E+02 -0.77839123813E+01  0.48043325954E+02  0.00000000000E+00 0.  1.
</event>
<event>
 5    1  0.1659417E-003  0.9118800E+02  0.7818608E-02  0.1130116E+00
         25   -1    0    0    0    0  0.00000000000E+00  0.00000000000E+00  0.99999998245E-14  0.12500000000E+03  0.12500000000E+03 0.  0.
        -11    1    3    3    0    0 -0.14522578148E+01  0.29599616974E+02 -0.35380383997E+02  0.46152117501E+02  0.51100000000E-03 0.  1.
         23    2    1    0    0    0  0.26921381741E+02 -0.28285704833E+01 -0.10112803074E+02  0.96103107575E+02  0.91655752104E+02 0.  0.
         11    1    3    3    0    0  0.28373639555E+02 -0.32428187457E+02  0.25267580923E+02  0.49950990074E+02  0.51100000000E-03 0. -1.
         22    1    1    0    0    0 -0.26921381741E+02  0.28285704833E+01  0.10112803074E+02  0.28896892425E+02  0.00000000000E+00 0.  1.
</event>
<event>
 5    1  0.1659417E-003  0.9118800E+02  0.7818608E-02  0.1130116E+00
         25   -1    0    0    0    0  0.00000000000E+00  0.00000000000E+00  0.99999998245E-14  0.12500000000E+03  0.12500000000E+03 0.  0.
        -11    1    3    3    0    0 -0.37329047944E+02 -0.55756544474E+01 -0.17532144577E+01  0.37783852426E+02  0.51100000000E-03 0.  1.
         23    2    1    0    0    0  0.11827826901E+02  0.17932346145E+02 -0.20400348486E+02  0.95374997962E+02  0.90657319012E+02 0.  0.
         11    1    3    3    0    0  0.49156874845E+02  0.23508000592E+02 -0.18647134028E+02  0.57591145536E+02  0.51100000000E-03 0. -1.
         22    1    1    0    0    0 -0.11827826901E+02 -0.17932346145E+02  0.20400348486E+02  0.29625002038E+02  0.00000000000E+00 0. -1.
</event>
<event>
 5    1  0.1659417E-003  0.9118800E+02  0.7818608E-02  0.1130116E+00
         25   -1    0    0    0    0  0.00000000000E+00  0.00000000000E+00  0.99999998245E-14  0.12500000000E+03  0.12500000000E+03 0.  0.
        -11    1    3    3    0    0  0.17713909856E+02 -0.15276777825E+02 -0.36998174112E+02  0.43772450594E+02  0.51100000000E-03 0. -1.
         23    2    1    0    0    0  0.23626411688E+02  0.21073463051E+02 -0.42458420909E+01  0.93057468021E+02  0.87403472500E+02 0.  0.
         11    1    3    3    0    0  0.59125018324E+01  0.36350240876E+02  0.32752332021E+02  0.49285017427E+02  0.51100000000E-03 0.  1.
         22    1    1    0    0    0 -0.23626411688E+02 -0.21073463051E+02  0.42458420909E+01  0.31942531979E+02  0.00000000000E+00 0.  1.
</event>
<event>
 5    1  0.1659417E-003  0.9118800E+02  0.7818608E-02  0.1130116E+00
         25   -1    0    0    0    0  0.00000000000E+00  0.00000000000E+00  0.99999998245E-14  0.12500000000E+03  0.12500000000E+03 0.  0.
        -11    1    3    3    0    0  0.92226554364E+01 -0.11708616772E+02  0.27885040962E+02  0.31618421683E+02  0.51100000000E-03 0.  1.
         23    2    1    0    0    0 -0.15223192994E+02  0.17108537371E+02 -0.21354667561E+02  0.93687550678E+02  0.88299986803E+02 0.  0.
         11    1    3    3    0    0 -0.24445848430E+02  0.28817154143E+02 -0.49239708524E+02  0.62069128994E+02  0.51100000000E-03 0. -1.
         22    1    1    0    0    0  0.15223192994E+02 -0.17108537371E+02  0.21354667561E+02  0.31312449322E+02  0.00000000000E+00 0. -1.
</event>
<event>
 5    1  0.1659417E-003  0.9118800E+02  0.7818608E-02  0.1130116E+00
         25   -1    0    0    0    0  0.00000000000E+00  0.00000000000E+00  0.99999998245E-14  0.12500000000E+03  0.12500000000E+03 0.  0.
        -11    1    3    3    0    0  0.40834781228E+01 -0.21896919137E+02 -0.42025205952E+02  0.47563303047E+02  0.51100000000E-03 0.  1.
         23    2    1    0    0    0 -0.17382252137E+02 -0.22963446434E+02  0.15578363839E+01  0.96157506771E+02  0.91729911658E+02 0.  0.
         11    1    3    3    0    0 -0.21465730260E+02 -0.10665272971E+01  0.43583042335E+02  0.48594203723E+02  0.51100000000E-03 0. -1.
         22    1    1    0    0    0  0.17382252137E+02  0.22963446434E+02 -0.15578363839E+01  0.28842493229E+02  0.00000000000E+00 0. -1.
</event>
<event>
 5    1  0.1659417E-003  0.9118800E+02  0.7818608E-02  0.1130116E+00
         25   -1    0    0    0    0  0.00000000000E+00  0.00000000000E+00  0.99999998245E-14  0.12500000000E+03  0.12500000000E+03 0.  0.
        -11    1    3    3    0    0  0.10255558480E+02  0.20080086597E+02  0.34693170567E+02  0.41376351238E+02  0.51100000000E-03 0. -1.
         23    2    1    0    0    0  0.24766858407E+02 -0.13537585739E+02 -0.60272975450E+01  0.96138402354E+02  0.91703874446E+02 0.  0.
         11    1    3    3    0    0  0.14511299927E+02 -0.33617672337E+02 -0.40720468112E+02  0.54762051116E+02  0.51100000000E-03 0.  1.
         22    1    1    0    0    0 -0.24766858407E+02  0.13537585739E+02  0.60272975450E+01  0.28861597646E+02  0.00000000000E+00 0.  1.
</event>
<event>
 5    1  0.1659417E-003  0.9118800E+02  0.7818608E-02  0.1130116E+00
         25   -1    0    0    0    0  0.00000000000E+00  0.00000000000E+00  0.99999998245E-14  0.12500000000E+03  0.12500000000E+03 0.  0.
        -11    1    3    3    0    0 -0.47922346923E+02  0.99823567206E+01 -0.25128572985E+02  0.55024030757E+02  0.51100000000E-03 0. -1.
         23    2    1    0    0    0 -0.23041443931E+02 -0.15718102249E+02 -0.18833595670E+02  0.91344819083E+02  0.84918812819E+02 0.  0.
         11    1    3    3    0    0  0.24880902992E+02 -0.25700458969E+02  0.62949773145E+01  0.36320788325E+02  0.51100000000E-03 0.  1.
         22    1    1    0    0    0  0.23041443931E+02  0.15718102249E+02  0.18833595670E+02  0.33655180917E+02  0.00000000000E+00 0. -1.
</event>
<event>
 5    1  0.1659417E-003  0.9118800E+02  0.7818608E-02  0.1130116E+00
         25   -1    0    0    0    0  0.00000000000E+00  0.00000000000E+00  0.99999998245E-14  0.12500000000E+03  0.12500000000E+03 0.  0.
        -11    1    3    3    0    0  0.32052346568E+02  0.38120039428E+02 -0.11316376442E+02  0.51073972848E+02  0.51100000000E-03 0.  1.
         23    2    1    0    0    0 -0.12236605902E+01  0.11943191750E+02 -0.26383578865E+02  0.96013271862E+02  0.91533152276E+02 0.  0.
         11    1    3    3    0    0 -0.33276007158E+02 -0.26176847677E+02 -0.15067202423E+02  0.44939299014E+02  0.51100000000E-03 0. -1.
         22    1    1    0    0    0  0.12236605902E+01 -0.11943191750E+02  0.26383578865E+02  0.28986728138E+02  0.00000000000E+00 0. -1.
</event>
<event>
 5    1  0.1659417E-003  0.9118800E+02  0.7818608E-02  0.1130116E+00
         25   -1    0    0    0    0  0.00000000000E+00  0.00000000000E+00  0.99999998245E-14  0.12500000000E+03  0.12500000000E+03 0.  0.
        -11    1    3    3    0    0 -0.12480008342E+02  0.53468183175E+02 -0.22885233341E+02  0.59483872819E+02  0.51100000000E-03 0.  1.
         23    2    1    0    0    0 -0.18974207841E+02  0.21515740587E+02 -0.88822680252E+01  0.94969310007E+02  0.90096212471E+02 0.  0.
         11    1    3    3    0    0 -0.64941994990E+01 -0.31952442588E+02  0.14002965316E+02  0.35485437187E+02  0.51100000000E-03 0. -1.
         22    1    1    0    0    0  0.18974207841E+02 -0.21515740587E+02  0.88822680252E+01  0.30030689993E+02  0.00000000000E+00 0.  1.
</event>
<event>
 5    1  0.1659417E-003  0.9118800E+02  0.7818608E-02  0.1130116E+00
         25   -1    0    0    0    0  0.00000000000E+00  0.00000000000E+00  0.99999998245E-14  0.12500000000E+03  0.12500000000E+03 0.  0.
        -11    1    3    3    0    0 -0.22938580569E+02 -0.29805296800E+02  0.41000284640E+01  0.37833112871E+02  0.51100000000E-03 0. -1.
         23    2    1    0    0    0 -0.47003740335E+01  0.72478155362E+01 -0.31487192545E+02  0.92349308729E+02  0.86384762442E+02 0.  0.
         11    1    3    3    0    0  0.18238206535E+02  0.37053112336E+02 -0.35587221009E+02  0.54516195858E+02  0.51100000000E-03 0.  1.
         22    1    1    0    0    0  0.47003740335E+01 -0.72478155362E+01  0.31487192545E+02  0.32650691271E+02  0.00000000000E+00 0.  1.
</event>
<event>
 5    1  0.1659417E-003  0.9118800E+02  0.7818608E-02  0.1130116E+00
         25   -1    0    0    0    0  0.00000000000E+00  0.00000000000E+00  0.99999998245E-14  0.12500000000E+03  0.12500000000E+03 0.  0.
        -11    1    3    3    0    0 -0.31323812510E+02 -0.18709502550E+02  0.44563260613E+02  0.57594365285E+02  0.51100000000E-03 0.  1.
         23    2    1    0    0    0 -0.17018297810E+02 -0.24821466629E+02  0.14173988253E+02  0.91733957119E+02  0.85489702770E+02 0.  0.
         11    1    3    3    0    0  0.14305514701E+02 -0.61119640792E+01 -0.30389272360E+02  0.34139591834E+02  0.51100000000E-03 0. -1.
         22    1    1    0    0    0  0.17018297810E+02  0.24821466629E+02 -0.14173988253E+02  0.33266042881E+02  0.00000000000E+00 0.  1.
</event>
<event>
 5    1  0.1659417E-003  0.9118800E+02  0.7818608E-02  0.1130116E+00
         25   -1    0    0    0    0  0.00000000000E+00  0.00000000000E+00  0.99999998245E-14  0.12500000000E+03  0.12500000000E+03 0.  0.
        -11    1    3    3    0    0  0.18562036296E+02 -0.55798969110E+02 -0.46528290051E+01  0.58989176661E+02  0.51100000000E-03 0.  1.
         23    2    1    0    0    0 -0.55293322565E+01 -0.22228865181E+02 -0.86784805666E+01  0.10050485788E+03  0.97474173351E+02 0.  0.
         11    1    3    3    0    0 -0.24091368552E+02  0.33570103928E+02 -0.40256515615E+01  0.41515681221E+02  0.51100000000E-03 0. -1.
         22    1    1    0    0    0  0.55293322565E+01  0.22228865181E+02  0.86784805666E+01  0.24495142118E+02  0.00000000000E+00 0.  1.
</event>
<event>
 5    1  0.1659417E-003  0.9118800E+02  0.7818608E-02  0.1130116E+00
         25   -1    0    0    0    0  0.00000000000E+00  0.00000000000E+00  0.99999998245E-14  0.12500000000E+03  0.12500000000E+03 0.  0.
        -11    1    3    3    0    0  0.36662189519E+02 -0.20442585098E+01  0.31847814430E+02  0.48606361903E+02  0.51100000000E-03 0. -1.
         23    2    1    0    0    0  0.67896290117E+01 -0.28564072430E+02  0.15833892310E+02  0.91642580412E+02  0.85355990435E+02 0.  0.
         11    1    3    3    0    0 -0.29872560508E+02 -0.26519813920E+02 -0.16013922121E+02  0.43036218509E+02  0.51100000000E-03 0.  1.
         22    1    1    0    0    0 -0.67896290117E+01  0.28564072430E+02 -0.15833892310E+02  0.33357419588E+02  0.00000000000E+00 0.  1.
</event>
<event>
 5    1  0.1659417E-003  0.9118800E+02  0.7818608E-02  0.1130116E+00
         25   -1    0    0    0    0  0.00000000000E+00  0.00000000000E+00  0.99999998245E-14  0.12500000000E+03  0.12500000000E+03 0.  0.
        -11    1    3    3    0    0 -0.14856167462E+02 -0.48805577030E+01  0.32126896188E+02  0.35730421410E+02  0.51100000000E-03 0.  1.
         23    2    1    0    0    0  0.25540335021E+02  0.13544150441E+02 -0.73813643404E+01  0.95163155936E+02  0.90364755210E+02 0.  0.
         11    1    3    3    0    0  0.40396502483E+02  0.18424708144E+02 -0.39508260529E+02  0.59432734527E+02  0.51100000000E-03 0. -1.
         22    1    1    0    0    0 -0.25540335021E+02 -0.13544150441E+02  0.73813643404E+01  0.29836844064E+02  0.00000000000E+00 0. -1.
</event>
<event>
 5    1  0.1659417E-003  0.9118800E+02  0.7818608E-02  0.1130116E+00
         25   -1    0    0    0    0  0.00000000000E+00  0.00000000000E+00  0.99999998245E-14  0.12500000000E+03  0.12500000000E+03 0.  0.
        -11    1    3    3    0    0  0.90289090927E+01 -0.48331888659E+02  0.11436587213E+02  0.50480572383E+02  0.51100000000E-03 0.  1.
         23    2    1    0    0    0 -0.20971193428E+02 -0.17289862474E+02 -0.62139341928E+01  0.97119123466E+02  0.93031074735E+02 0.  0.
         11    1    3    3    0    0 -0.30000102521E+02  0.31042026185E+02 -0.17650521406E+02  0.46638551083E+02  0.51100000000E-03 0. -1.
         22    1    1    0    0    0  0.20971193428E+02  0.17289862474E+02  0.62139341928E+01  0.27880876534E+02  0.00000000000E+00 0.  1.
</event>
<event>
 5    1  0.1659417E-003  0.9118800E+02  0.7818608E-02  0.1130116E+00
         25   -1    0    0    0    0  0.00000000000E+00  0.00000000000E+00  0.99999998245E-14  0.12500000000E+03  0.12500000000E+03 0.  0.
        -11    1    3    3    0    0  0.22110971600E+02  0.33282889231E+01 -0.29724936525E+02  0.37196026992E+02  0.51100000000E-03 0. -1.
         23    2    1    0    0    0 -0.29308030296E+02 -0.63359998745E+01 -0.71727406070E+01  0.94168948411E+02  0.88978857617E+02 0.  0.
         11    1    3    3    0    0 -0.51419001897E+02 -0.96642887976E+01  0.22552195918E+02  0.56972921419E+02  0.51100000000E-03 0.  1.
         22    1    1    0    0    0  0.29308030296E+02  0.63359998745E+01  0.71727406070E+01  0.30831051589E+02  0.00000000000E+00 0.  1.
</event>
<event>
 5    1  0.1659417E-003  0.9118800E+02  0.7818608E-02  0.1130116E+00
         25   -1    0    0    0    0  0.00000000000E+00  0.00000000000E+00  0.99999998245E-14  0.12500000000E+03  0.12500000000E+03 0.  0.
        -11    1    3    3    0    0 -0.34673394525E+02 -0.16893243545E+02 -0.16800275688E+02  0.42069885059E+02  0.51100000000E-03 0. -1.
         23    2    1    0    0    0  0.13444746123E+02  0.60614614555E+00 -0.27505473436E+02  0.94378444187E+02  0.89272678053E+02 0.  0.
         11    1    3    3    0    0  0.48118140648E+02  0.17499389691E+02 -0.10705197748E+02  0.52308559128E+02  0.51100000000E-03 0.  1.
         22    1    1    0    0    0 -0.13444746123E+02 -0.60614614555E+00  0.27505473436E+02  0.30621555813E+02  0.00000000000E+00 0.  1.
</event>
<event>
 5    1  0.1659417E-003  0.9118800E+02  0.7818608E-02  0.1130116E+00
         25   -1    0    0    0    0  0.00000000000E+00  0.00000000000E+00  0.99999998245E-14  0.12500000000E+03  0.12500000000E+03 0.  0.
        -11    1    3    3    0    0  0.40293067638E+02  0.79179772466E+01 -0.17039558008E+02  0.44458657208E+02  0.51100000000E-03 0.  1.
         23    2    1    0    0    0  0.15652219730E+02 -0.20664553766E+02  0.15933030010E+02  0.94571769520E+02  0.89542963877E+02 0.  0.
         11    1    3    3    0    0 -0.24640847908E+02 -0.28582531013E+02  0.32972588019E+02  0.50113112312E+02  0.51100000000E-03 0. -1.
         22    1    1    0    0    0 -0.15652219730E+02  0.20664553766E+02 -0.15933030010E+02  0.30428230480E+02  0.00000000000E+00 0. -1.
</event>
<event>
 5    1  0.1659417E-003  0.9118800E+02  0.7818608E-02  0.1130116E+00
         25   -1    0    0    0    0  0.00000000000E+00  0.00000000000E+00  0.99999998245E-14  0.12500000000E+03  0.12500000000E+03 0.  0.
        -11    1    3    3    0    0 -0.19865551771E+02  0.42796210812E+02 -0.31056249255E+02  0.56485807289E+02  0.51100000000E-03 0. -1.
         23    2    1    0    0    0  0.91239543430E+01  0.25375582773E+02 -0.10513446868E+02  0.96056964413E+02  0.91592800500E+02 0.  0.
         11    1    3    3    0    0  0.28989506114E+02 -0.17420628039E+02  0.20542802387E+02  0.39571157125E+02  0.51100000000E-03 0.  1.
         22    1    1    0    0    0 -0.91239543430E+01 -0.25375582773E+02  0.10513446868E+02  0.28943035587E+02  0.00000000000E+00 0. -1.
</event>
<event>
 5    1  0.1659417E-003  0.9118800E+02  0.7818608E-02  0.1130116E+00
         25   -1    0    0    0    0  0.00000000000E+00  0.00000000000E+00  0.99999998245E-14  0.12500000000E+03  0.12500000000E+03 0.  0.
        -11    1    3    3    0    0  0.18477472344E+02  0.54264164396E+02 -0.12779769912E+02  0.58731073897E+02  0.51100000000E-03 0.  1.
         23    2    1    0    0    0  0.21972248660E+02  0.18260770352E+02 -0.87103028495E+01  0.95131876177E+02  0.90321476096E+02 0.  0.
         11    1    3    3    0    0  0.34947763154E+01 -0.36003394044E+02  0.40694670624E+01  0.36400802280E+02  0.51100000000E-03 0. -1.
         22    1    1    0    0    0 -0.21972248660E+02 -0.18260770352E+02  0.87103028495E+01  0.29868123823E+02  0.00000000000E+00 0.  1.
</event>
<event>
 5    1  0.1659417E-003  0.9118800E+02  0.7818608E-02  0.1130116E+00
         25   -1    0    0    0    0  0.00000000000E+00  0.00000000000E+00  0.99999998245E-14  0.12500000000E+03  0.12500000000E+03 0.  0.
        -11    1    3    3    0    0  0.39704258690E+02  0.17925244367E+02 -0.14631497464E+02  0.45954578248E+02  0.51100000000E-03 0.  1.
         23    2    1    0    0    0  0.13528836814E+02  0.49123955229E+01  0.25568364969E+02  0.95658862624E+02  0.91047875626E+02 0.  0.
         11    1    3    3    0    0 -0.26175421876E+02 -0.13012848844E+02  0.40199862433E+02  0.49704284376E+02  0.51100000000E-03 0. -1.
         22    1    1    0    0    0 -0.13528836814E+02 -0.49123955229E+01 -0.25568364969E+02  0.29341137376E+02  0.00000000000E+00 0.  1.
</event>
<event>
 5    1  0.1659417E-003  0.9118800E+02  0.7818608E-02  0.1130116E+00
         25   -1    0    0    0    0  0.00000000000E+00  0.00000000000E+00  0.99999998245E-14  0.12500000000E+03  0.12500000000E+03 0.  0.
        -11    1    3    3    0    0 -0.21751798392E+02 -0.16671265747E+01 -0.56957566128E+02  0.60992494488E+02  0.51100000000E-03 0. -1.
         23    2    1    0    0    0 -0.18618934651E+02  0.41369065177E-01 -0.21798308337E+02  0.96332375660E+02  0.91967896110E+02 0.  0.
         11    1    3    3    0    0  0.31328637414E+01  0.17084956399E+01  0.35159257791E+02  0.35339881172E+02  0.51100000000E-03 0.  1.
         22    1    1    0    0    0  0.18618934651E+02 -0.41369065177E-01  0.21798308337E+02  0.28667624340E+02  0.00000000000E+00 0. -1.
</event>
<event>
 5    1  0.1659417E-003  0.9118800E+02  0.7818608E-02  0.1130116E+00
         25   -1    0    0    0    0  0.00000000000E+00  0.00000000000E+00  0.99999998245E-14  0.12500000000E+03  0.12500000000E+03 0.  0.
        -11    1    3    3    0    0  0.11684572278E+01  0.52887459969E+02  0.21775292364E+02  0.57206748483E+02  0.51100000000E-03 0. -1.
         23    2    1    0    0    0  0.74967786432E+01  0.29699355845E+02 -0.58399179264E+01  0.93817343458E+02  0.88483534426E+02 0.  0.
         11    1    3    3    0    0  0.63283214154E+01 -0.23188104124E+02 -0.27615210290E+02  0.36610594975E+02  0.51100000000E-03 0.  1.
         22    1    1    0    0    0 -0.74967786432E+01 -0.29699355845E+02  0.58399179264E+01  0.31182656542E+02  0.00000000000E+00 0. -1.
</event>
<event>
 5    1  0.1659417E-003  0.9118800E+02  0.7818608E-02  0.1130116E+00
         25   -1    0    0    0    0  0.00000000000E+00  0.00000000000E+00  0.99999998245E-14  0.12500000000E+03  0.12500000000E+03 0.  0.
        -11    1    3    3    0    0  0.48354133579E+02 -0.21933815958E+02 -0.24368199509E+02  0.58421089208E+02  0.51100000000E-03 0.  1.
         23    2    1    0    0    0  0.24787329593E+02 -0.60872630792E+01  0.46862617188E+01  0.99049517749E+02  0.95589640847E+02 0.  0.
         11    1    3    3    0    0 -0.23566803986E+02  0.15846552879E+02  0.29054461227E+02  0.40628428541E+02  0.51100000000E-03 0. -1.
         22    1    1    0    0    0 -0.24787329593E+02  0.60872630792E+01 -0.46862617188E+01  0.25950482251E+02  0.00000000000E+00 0.  1.
</event>
<event>
 5    1  0.1659417E-003  0.9118800E+02  0.7818608E-02  0.1130116E+00
         25   -1    0    0    0    0  0.00000000000E+00  0.00000000000E+00  0.99999998245E-14  0.12500000000E+03  0.12500000000E+03 0.  0.
        -11    1    3    3    0    0 -0.90062986766E+01  0.31991837391E+02 -0.18782213364E+02  0.38175418984E+02  0.51100000000E-03 0.  1.
         23    2    1    0    0    0  0.35939114964E+01 -0.23726572011E+02 -0.17472433178E+02  0.95315789713E+02  0.90575644785E+02 0.  0.
         11    1    3    3    0    0  0.12600210173E+02 -0.55718409401E+02  0.13097801860E+01  0.57140370729E+02  0.51100000000E-03 0. -1.
         22    1    1    0    0    0 -0.35939114964E+01  0.23726572011E+02  0.17472433178E+02  0.29684210287E+02  0.00000000000E+00 0. -1.
</event>
<event>
 5    1  0.1659417E-003  0.9118800E+02  0.7818608E-02  0.1130116E+00
         25   -1    0    0    0    0  0.00000000000E+00  0.00000000000E+00  0.99999998245E-14  0.12500000000E+03  0.12500000000E+03 0.  0.
        -11    1    3    3    0    0 -0.10066911893E+02  0.13596255734E+02 -0.36193925438E+02  0.39952485829E+02  0.51100000000E-03 0.  1.
         23    2    1    0    0    0 -0.16272244943E+02  0.13912814346E+02  0.19529646102E+02  0.96021396939E+02  0.91544247414E+02 0.  0.
         11    1    3    3    0    0 -0.62053330499E+01  0.31655861224E+00  0.55723571540E+02  0.56068911110E+02  0.51100000000E-03 0. -1.
         22    1    1    0    0    0  0.16272244943E+02 -0.13912814346E+02 -0.19529646102E+02  0.28978603061E+02  0.00000000000E+00 0. -1.
</event>
<event>
 5    1  0.1659417E-003  0.9118800E+02  0.7818608E-02  0.1130116E+00
         25   -1    0    0    0    0  0.00000000000E+00  0.00000000000E+00  0.99999998245E-14  0.12500000000E+03  0.12500000000E+03 0.  0.
        -11    1    3    3    0    0 -0.27117634122E+02  0.16126771100E+01  0.27239288944E+02  0.38470062000E+02  0.51100000000E-03 0.  1.
         23    2    1    0    0    0  0.25831442716E+02  0.11309290546E+02  0.73224206029E+01  0.95866148059E+02  0.91332015278E+02 0.  0.
         11    1    3    3    0    0  0.52949076838E+02  0.96966134364E+01 -0.19916868341E+02  0.57396086059E+02  0.51100000000E-03 0. -1.
         22    1    1    0    0    0 -0.25831442716E+02 -0.11309290546E+02 -0.73224206029E+01  0.29133851941E+02  0.00000000000E+00 0. -1.
</event>
<event>
 5    1  0.1659417E-003  0.9118800E+02  0.7818608E-02  0.1130116E+00
         25   -1    0    0    0    0  0.00000000000E+00  0.00000000000E+00  0.99999998245E-14  0.12500000000E+03  0.12500000000E+03 0.  0.
        -11    1    3    3    0    0  0.34016529266E+02 -0.49389768787E+01 -0.95585888648E+00  0.34386500584E+02  0.51100000000E-03 0.  1.
         23    2    1    0    0    0 -0.23063222625E+02  0.14661981738E+02 -0.10947907960E+02  0.95559506882E+02  0.90911367389E+02 0.  0.
         11    1    3    3    0    0 -0.57079751891E+02  0.19600958617E+02 -0.99920490732E+01  0.61173006298E+02  0.51100000000E-03 0. -1.
         22    1    1    0    0    0  0.23063222625E+02 -0.14661981738E+02  0.10947907960E+02  0.29440493118E+02  0.00000000000E+00 0. -1.
</event>
<event>
 5    1  0.1659417E-003  0.9118800E+02  0.7818608E-02  0.1130116E+00
         25   -1    0    0    0    0  0.00000000000E+00  0.00000000000E+00  0.99999998245E-14  0.12500000000E+03  0.12500000000E+03 0.  0.
        -11    1    3    3    0    0  0.69063454301E+01  0.49055706683E+02  0.36475667583E+02  0.61519381428E+02  0.51100000000E-03 0.  1.
         23    2    1    0    0    0  0.75392209411E+01  0.19276134680E+02  0.22520553750E+02  0.94412673183E+02  0.89320592787E+02 0.  0.
         11    1    3    3    0    0  0.63287551104E+00 -0.29779572004E+02 -0.13955113833E+02  0.32893291755E+02  0.51100000000E-03 0. -1.
         22    1    1    0    0    0 -0.75392209411E+01 -0.19276134680E+02 -0.22520553750E+02  0.30587326817E+02  0.00000000000E+00 0.  1.
</event>
<event>
 5    1  0.1659417E-003  0.9118800E+02  0.7818608E-02  0.1130116E+00
         25   -1    0    0    0    0  0.00000000000E+00  0.00000000000E+00  0.99999998245E-14  0.12500000000E+03  0.12500000000E+03 0.  0.
        -11    1    3    3    0    0 -0.18014664284E+02 -0.32451757363E+02  0.31897860531E+02  0.48939944748E+02  0.51100000000E-03 0. -1.
         23    2    1    0    0    0 -0.11203824724E+02 -0.24022837029E+02 -0.13246949562E+02  0.95367179343E+02  0.90646537914E+02 0.  0.
         11    1    3    3    0    0  0.68108395606E+01  0.84289203341E+01 -0.45144810093E+02  0.46427234595E+02  0.51100000000E-03 0.  1.
         22    1    1    0    0    0  0.11203824724E+02  0.24022837029E+02  0.13246949562E+02  0.29632820657E+02  0.00000000000E+00 0.  1.
</event>
<event>
 5    1  0.1659417E-003  0.9118800E+02  0.7818608E-02  0.1130116E+00
         25   -1    0    0    0    0  0.00000000000E+00  0.00000000000E+00  0.99999998245E-14  0.12500000000E+03  0.12500000000E+03 0.  0.
        -11    1    3    3    0    0  0.17853447042E+02  0.12929142237E+02  0.57162120705E+02  0.61265131470E+02  0.51100000000E-03 0. -1.
         23    2    1    0    0    0  0.88054859978E-01  0.38897088194E+01  0.28841997738E+02  0.95896762690E+02  0.91373905863E+02 0.  0.
         11    1    3    3    0    0 -0.17765392182E+02 -0.90394334180E+01 -0.28320122967E+02  0.34631631221E+02  0.51100000000E-03 0.  1.
         22    1    1    0    0    0 -0.88054859978E-01 -0.38897088194E+01 -0.28841997738E+02  0.29103237310E+02  0.00000000000E+00 0. -1.
</event>
<event>
 5    1  0.1659417E-003  0.9118800E+02  0.7818608E-02  0.1130116E+00
         25   -1    0    0    0    0  0.00000000000E+00  0.00000000000E+00  0.99999998245E-14  0.12500000000E+03  0.12500000000E+03 0.  0.
        -11    1    3    3    0    0  0.40671853966E+02  0.11862763615E+02  0.22434529903E+02  0.47939889422E+02  0.51100000000E-03 0.  1.
         23    2    1    0    0    0  0.90093301532E+01 -0.22304957342E+02  0.18432682721E+02  0.94694176399E+02  0.89713678443E+02 0.  0.
         11    1    3    3    0    0 -0.31662523813E+02 -0.34167720957E+02 -0.40018471816E+01  0.46754286977E+02  0.51100000000E-03 0. -1.
         22    1    1    0    0    0 -0.90093301532E+01  0.22304957342E+02 -0.18432682721E+02  0.30305823601E+02  0.00000000000E+00 0. -1.
</event>
<event>
 5    1  0.1659417E-003  0.9118800E+02  0.7818608E-02  0.1130116E+00
         25   -1    0    0    0    0  0.00000000000E+00  0.00000000000E+00  0.99999998245E-14  0.12500000000E+03  0.12500000000E+03 0.  0.
        -11    1    3    3    0    0  0.28944797584E+02 -0.22238650444E+02  0.26741804732E+02  0.45249121554E+02  0.51100000000E-03 0. -1.
         23    2    1    0    0    0 -0.74341828322E+01  0.13716241169E+02  0.23876878616E+02  0.96477943997E+02  0.92165535854E+02 0.  0.
         11    1    3    3    0    0 -0.36378980416E+02  0.35954891613E+02 -0.28649261162E+01  0.51228822444E+02  0.51100000000E-03 0.  1.
         22    1    1    0    0    0  0.74341828322E+01 -0.13716241169E+02 -0.23876878616E+02  0.28522056003E+02  0.00000000000E+00 0. -1.
</event>
<event>
 5    1  0.1659417E-003  0.9118800E+02  0.7818608E-02  0.1130116E+00
         25   -1    0    0    0    0  0.00000000000E+00  0.00000000000E+00  0.99999998245E-14  0.12500000000E+03  0.12500000000E+03 0.  0.
        -11    1    3    3    0    0 -0.14366446142E+02 -0.58287308303E+02 -0.10525819716E+02  0.60947501712E+02  0.51100000000E-03 0.  1.
         23    2    1    0    0    0  0.16574785504E+00 -0.27449287107E+02 -0.11936415350E+02  0.95067261294E+02  0.90232008309E+02 0.  0.
         11    1    3    3    0    0  0.14532193997E+02  0.30838021195E+02 -0.14105956341E+01  0.34119759582E+02  0.51100000000E-03 0. -1.
         22    1    1    0    0    0 -0.16574785504E+00  0.27449287107E+02  0.11936415350E+02  0.29932738706E+02  0.00000000000E+00 0.  1.
</event>
<event>
 5    1  0.1659417E-003  0.9118800E+02  0.7818608E-02  0.1130116E+00
         25   -1    0    0    0    0  0.00000000000E+00  0.00000000000E+00  0.99999998245E-14  0.12500000000E+03  0.12500000000E+03 0.  0.
        -11    1    3    3    0    0  0.12303520697E+02  0.28889004877E+01  0.39359484447E+02  0.41338739503E+02  0.51100000000E-03 0. -1.
         23    2    1    0    0    0  0.12428817505E+01  0.27600287899E+02 -0.83005512656E+01  0.96151779978E+02  0.91722107446E+02 0.  0.
         11    1    3    3    0    0 -0.11060638946E+02  0.24711387411E+02 -0.47660035712E+02  0.54813040474E+02  0.51100000000E-03 0.  1.
         22    1    1    0    0    0 -0.12428817505E+01 -0.27600287899E+02  0.83005512656E+01  0.28848220022E+02  0.00000000000E+00 0.  1.
</event>
<event>
 5    1  0.1659417E-003  0.9118800E+02  0.7818608E-02  0.1130116E+00
         25   -1    0    0    0    0  0.00000000000E+00  0.00000000000E+00  0.99999998245E-14  0.12500000000E+03  0.12500000000E+03 0.  0.
        -11    1    3    3    0    0 -0.51231554069E+02 -0.14008697948E+02  0.18303328322E+01  0.53143822492E+02  0.51100000000E-03 0.  1.
         23    2    1    0    0    0 -0.92623592871E+01 -0.24548801486E+02 -0.80981045507E+01  0.97540680065E+02  0.93595779907E+02 0.  0.
         11    1    3    3    0    0  0.41969194782E+02 -0.10540103538E+02 -0.99284373829E+01  0.44396857573E+02  0.51100000000E-03 0. -1.
         22    1    1    0    0    0  0.92623592871E+01  0.24548801486E+02  0.80981045507E+01  0.27459319935E+02  0.00000000000E+00 0. -1.
</event>
<event>
 5    1  0.1659417E-003  0.9118800E+02  0.7818608E-02  0.1130116E+00
         25   -1    0    0    0    0  0.00000000000E+00  0.00000000000E+00  0.99999998245E-14  0.12500000000E+03  0.12500000000E+03 0.  0.
        -11    1    3    3    0    0  0.18693901980E+02 -0.11865678631E+02 -0.20665537635E+02  0.30287303390E+02  0.51100000000E-03 0. -1.
         23    2    1    0    0    0 -0.19534687832E+02  0.18431290833E+02  0.18116147154E+02  0.92603838218E+02  0.86752288469E+02 0.  0.
         11    1    3    3    0    0 -0.38228589812E+02  0.30296969464E+02  0.38781684790E+02  0.62316534829E+02  0.51100000000E-03 0.  1.
         22    1    1    0    0    0  0.19534687832E+02 -0.18431290833E+02 -0.18116147154E+02  0.32396161782E+02  0.00000000000E+00 0.  1.
</event>
<event>
 5    1  0.1659417E-003  0.9118800E+02  0.7818608E-02  0.1130116E+00
         25   -1    0    0    0    0  0.00000000000E+00  0.00000000000E+00  0.99999998245E-14  0.12500000000E+03  0.12500000000E+03 0.  0.
        -11    1    3    3    0    0 -0.51754588508E+02  0.14075889541E+01  0.62964283131E+01  0.52155189080E+02  0.51100000000E-03 0.  1.
         23    2    1    0    0    0 -0.12819762562E+02 -0.42332610133E+01  0.25661114520E+02  0.96004144962E+02  0.91520687500E+02 0.  0.
         11    1    3    3    0    0  0.38934825945E+02 -0.56408499673E+01  0.19364686207E+02  0.43848955882E+02  0.51100000000E-03 0. -1.
         22    1    1    0    0    0  0.12819762562E+02  0.42332610133E+01 -0.25661114520E+02  0.28995855038E+02  0.00000000000E+00 0.  1.
</event>
<event>
 5    1  0.1659417E-003  0.9118800E+02  0.7818608E-02  0.1130116E+00
         25   -1    0    0    0    0  0.00000000000E+00  0.00000000000E+00  0.99999998245E-14  0.12500000000E+03  0.12500000000E+03 0.  0.
        -11    1    3    3    0    0 -0.12001091263E+02  0.69213122721E+00  0.46672565135E+02  0.48195783775E+02  0.51100000000E-03 0. -1.
         23    2    1    0    0    0 -0.14307184276E+01  0.28290454716E+02  0.10775476877E+02  0.94693108288E+02  0.89712190209E+02 0.  0.
         11    1    3    3    0    0  0.10570372835E+02  0.27598323489E+02 -0.35897088258E+02  0.46497324514E+02  0.51100000000E-03 0.  1.
         22    1    1    0    0    0  0.14307184276E+01 -0.28290454716E+02 -0.10775476877E+02  0.30306891712E+02  0.00000000000E+00 0. -1.
</event>
<event>
 5    1  0.1659417E-003  0.9118800E+02  0.7818608E-02  0.1130116E+00
         25   -1    0    0    0    0  0.00000000000E+00  0.00000000000E+00  0.99999998245E-14  0.12500000000E+03  0.12500000000E+03 0.  0.
        -11    1    3    3    0    0 -0.62604246192E+00 -0.22087016106E+02 -0.57838662753E+02  0.61915580583E+02  0.51100000000E-03 0.  1.
         23    2    1    0    0    0 -0.19157690933E+01 -0.15906304056E+02 -0.25353353064E+02  0.95008781426E+02  0.90150958711E+02 0.  0.
         11    1    3    3    0    0 -0.12897266314E+01  0.61807120495E+01  0.32485309688E+02  0.33093200843E+02  0.51100000000E-03 0. -1.
         22    1    1    0    0    0  0.19157690933E+01  0.15906304056E+02  0.25353353064E+02  0.29991218574E+02  0.00000000000E+00 0.  1.
</event>
<event>
 5    1  0.1659417E-003  0.9118800E+02  0.7818608E-02  0.1130116E+00
         25   -1    0    0    0    0  0.00000000000E+00  0.00000000000E+00  0.99999998245E-14  0.12500000000E+03  0.12500000000E+03 0.  0.
        -11    1    3    3    0    0 -0.19020382930E+02 -0.22915692097E+02  0.10723030212E+02  0.31652603183E+02  0.51100000000E-03 0. -1.
         23    2    1    0    0    0  0.58041586433E+01  0.31928118078E+02  0.19373535363E+01  0.92490827136E+02  0.86589299478E+02 0.  0.
         11    1    3    3    0    0  0.24824541573E+02  0.54843810175E+02 -0.87856766761E+01  0.60838223953E+02  0.51100000000E-03 0.  1.
         22    1    1    0    0    0 -0.58041586433E+01 -0.31928118078E+02 -0.19373535363E+01  0.32509172864E+02  0.00000000000E+00 0.  1.
</event>
<event>
 5    1  0.1659417E-003  0.9118800E+02  0.7818608E-02  0.1130116E+00
         25   -1    0    0    0    0  0.00000000000E+00  0.00000000000E+00  0.99999998245E-14  0.12500000000E+03  0.12500000000E+03 0.  0.
        -11    1    3    3    0    0 -0.29078364444E+02 -0.22500776632E+02 -0.46867825481E+02  0.59568693904E+02  0.51100000000E-03 0. -1.
         23    2    1    0    0    0  0.12473966612E-01 -0.12758297105E+02 -0.23954170721E+02  0.97860055351E+02  0.94021347777E+02 0.  0.
         11    1    3    3    0    0  0.29090838410E+02  0.97424795272E+01  0.22913654761E+02  0.38291361448E+02  0.51100000000E-03 0.  1.
         22    1    1    0    0    0 -0.12473966612E-01  0.12758297105E+02  0.23954170721E+02  0.27139944649E+02  0.00000000000E+00 0. -1.
</event>
<event>
 5    1  0.1659417E-003  0.9118800E+02  0.7818608E-02  0.1130116E+00
         25   -1    0    0    0    0  0.00000000000E+00  0.00000000000E+00  0.99999998245E-14  0.12500000000E+03  0.12500000000E+03 0.  0.
        -11    1    3    3    0    0  0.34000618035E+02 -0.76378275047E+01  0.16237924325E+02  0.38445397935E+02  0.51100000000E-03 0.  1.
         23    2    1    0    0    0 -0.97094531710E+01 -0.18629924056E+02 -0.19783882507E+02  0.96142599593E+02  0.91709595454E+02 0.  0.
         11    1    3    3    0    0 -0.43710071206E+02 -0.10992096551E+02 -0.36021806832E+02  0.57697201658E+02  0.51100000000E-03 0. -1.
         22    1    1    0    0    0  0.97094531710E+01  0.18629924056E+02  0.19783882507E+02  0.28857400407E+02  0.00000000000E+00 0. -1.
</event>
<event>
 5    1  0.1659417E-003  0.9118800E+02  0.7818608E-02  0.1130116E+00
         25   -1    0    0    0    0  0.00000000000E+00  0.00000000000E+00  0.99999998245E-14  0.12500000000E+03  0.12500000000E+03 0.  0.
        -11    1    3    3    0    0  0.30736685442E+02 -0.93169440752E+00  0.31051895403E+02  0.43701625769E+02  0.51100000000E-03 0. -1.
         23    2    1    0    0    0 -0.11963542477E+02 -0.23600159802E+02  0.73772894848E+01  0.97531503656E+02  0.93583523731E+02 0.  0.
         11    1    3    3    0    0 -0.42700227919E+02 -0.22668465395E+02 -0.23674605918E+02  0.53829877887E+02  0.51100000000E-03 0.  1.
         22    1    1    0    0    0  0.11963542477E+02  0.23600159802E+02 -0.73772894848E+01  0.27468496344E+02  0.00000000000E+00 0.  1.
</event>
<event>
 5    1  0.1659417E-003  0.9118800E+02  0.7818608E-02  0.1130116E+00
         25   -1    0    0    0    0  0.00000000000E+00  0.00000000000E+00  0.99999998245E-14  0.12500000000E+03  0.12500000000E+03 0.  0.
        -11    1    3    3    0    0 -0.29163990940E+02 -0.37611670265E+01 -0.41763775550E+02  0.51077369680E+02  0.51100000000E-03 0. -1.
         23    2    1    0    0    0 -0.27720644270E+02  0.11923478978E+02 -0.96793569366E+00  0.94808273167E+02  0.89872511324E+02 0.  0.
         11    1    3    3    0    0  0.14433466702E+01  0.15684646004E+02  0.40795839857E+02  0.43730903487E+02  0.51100000000E-03 0.  1.
         22    1    1    0    0    0  0.27720644270E+02 -0.11923478978E+02  0.96793569366E+00  0.30191726833E+02  0.00000000000E+00 0. -1.
</event>
<event>
 5    1  0.1659417E-003  0.9118800E+02  0.7818608E-02  0.1130116E+00
         25   -1    0    0    0    0  0.00000000000E+00  0.00000000000E+00  0.99999998245E-14  0.12500000000E+03  0.12500000000E+03 0.  0.
        -11    1    3    3    0    0  0.36977710861E+02 -0.39127648540E+02  0.21782849407E+02  0.58075954657E+02  0.51100000000E-03 0.  1.
         23    2    1    0    0    0  0.24124776013E+02 -0.13649337139E+02 -0.45557022107E+01  0.96909723307E+02  0.92749290169E+02 0.  0.
         11    1    3    3    0    0 -0.12852934848E+02  0.25478311400E+02 -0.26338551618E+02  0.38833768650E+02  0.51100000000E-03 0. -1.
         22    1    1    0    0    0 -0.24124776013E+02  0.13649337139E+02  0.45557022107E+01  0.28090276693E+02  0.00000000000E+00 0.  1.
</event>
<event>
 5    1  0.1659417E-003  0.9118800E+02  0.7818608E-02  0.1130116E+00
         25   -1    0    0    0    0  0.00000000000E+00  0.00000000000E+00  0.99999998245E-14  0.12500000000E+03  0.12500000000E+03 0.  0.
        -11    1    3    3    0    0  0.19627749782E+02  0.10873611525E+02 -0.22890656618E+01  0.22554906583E+02  0.51100000000E-03 0. -1.
         23    2    1    0    0    0 -0.36670897522E+02 -0.12612070693E+02 -0.12181226505E+02  0.84352720492E+02  0.73913328453E+02 0.  0.
         11    1    3    3    0    0 -0.56298647304E+02 -0.23485682219E+02 -0.98921608432E+01  0.61797813909E+02  0.51100000000E-03 0.  1.
         22    1    1    0    0    0  0.36670897522E+02  0.12612070693E+02  0.12181226505E+02  0.40647279508E+02  0.00000000000E+00 0.  1.
</event>
<event>
 5    1  0.1659417E-003  0.9118800E+02  0.7818608E-02  0.1130116E+00
         25   -1    0    0    0    0  0.00000000000E+00  0.00000000000E+00  0.99999998245E-14  0.12500000000E+03  0.12500000000E+03 0.  0.
        -11    1    3    3    0    0 -0.29840921776E+02 -0.40630936464E+02  0.13029485960E+02  0.52068427238E+02  0.51100000000E-03 0. -1.
         23    2    1    0    0    0 -0.19144400508E+02 -0.97246773010E+01 -0.17871844867E+02  0.97062923232E+02  0.92955531347E+02 0.  0.
         11    1    3    3    0    0  0.10696521268E+02  0.30906259163E+02 -0.30901330826E+02  0.44994495994E+02  0.51100000000E-03 0.  1.
         22    1    1    0    0    0  0.19144400508E+02  0.97246773010E+01  0.17871844867E+02  0.27937076768E+02  0.00000000000E+00 0. -1.
</event>
<event>
 5    1  0.1659417E-003  0.9118800E+02  0.7818608E-02  0.1130116E+00
         25   -1    0    0    0    0  0.00000000000E+00  0.00000000000E+00  0.99999998245E-14  0.12500000000E+03  0.12500000000E+03 0.  0.
        -11    1    3    3    0    0  0.45413337077E+02 -0.50435199161E+01 -0.67745534029E+01  0.46192021516E+02  0.51100000000E-03 0.  1.
         23    2    1    0    0    0  0.10216862435E+02  0.88791476806E+01  0.25627766294E+02  0.96017143917E+02  0.91538439899E+02 0.  0.
         11    1    3    3    0    0 -0.35196474643E+02  0.13922667597E+02  0.32402319697E+02  0.49825122401E+02  0.51100000000E-03 0. -1.
         22    1    1    0    0    0 -0.10216862435E+02 -0.88791476806E+01 -0.25627766294E+02  0.28982856083E+02  0.00000000000E+00 0.  1.
</event>
<event>
 5    1  0.1659417E-003  0.9118800E+02  0.7818608E-02  0.1130116E+00
         25   -1    0    0    0    0  0.00000000000E+00  0.00000000000E+00  0.99999998245E-14  0.12500000000E+03  0.12500000000E+03 0.  0.
        -11    1    3    3    0    0  0.38148389803E+02  0.74021789991E+01 -0.29766679134E+02  0.48950455416E+02  0.51100000000E-03 0.  1.
         23    2    1    0    0    0  0.18745895300E+02  0.20061222878E+02  0.10661618705E+02  0.95546114562E+02  0.90892951545E+02 0.  0.
         11    1    3    3    0    0 -0.19402494503E+02  0.12659043879E+02  0.40428297838E+02  0.46595659146E+02  0.51100000000E-03 0. -1.
         22    1    1    0    0    0 -0.18745895300E+02 -0.20061222878E+02 -0.10661618705E+02  0.29453885438E+02  0.00000000000E+00 0. -1.
</event>
<event>
 5    1  0.1659417E-003  0.9118800E+02  0.7818608E-02  0.1130116E+00
         25   -1    0    0    0    0  0.00000000000E+00  0.00000000000E+00  0.99999998245E-14  0.12500000000E+03  0.12500000000E+03 0.  0.
        -11    1    3    3    0    0  0.24984754112E+02 -0.12241689771E+02 -0.23103511128E+02  0.36164473357E+02  0.51100000000E-03 0. -1.
         23    2    1    0    0    0 -0.22601365719E+01  0.29219772137E+02  0.78743945495E+01  0.94653511067E+02  0.89657000657E+02 0.  0.
         11    1    3    3    0    0 -0.27244890684E+02  0.41461461908E+02  0.30977905677E+02  0.58489037710E+02  0.51100000000E-03 0.  1.
         22    1    1    0    0    0  0.22601365719E+01 -0.29219772137E+02 -0.78743945495E+01  0.30346488933E+02  0.00000000000E+00 0.  1.
</event>
<event>
 5    1  0.1659417E-003  0.9118800E+02  0.7818608E-02  0.1130116E+00
         25   -1    0    0    0    0  0.00000000000E+00  0.00000000000E+00  0.99999998245E-14  0.12500000000E+03  0.12500000000E+03 0.  0.
        -11    1    3    3    0    0 -0.35996011079E+02  0.12287884892E+02  0.32678030481E+02  0.50145374713E+02  0.51100000000E-03 0.  1.
         23    2    1    0    0    0  0.74754653486E+01 -0.80198296143E-01  0.28501209860E+02  0.95534630879E+02  0.90877157304E+02 0.  0.
         11    1    3    3    0    0  0.43471476428E+02 -0.12368083188E+02 -0.41768206206E+01  0.45389256166E+02  0.51100000000E-03 0. -1.
         22    1    1    0    0    0 -0.74754653486E+01  0.80198296143E-01 -0.28501209860E+02  0.29465369121E+02  0.00000000000E+00 0. -1.
</event>
<event>
 5    1  0.1659417E-003  0.9118800E+02  0.7818608E-02  0.1130116E+00
         25   -1    0    0    0    0  0.00000000000E+00  0.00000000000E+00  0.99999998245E-14  0.12500000000E+03  0.12500000000E+03 0.  0.
        -11    1    3    3    0    0  0.84248255020E+01  0.37720987333E+02 -0.45070432678E+02  0.59373348164E+02  0.51100000000E-03 0.  1.
         23    2    1    0    0    0  0.60937364796E+01  0.25528147123E+02 -0.94330536640E+01  0.97110890633E+02  0.93020012139E+02 0.  0.
         11    1    3    3    0    0 -0.23310890224E+01 -0.12192840210E+02  0.35637379014E+02  0.37737542470E+02  0.51100000000E-03 0. -1.
         22    1    1    0    0    0 -0.60937364796E+01 -0.25528147123E+02  0.94330536640E+01  0.27889109367E+02  0.00000000000E+00 0.  1.
</event>
<event>
 5    1  0.1659417E-003  0.9118800E+02  0.7818608E-02  0.1130116E+00
         25   -1    0    0    0    0  0.00000000000E+00  0.00000000000E+00  0.99999998245E-14  0.12500000000E+03  0.12500000000E+03 0.  0.
        -11    1    3    3    0    0 -0.30246199065E+02 -0.40996593421E+02 -0.55633462562E+01  0.51249429770E+02  0.51100000000E-03 0.  1.
         23    2    1    0    0    0  0.34428007786E+01 -0.29984349953E+02  0.13996010432E+02  0.91731359701E+02  0.85485904834E+02 0.  0.
         11    1    3    3    0    0  0.33688999843E+02  0.11012243467E+02  0.19559356688E+02  0.40481929931E+02  0.51100000000E-03 0. -1.
         22    1    1    0    0    0 -0.34428007786E+01  0.29984349953E+02 -0.13996010432E+02  0.33268640299E+02  0.00000000000E+00 0.  1.
</event>
<event>
 5    1  0.1659417E-003  0.9118800E+02  0.7818608E-02  0.1130116E+00
         25   -1    0    0    0    0  0.00000000000E+00  0.00000000000E+00  0.99999998245E-14  0.12500000000E+03  0.12500000000E+03 0.  0.
        -11    1    3    3    0    0 -0.30754092794E+02 -0.34014961079E+02  0.12239641191E+02  0.47461991293E+02  0.51100000000E-03 0. -1.
         23    2    1    0    0    0 -0.24269193783E+02  0.13921779652E+02  0.72845600340E+01  0.96088505220E+02  0.91635835266E+02 0.  0.
         11    1    3    3    0    0  0.64848990113E+01  0.47936740731E+02 -0.49550811570E+01  0.48626513926E+02  0.51100000000E-03 0.  1.
         22    1    1    0    0    0  0.24269193783E+02 -0.13921779652E+02 -0.72845600340E+01  0.28911494780E+02  0.00000000000E+00 0. -1.
</event>
<event>
 5    1  0.1659417E-003  0.9118800E+02  0.7818608E-02  0.1130116E+00
         25   -1    0    0    0    0  0.00000000000E+00  0.00000000000E+00  0.99999998245E-14  0.12500000000E+03  0.12500000000E+03 0.  0.
        -11    1    3    3    0    0  0.32408610691E+02  0.35818732853E+02  0.32353176919E+02  0.58138005875E+02  0.51100000000E-03 0.  1.
         23    2    1    0    0    0  0.42464417228E-01  0.23584783845E+02  0.16615933184E+02  0.96149816850E+02  0.91719432033E+02 0.  0.
         11    1    3    3    0    0 -0.32366146274E+02 -0.12233949008E+02 -0.15737243735E+02  0.38011810975E+02  0.51100000000E-03 0. -1.
         22    1    1    0    0    0 -0.42464417228E-01 -0.23584783845E+02 -0.16615933184E+02  0.28850183150E+02  0.00000000000E+00 0.  1.
</event>
<event>
 5    1  0.1659417E-003  0.9118800E+02  0.7818608E-02  0.1130116E+00
         25   -1    0    0    0    0  0.00000000000E+00  0.00000000000E+00  0.99999998245E-14  0.12500000000E+03  0.12500000000E+03 0.  0.
        -11    1    3    3    0    0 -0.45409348144E+02 -0.20126538696E+02  0.26196512226E+02  0.56154641053E+02  0.51100000000E-03 0.  1.
         23    2    1    0    0    0 -0.36128807532E+01 -0.13790921748E+02  0.22199421991E+02  0.98617112237E+02  0.95022513434E+02 0.  0.
         11    1    3    3    0    0  0.41796467391E+02  0.63356169477E+01 -0.39970902356E+01  0.42462471184E+02  0.51100000000E-03 0. -1.
         22    1    1    0    0    0  0.36128807532E+01  0.13790921748E+02 -0.22199421991E+02  0.26382887763E+02  0.00000000000E+00 0.  1.
</event>
<event>
 5    1  0.1659417E-003  0.9118800E+02  0.7818608E-02  0.1130116E+00
         25   -1    0    0    0    0  0.00000000000E+00  0.00000000000E+00  0.99999998245E-14  0.12500000000E+03  0.12500000000E+03 0.  0.
        -11    1    3    3    0    0 -0.12526099816E+02 -0.20373678412E+02 -0.15729471213E+02  0.28625272288E+02  0.51100000000E-03 0.  1.
         23    2    1    0    0    0  0.28985600629E+02  0.20880726249E+02 -0.12178439160E+02  0.87257661004E+02  0.78672836806E+02 0.  0.
         11    1    3    3    0    0  0.41511700445E+02  0.41254404661E+02  0.35510320523E+01  0.58632388717E+02  0.51100000000E-03 0. -1.
         22    1    1    0    0    0 -0.28985600629E+02 -0.20880726249E+02  0.12178439160E+02  0.37742338996E+02  0.00000000000E+00 0. -1.
</event>
<event>
 5    1  0.1659417E-003  0.9118800E+02  0.7818608E-02  0.1130116E+00
         25   -1    0    0    0    0  0.00000000000E+00  0.00000000000E+00  0.99999998245E-14  0.12500000000E+03  0.12500000000E+03 0.  0.
        -11    1    3    3    0    0  0.60474200135E+02  0.48644334483E+01  0.13147213031E+02  0.62077699744E+02  0.51100000000E-03 0. -1.
         23    2    1    0    0    0  0.29763051477E+02  0.53137404253E+01  0.21936795367E+01  0.94686846082E+02  0.89703464373E+02 0.  0.
         11    1    3    3    0    0 -0.30711148658E+02  0.44930697699E+00 -0.10953533494E+02  0.32609146338E+02  0.51100000000E-03 0.  1.
         22    1    1    0    0    0 -0.29763051477E+02 -0.53137404253E+01 -0.21936795367E+01  0.30313153918E+02  0.00000000000E+00 0. -1.
</event>
<event>
 5    1  0.1659417E-003  0.9118800E+02  0.7818608E-02  0.1130116E+00
         25   -1    0    0    0    0  0.00000000000E+00  0.00000000000E+00  0.99999998245E-14  0.12500000000E+03  0.12500000000E+03 0.  0.
        -11    1    3    3    0    0  0.19508211924E+02 -0.29517831283E+01 -0.32768807858E+02  0.38250204245E+02  0.51100000000E-03 0.  1.
         23    2    1    0    0    0 -0.13411439299E+02  0.25465783733E+02  0.49241246850E+01  0.95800345052E+02  0.91241910671E+02 0.  0.
         11    1    3    3    0    0 -0.32919651223E+02  0.28417566861E+02  0.37692932543E+02  0.57550140807E+02  0.51100000000E-03 0. -1.
         22    1    1    0    0    0  0.13411439299E+02 -0.25465783733E+02 -0.49241246850E+01  0.29199654948E+02  0.00000000000E+00 0. -1.
</event>
<event>
 5    1  0.1659417E-003  0.9118800E+02  0.7818608E-02  0.1130116E+00
         25   -1    0    0    0    0  0.00000000000E+00  0.00000000000E+00  0.99999998245E-14  0.12500000000E+03  0.12500000000E+03 0.  0.
        -11    1    3    3    0    0  0.20803402221E+02  0.26608744747E+02  0.16887216197E+02  0.37762215403E+02  0.51100000000E-03 0.  1.
         23    2    1    0    0    0 -0.67766675986E+01 -0.24369776165E+02  0.14656539369E+02  0.95766058077E+02  0.91194925951E+02 0.  0.
         11    1    3    3    0    0 -0.27580069819E+02 -0.50978520912E+02 -0.22306768283E+01  0.58003842674E+02  0.51100000000E-03 0. -1.
         22    1    1    0    0    0  0.67766675986E+01  0.24369776165E+02 -0.14656539369E+02  0.29233941923E+02  0.00000000000E+00 0. -1.
</event>
<event>
 5    1  0.1659417E-003  0.9118800E+02  0.7818608E-02  0.1130116E+00
         25   -1    0    0    0    0  0.00000000000E+00  0.00000000000E+00  0.99999998245E-14  0.12500000000E+03  0.12500000000E+03 0.  0.
        -11    1    3    3    0    0  0.26504554377E+02  0.60662241324E+01  0.24248955509E+02  0.36432160538E+02  0.51100000000E-03 0.  1.
         23    2    1    0    0    0  0.24536996270E+01 -0.73032418425E+01 -0.28256903794E+02  0.95711596231E+02  0.91120245049E+02 0.  0.
         11    1    3    3    0    0 -0.24050854750E+02 -0.13369465975E+02 -0.52505859303E+02  0.59279435693E+02  0.51100000000E-03 0. -1.
         22    1    1    0    0    0 -0.24536996270E+01  0.73032418425E+01  0.28256903794E+02  0.29288403769E+02  0.00000000000E+00 0. -1.
</event>
<event>
 5    1  0.1659417E-003  0.9118800E+02  0.7818608E-02  0.1130116E+00
         25   -1    0    0    0    0  0.00000000000E+00  0.00000000000E+00  0.99999998245E-14  0.12500000000E+03  0.12500000000E+03 0.  0.
        -11    1    3    3    0    0 -0.34068499809E+02  0.45276793033E+02 -0.22880709688E+02  0.61107917185E+02  0.51100000000E-03 0.  1.
         23    2    1    0    0    0 -0.12229632129E+02  0.30397238447E+02 -0.86951171239E+01  0.91100721704E+02  0.84558739501E+02 0.  0.
         11    1    3    3    0    0  0.21838867680E+02 -0.14879554586E+02  0.14185592564E+02  0.29992804519E+02  0.51100000000E-03 0. -1.
         22    1    1    0    0    0  0.12229632129E+02 -0.30397238447E+02  0.86951171239E+01  0.33899278296E+02  0.00000000000E+00 0.  1.
</event>
<event>
 4    1  0.1659417E-003  0.9118800E+02  0.7818608E-02  0.1130116E+00
         25   -1    0    0    0    0  0.00000000000E+00  0.00000000000E+00  0.99999998245E-14  0.12500000000E+03  0.12500000000E+03 0.  0.
        -11    1    1    0    0    0  0.51353370988E+01 -0.77381148556E+01  0.36185751582E+01  0.99671558166E+01  0.51100000000E-03 0.  1.
         11    1    1    0    0    0 -0.45901748739E+02  0.35987718888E+02 -0.21712596316E+02  0.62237635616E+02  0.51100000000E-03 0. -1.
         22    1    1    0    0    0  0.40766411641E+02 -0.28249604032E+02  0.18094021158E+02  0.52795208567E+02  0.00000000000E+00 0. -1.
</event>
<event>
 5    1  0.1659417E-003  0.9118800E+02  0.7818608E-02  0.1130116E+00
         25   -1    0    0    0    0  0.00000000000E+00  0.00000000000E+00  0.99999998245E-14  0.12500000000E+03  0.12500000000E+03 0.  0.
        -11    1    3    3    0    0 -0.48778832707E+02 -0.14272239988E+02 -0.25388769389E+02  0.56812507125E+02  0.51100000000E-03 0. -1.
         23    2    1    0    0    0 -0.11905985553E+02  0.20271727343E+01 -0.25119287489E+02  0.97128140980E+02  0.93043190212E+02 0.  0.
         11    1    3    3    0    0  0.36872847154E+02  0.16299412722E+02  0.26948189931E+00  0.40315633854E+02  0.51100000000E-03 0.  1.
         22    1    1    0    0    0  0.11905985553E+02 -0.20271727343E+01  0.25119287489E+02  0.27871859020E+02  0.00000000000E+00 0. -1.
</event>
<event>
 5    1  0.1659417E-003  0.9118800E+02  0.7818608E-02  0.1130116E+00
         25   -1    0    0    0    0  0.00000000000E+00  0.00000000000E+00  0.99999998245E-14  0.12500000000E+03  0.12500000000E+03 0.  0.
        -11    1    3    3    0    0  0.23520447918E+02 -0.94456524667E+01 -0.22959263750E+02  0.34198824731E+02  0.51100000000E-03 0.  1.
         23    2    1    0    0    0 -0.18789317762E+02  0.18993985647E+02  0.11688269441E+02  0.95837942541E+02  0.91293404117E+02 0.  0.
         11    1    3    3    0    0 -0.42309765679E+02  0.28439638114E+02  0.34647533191E+02  0.61639117810E+02  0.51100000000E-03 0. -1.
         22    1    1    0    0    0  0.18789317762E+02 -0.18993985647E+02 -0.11688269441E+02  0.29162057459E+02  0.00000000000E+00 0. -1.
</event>
<event>
 5    1  0.1659417E-003  0.9118800E+02  0.7818608E-02  0.1130116E+00
         25   -1    0    0    0    0  0.00000000000E+00  0.00000000000E+00  0.99999998245E-14  0.12500000000E+03  0.12500000000E+03 0.  0.
        -11    1    3    3    0    0 -0.23403445743E+02 -0.57683433451E+02  0.42463316197E+01  0.62394960533E+02  0.51100000000E-03 0.  1.
         23    2    1    0    0    0 -0.11431556837E+02 -0.25977263591E+02  0.43566864664E+01  0.96286250116E+02  0.91905182275E+02 0.  0.
         11    1    3    3    0    0  0.11971888906E+02  0.31706169860E+02  0.11035484668E+00  0.33891289583E+02  0.51100000000E-03 0. -1.
         22    1    1    0    0    0  0.11431556837E+02  0.25977263591E+02 -0.43566864664E+01  0.28713749884E+02  0.00000000000E+00 0.  1.
</event>
<event>
 5    1  0.1659417E-003  0.9118800E+02  0.7818608E-02  0.1130116E+00
         25   -1    0    0    0    0  0.00000000000E+00  0.00000000000E+00  0.99999998245E-14  0.12500000000E+03  0.12500000000E+03 0.  0.
        -11    1    3    3    0    0  0.28179140279E+02  0.11468239710E+02  0.21493065094E+01  0.30499245690E+02  0.51100000000E-03 0. -1.
         23    2    1    0    0    0 -0.14904052915E+02 -0.29802872720E+02 -0.72560789336E+01  0.90897321261E+02  0.84257523790E+02 0.  0.
         11    1    3    3    0    0 -0.43083193195E+02 -0.41271112430E+02 -0.94053854430E+01  0.60398075571E+02  0.51100000000E-03 0.  1.
         22    1    1    0    0    0  0.14904052915E+02  0.29802872720E+02  0.72560789336E+01  0.34102678739E+02  0.00000000000E+00 0.  1.
</event>
<event>
 5    1  0.1659417E-003  0.9118800E+02  0.7818608E-02  0.1130116E+00
         25   -1    0    0    0    0  0.00000000000E+00  0.00000000000E+00  0.99999998245E-14  0.12500000000E+03  0.12500000000E+03 0.  0.
        -11    1    3    3    0    0 -0.14910556577E+02  0.25722736111E+02  0.25554856273E+02  0.39205031946E+02  0.51100000000E-03 0.  1.
         23    2    1    0    0    0 -0.51183127853E+01 -0.27403912915E+02  0.89322724822E+01  0.95726171065E+02  0.91140236813E+02 0.  0.
         11    1    3    3    0    0  0.97922437919E+01 -0.53126649026E+02 -0.16622583791E+02  0.56521139119E+02  0.51100000000E-03 0. -1.
         22    1    1    0    0    0  0.51183127853E+01  0.27403912915E+02 -0.89322724822E+01  0.29273828935E+02  0.00000000000E+00 0. -1.
</event>
<event>
 5    1  0.1659417E-003  0.9118800E+02  0.7818608E-02  0.1130116E+00
         25   -1    0    0    0    0  0.00000000000E+00  0.00000000000E+00  0.99999998245E-14  0.12500000000E+03  0.12500000000E+03 0.  0.
        -11    1    3    3    0    0 -0.44440192842E+02  0.40275190845E+02 -0.12450524845E+01  0.59988097931E+02  0.51100000000E-03 0.  1.
         23    2    1    0    0    0 -0.29849589746E+02  0.10588162099E+02  0.22346718810E+01  0.93249394604E+02  0.87677526487E+02 0.  0.
         11    1    3    3    0    0  0.14590603096E+02 -0.29687028746E+02  0.34797243655E+01  0.33261296673E+02  0.51100000000E-03 0. -1.
         22    1    1    0    0    0  0.29849589746E+02 -0.10588162099E+02 -0.22346718810E+01  0.31750605396E+02  0.00000000000E+00 0.  1.
</event>
<event>
 5    1  0.1659417E-003  0.9118800E+02  0.7818608E-02  0.1130116E+00
         25   -1    0    0    0    0  0.00000000000E+00  0.00000000000E+00  0.99999998245E-14  0.12500000000E+03  0.12500000000E+03 0.  0.
        -11    1    3    3    0    0 -0.28349258481E+02 -0.22210323305E+02 -0.40183051465E+02  0.53959767818E+02  0.51100000000E-03 0. -1.
         23    2    1    0    0    0 -0.28062531557E+02  0.54087621679E+01 -0.10378441918E+02  0.94594861583E+02  0.89575194086E+02 0.  0.
         11    1    3    3    0    0  0.28672692398E+00  0.27619085473E+02  0.29804609547E+02  0.40635093764E+02  0.51100000000E-03 0.  1.
         22    1    1    0    0    0  0.28062531557E+02 -0.54087621679E+01  0.10378441918E+02  0.30405138417E+02  0.00000000000E+00 0. -1.
</event>
<event>
 5    1  0.1659417E-003  0.9118800E+02  0.7818608E-02  0.1130116E+00
         25   -1    0    0    0    0  0.00000000000E+00  0.00000000000E+00  0.99999998245E-14  0.12500000000E+03  0.12500000000E+03 0.  0.
        -11    1    3    3    0    0 -0.14276011182E+02  0.48007850494E+01 -0.59558563031E+02  0.61433496262E+02  0.51100000000E-03 0.  1.
         23    2    1    0    0    0 -0.13695027428E+02  0.53044796523E+01 -0.24965784634E+02  0.96034819472E+02  0.91562573511E+02 0.  0.
         11    1    3    3    0    0  0.58098375387E+00  0.50369460285E+00  0.34592778397E+02  0.34601323210E+02  0.51100000000E-03 0. -1.
         22    1    1    0    0    0  0.13695027428E+02 -0.53044796523E+01  0.24965784634E+02  0.28965180528E+02  0.00000000000E+00 0. -1.
</event>
<event>
 4    1  0.1659417E-003  0.9118800E+02  0.7818608E-02  0.1130116E+00
         25   -1    0    0    0    0  0.00000000000E+00  0.00000000000E+00  0.99999998245E-14  0.12500000000E+03  0.12500000000E+03 0.  0.
        -11    1    1    0    0    0 -0.15785916524E+02 -0.27578024758E+02 -0.40905036487E+02  0.51797341826E+02  0.51100000000E-03 0. -1.
         11    1    1    0    0    0  0.64981121651E+01  0.11606347101E+02 -0.11532845780E+02  0.17605092637E+02  0.51100000000E-03 0.  1.
         22    1    1    0    0    0  0.92878043588E+01  0.15971677657E+02  0.52437882266E+02  0.55597565536E+02  0.00000000000E+00 0.  1.
</event>
<event>
 5    1  0.1659417E-003  0.9118800E+02  0.7818608E-02  0.1130116E+00
         25   -1    0    0    0    0  0.00000000000E+00  0.00000000000E+00  0.99999998245E-14  0.12500000000E+03  0.12500000000E+03 0.  0.
        -11    1    3    3    0    0 -0.77643218654E+01 -0.38679867424E+02  0.97075553730E+01  0.40628234881E+02  0.51100000000E-03 0.  1.
         23    2    1    0    0    0 -0.28184830348E+02  0.94984201885E+01 -0.46664531847E+01  0.94893847254E+02  0.89991454114E+02 0.  0.
         11    1    3    3    0    0 -0.20420508482E+02  0.48178287613E+02 -0.14374008558E+02  0.54265612373E+02  0.51100000000E-03 0. -1.
         22    1    1    0    0    0  0.28184830348E+02 -0.94984201885E+01  0.46664531847E+01  0.30106152746E+02  0.00000000000E+00 0. -1.
</event>
<event>
 5    1  0.1659417E-003  0.9118800E+02  0.7818608E-02  0.1130116E+00
         25   -1    0    0    0    0  0.00000000000E+00  0.00000000000E+00  0.99999998245E-14  0.12500000000E+03  0.12500000000E+03 0.  0.
        -11    1    3    3    0    0  0.21678889576E+02  0.39061011956E+02  0.14454794525E+02  0.46953998693E+02  0.51100000000E-03 0. -1.
         23    2    1    0    0    0 -0.10597127434E+02 -0.11851382647E+02 -0.61365919746E+00  0.10908991018E+03  0.10792348004E+03 0.  0.
         11    1    3    3    0    0 -0.32276017010E+02 -0.50912394603E+02 -0.15068453722E+02  0.62135911485E+02  0.51100000000E-03 0.  1.
         22    1    1    0    0    0  0.10597127434E+02  0.11851382647E+02  0.61365919746E+00  0.15910089821E+02  0.00000000000E+00 0.  1.
</event>
<event>
 5    1  0.1659417E-003  0.9118800E+02  0.7818608E-02  0.1130116E+00
         25   -1    0    0    0    0  0.00000000000E+00  0.00000000000E+00  0.99999998245E-14  0.12500000000E+03  0.12500000000E+03 0.  0.
        -11    1    3    3    0    0 -0.54182809186E+00  0.35216935381E+02  0.45921395249E+02  0.57873142796E+02  0.51100000000E-03 0. -1.
         23    2    1    0    0    0  0.79423303247E+01  0.26203105408E+02  0.10028079074E+02  0.95841026871E+02  0.91297627120E+02 0.  0.
         11    1    3    3    0    0  0.84841584166E+01 -0.90138299726E+01 -0.35893316175E+02  0.37967884075E+02  0.51100000000E-03 0.  1.
         22    1    1    0    0    0 -0.79423303247E+01 -0.26203105408E+02 -0.10028079074E+02  0.29158973129E+02  0.00000000000E+00 0. -1.
</event>
<event>
 5    1  0.1659417E-003  0.9118800E+02  0.7818608E-02  0.1130116E+00
         25   -1    0    0    0    0  0.00000000000E+00  0.00000000000E+00  0.99999998245E-14  0.12500000000E+03  0.12500000000E+03 0.  0.
        -11    1    3    3    0    0  0.51329740225E+01  0.50812985082E+02 -0.25299593130E+02  0.56994528580E+02  0.51100000000E-03 0.  1.
         23    2    1    0    0    0  0.17763100049E+02  0.14414897166E+02 -0.17238424717E+02  0.96355973216E+02  0.91999963609E+02 0.  0.
         11    1    3    3    0    0  0.12630126027E+02 -0.36398087916E+02  0.80611684134E+01  0.39361444636E+02  0.51100000000E-03 0. -1.
         22    1    1    0    0    0 -0.17763100049E+02 -0.14414897166E+02  0.17238424717E+02  0.28644026784E+02  0.00000000000E+00 0.  1.
</event>
<event>
 5    1  0.1659417E-003  0.9118800E+02  0.7818608E-02  0.1130116E+00
         25   -1    0    0    0    0  0.00000000000E+00  0.00000000000E+00  0.99999998245E-14  0.12500000000E+03  0.12500000000E+03 0.  0.
        -11    1    3    3    0    0 -0.87696667062E+01 -0.31011315065E+02 -0.97205144870E+01  0.33661507963E+02  0.51100000000E-03 0.  1.
         23    2    1    0    0    0 -0.20666628592E+01  0.25656759967E+02  0.14277532376E+02  0.95565524327E+02  0.90919640792E+02 0.  0.
         11    1    3    3    0    0  0.67030038470E+01  0.56668075033E+02  0.23998046863E+02  0.61904016364E+02  0.51100000000E-03 0. -1.
         22    1    1    0    0    0  0.20666628592E+01 -0.25656759967E+02 -0.14277532376E+02  0.29434475673E+02  0.00000000000E+00 0. -1.
</event>
<event>
 5    1  0.1659417E-003  0.9118800E+02  0.7818608E-02  0.1130116E+00
         25   -1    0    0    0    0  0.00000000000E+00  0.00000000000E+00  0.99999998245E-14  0.12500000000E+03  0.12500000000E+03 0.  0.
        -11    1    3    3    0    0 -0.11932701112E+02  0.68589034373E+01 -0.50537893517E+02  0.52378550892E+02  0.51100000000E-03 0. -1.
         23    2    1    0    0    0 -0.28573114241E+02 -0.67772199522E+01 -0.21101080152E+02  0.88839121260E+02  0.81146659296E+02 0.  0.
         11    1    3    3    0    0 -0.16640413128E+02 -0.13636123390E+02  0.29436813365E+02  0.36460570368E+02  0.51100000000E-03 0.  1.
         22    1    1    0    0    0  0.28573114241E+02  0.67772199522E+01  0.21101080152E+02  0.36160878740E+02  0.00000000000E+00 0. -1.
</event>
<event>
 5    1  0.1659417E-003  0.9118800E+02  0.7818608E-02  0.1130116E+00
         25   -1    0    0    0    0  0.00000000000E+00  0.00000000000E+00  0.99999998245E-14  0.12500000000E+03  0.12500000000E+03 0.  0.
        -11    1    3    3    0    0  0.18333024911E+02  0.14687357359E+02 -0.25247557793E+02  0.34485612121E+02  0.51100000000E-03 0.  1.
         23    2    1    0    0    0 -0.21968973777E+02 -0.19983531598E+02  0.37883764684E+01  0.95061243509E+02  0.90223671380E+02 0.  0.
         11    1    3    3    0    0 -0.40301998689E+02 -0.34670888957E+02  0.29035934261E+02  0.60575631388E+02  0.51100000000E-03 0. -1.
         22    1    1    0    0    0  0.21968973777E+02  0.19983531598E+02 -0.37883764684E+01  0.29938756491E+02  0.00000000000E+00 0. -1.
</event>
<event>
 5    1  0.1659417E-003  0.9118800E+02  0.7818608E-02  0.1130116E+00
         25   -1    0    0    0    0  0.00000000000E+00  0.00000000000E+00  0.99999998245E-14  0.12500000000E+03  0.12500000000E+03 0.  0.
        -11    1    3    3    0    0  0.11562028739E+02  0.10354528188E+02  0.42390078545E+02  0.45142170106E+02  0.51100000000E-03 0.  1.
         23    2    1    0    0    0 -0.56714000924E+01 -0.25751865005E+02  0.93739520522E+01  0.97014391068E+02  0.92890245812E+02 0.  0.
         11    1    3    3    0    0 -0.17233428832E+02 -0.36106393192E+02 -0.33016126493E+02  0.51872220962E+02  0.51100000000E-03 0. -1.
         22    1    1    0    0    0  0.56714000924E+01  0.25751865005E+02 -0.93739520522E+01  0.27985608932E+02  0.00000000000E+00 0.  1.
</event>
<event>
 5    1  0.1659417E-003  0.9118800E+02  0.7818608E-02  0.1130116E+00
         25   -1    0    0    0    0  0.00000000000E+00  0.00000000000E+00  0.99999998245E-14  0.12500000000E+03  0.12500000000E+03 0.  0.
        -11    1    3    3    0    0  0.42806815789E+02 -0.22287194482E+02 -0.37199539904E+02  0.60933966597E+02  0.51100000000E-03 0.  1.
         23    2    1    0    0    0  0.14847332472E+02 -0.78975124537E+01 -0.25435782327E+02  0.94507492608E+02  0.89453189725E+02 0.  0.
         11    1    3    3    0    0 -0.27959483317E+02  0.14389682029E+02  0.11763757578E+02  0.33573526011E+02  0.51100000000E-03 0. -1.
         22    1    1    0    0    0 -0.14847332472E+02  0.78975124537E+01  0.25435782327E+02  0.30492507392E+02  0.00000000000E+00 0.  1.
</event>
<event>
 5    1  0.1659417E-003  0.9118800E+02  0.7818608E-02  0.1130116E+00
         25   -1    0    0    0    0  0.00000000000E+00  0.00000000000E+00  0.99999998245E-14  0.12500000000E+03  0.12500000000E+03 0.  0.
        -11    1    3    3    0    0  0.31994056177E+01 -0.12435493821E+02  0.45370471733E+02  0.47152491010E+02  0.51100000000E-03 0.  1.
         23    2    1    0    0    0  0.26706769467E+02  0.62521980556E+01  0.55700179912E+01  0.97011312709E+02  0.92886103251E+02 0.  0.
         11    1    3    3    0    0  0.23507363849E+02  0.18687691877E+02 -0.39800453742E+02  0.49858821698E+02  0.51100000000E-03 0. -1.
         22    1    1    0    0    0 -0.26706769467E+02 -0.62521980556E+01 -0.55700179912E+01  0.27988687291E+02  0.00000000000E+00 0. -1.
</event>
<event>
 5    1  0.1659417E-003  0.9118800E+02  0.7818608E-02  0.1130116E+00
         25   -1    0    0    0    0  0.00000000000E+00  0.00000000000E+00  0.99999998245E-14  0.12500000000E+03  0.12500000000E+03 0.  0.
        -11    1    3    3    0    0 -0.17378275918E+02  0.45269833332E+02  0.39347923139E+02  0.62446948199E+02  0.51100000000E-03 0.  1.
         23    2    1    0    0    0 -0.88030012519E+01  0.19212732102E+02  0.18695858252E+02  0.96783745436E+02  0.92579351688E+02 0.  0.
         11    1    3    3    0    0  0.85752746664E+01 -0.26057101230E+02 -0.20652064887E+02  0.34336797237E+02  0.51100000000E-03 0. -1.
         22    1    1    0    0    0  0.88030012519E+01 -0.19212732102E+02 -0.18695858252E+02  0.28216254564E+02  0.00000000000E+00 0.  1.
</event>
<event>
 5    1  0.1659417E-003  0.9118800E+02  0.7818608E-02  0.1130116E+00
         25   -1    0    0    0    0  0.00000000000E+00  0.00000000000E+00  0.99999998245E-14  0.12500000000E+03  0.12500000000E+03 0.  0.
        -11    1    3    3    0    0 -0.64605775586E+00  0.15013300418E+02  0.53204529702E+02  0.55285970744E+02  0.51100000000E-03 0. -1.
         23    2    1    0    0    0 -0.20939552429E+02  0.12655776557E+02  0.26137594474E+02  0.89197662352E+02  0.81697096570E+02 0.  0.
         11    1    3    3    0    0 -0.20293494673E+02 -0.23575238616E+01 -0.27066935228E+02  0.33911691607E+02  0.51100000000E-03 0.  1.
         22    1    1    0    0    0  0.20939552429E+02 -0.12655776557E+02 -0.26137594474E+02  0.35802337648E+02  0.00000000000E+00 0. -1.
</event>
<event>
 5    1  0.1659417E-003  0.9118800E+02  0.7818608E-02  0.1130116E+00
         25   -1    0    0    0    0  0.00000000000E+00  0.00000000000E+00  0.99999998245E-14  0.12500000000E+03  0.12500000000E+03 0.  0.
        -11    1    3    3    0    0  0.15136728647E+02 -0.28895415525E+02  0.12982917435E+02  0.35108713133E+02  0.51100000000E-03 0. -1.
         23    2    1    0    0    0  0.39739864008E+01  0.23574322550E+02 -0.16146400505E+02  0.96151299841E+02  0.91721453108E+02 0.  0.
         11    1    3    3    0    0 -0.11162742246E+02  0.52469738074E+02 -0.29129317940E+02  0.61042586708E+02  0.51100000000E-03 0.  1.
         22    1    1    0    0    0 -0.39739864008E+01 -0.23574322550E+02  0.16146400505E+02  0.28848700159E+02  0.00000000000E+00 0.  1.
</event>
<event>
 5    1  0.1659417E-003  0.9118800E+02  0.7818608E-02  0.1130116E+00
         25   -1    0    0    0    0  0.00000000000E+00  0.00000000000E+00  0.99999998245E-14  0.12500000000E+03  0.12500000000E+03 0.  0.
        -11    1    3    3    0    0  0.32227031774E+02  0.37034145871E+02 -0.31825525292E+02  0.58506184269E+02  0.51100000000E-03 0.  1.
         23    2    1    0    0    0  0.10780298945E+02  0.27704644258E+02 -0.37668051303E+01  0.95034169798E+02  0.90186154422E+02 0.  0.
         11    1    3    3    0    0 -0.21446732829E+02 -0.93295016133E+01  0.28058720162E+02  0.36527985528E+02  0.51100000000E-03 0. -1.
         22    1    1    0    0    0 -0.10780298945E+02 -0.27704644258E+02  0.37668051303E+01  0.29965830202E+02  0.00000000000E+00 0.  1.
</event>
<event>
 5    1  0.1659417E-003  0.9118800E+02  0.7818608E-02  0.1130116E+00
         25   -1    0    0    0    0  0.00000000000E+00  0.00000000000E+00  0.99999998245E-14  0.12500000000E+03  0.12500000000E+03 0.  0.
        -11    1    3    3    0    0 -0.41424275091E+02  0.73323414693E+01 -0.33430346238E+01  0.42200825573E+02  0.51100000000E-03 0. -1.
         23    2    1    0    0    0 -0.31661574913E+01 -0.25762573606E+02  0.13787768820E+02  0.95608890441E+02  0.90979242744E+02 0.  0.
         11    1    3    3    0    0  0.38258117600E+02 -0.33094915075E+02  0.17130803444E+02  0.53408064869E+02  0.51100000000E-03 0.  1.
         22    1    1    0    0    0  0.31661574913E+01  0.25762573606E+02 -0.13787768820E+02  0.29391109559E+02  0.00000000000E+00 0.  1.
</event>
<event>
 5    1  0.1659417E-003  0.9118800E+02  0.7818608E-02  0.1130116E+00
         25   -1    0    0    0    0  0.00000000000E+00  0.00000000000E+00  0.99999998245E-14  0.12500000000E+03  0.12500000000E+03 0.  0.
        -11    1    3    3    0    0 -0.43176966560E+02  0.21859028492E+02 -0.30783894504E+01  0.48492721617E+02  0.51100000000E-03 0. -1.
         23    2    1    0    0    0 -0.15386839819E+02 -0.19992681907E+02 -0.68091143801E+01  0.98869056502E+02  0.95353364521E+02 0.  0.
         11    1    3    3    0    0  0.27790126741E+02 -0.41851710400E+02 -0.37307249297E+01  0.50376334885E+02  0.51100000000E-03 0.  1.
         22    1    1    0    0    0  0.15386839819E+02  0.19992681907E+02  0.68091143801E+01  0.26130943498E+02  0.00000000000E+00 0.  1.
</event>
<event>
 5    1  0.1659417E-003  0.9118800E+02  0.7818608E-02  0.1130116E+00
         25   -1    0    0    0    0  0.00000000000E+00  0.00000000000E+00  0.99999998245E-14  0.12500000000E+03  0.12500000000E+03 0.  0.
        -11    1    3    3    0    0 -0.16865082228E+02  0.27743212891E+02  0.25172495320E+01  0.32564603568E+02  0.51100000000E-03 0. -1.
         23    2    1    0    0    0  0.13035997234E+02 -0.25279709683E+02 -0.10258424210E+02  0.94763660724E+02  0.89810440267E+02 0.  0.
         11    1    3    3    0    0  0.29901079461E+02 -0.53022922574E+02 -0.12775673742E+02  0.62199057156E+02  0.51100000000E-03 0.  1.
         22    1    1    0    0    0 -0.13035997234E+02  0.25279709683E+02  0.10258424210E+02  0.30236339276E+02  0.00000000000E+00 0.  1.
</event>
<event>
 5    1  0.1659417E-003  0.9118800E+02  0.7818608E-02  0.1130116E+00
         25   -1    0    0    0    0  0.00000000000E+00  0.00000000000E+00  0.99999998245E-14  0.12500000000E+03  0.12500000000E+03 0.  0.
        -11    1    3    3    0    0  0.12533605465E+02 -0.42696406106E+02  0.35958775457E+02  0.57211081907E+02  0.51100000000E-03 0. -1.
         23    2    1    0    0    0  0.23820595243E+02 -0.16779945575E+02  0.16694500584E+02  0.91418849320E+02  0.85027715070E+02 0.  0.
         11    1    3    3    0    0  0.11286989778E+02  0.25916460531E+02 -0.19264274873E+02  0.34207767413E+02  0.51100000000E-03 0.  1.
         22    1    1    0    0    0 -0.23820595243E+02  0.16779945575E+02 -0.16694500584E+02  0.33581150680E+02  0.00000000000E+00 0. -1.
</event>
<event>
 5    1  0.1659417E-003  0.9118800E+02  0.7818608E-02  0.1130116E+00
         25   -1    0    0    0    0  0.00000000000E+00  0.00000000000E+00  0.99999998245E-14  0.12500000000E+03  0.12500000000E+03 0.  0.
        -11    1    3    3    0    0  0.53924924121E+02 -0.19053232712E+02  0.42040999969E-02  0.57191984894E+02  0.51100000000E-03 0. -1.
         23    2    1    0    0    0  0.43814013665E+02  0.23667038462E+01  0.27446137933E+01  0.81036356095E+02  0.68074143577E+02 0.  0.
         11    1    3    3    0    0 -0.10110910456E+02  0.21419936558E+02  0.27404096933E+01  0.23844371201E+02  0.51100000000E-03 0.  1.
         22    1    1    0    0    0 -0.43814013665E+02 -0.23667038462E+01 -0.27446137933E+01  0.43963643905E+02  0.00000000000E+00 0. -1.
</event>
<event>
 5    1  0.1659417E-003  0.9118800E+02  0.7818608E-02  0.1130116E+00
         25   -1    0    0    0    0  0.00000000000E+00  0.00000000000E+00  0.99999998245E-14  0.12500000000E+03  0.12500000000E+03 0.  0.
        -11    1    3    3    0    0  0.15905645766E+02  0.90168694867E+01  0.50634323553E+02  0.53834266267E+02  0.51100000000E-03 0.  1.
         23    2    1    0    0    0 -0.15440121186E+02 -0.15637340587E+01  0.24516084727E+02  0.95984814031E+02  0.91494281285E+02 0.  0.
         11    1    3    3    0    0 -0.31345766952E+02 -0.10580603545E+02 -0.26118238826E+02  0.42150547764E+02  0.51100000000E-03 0. -1.
         22    1    1    0    0    0  0.15440121186E+02  0.15637340587E+01 -0.24516084727E+02  0.29015185969E+02  0.00000000000E+00 0.  1.
</event>
<event>
 5    1  0.1659417E-003  0.9118800E+02  0.7818608E-02  0.1130116E+00
         25   -1    0    0    0    0  0.00000000000E+00  0.00000000000E+00  0.99999998245E-14  0.12500000000E+03  0.12500000000E+03 0.  0.
        -11    1    3    3    0    0 -0.25603414218E+02 -0.39869627411E+02 -0.40200372253E+02  0.62138489997E+02  0.51100000000E-03 0. -1.
         23    2    1    0    0    0 -0.14276620256E+02 -0.22646041686E+02 -0.16485172816E+02  0.93560756804E+02  0.88120310945E+02 0.  0.
         11    1    3    3    0    0  0.11326793962E+02  0.17223585725E+02  0.23715199438E+02  0.31422266807E+02  0.51100000000E-03 0.  1.
         22    1    1    0    0    0  0.14276620256E+02  0.22646041686E+02  0.16485172816E+02  0.31439243196E+02  0.00000000000E+00 0. -1.
</event>
<event>
 5    1  0.1659417E-003  0.9118800E+02  0.7818608E-02  0.1130116E+00
         25   -1    0    0    0    0  0.00000000000E+00  0.00000000000E+00  0.99999998245E-14  0.12500000000E+03  0.12500000000E+03 0.  0.
        -11    1    3    3    0    0 -0.29784811488E+02  0.28821718186E+02  0.72625828059E+01  0.42078159939E+02  0.51100000000E-03 0.  1.
         23    2    1    0    0    0  0.11341711248E+02  0.27555419583E+01  0.27743385576E+02  0.94901447398E+02  0.90002010252E+02 0.  0.
         11    1    3    3    0    0  0.41126522736E+02 -0.26066176228E+02  0.20480802770E+02  0.52823287458E+02  0.51100000000E-03 0. -1.
         22    1    1    0    0    0 -0.11341711248E+02 -0.27555419583E+01 -0.27743385576E+02  0.30098552602E+02  0.00000000000E+00 0. -1.
</event>
<event>
 5    1  0.1659417E-003  0.9118800E+02  0.7818608E-02  0.1130116E+00
         25   -1    0    0    0    0  0.00000000000E+00  0.00000000000E+00  0.99999998245E-14  0.12500000000E+03  0.12500000000E+03 0.  0.
        -11    1    3    3    0    0 -0.93992416752E+01  0.50699322091E+02  0.20774635281E+02  0.55590938793E+02  0.51100000000E-03 0. -1.
         23    2    1    0    0    0 -0.12500823445E+02  0.24898836104E+02 -0.95695351931E+01  0.95541577945E+02  0.90886712375E+02 0.  0.
         11    1    3    3    0    0 -0.31015817697E+01 -0.25800485987E+02 -0.30344170474E+02  0.39950639152E+02  0.51100000000E-03 0.  1.
         22    1    1    0    0    0  0.12500823445E+02 -0.24898836104E+02  0.95695351931E+01  0.29458422055E+02  0.00000000000E+00 0. -1.
</event>
<event>
 5    1  0.1659417E-003  0.9118800E+02  0.7818608E-02  0.1130116E+00
         25   -1    0    0    0    0  0.00000000000E+00  0.00000000000E+00  0.99999998245E-14  0.12500000000E+03  0.12500000000E+03 0.  0.
        -11    1    3    3    0    0 -0.39785746985E+02  0.20102569597E+02 -0.35343398931E+01  0.44715886733E+02  0.51100000000E-03 0.  1.
         23    2    1    0    0    0 -0.13621715137E+01  0.27274017137E+02 -0.23828525441E+02  0.88757398731E+02  0.81020674416E+02 0.  0.
         11    1    3    3    0    0  0.38423575471E+02  0.71714475399E+01 -0.20294185548E+02  0.44041511999E+02  0.51100000000E-03 0. -1.
         22    1    1    0    0    0  0.13621715137E+01 -0.27274017137E+02  0.23828525441E+02  0.36242601269E+02  0.00000000000E+00 0.  1.
</event>
<event>
 5    1  0.1659417E-003  0.9118800E+02  0.7818608E-02  0.1130116E+00
         25   -1    0    0    0    0  0.00000000000E+00  0.00000000000E+00  0.99999998245E-14  0.12500000000E+03  0.12500000000E+03 0.  0.
        -11    1    3    3    0    0 -0.32386906065E+01  0.54429491424E+02  0.26438769781E+02  0.60597584121E+02  0.51100000000E-03 0. -1.
         23    2    1    0    0    0 -0.60517483679E+01  0.28356348090E+02  0.28583911433E+01  0.95864514158E+02  0.91329779040E+02 0.  0.
         11    1    3    3    0    0 -0.28130577614E+01 -0.26073143334E+02 -0.23580378637E+02  0.35266930037E+02  0.51100000000E-03 0.  1.
         22    1    1    0    0    0  0.60517483679E+01 -0.28356348090E+02 -0.28583911433E+01  0.29135485842E+02  0.00000000000E+00 0. -1.
</event>
<event>
 5    1  0.1659417E-003  0.9118800E+02  0.7818608E-02  0.1130116E+00
         25   -1    0    0    0    0  0.00000000000E+00  0.00000000000E+00  0.99999998245E-14  0.12500000000E+03  0.12500000000E+03 0.  0.
        -11    1    3    3    0    0  0.10979487358E+02  0.14711286288E+02  0.20399788128E+02  0.27443076410E+02  0.51100000000E-03 0. -1.
         23    2    1    0    0    0  0.17664584697E+02 -0.36339326067E+02  0.22076868783E+02  0.78956842997E+02  0.64142113695E+02 0.  0.
         11    1    3    3    0    0  0.66850973389E+01 -0.51050612355E+02  0.16770806555E+01  0.51513766588E+02  0.51100000000E-03 0.  1.
         22    1    1    0    0    0 -0.17664584697E+02  0.36339326067E+02 -0.22076868783E+02  0.46043157003E+02  0.00000000000E+00 0.  1.
</event>
<event>
 5    1  0.1659417E-003  0.9118800E+02  0.7818608E-02  0.1130116E+00
         25   -1    0    0    0    0  0.00000000000E+00  0.00000000000E+00  0.99999998245E-14  0.12500000000E+03  0.12500000000E+03 0.  0.
        -11    1    3    3    0    0 -0.12810503965E+02 -0.52620037255E+02  0.10621366493E+02  0.55188683251E+02  0.51100000000E-03 0.  1.
         23    2    1    0    0    0  0.10464293082E+02 -0.19944545536E+02  0.18233195677E+02  0.96021805596E+02  0.91544805417E+02 0.  0.
         11    1    3    3    0    0  0.23274797046E+02  0.32675491719E+02  0.76118291843E+01  0.40833122345E+02  0.51100000000E-03 0. -1.
         22    1    1    0    0    0 -0.10464293082E+02  0.19944545536E+02 -0.18233195677E+02  0.28978194404E+02  0.00000000000E+00 0.  1.
</event>
<event>
 5    1  0.1659417E-003  0.9118800E+02  0.7818608E-02  0.1130116E+00
         25   -1    0    0    0    0  0.00000000000E+00  0.00000000000E+00  0.99999998245E-14  0.12500000000E+03  0.12500000000E+03 0.  0.
        -11    1    3    3    0    0 -0.36098240347E+02 -0.31841834246E+02  0.32608015369E+02  0.58140072505E+02  0.51100000000E-03 0.  1.
         23    2    1    0    0    0 -0.52940263381E+01 -0.26502469221E+02  0.16863176646E+02  0.93144477460E+02  0.87527820520E+02 0.  0.
         11    1    3    3    0    0  0.30804214009E+02  0.53393650248E+01 -0.15744838723E+02  0.35004404955E+02  0.51100000000E-03 0. -1.
         22    1    1    0    0    0  0.52940263381E+01  0.26502469221E+02 -0.16863176646E+02  0.31855522540E+02  0.00000000000E+00 0.  1.
</event>
<event>
 5    1  0.1659417E-003  0.9118800E+02  0.7818608E-02  0.1130116E+00
         25   -1    0    0    0    0  0.00000000000E+00  0.00000000000E+00  0.99999998245E-14  0.12500000000E+03  0.12500000000E+03 0.  0.
        -11    1    3    3    0    0 -0.27556364775E+02  0.26035461614E+02 -0.28506068220E+02  0.47431997920E+02  0.51100000000E-03 0.  1.
         23    2    1    0    0    0 -0.22088104356E+02  0.73811506445E+01  0.16501152613E+02  0.96457859638E+02  0.92138292308E+02 0.  0.
         11    1    3    3    0    0  0.54682604194E+01 -0.18654310969E+02  0.45007220834E+02  0.49025861718E+02  0.51100000000E-03 0. -1.
         22    1    1    0    0    0  0.22088104356E+02 -0.73811506445E+01 -0.16501152613E+02  0.28542140362E+02  0.00000000000E+00 0. -1.
</event>
<event>
 5    1  0.1659417E-003  0.9118800E+02  0.7818608E-02  0.1130116E+00
         25   -1    0    0    0    0  0.00000000000E+00  0.00000000000E+00  0.99999998245E-14  0.12500000000E+03  0.12500000000E+03 0.  0.
        -11    1    3    3    0    0  0.27053430656E+02  0.18038567472E+02  0.23704292878E+00  0.32516675973E+02  0.51100000000E-03 0.  1.
         23    2    1    0    0    0 -0.17735483428E+02  0.39053119952E+02 -0.22147909514E+01  0.82051206660E+02  0.69912814741E+02 0.  0.
         11    1    3    3    0    0 -0.44788914084E+02  0.21014552480E+02 -0.24518338802E+01  0.49534530687E+02  0.51100000000E-03 0. -1.
         22    1    1    0    0    0  0.17735483428E+02 -0.39053119952E+02  0.22147909514E+01  0.42948793340E+02  0.00000000000E+00 0. -1.
</event>
<event>
 5    1  0.1659417E-003  0.9118800E+02  0.7818608E-02  0.1130116E+00
         25   -1    0    0    0    0  0.00000000000E+00  0.00000000000E+00  0.99999998245E-14  0.12500000000E+03  0.12500000000E+03 0.  0.
        -11    1    3    3    0    0 -0.23501442441E+02  0.69692226540E+01  0.38893124592E+02  0.45973503260E+02  0.51100000000E-03 0. -1.
         23    2    1    0    0    0  0.17743150967E+02  0.18781058025E+02  0.16138059980E+02  0.94537161546E+02  0.89494638870E+02 0.  0.
         11    1    3    3    0    0  0.41244593409E+02  0.11811835371E+02 -0.22755064612E+02  0.48563658285E+02  0.51100000000E-03 0.  1.
         22    1    1    0    0    0 -0.17743150967E+02 -0.18781058025E+02 -0.16138059980E+02  0.30462838454E+02  0.00000000000E+00 0. -1.
</event>
<event>
 5    1  0.1659417E-003  0.9118800E+02  0.7818608E-02  0.1130116E+00
         25   -1    0    0    0    0  0.00000000000E+00  0.00000000000E+00  0.99999998245E-14  0.12500000000E+03  0.12500000000E+03 0.  0.
        -11    1    3    3    0    0 -0.38004268964E+02  0.75080545783E+01  0.14551425327E+02  0.41381630252E+02  0.51100000000E-03 0.  1.
         23    2    1    0    0    0 -0.30637412675E+01 -0.76331437899E+01 -0.26427349076E+02  0.97322280191E+02  0.93303644343E+02 0.  0.
         11    1    3    3    0    0  0.34940527697E+02 -0.15141198368E+02 -0.40978774402E+02  0.55940649938E+02  0.51100000000E-03 0. -1.
         22    1    1    0    0    0  0.30637412675E+01  0.76331437899E+01  0.26427349076E+02  0.27677719809E+02  0.00000000000E+00 0. -1.
</event>
<event>
 5    1  0.1659417E-003  0.9118800E+02  0.7818608E-02  0.1130116E+00
         25   -1    0    0    0    0  0.00000000000E+00  0.00000000000E+00  0.99999998245E-14  0.12500000000E+03  0.12500000000E+03 0.  0.
        -11    1    3    3    0    0 -0.84760021350E+01  0.35090283086E+02  0.40238232619E+01  0.36323019329E+02  0.51100000000E-03 0.  1.
         23    2    1    0    0    0  0.84989288084E+01 -0.13897012204E+02 -0.24562468458E+02  0.95526730825E+02  0.90866290263E+02 0.  0.
         11    1    3    3    0    0  0.16974930943E+02 -0.48987295290E+02 -0.28586291720E+02  0.59203711496E+02  0.51100000000E-03 0. -1.
         22    1    1    0    0    0 -0.84989288084E+01  0.13897012204E+02  0.24562468458E+02  0.29473269175E+02  0.00000000000E+00 0. -1.
</event>
<event>
 5    1  0.1659417E-003  0.9118800E+02  0.7818608E-02  0.1130116E+00
         25   -1    0    0    0    0  0.00000000000E+00  0.00000000000E+00  0.99999998245E-14  0.12500000000E+03  0.12500000000E+03 0.  0.
        -11    1    3    3    0    0  0.22365442921E+02  0.13448057359E+02  0.50733447529E+02  0.57052133897E+02  0.51100000000E-03 0. -1.
         23    2    1    0    0    0  0.70981433789E+01 -0.12663655042E+02  0.21032269147E+02  0.99444019409E+02  0.96104135459E+02 0.  0.
         11    1    3    3    0    0 -0.15267299542E+02 -0.26111712401E+02 -0.29701178381E+02  0.42391885513E+02  0.51100000000E-03 0.  1.
         22    1    1    0    0    0 -0.70981433789E+01  0.12663655042E+02 -0.21032269147E+02  0.25555980591E+02  0.00000000000E+00 0.  1.
</event>
<event>
 5    1  0.1659417E-003  0.9118800E+02  0.7818608E-02  0.1130116E+00
         25   -1    0    0    0    0  0.00000000000E+00  0.00000000000E+00  0.99999998245E-14  0.12500000000E+03  0.12500000000E+03 0.  0.
        -11    1    3    3    0    0  0.14011667166E+02  0.26697767733E+02 -0.28546311618E+02  0.41520952855E+02  0.51100000000E-03 0.  1.
         23    2    1    0    0    0 -0.12976640266E+02  0.58845370981E+01  0.19759144537E+02  0.10063927829E+03  0.97646400713E+02 0.  0.
         11    1    3    3    0    0 -0.26988307432E+02 -0.20813230635E+02  0.48305456155E+02  0.59118325434E+02  0.51100000000E-03 0. -1.
         22    1    1    0    0    0  0.12976640266E+02 -0.58845370981E+01 -0.19759144537E+02  0.24360721711E+02  0.00000000000E+00 0. -1.
</event>
<event>
 5    1  0.1659417E-003  0.9118800E+02  0.7818608E-02  0.1130116E+00
         25   -1    0    0    0    0  0.00000000000E+00  0.00000000000E+00  0.99999998245E-14  0.12500000000E+03  0.12500000000E+03 0.  0.
        -11    1    3    3    0    0 -0.12360587365E+02  0.61934950396E+01  0.42547089118E+02  0.44736990215E+02  0.51100000000E-03 0.  1.
         23    2    1    0    0    0  0.23374385899E+02 -0.13324408224E+02  0.12548635281E+02  0.95312123382E+02  0.90570584880E+02 0.  0.
         11    1    3    3    0    0  0.35734973264E+02 -0.19517903264E+02 -0.29998453837E+02  0.50575133167E+02  0.51100000000E-03 0. -1.
         22    1    1    0    0    0 -0.23374385899E+02  0.13324408224E+02 -0.12548635281E+02  0.29687876618E+02  0.00000000000E+00 0.  1.
</event>
<event>
 5    1  0.1659417E-003  0.9118800E+02  0.7818608E-02  0.1130116E+00
         25   -1    0    0    0    0  0.00000000000E+00  0.00000000000E+00  0.99999998245E-14  0.12500000000E+03  0.12500000000E+03 0.  0.
        -11    1    3    3    0    0  0.64345719781E+01  0.98053301578E+01  0.43433352381E+02  0.44988935477E+02  0.51100000000E-03 0. -1.
         23    2    1    0    0    0 -0.34881554129E+01  0.37450719721E+02  0.21227281232E+02  0.81810636676E+02  0.69481358428E+02 0.  0.
         11    1    3    3    0    0 -0.99227273911E+01  0.27645389563E+02 -0.22206071150E+02  0.36821701199E+02  0.51100000000E-03 0.  1.
         22    1    1    0    0    0  0.34881554129E+01 -0.37450719721E+02 -0.21227281232E+02  0.43189363324E+02  0.00000000000E+00 0. -1.
</event>
<event>
 5    1  0.1659417E-003  0.9118800E+02  0.7818608E-02  0.1130116E+00
         25   -1    0    0    0    0  0.00000000000E+00  0.00000000000E+00  0.99999998245E-14  0.12500000000E+03  0.12500000000E+03 0.  0.
        -11    1    3    3    0    0  0.27218648494E+02  0.24130023646E+02  0.10179517074E+02  0.37772151582E+02  0.51100000000E-03 0.  1.
         23    2    1    0    0    0  0.52867308524E+01 -0.14915177701E+02 -0.25471521240E+02  0.95013162167E+02  0.90157032680E+02 0.  0.
         11    1    3    3    0    0 -0.21931917642E+02 -0.39045201346E+02 -0.35651038314E+02  0.57241010585E+02  0.51100000000E-03 0. -1.
         22    1    1    0    0    0 -0.52867308524E+01  0.14915177701E+02  0.25471521240E+02  0.29986837833E+02  0.00000000000E+00 0. -1.
</event>
<event>
 5    1  0.1659417E-003  0.9118800E+02  0.7818608E-02  0.1130116E+00
         25   -1    0    0    0    0  0.00000000000E+00  0.00000000000E+00  0.99999998245E-14  0.12500000000E+03  0.12500000000E+03 0.  0.
        -11    1    3    3    0    0  0.52711604208E+02 -0.27575515429E+02 -0.96075046574E+01  0.60259658275E+02  0.51100000000E-03 0. -1.
         23    2    1    0    0    0  0.32914858146E+02 -0.38744461595E+01 -0.50393385688E+01  0.91476960862E+02  0.85113102491E+02 0.  0.
         11    1    3    3    0    0 -0.19796746062E+02  0.23701069270E+02  0.45681660887E+01  0.31217302588E+02  0.51100000000E-03 0.  1.
         22    1    1    0    0    0 -0.32914858146E+02  0.38744461595E+01  0.50393385688E+01  0.33523039138E+02  0.00000000000E+00 0. -1.
</event>
<event>
 5    1  0.1659417E-003  0.9118800E+02  0.7818608E-02  0.1130116E+00
         25   -1    0    0    0    0  0.00000000000E+00  0.00000000000E+00  0.99999998245E-14  0.12500000000E+03  0.12500000000E+03 0.  0.
        -11    1    3    3    0    0  0.87944507404E+01 -0.15177089854E+01  0.36901072372E+02  0.37964917317E+02  0.51100000000E-03 0. -1.
         23    2    1    0    0    0 -0.41464365502E+01  0.43128264771E+01 -0.23880358398E+02  0.10038161408E+03  0.97315998269E+02 0.  0.
         11    1    3    3    0    0 -0.12940887291E+02  0.58305354625E+01 -0.60781430770E+02  0.62416696759E+02  0.51100000000E-03 0.  1.
         22    1    1    0    0    0  0.41464365502E+01 -0.43128264771E+01  0.23880358398E+02  0.24618385924E+02  0.00000000000E+00 0.  1.
</event>
<event>
 5    1  0.1659417E-003  0.9118800E+02  0.7818608E-02  0.1130116E+00
         25   -1    0    0    0    0  0.00000000000E+00  0.00000000000E+00  0.99999998245E-14  0.12500000000E+03  0.12500000000E+03 0.  0.
        -11    1    3    3    0    0 -0.32102771096E+02 -0.31707964124E+02  0.34504274789E+02  0.56802534098E+02  0.51100000000E-03 0. -1.
         23    2    1    0    0    0 -0.53398283895E+01 -0.27641261038E+02  0.58028695126E+01  0.96255846271E+02  0.91863820777E+02 0.  0.
         11    1    3    3    0    0  0.26762942707E+02  0.40667030859E+01 -0.28701405277E+02  0.39453312173E+02  0.51100000000E-03 0.  1.
         22    1    1    0    0    0  0.53398283895E+01  0.27641261038E+02 -0.58028695126E+01  0.28744153729E+02  0.00000000000E+00 0. -1.
</event>
<event>
 5    1  0.1659417E-003  0.9118800E+02  0.7818608E-02  0.1130116E+00
         25   -1    0    0    0    0  0.00000000000E+00  0.00000000000E+00  0.99999998245E-14  0.12500000000E+03  0.12500000000E+03 0.  0.
        -11    1    3    3    0    0  0.32559867915E+02 -0.40915012975E+02 -0.32522193981E+01  0.52390459214E+02  0.51100000000E-03 0.  1.
         23    2    1    0    0    0  0.39997280794E+02 -0.16715022153E+02  0.93240713128E+01  0.80659130113E+02  0.67377908311E+02 0.  0.
         11    1    3    3    0    0  0.74374128786E+01  0.24199990822E+02  0.12576290711E+02  0.28268670900E+02  0.51100000000E-03 0. -1.
         22    1    1    0    0    0 -0.39997280794E+02  0.16715022153E+02 -0.93240713128E+01  0.44340869887E+02  0.00000000000E+00 0.  1.
</event>
<event>
 5    1  0.1659417E-003  0.9118800E+02  0.7818608E-02  0.1130116E+00
         25   -1    0    0    0    0  0.00000000000E+00  0.00000000000E+00  0.99999998245E-14  0.12500000000E+03  0.12500000000E+03 0.  0.
        -11    1    3    3    0    0 -0.43315638603E+02 -0.36763493087E+02 -0.10779927889E+02  0.57827379476E+02  0.51100000000E-03 0. -1.
         23    2    1    0    0    0 -0.21356485155E+02 -0.17205118883E+02  0.12039300518E+02  0.95049034557E+02  0.90206754954E+02 0.  0.
         11    1    3    3    0    0  0.21959153448E+02  0.19558374203E+02  0.22819228407E+02  0.37221655081E+02  0.51100000000E-03 0.  1.
         22    1    1    0    0    0  0.21356485155E+02  0.17205118883E+02 -0.12039300518E+02  0.29950965443E+02  0.00000000000E+00 0. -1.
</event>
<event>
 5    1  0.1659417E-003  0.9118800E+02  0.7818608E-02  0.1130116E+00
         25   -1    0    0    0    0  0.00000000000E+00  0.00000000000E+00  0.99999998245E-14  0.12500000000E+03  0.12500000000E+03 0.  0.
        -11    1    3    3    0    0  0.15830740148E+02 -0.18685905134E+02 -0.31879635371E+02  0.40200578801E+02  0.51100000000E-03 0. -1.
         23    2    1    0    0    0  0.22001522101E+02  0.21494028240E+02  0.34374942628E+01  0.94050418556E+02  0.88812187446E+02 0.  0.
         11    1    3    3    0    0  0.61707819536E+01  0.40179933374E+02  0.35317129633E+02  0.53849839755E+02  0.51100000000E-03 0.  1.
         22    1    1    0    0    0 -0.22001522101E+02 -0.21494028240E+02 -0.34374942628E+01  0.30949581444E+02  0.00000000000E+00 0.  1.
</event>
<event>
 5    1  0.1659417E-003  0.9118800E+02  0.7818608E-02  0.1130116E+00
         25   -1    0    0    0    0  0.00000000000E+00  0.00000000000E+00  0.99999998245E-14  0.12500000000E+03  0.12500000000E+03 0.  0.
        -11    1    3    3    0    0  0.30710767692E+02 -0.15896376082E+02 -0.45334065442E+02  0.57017747365E+02  0.51100000000E-03 0. -1.
         23    2    1    0    0    0  0.99395834841E+01  0.97761901521E+01 -0.26557069354E+02  0.95005881470E+02  0.90146937649E+02 0.  0.
         11    1    3    3    0    0 -0.20771184208E+02  0.25672566234E+02  0.18776996089E+02  0.37988134105E+02  0.51100000000E-03 0.  1.
         22    1    1    0    0    0 -0.99395834841E+01 -0.97761901521E+01  0.26557069354E+02  0.29994118530E+02  0.00000000000E+00 0. -1.
</event>
<event>
 5    1  0.1659417E-003  0.9118800E+02  0.7818608E-02  0.1130116E+00
         25   -1    0    0    0    0  0.00000000000E+00  0.00000000000E+00  0.99999998245E-14  0.12500000000E+03  0.12500000000E+03 0.  0.
        -11    1    3    3    0    0 -0.25644299681E+02 -0.42834728413E+02  0.11588455504E+02  0.51251696222E+02  0.51100000000E-03 0.  1.
         23    2    1    0    0    0 -0.21468174417E+02 -0.98587438661E+01 -0.17642328351E+02  0.95515612724E+02  0.90850994386E+02 0.  0.
         11    1    3    3    0    0  0.41761252643E+01  0.32975984547E+02 -0.29230783855E+02  0.44263916502E+02  0.51100000000E-03 0. -1.
         22    1    1    0    0    0  0.21468174417E+02  0.98587438661E+01  0.17642328351E+02  0.29484387276E+02  0.00000000000E+00 0.  1.
</event>
<event>
 5    1  0.1659417E-003  0.9118800E+02  0.7818608E-02  0.1130116E+00
         25   -1    0    0    0    0  0.00000000000E+00  0.00000000000E+00  0.99999998245E-14  0.12500000000E+03  0.12500000000E+03 0.  0.
        -11    1    3    3    0    0 -0.33165371643E+02  0.47637391933E+01  0.28571499390E+02  0.44033687842E+02  0.51100000000E-03 0.  1.
         23    2    1    0    0    0 -0.24936991184E+02  0.28118122337E+02 -0.63919483484E+01  0.86877312047E+02  0.78066177131E+02 0.  0.
         11    1    3    3    0    0  0.82283804597E+01  0.23354383144E+02 -0.34963447738E+02  0.42843624205E+02  0.51100000000E-03 0. -1.
         22    1    1    0    0    0  0.24936991184E+02 -0.28118122337E+02  0.63919483484E+01  0.38122687953E+02  0.00000000000E+00 0.  1.
</event>
<event>
 5    1  0.1659417E-003  0.9118800E+02  0.7818608E-02  0.1130116E+00
         25   -1    0    0    0    0  0.00000000000E+00  0.00000000000E+00  0.99999998245E-14  0.12500000000E+03  0.12500000000E+03 0.  0.
        -11    1    3    3    0    0 -0.51851878762E+02 -0.46638304081E+01 -0.21155882681E+02  0.56195551581E+02  0.51100000000E-03 0.  1.
         23    2    1    0    0    0 -0.16900294861E+02  0.16561072827E+02 -0.13371101301E+02  0.97821415608E+02  0.93969962765E+02 0.  0.
         11    1    3    3    0    0  0.34951583902E+02  0.21224903235E+02  0.77847813801E+01  0.41625864027E+02  0.51100000000E-03 0. -1.
         22    1    1    0    0    0  0.16900294861E+02 -0.16561072827E+02  0.13371101301E+02  0.27178584392E+02  0.00000000000E+00 0.  1.
</event>
<event>
 5    1  0.1659417E-003  0.9118800E+02  0.7818608E-02  0.1130116E+00
         25   -1    0    0    0    0  0.00000000000E+00  0.00000000000E+00  0.99999998245E-14  0.12500000000E+03  0.12500000000E+03 0.  0.
        -11    1    3    3    0    0  0.14646936120E+02 -0.43452773688E+02 -0.18022474707E+01  0.45890351656E+02  0.51100000000E-03 0. -1.
         23    2    1    0    0    0 -0.20274193756E+02 -0.12080484216E+02 -0.17750730763E+02  0.95469177560E+02  0.90787082727E+02 0.  0.
         11    1    3    3    0    0 -0.34921129876E+02  0.31372289472E+02 -0.15948483292E+02  0.49578825905E+02  0.51100000000E-03 0.  1.
         22    1    1    0    0    0  0.20274193756E+02  0.12080484216E+02  0.17750730763E+02  0.29530822440E+02  0.00000000000E+00 0. -1.
</event>
<event>
 5    1  0.1659417E-003  0.9118800E+02  0.7818608E-02  0.1130116E+00
         25   -1    0    0    0    0  0.00000000000E+00  0.00000000000E+00  0.99999998245E-14  0.12500000000E+03  0.12500000000E+03 0.  0.
        -11    1    3    3    0    0 -0.31449027143E+02  0.35687066281E+02  0.10117175939E+02  0.48630908456E+02  0.51100000000E-03 0. -1.
         23    2    1    0    0    0 -0.77259802523E+01  0.74186880072E+01 -0.23892778824E+02  0.98816177083E+02  0.95284018968E+02 0.  0.
         11    1    3    3    0    0  0.23723046890E+02 -0.28268378274E+02 -0.34009954763E+02  0.50185268628E+02  0.51100000000E-03 0.  1.
         22    1    1    0    0    0  0.77259802523E+01 -0.74186880072E+01  0.23892778824E+02  0.26183822917E+02  0.00000000000E+00 0.  1.
</event>
<event>
 5    1  0.1659417E-003  0.9118800E+02  0.7818608E-02  0.1130116E+00
         25   -1    0    0    0    0  0.00000000000E+00  0.00000000000E+00  0.99999998245E-14  0.12500000000E+03  0.12500000000E+03 0.  0.
        -11    1    3    3    0    0 -0.26814875999E+02  0.44053059377E+02  0.10076339836E+02  0.52547523634E+02  0.51100000000E-03 0.  1.
         23    2    1    0    0    0 -0.11231376010E+02  0.82735160923E+01  0.26628782386E+02  0.94938614021E+02  0.90053614615E+02 0.  0.
         11    1    3    3    0    0  0.15583499990E+02 -0.35779543284E+02  0.16552442550E+02  0.42391090387E+02  0.51100000000E-03 0. -1.
         22    1    1    0    0    0  0.11231376010E+02 -0.82735160923E+01 -0.26628782386E+02  0.30061385979E+02  0.00000000000E+00 0. -1.
</event>
<event>
 5    1  0.1659417E-003  0.9118800E+02  0.7818608E-02  0.1130116E+00
         25   -1    0    0    0    0  0.00000000000E+00  0.00000000000E+00  0.99999998245E-14  0.12500000000E+03  0.12500000000E+03 0.  0.
        -11    1    3    3    0    0 -0.85080686723E+01  0.30151017021E+02  0.34055852819E+02  0.46273882174E+02  0.51100000000E-03 0.  1.
         23    2    1    0    0    0 -0.59596636205E+01 -0.16292370781E+02  0.26395786274E+02  0.93413666418E+02  0.87911413392E+02 0.  0.
         11    1    3    3    0    0  0.25484050519E+01 -0.46443387802E+02 -0.76600665455E+01  0.47139784244E+02  0.51100000000E-03 0. -1.
         22    1    1    0    0    0  0.59596636205E+01  0.16292370781E+02 -0.26395786274E+02  0.31586333582E+02  0.00000000000E+00 0. -1.
</event>
<event>
 5    1  0.1659417E-003  0.9118800E+02  0.7818608E-02  0.1130116E+00
         25   -1    0    0    0    0  0.00000000000E+00  0.00000000000E+00  0.99999998245E-14  0.12500000000E+03  0.12500000000E+03 0.  0.
        -11    1    3    3    0    0 -0.14601762545E+02  0.54113352733E+02 -0.21722736612E+02  0.60111094647E+02  0.51100000000E-03 0. -1.
         23    2    1    0    0    0  0.53281424539E+01  0.26690902871E+02 -0.10643767902E+02  0.95775298236E+02  0.91207590468E+02 0.  0.
         11    1    3    3    0    0  0.19929904999E+02 -0.27422449862E+02  0.11078968710E+02  0.35664203589E+02  0.51100000000E-03 0.  1.
         22    1    1    0    0    0 -0.53281424539E+01 -0.26690902871E+02  0.10643767902E+02  0.29224701764E+02  0.00000000000E+00 0. -1.
</event>
<event>
 5    1  0.1659417E-003  0.9118800E+02  0.7818608E-02  0.1130116E+00
         25   -1    0    0    0    0  0.00000000000E+00  0.00000000000E+00  0.99999998245E-14  0.12500000000E+03  0.12500000000E+03 0.  0.
        -11    1    3    3    0    0  0.29092958817E+02 -0.65583508996E+01 -0.51319519054E+02  0.59355751663E+02  0.51100000000E-03 0.  1.
         23    2    1    0    0    0  0.23200955117E+02  0.41368351041E+01 -0.16562687683E+02  0.96195133288E+02  0.91781170846E+02 0.  0.
         11    1    3    3    0    0 -0.58920036997E+01  0.10695186004E+02  0.34756831371E+02  0.36839381625E+02  0.51100000000E-03 0. -1.
         22    1    1    0    0    0 -0.23200955117E+02 -0.41368351041E+01  0.16562687683E+02  0.28804866712E+02  0.00000000000E+00 0.  1.
</event>
<event>
 5    1  0.1659417E-003  0.9118800E+02  0.7818608E-02  0.1130116E+00
         25   -1    0    0    0    0  0.00000000000E+00  0.00000000000E+00  0.99999998245E-14  0.12500000000E+03  0.12500000000E+03 0.  0.
        -11    1    3    3    0    0 -0.10300797052E+02 -0.39052438177E+02  0.18894107671E+02  0.44589086696E+02  0.51100000000E-03 0. -1.
         23    2    1    0    0    0  0.24479463227E+02 -0.70257225433E+01 -0.71235513995E+01  0.98554775825E+02  0.94940475858E+02 0.  0.
         11    1    3    3    0    0  0.34780260279E+02  0.32026715633E+02 -0.26017659070E+02  0.53965689129E+02  0.51100000000E-03 0.  1.
         22    1    1    0    0    0 -0.24479463227E+02  0.70257225433E+01  0.71235513995E+01  0.26445224175E+02  0.00000000000E+00 0.  1.
</event>
<event>
 5    1  0.1659417E-003  0.9118800E+02  0.7818608E-02  0.1130116E+00
         25   -1    0    0    0    0  0.00000000000E+00  0.00000000000E+00  0.99999998245E-14  0.12500000000E+03  0.12500000000E+03 0.  0.
        -11    1    3    3    0    0  0.21620911697E+02 -0.16903917303E+02  0.23010926272E+02  0.35814926650E+02  0.51100000000E-03 0. -1.
         23    2    1    0    0    0 -0.25649267503E+02 -0.37218149693E+01 -0.12338688020E+02  0.96294947272E+02  0.91917010493E+02 0.  0.
         11    1    3    3    0    0 -0.47270179200E+02  0.13182102334E+02 -0.35349614292E+02  0.60480020621E+02  0.51100000000E-03 0.  1.
         22    1    1    0    0    0  0.25649267503E+02  0.37218149693E+01  0.12338688020E+02  0.28705052728E+02  0.00000000000E+00 0.  1.
</event>
<event>
 5    1  0.1659417E-003  0.9118800E+02  0.7818608E-02  0.1130116E+00
         25   -1    0    0    0    0  0.00000000000E+00  0.00000000000E+00  0.99999998245E-14  0.12500000000E+03  0.12500000000E+03 0.  0.
        -11    1    3    3    0    0  0.27422600959E+02  0.10709071106E+02  0.45563885112E+02  0.54247127795E+02  0.51100000000E-03 0. -1.
         23    2    1    0    0    0  0.91950102172E+01 -0.17728577441E+02  0.21054784542E+02  0.95980099534E+02  0.91487840085E+02 0.  0.
         11    1    3    3    0    0 -0.18227590741E+02 -0.28437648547E+02 -0.24509100570E+02  0.41732971739E+02  0.51100000000E-03 0.  1.
         22    1    1    0    0    0 -0.91950102172E+01  0.17728577441E+02 -0.21054784542E+02  0.29019900466E+02  0.00000000000E+00 0. -1.
</event>
<event>
 5    1  0.1659417E-003  0.9118800E+02  0.7818608E-02  0.1130116E+00
         25   -1    0    0    0    0  0.00000000000E+00  0.00000000000E+00  0.99999998245E-14  0.12500000000E+03  0.12500000000E+03 0.  0.
        -11    1    3    3    0    0  0.40416423731E+02  0.17397804955E+02 -0.20187349933E+02  0.48411775654E+02  0.51100000000E-03 0. -1.
         23    2    1    0    0    0 -0.22204665480E+01 -0.10036633957E+01 -0.29184752356E+02  0.95713696342E+02  0.91123125964E+02 0.  0.
         11    1    3    3    0    0 -0.42636890279E+02 -0.18401468351E+02 -0.89974024226E+01  0.47301920687E+02  0.51100000000E-03 0.  1.
         22    1    1    0    0    0  0.22204665480E+01  0.10036633957E+01  0.29184752356E+02  0.29286303658E+02  0.00000000000E+00 0.  1.
</event>
<event>
 5    1  0.1659417E-003  0.9118800E+02  0.7818608E-02  0.1130116E+00
         25   -1    0    0    0    0  0.00000000000E+00  0.00000000000E+00  0.99999998245E-14  0.12500000000E+03  0.12500000000E+03 0.  0.
        -11    1    3    3    0    0 -0.10030593783E+01  0.26814464708E+02  0.28332569340E+02  0.39022508010E+02  0.51100000000E-03 0. -1.
         23    2    1    0    0    0 -0.25178455694E+02 -0.15493209752E+02 -0.95307396174E-01  0.95436453815E+02  0.90742015922E+02 0.  0.
         11    1    3    3    0    0 -0.24175396316E+02 -0.42307674460E+02 -0.28427876736E+02  0.56413945805E+02  0.51100000000E-03 0.  1.
         22    1    1    0    0    0  0.25178455694E+02  0.15493209752E+02  0.95307396174E-01  0.29563546185E+02  0.00000000000E+00 0.  1.
</event>
<event>
 5    1  0.1659417E-003  0.9118800E+02  0.7818608E-02  0.1130116E+00
         25   -1    0    0    0    0  0.00000000000E+00  0.00000000000E+00  0.99999998245E-14  0.12500000000E+03  0.12500000000E+03 0.  0.
        -11    1    3    3    0    0  0.31356444510E+02 -0.20770056198E+02  0.25274913425E+02  0.45314932370E+02  0.51100000000E-03 0. -1.
         23    2    1    0    0    0 -0.18213991040E+02 -0.12763043066E+02  0.18672810916E+02  0.95960051560E+02  0.91460444400E+02 0.  0.
         11    1    3    3    0    0 -0.49570435550E+02  0.80070131323E+01 -0.66021025083E+01  0.50645119190E+02  0.51100000000E-03 0.  1.
         22    1    1    0    0    0  0.18213991040E+02  0.12763043066E+02 -0.18672810916E+02  0.29039948440E+02  0.00000000000E+00 0. -1.
</event>
<event>
 5    1  0.1659417E-003  0.9118800E+02  0.7818608E-02  0.1130116E+00
         25   -1    0    0    0    0  0.00000000000E+00  0.00000000000E+00  0.99999998245E-14  0.12500000000E+03  0.12500000000E+03 0.  0.
        -11    1    3    3    0    0  0.40546729326E+02 -0.11863038175E+02  0.42426763285E+02  0.59873192473E+02  0.51100000000E-03 0.  1.
         23    2    1    0    0    0  0.96878778093E+01  0.22551317416E+00  0.26775004833E+02  0.96525332022E+02  0.92229783722E+02 0.  0.
         11    1    3    3    0    0 -0.30858851517E+02  0.12088551349E+02 -0.15651758451E+02  0.36652139549E+02  0.51100000000E-03 0. -1.
         22    1    1    0    0    0 -0.96878778093E+01 -0.22551317416E+00 -0.26775004833E+02  0.28474667978E+02  0.00000000000E+00 0.  1.
</event>
<event>
 5    1  0.1659417E-003  0.9118800E+02  0.7818608E-02  0.1130116E+00
         25   -1    0    0    0    0  0.00000000000E+00  0.00000000000E+00  0.99999998245E-14  0.12500000000E+03  0.12500000000E+03 0.  0.
        -11    1    3    3    0    0  0.42860407104E+02  0.30692270601E+02  0.11506120848E+02  0.53957583239E+02  0.51100000000E-03 0.  1.
         23    2    1    0    0    0  0.20700765449E+01  0.27945038748E+02 -0.17176862737E+01  0.96925797364E+02  0.92770950954E+02 0.  0.
         11    1    3    3    0    0 -0.40790330559E+02 -0.27472318529E+01 -0.13223807122E+02  0.42968214125E+02  0.51100000000E-03 0. -1.
         22    1    1    0    0    0 -0.20700765449E+01 -0.27945038748E+02  0.17176862737E+01  0.28074202636E+02  0.00000000000E+00 0.  1.
</event>
<event>
 5    1  0.1659417E-003  0.9118800E+02  0.7818608E-02  0.1130116E+00
         25   -1    0    0    0    0  0.00000000000E+00  0.00000000000E+00  0.99999998245E-14  0.12500000000E+03  0.12500000000E+03 0.  0.
        -11    1    3    3    0    0  0.30758050608E+02  0.18225490277E+01 -0.52603958959E+02  0.60963561745E+02  0.51100000000E-03 0.  1.
         23    2    1    0    0    0  0.18912390502E+02 -0.52317793497E+01 -0.17389270962E+02  0.98780984491E+02  0.95237839763E+02 0.  0.
         11    1    3    3    0    0 -0.11845660106E+02 -0.70543283775E+01  0.35214687997E+02  0.37817422747E+02  0.51100000000E-03 0. -1.
         22    1    1    0    0    0 -0.18912390502E+02  0.52317793497E+01  0.17389270962E+02  0.26219015509E+02  0.00000000000E+00 0.  1.
</event>
<event>
 5    1  0.1659417E-003  0.9118800E+02  0.7818608E-02  0.1130116E+00
         25   -1    0    0    0    0  0.00000000000E+00  0.00000000000E+00  0.99999998245E-14  0.12500000000E+03  0.12500000000E+03 0.  0.
        -11    1    3    3    0    0 -0.42032743088E+01  0.22623637500E+02  0.32600145260E+02  0.39903207389E+02  0.51100000000E-03 0.  1.
         23    2    1    0    0    0 -0.27767800675E+02 -0.72000944382E+01 -0.76980719217E+01  0.95298949084E+02  0.90552400691E+02 0.  0.
         11    1    3    3    0    0 -0.23564526366E+02 -0.29823731938E+02 -0.40298217182E+02  0.55395741695E+02  0.51100000000E-03 0. -1.
         22    1    1    0    0    0  0.27767800675E+02  0.72000944382E+01  0.76980719217E+01  0.29701050916E+02  0.00000000000E+00 0. -1.
</event>
<event>
 5    1  0.1659417E-003  0.9118800E+02  0.7818608E-02  0.1130116E+00
         25   -1    0    0    0    0  0.00000000000E+00  0.00000000000E+00  0.99999998245E-14  0.12500000000E+03  0.12500000000E+03 0.  0.
        -11    1    3    3    0    0 -0.16300894355E+02 -0.34863049496E+02  0.17229793000E+02  0.42166540575E+02  0.51100000000E-03 0. -1.
         23    2    1    0    0    0 -0.40798855018E+01 -0.84857903640E+01 -0.27734961970E+02  0.95710373521E+02  0.91118567702E+02 0.  0.
         11    1    3    3    0    0  0.12221008853E+02  0.26377259132E+02 -0.44964754970E+02  0.53543832946E+02  0.51100000000E-03 0.  1.
         22    1    1    0    0    0  0.40798855018E+01  0.84857903640E+01  0.27734961970E+02  0.29289626479E+02  0.00000000000E+00 0.  1.
</event>
<event>
 5    1  0.1659417E-003  0.9118800E+02  0.7818608E-02  0.1130116E+00
         25   -1    0    0    0    0  0.00000000000E+00  0.00000000000E+00  0.99999998245E-14  0.12500000000E+03  0.12500000000E+03 0.  0.
        -11    1    3    3    0    0 -0.20386998217E+02 -0.25731643288E+02 -0.41419343967E+00  0.32831672499E+02  0.51100000000E-03 0.  1.
         23    2    1    0    0    0  0.29916983620E+02  0.44933008488E+01 -0.11646932656E+02  0.92582925769E+02  0.86722150816E+02 0.  0.
         11    1    3    3    0    0  0.50303981837E+02  0.30224944137E+02 -0.11232739216E+02  0.59751253270E+02  0.51100000000E-03 0. -1.
         22    1    1    0    0    0 -0.29916983620E+02 -0.44933008488E+01  0.11646932656E+02  0.32417074231E+02  0.00000000000E+00 0. -1.
</event>
<event>
 5    1  0.1659417E-003  0.9118800E+02  0.7818608E-02  0.1130116E+00
         25   -1    0    0    0    0  0.00000000000E+00  0.00000000000E+00  0.99999998245E-14  0.12500000000E+03  0.12500000000E+03 0.  0.
        -11    1    3    3    0    0  0.29315751261E+01  0.43560680097E+02 -0.43078119178E+02  0.61333932985E+02  0.51100000000E-03 0.  1.
         23    2    1    0    0    0 -0.68823111709E+01  0.21562280334E+02 -0.23473468958E+02  0.92391689937E+02  0.86446066910E+02 0.  0.
         11    1    3    3    0    0 -0.98138862971E+01 -0.21998399763E+02  0.19604650220E+02  0.31057756952E+02  0.51100000000E-03 0. -1.
         22    1    1    0    0    0  0.68823111709E+01 -0.21562280334E+02  0.23473468958E+02  0.32608310063E+02  0.00000000000E+00 0.  1.
</event>
<event>
 5    1  0.1659417E-003  0.9118800E+02  0.7818608E-02  0.1130116E+00
         25   -1    0    0    0    0  0.00000000000E+00  0.00000000000E+00  0.99999998245E-14  0.12500000000E+03  0.12500000000E+03 0.  0.
        -11    1    3    3    0    0 -0.25428794182E+02  0.37851000205E+02  0.23483266897E+02  0.51291184569E+02  0.51100000000E-03 0.  1.
         23    2    1    0    0    0 -0.47848968247E+01 -0.32322733107E+01  0.26986379277E+02  0.97402762913E+02  0.93411405772E+02 0.  0.
         11    1    3    3    0    0  0.20643897357E+02 -0.41083273515E+02  0.35031123796E+01  0.46111578345E+02  0.51100000000E-03 0. -1.
         22    1    1    0    0    0  0.47848968247E+01  0.32322733107E+01 -0.26986379277E+02  0.27597237087E+02  0.00000000000E+00 0.  1.
</event>
<event>
 5    1  0.1659417E-003  0.9118800E+02  0.7818608E-02  0.1130116E+00
         25   -1    0    0    0    0  0.00000000000E+00  0.00000000000E+00  0.99999998245E-14  0.12500000000E+03  0.12500000000E+03 0.  0.
        -11    1    3    3    0    0  0.15566578411E+02 -0.23059547962E+02 -0.52730559424E+02  0.59620239962E+02  0.51100000000E-03 0.  1.
         23    2    1    0    0    0  0.19702851847E+02 -0.76480107503E+01 -0.20643687651E+02  0.95455858801E+02  0.90768742969E+02 0.  0.
         11    1    3    3    0    0  0.41362734360E+01  0.15411537212E+02  0.32086871773E+02  0.35835618839E+02  0.51100000000E-03 0. -1.
         22    1    1    0    0    0 -0.19702851847E+02  0.76480107503E+01  0.20643687651E+02  0.29544141199E+02  0.00000000000E+00 0.  1.
</event>
<event>
 5    1  0.1659417E-003  0.9118800E+02  0.7818608E-02  0.1130116E+00
         25   -1    0    0    0    0  0.00000000000E+00  0.00000000000E+00  0.99999998245E-14  0.12500000000E+03  0.12500000000E+03 0.  0.
        -11    1    3    3    0    0  0.54561861895E+02 -0.57872380909E+01  0.22965005082E+02  0.59480083699E+02  0.51100000000E-03 0.  1.
         23    2    1    0    0    0  0.20580368605E+02  0.81397891107E+01  0.17865923751E+02  0.96557092797E+02  0.92272819395E+02 0.  0.
         11    1    3    3    0    0 -0.33981493290E+02  0.13927027202E+02 -0.50990813306E+01  0.37077009097E+02  0.51100000000E-03 0. -1.
         22    1    1    0    0    0 -0.20580368605E+02 -0.81397891107E+01 -0.17865923751E+02  0.28442907203E+02  0.00000000000E+00 0.  1.
</event>
<event>
 5    1  0.1659417E-003  0.9118800E+02  0.7818608E-02  0.1130116E+00
         25   -1    0    0    0    0  0.00000000000E+00  0.00000000000E+00  0.99999998245E-14  0.12500000000E+03  0.12500000000E+03 0.  0.
        -11    1    3    3    0    0  0.15390464444E+02 -0.13971684653E+02 -0.38880768568E+02  0.44088417215E+02  0.51100000000E-03 0. -1.
         23    2    1    0    0    0  0.33385112793E+02 -0.22890868427E+02 -0.40185323412E+01  0.84321919714E+02  0.73861220736E+02 0.  0.
         11    1    3    3    0    0  0.17994648349E+02 -0.89191837735E+01  0.34862236226E+02  0.40233502499E+02  0.51100000000E-03 0.  1.
         22    1    1    0    0    0 -0.33385112793E+02  0.22890868427E+02  0.40185323412E+01  0.40678080286E+02  0.00000000000E+00 0. -1.
</event>
<event>
 5    1  0.1659417E-003  0.9118800E+02  0.7818608E-02  0.1130116E+00
         25   -1    0    0    0    0  0.00000000000E+00  0.00000000000E+00  0.99999998245E-14  0.12500000000E+03  0.12500000000E+03 0.  0.
        -11    1    3    3    0    0  0.47099357450E+02 -0.31245554932E+02 -0.24240109937E+02  0.61499732562E+02  0.51100000000E-03 0.  1.
         23    2    1    0    0    0  0.16972540086E+02 -0.19156713918E+02 -0.15346405084E+02  0.95157765598E+02  0.90357298540E+02 0.  0.
         11    1    3    3    0    0 -0.30126817365E+02  0.12088841014E+02  0.88937048522E+01  0.33658033036E+02  0.51100000000E-03 0. -1.
         22    1    1    0    0    0 -0.16972540086E+02  0.19156713918E+02  0.15346405084E+02  0.29842234402E+02  0.00000000000E+00 0.  1.
</event>
<event>
 5    1  0.1659417E-003  0.9118800E+02  0.7818608E-02  0.1130116E+00
         25   -1    0    0    0    0  0.00000000000E+00  0.00000000000E+00  0.99999998245E-14  0.12500000000E+03  0.12500000000E+03 0.  0.
        -11    1    3    3    0    0  0.15049296967E+02 -0.13029085526E+02 -0.31090361494E+02  0.36916784623E+02  0.51100000000E-03 0.  1.
         23    2    1    0    0    0 -0.13911438582E+02 -0.17632961730E+02  0.19410836878E+02  0.95314480784E+02  0.90573838364E+02 0.  0.
         11    1    3    3    0    0 -0.28960735549E+02 -0.46038762042E+01  0.50501198372E+02  0.58397696161E+02  0.51100000000E-03 0. -1.
         22    1    1    0    0    0  0.13911438582E+02  0.17632961730E+02 -0.19410836878E+02  0.29685519216E+02  0.00000000000E+00 0. -1.
</event>
<event>
 5    1  0.1659417E-003  0.9118800E+02  0.7818608E-02  0.1130116E+00
         25   -1    0    0    0    0  0.00000000000E+00  0.00000000000E+00  0.99999998245E-14  0.12500000000E+03  0.12500000000E+03 0.  0.
        -11    1    3    3    0    0 -0.25541768923E+02  0.13670003871E+02  0.26607900839E+02  0.39334861801E+02  0.51100000000E-03 0.  1.
         23    2    1    0    0    0 -0.74256423628E+01  0.16372950753E+02 -0.25062729869E+02  0.94155971252E+02  0.88960625071E+02 0.  0.
         11    1    3    3    0    0  0.18116126560E+02  0.27029468830E+01 -0.51670630709E+02  0.54821109452E+02  0.51100000000E-03 0. -1.
         22    1    1    0    0    0  0.74256423628E+01 -0.16372950753E+02  0.25062729869E+02  0.30844028748E+02  0.00000000000E+00 0. -1.
</event>
<event>
 5    1  0.1659417E-003  0.9118800E+02  0.7818608E-02  0.1130116E+00
         25   -1    0    0    0    0  0.00000000000E+00  0.00000000000E+00  0.99999998245E-14  0.12500000000E+03  0.12500000000E+03 0.  0.
        -11    1    3    3    0    0  0.31615099099E+02 -0.33050674436E+02  0.41649771125E+02  0.61859235420E+02  0.51100000000E-03 0. -1.
         23    2    1    0    0    0  0.98846578518E+01 -0.18731158048E+02  0.21944000021E+02  0.94502428300E+02  0.89446112688E+02 0.  0.
         11    1    3    3    0    0 -0.21730441247E+02  0.14319516388E+02 -0.19705771104E+02  0.32643192880E+02  0.51100000000E-03 0.  1.
         22    1    1    0    0    0 -0.98846578518E+01  0.18731158048E+02 -0.21944000021E+02  0.30497571700E+02  0.00000000000E+00 0. -1.
</event>
<event>
 5    1  0.1659417E-003  0.9118800E+02  0.7818608E-02  0.1130116E+00
         25   -1    0    0    0    0  0.00000000000E+00  0.00000000000E+00  0.99999998245E-14  0.12500000000E+03  0.12500000000E+03 0.  0.
        -11    1    3    3    0    0 -0.48718861986E+02  0.14442290436E+02  0.31662443092E+02  0.59871675850E+02  0.51100000000E-03 0.  1.
         23    2    1    0    0    0 -0.13032911407E+02  0.94039287769E+01  0.23005683110E+02  0.96936641121E+02  0.92785560732E+02 0.  0.
         11    1    3    3    0    0  0.35685950579E+02 -0.50383616590E+01 -0.86567599814E+01  0.37064965272E+02  0.51100000000E-03 0. -1.
         22    1    1    0    0    0  0.13032911407E+02 -0.94039287769E+01 -0.23005683110E+02  0.28063358879E+02  0.00000000000E+00 0.  1.
</event>
<event>
 5    1  0.1659417E-003  0.9118800E+02  0.7818608E-02  0.1130116E+00
         25   -1    0    0    0    0  0.00000000000E+00  0.00000000000E+00  0.99999998245E-14  0.12500000000E+03  0.12500000000E+03 0.  0.
        -11    1    3    3    0    0  0.18125840370E+02 -0.23346322225E+02  0.14609051314E+02  0.32970005021E+02  0.51100000000E-03 0. -1.
         23    2    1    0    0    0 -0.11878791393E+02 -0.15895474201E+02 -0.31073664431E+02  0.88130711884E+02  0.80047972935E+02 0.  0.
         11    1    3    3    0    0 -0.30004631762E+02  0.74508480237E+01 -0.45682715746E+02  0.55160706863E+02  0.51100000000E-03 0.  1.
         22    1    1    0    0    0  0.11878791393E+02  0.15895474201E+02  0.31073664431E+02  0.36869288116E+02  0.00000000000E+00 0.  1.
</event>
<event>
 5    1  0.1659417E-003  0.9118800E+02  0.7818608E-02  0.1130116E+00
         25   -1    0    0    0    0  0.00000000000E+00  0.00000000000E+00  0.99999998245E-14  0.12500000000E+03  0.12500000000E+03 0.  0.
        -11    1    3    3    0    0 -0.25763333132E+02 -0.19075258217E+02  0.11388844825E+02  0.34019414998E+02  0.51100000000E-03 0.  1.
         23    2    1    0    0    0  0.21401249486E+02  0.19519253791E+02  0.74612115604E+01  0.95088724099E+02  0.90261736215E+02 0.  0.
         11    1    3    3    0    0  0.47164582618E+02  0.38594512007E+02 -0.39276332646E+01  0.61069309100E+02  0.51100000000E-03 0. -1.
         22    1    1    0    0    0 -0.21401249486E+02 -0.19519253791E+02 -0.74612115604E+01  0.29911275901E+02  0.00000000000E+00 0. -1.
</event>
<event>
 5    1  0.1659417E-003  0.9118800E+02  0.7818608E-02  0.1130116E+00
         25   -1    0    0    0    0  0.00000000000E+00  0.00000000000E+00  0.99999998245E-14  0.12500000000E+03  0.12500000000E+03 0.  0.
        -11    1    3    3    0    0  0.16291639319E+02  0.23949933846E+02  0.37609821912E+02  0.47471207562E+02  0.51100000000E-03 0.  1.
         23    2    1    0    0    0  0.19168409893E+02 -0.17661345593E+02  0.13540548573E+02  0.95628287050E+02  0.91005888614E+02 0.  0.
         11    1    3    3    0    0  0.28767705742E+01 -0.41611279439E+02 -0.24069273339E+02  0.48157079488E+02  0.51100000000E-03 0. -1.
         22    1    1    0    0    0 -0.19168409893E+02  0.17661345593E+02 -0.13540548573E+02  0.29371712950E+02  0.00000000000E+00 0.  1.
</event>
<event>
 5    1  0.1659417E-003  0.9118800E+02  0.7818608E-02  0.1130116E+00
         25   -1    0    0    0    0  0.00000000000E+00  0.00000000000E+00  0.99999998245E-14  0.12500000000E+03  0.12500000000E+03 0.  0.
        -11    1    3    3    0    0 -0.34196827944E+02 -0.56895612202E+01 -0.50794322404E+02  0.61496807535E+02  0.51100000000E-03 0.  1.
         23    2    1    0    0    0 -0.20336178490E+02  0.32079587236E+01 -0.20690609533E+02  0.95811775018E+02  0.91257568204E+02 0.  0.
         11    1    3    3    0    0  0.13860649453E+02  0.88975199438E+01  0.30103712871E+02  0.34314967482E+02  0.51100000000E-03 0. -1.
         22    1    1    0    0    0  0.20336178490E+02 -0.32079587236E+01  0.20690609533E+02  0.29188224982E+02  0.00000000000E+00 0.  1.
</event>
<event>
 5    1  0.1659417E-003  0.9118800E+02  0.7818608E-02  0.1130116E+00
         25   -1    0    0    0    0  0.00000000000E+00  0.00000000000E+00  0.99999998245E-14  0.12500000000E+03  0.12500000000E+03 0.  0.
        -11    1    3    3    0    0  0.40356861975E+01  0.34442475094E+02 -0.39778752807E+02  0.52772341513E+02  0.51100000000E-03 0.  1.
         23    2    1    0    0    0  0.24717419784E+02  0.85672549506E+01 -0.11117699698E+02  0.96575504494E+02  0.92297757955E+02 0.  0.
         11    1    3    3    0    0  0.20681733587E+02 -0.25875220143E+02  0.28661053108E+02  0.43803162981E+02  0.51100000000E-03 0. -1.
         22    1    1    0    0    0 -0.24717419784E+02 -0.85672549506E+01  0.11117699698E+02  0.28424495506E+02  0.00000000000E+00 0.  1.
</event>
<event>
 5    1  0.1659417E-003  0.9118800E+02  0.7818608E-02  0.1130116E+00
         25   -1    0    0    0    0  0.00000000000E+00  0.00000000000E+00  0.99999998245E-14  0.12500000000E+03  0.12500000000E+03 0.  0.
        -11    1    3    3    0    0  0.11408799364E+02  0.37639896436E+02 -0.13198117517E+02  0.41486296688E+02  0.51100000000E-03 0.  1.
         23    2    1    0    0    0  0.98945658534E+01  0.18438526371E+01  0.27504775409E+02  0.95711522807E+02  0.91120144325E+02 0.  0.
         11    1    3    3    0    0 -0.15142335110E+01 -0.35796043799E+02  0.40702892926E+02  0.54225226119E+02  0.51100000000E-03 0. -1.
         22    1    1    0    0    0 -0.98945658534E+01 -0.18438526371E+01 -0.27504775409E+02  0.29288477193E+02  0.00000000000E+00 0.  1.
</event>
<event>
 5    1  0.1659417E-003  0.9118800E+02  0.7818608E-02  0.1130116E+00
         25   -1    0    0    0    0  0.00000000000E+00  0.00000000000E+00  0.99999998245E-14  0.12500000000E+03  0.12500000000E+03 0.  0.
        -11    1    3    3    0    0 -0.13160833389E+02 -0.54776641482E+02  0.23897580107E+02  0.61194626584E+02  0.51100000000E-03 0. -1.
         23    2    1    0    0    0  0.14080721507E+00 -0.23546696201E+02  0.17315766153E+02  0.95771546634E+02  0.91202448753E+02 0.  0.
         11    1    3    3    0    0  0.13301640604E+02  0.31229945280E+02 -0.65818139539E+01  0.34576920050E+02  0.51100000000E-03 0.  1.
         22    1    1    0    0    0 -0.14080721507E+00  0.23546696201E+02 -0.17315766153E+02  0.29228453366E+02  0.00000000000E+00 0. -1.
</event>
<event>
 5    1  0.1659417E-003  0.9118800E+02  0.7818608E-02  0.1130116E+00
         25   -1    0    0    0    0  0.00000000000E+00  0.00000000000E+00  0.99999998245E-14  0.12500000000E+03  0.12500000000E+03 0.  0.
        -11    1    3    3    0    0  0.11405982759E+02 -0.37326056907E+02  0.14133089867E+02  0.41509940934E+02  0.51100000000E-03 0. -1.
         23    2    1    0    0    0  0.16060198493E+02  0.16152617778E+02  0.18899876670E+02  0.95401986978E+02  0.90694524336E+02 0.  0.
         11    1    3    3    0    0  0.46542157342E+01  0.53478674685E+02  0.47667868027E+01  0.53892046044E+02  0.51100000000E-03 0.  1.
         22    1    1    0    0    0 -0.16060198493E+02 -0.16152617778E+02 -0.18899876670E+02  0.29598013022E+02  0.00000000000E+00 0. -1.
</event>
<event>
 5    1  0.1659417E-003  0.9118800E+02  0.7818608E-02  0.1130116E+00
         25   -1    0    0    0    0  0.00000000000E+00  0.00000000000E+00  0.99999998245E-14  0.12500000000E+03  0.12500000000E+03 0.  0.
        -11    1    3    3    0    0  0.12695913654E+02  0.35397117742E+02 -0.18171084016E+02  0.41765182419E+02  0.51100000000E-03 0.  1.
         23    2    1    0    0    0  0.15273136810E+02 -0.19508477127E+02 -0.13124703974E+02  0.96962395926E+02  0.92820250923E+02 0.  0.
         11    1    3    3    0    0  0.25772231555E+01 -0.54905594869E+02  0.50463800421E+01  0.55197213506E+02  0.51100000000E-03 0. -1.
         22    1    1    0    0    0 -0.15273136810E+02  0.19508477127E+02  0.13124703974E+02  0.28037604074E+02  0.00000000000E+00 0. -1.
</event>
<event>
 5    1  0.1659417E-003  0.9118800E+02  0.7818608E-02  0.1130116E+00
         25   -1    0    0    0    0  0.00000000000E+00  0.00000000000E+00  0.99999998245E-14  0.12500000000E+03  0.12500000000E+03 0.  0.
        -11    1    3    3    0    0  0.45231606655E+01 -0.36771524762E+02 -0.13826185867E+02  0.39544499385E+02  0.51100000000E-03 0.  1.
         23    2    1    0    0    0  0.28027717559E+02  0.10225597036E+02  0.36985227252E+01  0.94936818920E+02  0.90051122869E+02 0.  0.
         11    1    3    3    0    0  0.23504556893E+02  0.46997121798E+02  0.17524708592E+02  0.55392319535E+02  0.51100000000E-03 0. -1.
         22    1    1    0    0    0 -0.28027717559E+02 -0.10225597036E+02 -0.36985227252E+01  0.30063181080E+02  0.00000000000E+00 0. -1.
</event>
<event>
 5    1  0.1659417E-003  0.9118800E+02  0.7818608E-02  0.1130116E+00
         25   -1    0    0    0    0  0.00000000000E+00  0.00000000000E+00  0.99999998245E-14  0.12500000000E+03  0.12500000000E+03 0.  0.
        -11    1    3    3    0    0  0.40333573523E+02 -0.25548070492E+02  0.19891592341E+02  0.51722108475E+02  0.51100000000E-03 0.  1.
         23    2    1    0    0    0  0.22487645759E+02  0.13626892916E+02  0.14116491638E+02  0.95156043183E+02  0.90354915726E+02 0.  0.
         11    1    3    3    0    0 -0.17845927765E+02  0.39174963408E+02 -0.57751007025E+01  0.43433934708E+02  0.51100000000E-03 0. -1.
         22    1    1    0    0    0 -0.22487645759E+02 -0.13626892916E+02 -0.14116491638E+02  0.29843956817E+02  0.00000000000E+00 0.  1.
</event>
<event>
 5    1  0.1659417E-003  0.9118800E+02  0.7818608E-02  0.1130116E+00
         25   -1    0    0    0    0  0.00000000000E+00  0.00000000000E+00  0.99999998245E-14  0.12500000000E+03  0.12500000000E+03 0.  0.
        -11    1    3    3    0    0 -0.79122454301E+01 -0.35896344930E+02 -0.36333656592E+02  0.51684483249E+02  0.51100000000E-03 0. -1.
         23    2    1    0    0    0  0.20055291629E+02 -0.28028225871E+01 -0.13510650294E+02  0.10065645449E+03  0.97668385990E+02 0.  0.
         11    1    3    3    0    0  0.27967537059E+02  0.33093522343E+02  0.22823006299E+02  0.48971971238E+02  0.51100000000E-03 0.  1.
         22    1    1    0    0    0 -0.20055291629E+02  0.28028225871E+01  0.13510650294E+02  0.24343545513E+02  0.00000000000E+00 0. -1.
</event>
<event>
 5    1  0.1659417E-003  0.9118800E+02  0.7818608E-02  0.1130116E+00
         25   -1    0    0    0    0  0.00000000000E+00  0.00000000000E+00  0.99999998245E-14  0.12500000000E+03  0.12500000000E+03 0.  0.
        -11    1    3    3    0    0 -0.15410893045E+02 -0.30355224274E+02 -0.58250439634E+01  0.34537898063E+02  0.51100000000E-03 0.  1.
         23    2    1    0    0    0 -0.50230320002E+01  0.28978402836E+02  0.30798753458E+01  0.95428657225E+02  0.90731275237E+02 0.  0.
         11    1    3    3    0    0  0.10387861045E+02  0.59333627110E+02  0.89049193092E+01  0.60890759162E+02  0.51100000000E-03 0. -1.
         22    1    1    0    0    0  0.50230320002E+01 -0.28978402836E+02 -0.30798753458E+01  0.29571342775E+02  0.00000000000E+00 0. -1.
</event>
<event>
 5    1  0.1659417E-003  0.9118800E+02  0.7818608E-02  0.1130116E+00
         25   -1    0    0    0    0  0.00000000000E+00  0.00000000000E+00  0.99999998245E-14  0.12500000000E+03  0.12500000000E+03 0.  0.
        -11    1    3    3    0    0 -0.90605405438E+01  0.31383080817E+02  0.14204055881E+02  0.35619466030E+02  0.51100000000E-03 0. -1.
         23    2    1    0    0    0 -0.85091194892E+00 -0.27395626195E+02  0.12189383936E+02  0.95002909033E+02  0.90142815899E+02 0.  0.
         11    1    3    3    0    0  0.82096285949E+01 -0.58778707012E+02 -0.20146719458E+01  0.59383443003E+02  0.51100000000E-03 0.  1.
         22    1    1    0    0    0  0.85091194892E+00  0.27395626195E+02 -0.12189383936E+02  0.29997090967E+02  0.00000000000E+00 0.  1.
</event>
<event>
 5    1  0.1659417E-003  0.9118800E+02  0.7818608E-02  0.1130116E+00
         25   -1    0    0    0    0  0.00000000000E+00  0.00000000000E+00  0.99999998245E-14  0.12500000000E+03  0.12500000000E+03 0.  0.
        -11    1    3    3    0    0 -0.21513916014E+02  0.27754376891E+01  0.52290638493E+02  0.56611505111E+02  0.51100000000E-03 0.  1.
         23    2    1    0    0    0 -0.22285875773E+02 -0.10237668751E+02  0.14679946495E+02  0.96417296322E+02  0.92083245384E+02 0.  0.
         11    1    3    3    0    0 -0.77195975894E+00 -0.13013106440E+02 -0.37610691998E+02  0.39805791211E+02  0.51100000000E-03 0. -1.
         22    1    1    0    0    0  0.22285875773E+02  0.10237668751E+02 -0.14679946495E+02  0.28582703678E+02  0.00000000000E+00 0.  1.
</event>
<event>
 5    1  0.1659417E-003  0.9118800E+02  0.7818608E-02  0.1130116E+00
         25   -1    0    0    0    0  0.00000000000E+00  0.00000000000E+00  0.99999998245E-14  0.12500000000E+03  0.12500000000E+03 0.  0.
        -11    1    3    3    0    0  0.19141533229E+01  0.17676077549E+02  0.33700526109E+02  0.38102928506E+02  0.51100000000E-03 0. -1.
         23    2    1    0    0    0  0.18935256303E+02  0.11066910611E+02 -0.20304991587E+02  0.95111655699E+02  0.90293487720E+02 0.  0.
         11    1    3    3    0    0  0.17021102980E+02 -0.66091669377E+01 -0.54005517696E+02  0.57008727192E+02  0.51100000000E-03 0.  1.
         22    1    1    0    0    0 -0.18935256303E+02 -0.11066910611E+02  0.20304991587E+02  0.29888344301E+02  0.00000000000E+00 0.  1.
</event>
<event>
 5    1  0.1659417E-003  0.9118800E+02  0.7818608E-02  0.1130116E+00
         25   -1    0    0    0    0  0.00000000000E+00  0.00000000000E+00  0.99999998245E-14  0.12500000000E+03  0.12500000000E+03 0.  0.
        -11    1    3    3    0    0 -0.26026543325E+02 -0.23603698885E+02 -0.39490648868E+02  0.52858555663E+02  0.51100000000E-03 0. -1.
         23    2    1    0    0    0  0.55729605680E+00  0.95282833682E+01 -0.25803597951E+02  0.97487740368E+02  0.93525050612E+02 0.  0.
         11    1    3    3    0    0  0.26583839382E+02  0.33131982254E+02  0.13687050917E+02  0.44629184705E+02  0.51100000000E-03 0.  1.
         22    1    1    0    0    0 -0.55729605680E+00 -0.95282833682E+01  0.25803597951E+02  0.27512259632E+02  0.00000000000E+00 0. -1.
</event>
<event>
 5    1  0.1659417E-003  0.9118800E+02  0.7818608E-02  0.1130116E+00
         25   -1    0    0    0    0  0.00000000000E+00  0.00000000000E+00  0.99999998245E-14  0.12500000000E+03  0.12500000000E+03 0.  0.
        -11    1    3    3    0    0  0.26085471579E+02  0.28275217832E+02  0.18423998179E+02  0.42654231679E+02  0.51100000000E-03 0.  1.
         23    2    1    0    0    0 -0.13857590861E+00 -0.22078030846E+02 -0.16217365238E+01  0.10286205342E+03  0.10045154730E+03 0.  0.
         11    1    3    3    0    0 -0.26224047488E+02 -0.50353248678E+02 -0.20045734703E+02  0.60207821744E+02  0.51100000000E-03 0. -1.
         22    1    1    0    0    0  0.13857590861E+00  0.22078030846E+02  0.16217365238E+01  0.22137946578E+02  0.00000000000E+00 0. -1.
</event>
<event>
 5    1  0.1659417E-003  0.9118800E+02  0.7818608E-02  0.1130116E+00
         25   -1    0    0    0    0  0.00000000000E+00  0.00000000000E+00  0.99999998245E-14  0.12500000000E+03  0.12500000000E+03 0.  0.
        -11    1    3    3    0    0 -0.10248567173E+02 -0.21945595901E+02  0.30612585680E+02  0.39035531389E+02  0.51100000000E-03 0.  1.
         23    2    1    0    0    0  0.13435016445E+02 -0.13934201173E+02 -0.21033797540E+02  0.96415349081E+02  0.92080602031E+02 0.  0.
         11    1    3    3    0    0  0.23683583618E+02  0.80113947281E+01 -0.51646383220E+02  0.57379817692E+02  0.51100000000E-03 0. -1.
         22    1    1    0    0    0 -0.13435016445E+02  0.13934201173E+02  0.21033797540E+02  0.28584650919E+02  0.00000000000E+00 0. -1.
</event>
<event>
 5    1  0.1659417E-003  0.9118800E+02  0.7818608E-02  0.1130116E+00
         25   -1    0    0    0    0  0.00000000000E+00  0.00000000000E+00  0.99999998245E-14  0.12500000000E+03  0.12500000000E+03 0.  0.
        -11    1    3    3    0    0 -0.20774227305E+02  0.53666364518E+02  0.21442264607E+02  0.61411871104E+02  0.51100000000E-03 0.  1.
         23    2    1    0    0    0 -0.13793955141E+02  0.15938694160E+02  0.11233256199E+02  0.10111483275E+03  0.98253285881E+02 0.  0.
         11    1    3    3    0    0  0.69802721641E+01 -0.37727670359E+02 -0.10209008408E+02  0.39702961642E+02  0.51100000000E-03 0. -1.
         22    1    1    0    0    0  0.13793955141E+02 -0.15938694160E+02 -0.11233256199E+02  0.23885167254E+02  0.00000000000E+00 0.  1.
</event>
<event>
 5    1  0.1659417E-003  0.9118800E+02  0.7818608E-02  0.1130116E+00
         25   -1    0    0    0    0  0.00000000000E+00  0.00000000000E+00  0.99999998245E-14  0.12500000000E+03  0.12500000000E+03 0.  0.
        -11    1    3    3    0    0  0.40521562623E+02  0.43802645259E+02 -0.13118211771E+01  0.59685757465E+02  0.51100000000E-03 0. -1.
         23    2    1    0    0    0  0.16457222716E+02  0.19847078260E+02 -0.13666925390E+02  0.95818986573E+02  0.91267445693E+02 0.  0.
         11    1    3    3    0    0 -0.24064339907E+02 -0.23955566999E+02 -0.12355104213E+02  0.36133229108E+02  0.51100000000E-03 0.  1.
         22    1    1    0    0    0 -0.16457222716E+02 -0.19847078260E+02  0.13666925390E+02  0.29181013427E+02  0.00000000000E+00 0. -1.
</event>
<event>
 5    1  0.1659417E-003  0.9118800E+02  0.7818608E-02  0.1130116E+00
         25   -1    0    0    0    0  0.00000000000E+00  0.00000000000E+00  0.99999998245E-14  0.12500000000E+03  0.12500000000E+03 0.  0.
        -11    1    3    3    0    0 -0.20139446197E+02 -0.22457583124E+02  0.38933225495E+02  0.49251765253E+02  0.51100000000E-03 0. -1.
         23    2    1    0    0    0  0.19415853401E+02 -0.55016834694E+01  0.21001147115E+02  0.95874546108E+02  0.91343508401E+02 0.  0.
         11    1    3    3    0    0  0.39555299597E+02  0.16955899655E+02 -0.17932078380E+02  0.46622780855E+02  0.51100000000E-03 0.  1.
         22    1    1    0    0    0 -0.19415853401E+02  0.55016834694E+01 -0.21001147115E+02  0.29125453892E+02  0.00000000000E+00 0.  1.
</event>
<event>
 4    1  0.1659417E-003  0.9118800E+02  0.7818608E-02  0.1130116E+00
         25   -1    0    0    0    0  0.00000000000E+00  0.00000000000E+00  0.99999998245E-14  0.12500000000E+03  0.12500000000E+03 0.  0.
        -11    1    1    0    0    0  0.23121090737E+02  0.21290666286E+02  0.45222232713E+02  0.55072022294E+02  0.51100000000E-03 0.  1.
         11    1    1    0    0    0  0.10979284825E+02  0.20467517026E+01 -0.15151886781E+02  0.18823218669E+02  0.51100000000E-03 0. -1.
         22    1    1    0    0    0 -0.34100375561E+02 -0.23337417988E+02 -0.30070345932E+02  0.51104759037E+02  0.00000000000E+00 0.  1.
</event>
<event>
 5    1  0.1659417E-003  0.9118800E+02  0.7818608E-02  0.1130116E+00
         25   -1    0    0    0    0  0.00000000000E+00  0.00000000000E+00  0.99999998245E-14  0.12500000000E+03  0.12500000000E+03 0.  0.
        -11    1    3    3    0    0 -0.34834630385E+02  0.13958951146E+02  0.22583809378E+02  0.43798769817E+02  0.51100000000E-03 0.  1.
         23    2    1    0    0    0 -0.14627285831E+01  0.25614003795E+02 -0.14908286645E+02  0.95327221633E+02  0.90591420169E+02 0.  0.
         11    1    3    3    0    0  0.33371901802E+02  0.11655052649E+02 -0.37492096023E+02  0.51528451816E+02  0.51100000000E-03 0. -1.
         22    1    1    0    0    0  0.14627285831E+01 -0.25614003795E+02  0.14908286645E+02  0.29672778367E+02  0.00000000000E+00 0. -1.
</event>
<event>
 5    1  0.1659417E-003  0.9118800E+02  0.7818608E-02  0.1130116E+00
         25   -1    0    0    0    0  0.00000000000E+00  0.00000000000E+00  0.99999998245E-14  0.12500000000E+03  0.12500000000E+03 0.  0.
        -11    1    3    3    0    0  0.71716788933E+00  0.19481902050E+01 -0.49657845112E+02  0.49701220873E+02  0.51100000000E-03 0.  1.
         23    2    1    0    0    0  0.24354086648E+02 -0.13545677642E+02 -0.29518470003E+02  0.84405086642E+02  0.74001835521E+02 0.  0.
         11    1    3    3    0    0  0.23636918758E+02 -0.15493867847E+02  0.20139375109E+02  0.34703865769E+02  0.51100000000E-03 0. -1.
         22    1    1    0    0    0 -0.24354086648E+02  0.13545677642E+02  0.29518470003E+02  0.40594913358E+02  0.00000000000E+00 0.  1.
</event>
<event>
 5    1  0.1659417E-003  0.9118800E+02  0.7818608E-02  0.1130116E+00
         25   -1    0    0    0    0  0.00000000000E+00  0.00000000000E+00  0.99999998245E-14  0.12500000000E+03  0.12500000000E+03 0.  0.
        -11    1    3    3    0    0 -0.54031927780E+02  0.30771380086E+02  0.18708800476E+01  0.62207935542E+02  0.51100000000E-03 0.  1.
         23    2    1    0    0    0 -0.24746336578E+02  0.92812398950E+01  0.13433988109E+01  0.98536302065E+02  0.94916149923E+02 0.  0.
         11    1    3    3    0    0  0.29285591202E+02 -0.21490140191E+02 -0.52748123673E+00  0.36328366522E+02  0.51100000000E-03 0. -1.
         22    1    1    0    0    0  0.24746336578E+02 -0.92812398950E+01 -0.13433988109E+01  0.26463697935E+02  0.00000000000E+00 0.  1.
</event>
<event>
 5    1  0.1659417E-003  0.9118800E+02  0.7818608E-02  0.1130116E+00
         25   -1    0    0    0    0  0.00000000000E+00  0.00000000000E+00  0.99999998245E-14  0.12500000000E+03  0.12500000000E+03 0.  0.
        -11    1    3    3    0    0  0.13147177492E+02 -0.30254591028E+02 -0.50167041350E+02  0.60040990935E+02  0.51100000000E-03 0.  1.
         23    2    1    0    0    0  0.11639660530E+02 -0.29192329877E+01 -0.25181201842E+02  0.97105618045E+02  0.93012926581E+02 0.  0.
         11    1    3    3    0    0 -0.15075169626E+01  0.27335358040E+02  0.24985839509E+02  0.37064627110E+02  0.51100000000E-03 0. -1.
         22    1    1    0    0    0 -0.11639660530E+02  0.29192329877E+01  0.25181201842E+02  0.27894381955E+02  0.00000000000E+00 0.  1.
</event>
<event>
 5    1  0.1659417E-003  0.9118800E+02  0.7818608E-02  0.1130116E+00
         25   -1    0    0    0    0  0.00000000000E+00  0.00000000000E+00  0.99999998245E-14  0.12500000000E+03  0.12500000000E+03 0.  0.
        -11    1    3    3    0    0  0.23374944592E+02  0.48511335312E+02 -0.23005634585E+02  0.58557637515E+02  0.51100000000E-03 0.  1.
         23    2    1    0    0    0  0.19814878351E+02  0.22039441936E+02  0.21975223698E+01  0.95281394557E+02  0.90528164895E+02 0.  0.
         11    1    3    3    0    0 -0.35600662414E+01 -0.26471893376E+02  0.25203156954E+02  0.36723757042E+02  0.51100000000E-03 0. -1.
         22    1    1    0    0    0 -0.19814878351E+02 -0.22039441936E+02 -0.21975223698E+01  0.29718605443E+02  0.00000000000E+00 0.  1.
</event>
<event>
 5    1  0.1659417E-003  0.9118800E+02  0.7818608E-02  0.1130116E+00
         25   -1    0    0    0    0  0.00000000000E+00  0.00000000000E+00  0.99999998245E-14  0.12500000000E+03  0.12500000000E+03 0.  0.
        -11    1    3    3    0    0  0.39839321806E+02  0.35179942894E+01 -0.90793040441E+01  0.41011969082E+02  0.51100000000E-03 0.  1.
         23    2    1    0    0    0 -0.29858959267E+01  0.18575079142E+02  0.22019460539E+02  0.96037856052E+02  0.91566718916E+02 0.  0.
         11    1    3    3    0    0 -0.42825217732E+02  0.15057084853E+02  0.31098764583E+02  0.55025886971E+02  0.51100000000E-03 0. -1.
         22    1    1    0    0    0  0.29858959267E+01 -0.18575079142E+02 -0.22019460539E+02  0.28962143948E+02  0.00000000000E+00 0.  1.
</event>
<event>
 5    1  0.1659417E-003  0.9118800E+02  0.7818608E-02  0.1130116E+00
         25   -1    0    0    0    0  0.00000000000E+00  0.00000000000E+00  0.99999998245E-14  0.12500000000E+03  0.12500000000E+03 0.  0.
        -11    1    3    3    0    0 -0.21965518004E+01 -0.35630608984E+02 -0.19890253631E+01  0.35753620216E+02  0.51100000000E-03 0. -1.
         23    2    1    0    0    0 -0.86891241273E+01  0.22113391778E+02 -0.17019427522E+02  0.95773917689E+02  0.91205698409E+02 0.  0.
         11    1    3    3    0    0 -0.64925723269E+01  0.57744000762E+02 -0.15030402159E+02  0.60020297473E+02  0.51100000000E-03 0.  1.
         22    1    1    0    0    0  0.86891241273E+01 -0.22113391778E+02  0.17019427522E+02  0.29226082311E+02  0.00000000000E+00 0.  1.
</event>
<event>
 5    1  0.1659417E-003  0.9118800E+02  0.7818608E-02  0.1130116E+00
         25   -1    0    0    0    0  0.00000000000E+00  0.00000000000E+00  0.99999998245E-14  0.12500000000E+03  0.12500000000E+03 0.  0.
        -11    1    3    3    0    0 -0.15838619632E+01  0.25474227391E+02  0.14071597089E+02  0.29145406581E+02  0.51100000000E-03 0.  1.
         23    2    1    0    0    0 -0.11563193335E+02 -0.20096496594E+02 -0.25655775516E+02  0.90419724802E+02  0.83545982551E+02 0.  0.
         11    1    3    3    0    0 -0.99793313722E+01 -0.45570723984E+02 -0.39727372605E+02  0.61274318221E+02  0.51100000000E-03 0. -1.
         22    1    1    0    0    0  0.11563193335E+02  0.20096496594E+02  0.25655775516E+02  0.34580275198E+02  0.00000000000E+00 0. -1.
</event>
<event>
 5    1  0.1659417E-003  0.9118800E+02  0.7818608E-02  0.1130116E+00
         25   -1    0    0    0    0  0.00000000000E+00  0.00000000000E+00  0.99999998245E-14  0.12500000000E+03  0.12500000000E+03 0.  0.
        -11    1    3    3    0    0  0.13102637161E+02 -0.28772156051E+02 -0.22100705451E+02  0.38574048868E+02  0.51100000000E-03 0. -1.
         23    2    1    0    0    0 -0.19425847577E+02 -0.13820295845E+02  0.20030762800E+02  0.93861670089E+02  0.88546132169E+02 0.  0.
         11    1    3    3    0    0 -0.32528484738E+02  0.14951860206E+02  0.42131468251E+02  0.55287621220E+02  0.51100000000E-03 0.  1.
         22    1    1    0    0    0  0.19425847577E+02  0.13820295845E+02 -0.20030762800E+02  0.31138329911E+02  0.00000000000E+00 0.  1.
</event>
<event>
 5    1  0.1659417E-003  0.9118800E+02  0.7818608E-02  0.1130116E+00
         25   -1    0    0    0    0  0.00000000000E+00  0.00000000000E+00  0.99999998245E-14  0.12500000000E+03  0.12500000000E+03 0.  0.
        -11    1    3    3    0    0  0.22173027979E+02  0.47596545841E+02 -0.31729133688E+02  0.61349916631E+02  0.51100000000E-03 0. -1.
         23    2    1    0    0    0  0.17373005435E+01  0.23150647092E+02 -0.11495459626E+02  0.99094088204E+02  0.95647906674E+02 0.  0.
         11    1    3    3    0    0 -0.20435727435E+02 -0.24445898749E+02  0.20233674062E+02  0.37744171573E+02  0.51100000000E-03 0.  1.
         22    1    1    0    0    0 -0.17373005435E+01 -0.23150647092E+02  0.11495459626E+02  0.25905911796E+02  0.00000000000E+00 0. -1.
</event>
<event>
 5    1  0.1659417E-003  0.9118800E+02  0.7818608E-02  0.1130116E+00
         25   -1    0    0    0    0  0.00000000000E+00  0.00000000000E+00  0.99999998245E-14  0.12500000000E+03  0.12500000000E+03 0.  0.
        -11    1    3    3    0    0  0.49568966716E+02 -0.11542145509E+02  0.14751063545E+02  0.52989597660E+02  0.51100000000E-03 0.  1.
         23    2    1    0    0    0  0.15804705198E+02 -0.22962566048E+02 -0.88669816741E+01  0.95747794785E+02  0.91169889198E+02 0.  0.
         11    1    3    3    0    0 -0.33764261518E+02 -0.11420420539E+02 -0.23618045219E+02  0.42758197125E+02  0.51100000000E-03 0. -1.
         22    1    1    0    0    0 -0.15804705198E+02  0.22962566048E+02  0.88669816741E+01  0.29252205215E+02  0.00000000000E+00 0. -1.
</event>
<event>
 5    1  0.1659417E-003  0.9118800E+02  0.7818608E-02  0.1130116E+00
         25   -1    0    0    0    0  0.00000000000E+00  0.00000000000E+00  0.99999998245E-14  0.12500000000E+03  0.12500000000E+03 0.  0.
        -11    1    3    3    0    0 -0.59550064668E+02  0.86655160422E+01  0.15280513357E+02  0.62086999114E+02  0.51100000000E-03 0.  1.
         23    2    1    0    0    0 -0.30550899289E+02  0.93454948786E+01  0.95510541424E+01  0.91654560175E+02  0.85373532455E+02 0.  0.
         11    1    3    3    0    0  0.28999165380E+02  0.67997883640E+00 -0.57294592147E+01  0.29567561061E+02  0.51100000000E-03 0. -1.
         22    1    1    0    0    0  0.30550899289E+02 -0.93454948786E+01 -0.95510541424E+01  0.33345439825E+02  0.00000000000E+00 0.  1.
</event>
<event>
 5    1  0.1659417E-003  0.9118800E+02  0.7818608E-02  0.1130116E+00
         25   -1    0    0    0    0  0.00000000000E+00  0.00000000000E+00  0.99999998245E-14  0.12500000000E+03  0.12500000000E+03 0.  0.
        -11    1    3    3    0    0 -0.13664375051E+02  0.31091950153E+01  0.44423745320E+02  0.46581663642E+02  0.51100000000E-03 0.  1.
         23    2    1    0    0    0 -0.27832821206E+02 -0.66821401117E+01 -0.22070924239E+01  0.96291322049E+02  0.91912080339E+02 0.  0.
         11    1    3    3    0    0 -0.14168446154E+02 -0.97913351270E+01 -0.46630837744E+02  0.49709658407E+02  0.51100000000E-03 0. -1.
         22    1    1    0    0    0  0.27832821206E+02  0.66821401117E+01  0.22070924239E+01  0.28708677951E+02  0.00000000000E+00 0. -1.
</event>
<event>
 5    1  0.1659417E-003  0.9118800E+02  0.7818608E-02  0.1130116E+00
         25   -1    0    0    0    0  0.00000000000E+00  0.00000000000E+00  0.99999998245E-14  0.12500000000E+03  0.12500000000E+03 0.  0.
        -11    1    3    3    0    0  0.17180198186E+02  0.47183413350E+02  0.18734945578E+01  0.50248817769E+02  0.51100000000E-03 0.  1.
         23    2    1    0    0    0 -0.11095536947E+02  0.14450848856E+02  0.20701252631E+02  0.97423201177E+02  0.93438751567E+02 0.  0.
         11    1    3    3    0    0 -0.28275735134E+02 -0.32732564493E+02  0.18827758073E+02  0.47174383408E+02  0.51100000000E-03 0. -1.
         22    1    1    0    0    0  0.11095536947E+02 -0.14450848856E+02 -0.20701252631E+02  0.27576798823E+02  0.00000000000E+00 0.  1.
</event>
<event>
 5    1  0.1659417E-003  0.9118800E+02  0.7818608E-02  0.1130116E+00
         25   -1    0    0    0    0  0.00000000000E+00  0.00000000000E+00  0.99999998245E-14  0.12500000000E+03  0.12500000000E+03 0.  0.
        -11    1    3    3    0    0  0.47443461118E+02 -0.73542393774E+01 -0.16132267110E+02  0.50647970167E+02  0.51100000000E-03 0.  1.
         23    2    1    0    0    0  0.22134819784E+02 -0.28892975407E+01  0.20027495929E+02  0.95010020335E+02  0.90152676520E+02 0.  0.
         11    1    3    3    0    0 -0.25308641334E+02  0.44649418366E+01  0.36159763039E+02  0.44362050168E+02  0.51100000000E-03 0. -1.
         22    1    1    0    0    0 -0.22134819784E+02  0.28892975407E+01 -0.20027495929E+02  0.29989979665E+02  0.00000000000E+00 0. -1.
</event>
<event>
 5    1  0.1659417E-003  0.9118800E+02  0.7818608E-02  0.1130116E+00
         25   -1    0    0    0    0  0.00000000000E+00  0.00000000000E+00  0.99999998245E-14  0.12500000000E+03  0.12500000000E+03 0.  0.
        -11    1    3    3    0    0 -0.15815038074E+02  0.18224799607E+02 -0.39350693528E+02  0.46159894187E+02  0.51100000000E-03 0. -1.
         23    2    1    0    0    0  0.23472718075E+02 -0.29955949420E+01 -0.13923415028E+02  0.97544516596E+02  0.93600903569E+02 0.  0.
         11    1    3    3    0    0  0.39287756149E+02 -0.21220394549E+02  0.25427278499E+02  0.51384622409E+02  0.51100000000E-03 0.  1.
         22    1    1    0    0    0 -0.23472718075E+02  0.29955949420E+01  0.13923415028E+02  0.27455483404E+02  0.00000000000E+00 0. -1.
</event>
<event>
 5    1  0.1659417E-003  0.9118800E+02  0.7818608E-02  0.1130116E+00
         25   -1    0    0    0    0  0.00000000000E+00  0.00000000000E+00  0.99999998245E-14  0.12500000000E+03  0.12500000000E+03 0.  0.
        -11    1    3    3    0    0  0.10105487814E+02  0.16099424161E+02 -0.42037680222E+02  0.46135440835E+02  0.51100000000E-03 0. -1.
         23    2    1    0    0    0  0.21133429787E+02 -0.17374625490E+02 -0.51362171554E+01  0.97163330081E+02  0.93090453433E+02 0.  0.
         11    1    3    3    0    0  0.11027941974E+02 -0.33474049651E+02  0.36901463067E+02  0.51027889247E+02  0.51100000000E-03 0.  1.
         22    1    1    0    0    0 -0.21133429787E+02  0.17374625490E+02  0.51362171554E+01  0.27836669919E+02  0.00000000000E+00 0.  1.
</event>
<event>
 5    1  0.1659417E-003  0.9118800E+02  0.7818608E-02  0.1130116E+00
         25   -1    0    0    0    0  0.00000000000E+00  0.00000000000E+00  0.99999998245E-14  0.12500000000E+03  0.12500000000E+03 0.  0.
        -11    1    3    3    0    0  0.47158009611E+02  0.66228546523E+01 -0.13059608491E+01  0.47638698641E+02  0.51100000000E-03 0.  1.
         23    2    1    0    0    0  0.95499586915E+01 -0.64152402300E+01  0.26444505193E+02  0.96161330247E+02  0.91735121746E+02 0.  0.
         11    1    3    3    0    0 -0.37608050920E+02 -0.13038094882E+02  0.27750466042E+02  0.48522631606E+02  0.51100000000E-03 0. -1.
         22    1    1    0    0    0 -0.95499586915E+01  0.64152402300E+01 -0.26444505193E+02  0.28838669753E+02  0.00000000000E+00 0.  1.
</event>
<event>
 5    1  0.1659417E-003  0.9118800E+02  0.7818608E-02  0.1130116E+00
         25   -1    0    0    0    0  0.00000000000E+00  0.00000000000E+00  0.99999998245E-14  0.12500000000E+03  0.12500000000E+03 0.  0.
        -11    1    3    3    0    0 -0.33453776538E+02  0.19733126904E+02  0.71955684230E+01  0.39500983117E+02  0.51100000000E-03 0.  1.
         23    2    1    0    0    0 -0.71890816447E+01 -0.21575033227E+02 -0.19309201284E+02  0.95166961136E+02  0.90370018722E+02 0.  0.
         11    1    3    3    0    0  0.26264694893E+02 -0.41308160131E+02 -0.26504769707E+02  0.55665978018E+02  0.51100000000E-03 0. -1.
         22    1    1    0    0    0  0.71890816447E+01  0.21575033227E+02  0.19309201284E+02  0.29833038864E+02  0.00000000000E+00 0. -1.
</event>
<event>
 5    1  0.1659417E-003  0.9118800E+02  0.7818608E-02  0.1130116E+00
         25   -1    0    0    0    0  0.00000000000E+00  0.00000000000E+00  0.99999998245E-14  0.12500000000E+03  0.12500000000E+03 0.  0.
        -11    1    3    3    0    0 -0.12071765697E+01  0.99365005305E-01  0.52270698821E+02  0.52284731081E+02  0.51100000000E-03 0. -1.
         23    2    1    0    0    0  0.18000630034E+02  0.84149448510E+01  0.42337791090E+01  0.10468353220E+03  0.10269314996E+03 0.  0.
         11    1    3    3    0    0  0.19207806604E+02  0.83155798457E+01 -0.48036919712E+02  0.52398801116E+02  0.51100000000E-03 0.  1.
         22    1    1    0    0    0 -0.18000630034E+02 -0.84149448510E+01 -0.42337791090E+01  0.20316467804E+02  0.00000000000E+00 0.  1.
</event>
<event>
 5    1  0.1659417E-003  0.9118800E+02  0.7818608E-02  0.1130116E+00
         25   -1    0    0    0    0  0.00000000000E+00  0.00000000000E+00  0.99999998245E-14  0.12500000000E+03  0.12500000000E+03 0.  0.
        -11    1    3    3    0    0  0.27380198914E+02  0.48822588502E+01  0.43878095039E+02  0.51949966011E+02  0.51100000000E-03 0. -1.
         23    2    1    0    0    0 -0.44980004012E+00  0.24361146573E+02  0.16584624555E+02  0.95525985105E+02  0.90865264410E+02 0.  0.
         11    1    3    3    0    0 -0.27829998954E+02  0.19478887723E+02 -0.27293470484E+02  0.43576019094E+02  0.51100000000E-03 0.  1.
         22    1    1    0    0    0  0.44980004012E+00 -0.24361146573E+02 -0.16584624555E+02  0.29474014895E+02  0.00000000000E+00 0.  1.
</event>
<event>
 5    1  0.1659417E-003  0.9118800E+02  0.7818608E-02  0.1130116E+00
         25   -1    0    0    0    0  0.00000000000E+00  0.00000000000E+00  0.99999998245E-14  0.12500000000E+03  0.12500000000E+03 0.  0.
        -11    1    3    3    0    0 -0.49424513545E+01  0.90392085451E+01 -0.36365571773E+02  0.37796692013E+02  0.51100000000E-03 0. -1.
         23    2    1    0    0    0  0.25882343204E+02 -0.12899922400E+02  0.68973423762E+01  0.95269930718E+02  0.90512334405E+02 0.  0.
         11    1    3    3    0    0  0.30824794559E+02 -0.21939130945E+02  0.43262914149E+02  0.57473238704E+02  0.51100000000E-03 0.  1.
         22    1    1    0    0    0 -0.25882343204E+02  0.12899922400E+02 -0.68973423762E+01  0.29730069282E+02  0.00000000000E+00 0. -1.
</event>
<event>
 5    1  0.1659417E-003  0.9118800E+02  0.7818608E-02  0.1130116E+00
         25   -1    0    0    0    0  0.00000000000E+00  0.00000000000E+00  0.99999998245E-14  0.12500000000E+03  0.12500000000E+03 0.  0.
        -11    1    3    3    0    0  0.35982811168E+02  0.49357403772E+01 -0.15451760467E+02  0.39470002969E+02  0.51100000000E-03 0.  1.
         23    2    1    0    0    0 -0.78211513918E+00  0.73432870597E+01  0.27770401227E+02  0.96264468801E+02  0.91875552789E+02 0.  0.
         11    1    3    3    0    0 -0.36764926307E+02  0.24075466825E+01  0.43222161694E+02  0.56794465832E+02  0.51100000000E-03 0. -1.
         22    1    1    0    0    0  0.78211513918E+00 -0.73432870597E+01 -0.27770401227E+02  0.28735531199E+02  0.00000000000E+00 0. -1.
</event>
<event>
 5    1  0.1659417E-003  0.9118800E+02  0.7818608E-02  0.1130116E+00
         25   -1    0    0    0    0  0.00000000000E+00  0.00000000000E+00  0.99999998245E-14  0.12500000000E+03  0.12500000000E+03 0.  0.
        -11    1    3    3    0    0 -0.36648170389E+01 -0.37363033367E+02  0.11096082618E+02  0.39147799376E+02  0.51100000000E-03 0. -1.
         23    2    1    0    0    0 -0.12784876000E+02  0.38811834502E+00 -0.27976280042E+02  0.94238401616E+02  0.89076373994E+02 0.  0.
         11    1    3    3    0    0 -0.91200589607E+01  0.37751151712E+02 -0.39072362660E+02  0.55090602239E+02  0.51100000000E-03 0.  1.
         22    1    1    0    0    0  0.12784876000E+02 -0.38811834502E+00  0.27976280042E+02  0.30761598384E+02  0.00000000000E+00 0.  1.
</event>
<event>
 5    1  0.1659417E-003  0.9118800E+02  0.7818608E-02  0.1130116E+00
         25   -1    0    0    0    0  0.00000000000E+00  0.00000000000E+00  0.99999998245E-14  0.12500000000E+03  0.12500000000E+03 0.  0.
        -11    1    3    3    0    0  0.46937224281E+02  0.23017562896E+02  0.85372393211E+01  0.52969761943E+02  0.51100000000E-03 0.  1.
         23    2    1    0    0    0  0.12957291060E+02  0.18842916381E+02 -0.17683173495E+02  0.96092535320E+02  0.91641332542E+02 0.  0.
         11    1    3    3    0    0 -0.33979933221E+02 -0.41746465154E+01 -0.26220412816E+02  0.43122773377E+02  0.51100000000E-03 0. -1.
         22    1    1    0    0    0 -0.12957291060E+02 -0.18842916381E+02  0.17683173495E+02  0.28907464680E+02  0.00000000000E+00 0.  1.
</event>
<event>
 5    1  0.1659417E-003  0.9118800E+02  0.7818608E-02  0.1130116E+00
         25   -1    0    0    0    0  0.00000000000E+00  0.00000000000E+00  0.99999998245E-14  0.12500000000E+03  0.12500000000E+03 0.  0.
        -11    1    3    3    0    0 -0.14494498674E+02  0.77913310621E+01 -0.29018806200E+02  0.33359952714E+02  0.51100000000E-03 0.  1.
         23    2    1    0    0    0  0.16951535300E+02  0.32117336024E+01  0.24161202089E+02  0.95311054782E+02  0.90569110051E+02 0.  0.
         11    1    3    3    0    0  0.31446033975E+02 -0.45795974597E+01  0.53180008289E+02  0.61951102068E+02  0.51100000000E-03 0. -1.
         22    1    1    0    0    0 -0.16951535300E+02 -0.32117336024E+01 -0.24161202089E+02  0.29688945218E+02  0.00000000000E+00 0. -1.
</event>
<event>
 5    1  0.1659417E-003  0.9118800E+02  0.7818608E-02  0.1130116E+00
         25   -1    0    0    0    0  0.00000000000E+00  0.00000000000E+00  0.99999998245E-14  0.12500000000E+03  0.12500000000E+03 0.  0.
        -11    1    3    3    0    0 -0.29310972210E+02  0.17518401461E+02 -0.10957652978E+02  0.35862203512E+02  0.51100000000E-03 0.  1.
         23    2    1    0    0    0  0.27709892001E+02  0.57923858221E+01  0.50663289616E+01  0.96241391943E+02  0.91844150525E+02 0.  0.
         11    1    3    3    0    0  0.57020864211E+02 -0.11726015639E+02  0.16023981940E+02  0.60379188431E+02  0.51100000000E-03 0. -1.
         22    1    1    0    0    0 -0.27709892001E+02 -0.57923858221E+01 -0.50663289616E+01  0.28758608057E+02  0.00000000000E+00 0. -1.
</event>
<event>
 5    1  0.1659417E-003  0.9118800E+02  0.7818608E-02  0.1130116E+00
         25   -1    0    0    0    0  0.00000000000E+00  0.00000000000E+00  0.99999998245E-14  0.12500000000E+03  0.12500000000E+03 0.  0.
        -11    1    3    3    0    0 -0.36369094508E+02 -0.42827375333E+00  0.40113220416E+02  0.54147621426E+02  0.51100000000E-03 0.  1.
         23    2    1    0    0    0 -0.30865308653E+01  0.19337583186E+02  0.15571831190E+02  0.99980992768E+02  0.96800042314E+02 0.  0.
         11    1    3    3    0    0  0.33282563642E+02  0.19765856939E+02 -0.24541389226E+02  0.45833371342E+02  0.51100000000E-03 0. -1.
         22    1    1    0    0    0  0.30865308653E+01 -0.19337583186E+02 -0.15571831190E+02  0.25019007232E+02  0.00000000000E+00 0.  1.
</event>
<event>
 5    1  0.1659417E-003  0.9118800E+02  0.7818608E-02  0.1130116E+00
         25   -1    0    0    0    0  0.00000000000E+00  0.00000000000E+00  0.99999998245E-14  0.12500000000E+03  0.12500000000E+03 0.  0.
        -11    1    3    3    0    0 -0.11927660230E+02  0.85556766394E+01 -0.37017473729E+02  0.39821627828E+02  0.51100000000E-03 0. -1.
         23    2    1    0    0    0  0.28293868600E+02  0.87338515287E+00  0.23120551034E+01  0.96598390877E+02  0.92328748065E+02 0.  0.
         11    1    3    3    0    0  0.40221528830E+02 -0.76822914865E+01  0.39329528832E+02  0.56776763049E+02  0.51100000000E-03 0.  1.
         22    1    1    0    0    0 -0.28293868600E+02 -0.87338515287E+00 -0.23120551034E+01  0.28401609123E+02  0.00000000000E+00 0.  1.
</event>
<event>
 4    1  0.1659417E-003  0.9118800E+02  0.7818608E-02  0.1130116E+00
         25   -1    0    0    0    0  0.00000000000E+00  0.00000000000E+00  0.99999998245E-14  0.12500000000E+03  0.12500000000E+03 0.  0.
        -11    1    1    0    0    0  0.52001682018E+02  0.20324526727E+02 -0.88419373967E+01  0.56528233447E+02  0.51100000000E-03 0. -1.
         11    1    1    0    0    0 -0.50981619708E+01 -0.12189248384E+02 -0.10711105020E+02  0.17008727250E+02  0.51100000000E-03 0.  1.
         22    1    1    0    0    0 -0.46903520047E+02 -0.81352783427E+01  0.19553042417E+02  0.51463039303E+02  0.00000000000E+00 0. -1.
</event>
<event>
 5    1  0.1659417E-003  0.9118800E+02  0.7818608E-02  0.1130116E+00
         25   -1    0    0    0    0  0.00000000000E+00  0.00000000000E+00  0.99999998245E-14  0.12500000000E+03  0.12500000000E+03 0.  0.
        -11    1    3    3    0    0  0.15410403863E+02  0.50148941531E+02 -0.25192397323E+02  0.58198400039E+02  0.51100000000E-03 0. -1.
         23    2    1    0    0    0 -0.31333156778E+01  0.17926796809E+02 -0.23315687305E+02  0.95422829996E+02  0.90723246739E+02 0.  0.
         11    1    3    3    0    0 -0.18543719541E+02 -0.32222144722E+02  0.18767100183E+01  0.37224429957E+02  0.51100000000E-03 0.  1.
         22    1    1    0    0    0  0.31333156778E+01 -0.17926796809E+02  0.23315687305E+02  0.29577170004E+02  0.00000000000E+00 0. -1.
</event>
<event>
 5    1  0.1659417E-003  0.9118800E+02  0.7818608E-02  0.1130116E+00
         25   -1    0    0    0    0  0.00000000000E+00  0.00000000000E+00  0.99999998245E-14  0.12500000000E+03  0.12500000000E+03 0.  0.
        -11    1    3    3    0    0 -0.15928830356E+02  0.40921513384E+02  0.37131836213E+02  0.57507140035E+02  0.51100000000E-03 0. -1.
         23    2    1    0    0    0 -0.18817005371E+02  0.63314555288E+01  0.21981334716E+02  0.95379971368E+02  0.90664176178E+02 0.  0.
         11    1    3    3    0    0 -0.28881750152E+01 -0.34590057855E+02 -0.15150501497E+02  0.37872831334E+02  0.51100000000E-03 0.  1.
         22    1    1    0    0    0  0.18817005371E+02 -0.63314555288E+01 -0.21981334716E+02  0.29620028632E+02  0.00000000000E+00 0. -1.
</event>
<event>
 5    1  0.1659417E-003  0.9118800E+02  0.7818608E-02  0.1130116E+00
         25   -1    0    0    0    0  0.00000000000E+00  0.00000000000E+00  0.99999998245E-14  0.12500000000E+03  0.12500000000E+03 0.  0.
        -11    1    3    3    0    0 -0.50528180991E+02 -0.30150826222E+02 -0.11417414979E+02  0.59937690656E+02  0.51100000000E-03 0.  1.
         23    2    1    0    0    0 -0.26435445620E+02 -0.13383151135E+02  0.69523827828E+01  0.94565198443E+02  0.89533790330E+02 0.  0.
         11    1    3    3    0    0  0.24092735371E+02  0.16767675087E+02  0.18369797762E+02  0.34627507787E+02  0.51100000000E-03 0. -1.
         22    1    1    0    0    0  0.26435445620E+02  0.13383151135E+02 -0.69523827828E+01  0.30434801557E+02  0.00000000000E+00 0.  1.
</event>
<event>
 5    1  0.1659417E-003  0.9118800E+02  0.7818608E-02  0.1130116E+00
         25   -1    0    0    0    0  0.00000000000E+00  0.00000000000E+00  0.99999998245E-14  0.12500000000E+03  0.12500000000E+03 0.  0.
        -11    1    3    3    0    0 -0.16199011815E+02 -0.27672739168E+02  0.13935039197E+02  0.34962462650E+02  0.51100000000E-03 0.  1.
         23    2    1    0    0    0 -0.10440003952E+01  0.22987985291E+02 -0.17149223281E+02  0.96300988454E+02  0.91925225665E+02 0.  0.
         11    1    3    3    0    0  0.15155011420E+02  0.50660724459E+02 -0.31084262477E+02  0.61338525805E+02  0.51100000000E-03 0. -1.
         22    1    1    0    0    0  0.10440003952E+01 -0.22987985291E+02  0.17149223281E+02  0.28699011546E+02  0.00000000000E+00 0. -1.
</event>
<event>
 5    1  0.1659417E-003  0.9118800E+02  0.7818608E-02  0.1130116E+00
         25   -1    0    0    0    0  0.00000000000E+00  0.00000000000E+00  0.99999998245E-14  0.12500000000E+03  0.12500000000E+03 0.  0.
        -11    1    3    3    0    0 -0.43026407266E+02 -0.26053375168E+02 -0.33714706307E+02  0.60553542435E+02  0.51100000000E-03 0.  1.
         23    2    1    0    0    0 -0.16761712707E+02 -0.62881499719E+01 -0.24433933791E+02  0.94709523552E+02  0.89735059413E+02 0.  0.
         11    1    3    3    0    0  0.26264694558E+02  0.19765225196E+02  0.92807725156E+01  0.34155981117E+02  0.51100000000E-03 0. -1.
         22    1    1    0    0    0  0.16761712707E+02  0.62881499719E+01  0.24433933791E+02  0.30290476448E+02  0.00000000000E+00 0.  1.
</event>
<event>
 5    1  0.1659417E-003  0.9118800E+02  0.7818608E-02  0.1130116E+00
         25   -1    0    0    0    0  0.00000000000E+00  0.00000000000E+00  0.99999998245E-14  0.12500000000E+03  0.12500000000E+03 0.  0.
        -11    1    3    3    0    0  0.11541362571E+02 -0.24393375240E+02 -0.34206311293E+02  0.43569617144E+02  0.51100000000E-03 0. -1.
         23    2    1    0    0    0 -0.98478156741E+01  0.21067630542E+02 -0.14831715173E+02  0.97417318746E+02  0.93430881867E+02 0.  0.
         11    1    3    3    0    0 -0.21389178245E+02  0.45461005782E+02  0.19374596120E+02  0.53847701602E+02  0.51100000000E-03 0.  1.
         22    1    1    0    0    0  0.98478156741E+01 -0.21067630542E+02  0.14831715173E+02  0.27582681254E+02  0.00000000000E+00 0.  1.
</event>
<event>
 5    1  0.1659417E-003  0.9118800E+02  0.7818608E-02  0.1130116E+00
         25   -1    0    0    0    0  0.00000000000E+00  0.00000000000E+00  0.99999998245E-14  0.12500000000E+03  0.12500000000E+03 0.  0.
        -11    1    3    3    0    0 -0.46555706939E+02  0.69042569357E+01 -0.26994154991E+02  0.54256677159E+02  0.51100000000E-03 0.  1.
         23    2    1    0    0    0 -0.29238541335E+02 -0.58691824682E+01  0.68866559843E+01  0.94393372729E+02  0.89293578617E+02 0.  0.
         11    1    3    3    0    0  0.17317165604E+02 -0.12773439404E+02  0.33880810975E+02  0.40136695571E+02  0.51100000000E-03 0. -1.
         22    1    1    0    0    0  0.29238541335E+02  0.58691824682E+01 -0.68866559843E+01  0.30606627271E+02  0.00000000000E+00 0.  1.
</event>
<event>
 5    1  0.1659417E-003  0.9118800E+02  0.7818608E-02  0.1130116E+00
         25   -1    0    0    0    0  0.00000000000E+00  0.00000000000E+00  0.99999998245E-14  0.12500000000E+03  0.12500000000E+03 0.  0.
        -11    1    3    3    0    0  0.11968729738E+01  0.52217146314E+02 -0.66901761592E+01  0.52657585696E+02  0.51100000000E-03 0.  1.
         23    2    1    0    0    0  0.25746909448E+00  0.20712958173E+02  0.21644951068E+02  0.95040079551E+02  0.90194345098E+02 0.  0.
         11    1    3    3    0    0 -0.93940387931E+00 -0.31504188141E+02  0.28335127227E+02  0.42382493854E+02  0.51100000000E-03 0. -1.
         22    1    1    0    0    0 -0.25746909448E+00 -0.20712958173E+02 -0.21644951068E+02  0.29959920449E+02  0.00000000000E+00 0.  1.
</event>
<event>
 5    1  0.1659417E-003  0.9118800E+02  0.7818608E-02  0.1130116E+00
         25   -1    0    0    0    0  0.00000000000E+00  0.00000000000E+00  0.99999998245E-14  0.12500000000E+03  0.12500000000E+03 0.  0.
        -11    1    3    3    0    0 -0.16664664903E+02  0.27299769656E+02  0.27820904439E+02  0.42390933036E+02  0.51100000000E-03 0. -1.
         23    2    1    0    0    0 -0.40956144091E+02 -0.71037872774E-01  0.17867947412E+02  0.80315838042E+02  0.66737991508E+02 0.  0.
         11    1    3    3    0    0 -0.24291479188E+02 -0.27370807528E+02 -0.99529570271E+01  0.37924905007E+02  0.51100000000E-03 0.  1.
         22    1    1    0    0    0  0.40956144091E+02  0.71037872774E-01 -0.17867947412E+02  0.44684161958E+02  0.00000000000E+00 0. -1.
</event>
<event>
 5    1  0.1659417E-003  0.9118800E+02  0.7818608E-02  0.1130116E+00
         25   -1    0    0    0    0  0.00000000000E+00  0.00000000000E+00  0.99999998245E-14  0.12500000000E+03  0.12500000000E+03 0.  0.
        -11    1    3    3    0    0 -0.36977729469E+02  0.26024128509E+02 -0.30465892755E+01  0.45319857103E+02  0.51100000000E-03 0.  1.
         23    2    1    0    0    0 -0.73467124298E+01 -0.18825096317E+02 -0.14306940513E+02  0.10024021443E+03  0.97134204101E+02 0.  0.
         11    1    3    3    0    0  0.29631017039E+02 -0.44849224826E+02 -0.11260351237E+02  0.54920357323E+02  0.51100000000E-03 0. -1.
         22    1    1    0    0    0  0.73467124298E+01  0.18825096317E+02  0.14306940513E+02  0.24759785574E+02  0.00000000000E+00 0. -1.
</event>
<event>
 5    1  0.1659417E-003  0.9118800E+02  0.7818608E-02  0.1130116E+00
         25   -1    0    0    0    0  0.00000000000E+00  0.00000000000E+00  0.99999998245E-14  0.12500000000E+03  0.12500000000E+03 0.  0.
        -11    1    3    3    0    0  0.26854218580E+02  0.12539084028E+02  0.28413082591E+02  0.41057045028E+02  0.51100000000E-03 0.  1.
         23    2    1    0    0    0  0.77779668204E+01  0.17422677999E+02 -0.22413701269E+02  0.95564978663E+02  0.90918890588E+02 0.  0.
         11    1    3    3    0    0 -0.19076251760E+02  0.48835939718E+01 -0.50826783861E+02  0.54507933635E+02  0.51100000000E-03 0. -1.
         22    1    1    0    0    0 -0.77779668204E+01 -0.17422677999E+02  0.22413701269E+02  0.29435021337E+02  0.00000000000E+00 0. -1.
</event>
<event>
 5    1  0.1659417E-003  0.9118800E+02  0.7818608E-02  0.1130116E+00
         25   -1    0    0    0    0  0.00000000000E+00  0.00000000000E+00  0.99999998245E-14  0.12500000000E+03  0.12500000000E+03 0.  0.
        -11    1    3    3    0    0  0.27791158938E+02 -0.52061448758E+01 -0.24043285131E+02  0.37115118480E+02  0.51100000000E-03 0.  1.
         23    2    1    0    0    0  0.12943177395E+01  0.68025943587E+00  0.28609935137E+02  0.96352724391E+02  0.91995549336E+02 0.  0.
         11    1    3    3    0    0 -0.26496841199E+02  0.58864043116E+01  0.52653220268E+02  0.59237605911E+02  0.51100000000E-03 0. -1.
         22    1    1    0    0    0 -0.12943177395E+01 -0.68025943587E+00 -0.28609935137E+02  0.28647275609E+02  0.00000000000E+00 0. -1.
</event>
<event>
 5    1  0.1659417E-003  0.9118800E+02  0.7818608E-02  0.1130116E+00
         25   -1    0    0    0    0  0.00000000000E+00  0.00000000000E+00  0.99999998245E-14  0.12500000000E+03  0.12500000000E+03 0.  0.
        -11    1    3    3    0    0 -0.41696072440E+02  0.19217917668E+02  0.40806372231E+02  0.61425164480E+02  0.51100000000E-03 0. -1.
         23    2    1    0    0    0 -0.21906389115E+02  0.12591957149E+02  0.11919112064E+02  0.97062346174E+02  0.92954755357E+02 0.  0.
         11    1    3    3    0    0  0.19789683325E+02 -0.66259605197E+01 -0.28887260167E+02  0.35637181694E+02  0.51100000000E-03 0.  1.
         22    1    1    0    0    0  0.21906389115E+02 -0.12591957149E+02 -0.11919112064E+02  0.27937653826E+02  0.00000000000E+00 0. -1.
</event>
<event>
 5    1  0.1659417E-003  0.9118800E+02  0.7818608E-02  0.1130116E+00
         25   -1    0    0    0    0  0.00000000000E+00  0.00000000000E+00  0.99999998245E-14  0.12500000000E+03  0.12500000000E+03 0.  0.
        -11    1    3    3    0    0 -0.32569663345E+02  0.61062068580E+01 -0.32651217398E+02  0.46520648431E+02  0.51100000000E-03 0.  1.
         23    2    1    0    0    0  0.85544713210E+00  0.28583137568E+02 -0.36117459990E+01  0.96176879902E+02  0.91756307552E+02 0.  0.
         11    1    3    3    0    0  0.33425110477E+02  0.22476930710E+02  0.29039471399E+02  0.49656231471E+02  0.51100000000E-03 0. -1.
         22    1    1    0    0    0 -0.85544713210E+00 -0.28583137568E+02  0.36117459990E+01  0.28823120098E+02  0.00000000000E+00 0.  1.
</event>
<event>
 5    1  0.1659417E-003  0.9118800E+02  0.7818608E-02  0.1130116E+00
         25   -1    0    0    0    0  0.00000000000E+00  0.00000000000E+00  0.99999998245E-14  0.12500000000E+03  0.12500000000E+03 0.  0.
        -11    1    3    3    0    0 -0.41661426686E+02 -0.87242230701E-01 -0.26853837585E+02  0.49566225174E+02  0.51100000000E-03 0.  1.
         23    2    1    0    0    0 -0.11782151864E+02 -0.26685036274E+02 -0.42264352757E+01  0.95525044213E+02  0.90863970050E+02 0.  0.
         11    1    3    3    0    0  0.29879274823E+02 -0.26597794044E+02  0.22627402309E+02  0.45958819039E+02  0.51100000000E-03 0. -1.
         22    1    1    0    0    0  0.11782151864E+02  0.26685036274E+02  0.42264352757E+01  0.29474955787E+02  0.00000000000E+00 0.  1.
</event>
<event>
 5    1  0.1659417E-003  0.9118800E+02  0.7818608E-02  0.1130116E+00
         25   -1    0    0    0    0  0.00000000000E+00  0.00000000000E+00  0.99999998245E-14  0.12500000000E+03  0.12500000000E+03 0.  0.
        -11    1    3    3    0    0 -0.27462684800E+02 -0.14467910502E+02  0.17343072372E+02  0.35557019705E+02  0.51100000000E-03 0.  1.
         23    2    1    0    0    0  0.23284760740E+02  0.15920588849E+02  0.95577731406E+01  0.95217517575E+02  0.90439921460E+02 0.  0.
         11    1    3    3    0    0  0.50747445540E+02  0.30388499351E+02 -0.77852992318E+01  0.59660497870E+02  0.51100000000E-03 0. -1.
         22    1    1    0    0    0 -0.23284760740E+02 -0.15920588849E+02 -0.95577731406E+01  0.29782482425E+02  0.00000000000E+00 0. -1.
</event>
<event>
 5    1  0.1659417E-003  0.9118800E+02  0.7818608E-02  0.1130116E+00
         25   -1    0    0    0    0  0.00000000000E+00  0.00000000000E+00  0.99999998245E-14  0.12500000000E+03  0.12500000000E+03 0.  0.
        -11    1    3    3    0    0 -0.17825397152E+02 -0.51278227413E+02 -0.81057980008E+01  0.54889938529E+02  0.51100000000E-03 0.  1.
         23    2    1    0    0    0 -0.72986102400E+01 -0.11476135550E+02 -0.22672160829E+02  0.98561424485E+02  0.94949229177E+02 0.  0.
         11    1    3    3    0    0  0.10526786912E+02  0.39802091863E+02 -0.14566362828E+02  0.43671485956E+02  0.51100000000E-03 0. -1.
         22    1    1    0    0    0  0.72986102400E+01  0.11476135550E+02  0.22672160829E+02  0.26438575515E+02  0.00000000000E+00 0.  1.
</event>
<event>
 5    1  0.1659417E-003  0.9118800E+02  0.7818608E-02  0.1130116E+00
         25   -1    0    0    0    0  0.00000000000E+00  0.00000000000E+00  0.99999998245E-14  0.12500000000E+03  0.12500000000E+03 0.  0.
        -11    1    3    3    0    0 -0.38164624380E+02  0.14690173793E+02  0.41451478089E+02  0.58228556535E+02  0.51100000000E-03 0. -1.
         23    2    1    0    0    0 -0.39287408212E+01  0.15775171442E+02  0.22082634680E+02  0.97578588787E+02  0.93646394468E+02 0.  0.
         11    1    3    3    0    0  0.34235883559E+02  0.10849976496E+01 -0.19368843409E+02  0.39350032252E+02  0.51100000000E-03 0.  1.
         22    1    1    0    0    0  0.39287408212E+01 -0.15775171442E+02 -0.22082634680E+02  0.27421411213E+02  0.00000000000E+00 0. -1.
</event>
<event>
 5    1  0.1659417E-003  0.9118800E+02  0.7818608E-02  0.1130116E+00
         25   -1    0    0    0    0  0.00000000000E+00  0.00000000000E+00  0.99999998245E-14  0.12500000000E+03  0.12500000000E+03 0.  0.
        -11    1    3    3    0    0  0.36098062203E+02  0.17998368217E+02 -0.14595386993E+02  0.42895648672E+02  0.51100000000E-03 0.  1.
         23    2    1    0    0    0  0.13993707878E+02 -0.24998846844E+02  0.64660838791E+01  0.95630348241E+02  0.91008719694E+02 0.  0.
         11    1    3    3    0    0 -0.22104354325E+02 -0.42997215061E+02  0.21061470872E+02  0.52734699569E+02  0.51100000000E-03 0. -1.
         22    1    1    0    0    0 -0.13993707878E+02  0.24998846844E+02 -0.64660838791E+01  0.29369651759E+02  0.00000000000E+00 0. -1.
</event>
<event>
 5    1  0.1659417E-003  0.9118800E+02  0.7818608E-02  0.1130116E+00
         25   -1    0    0    0    0  0.00000000000E+00  0.00000000000E+00  0.99999998245E-14  0.12500000000E+03  0.12500000000E+03 0.  0.
        -11    1    3    3    0    0  0.31331283516E+02  0.43346855786E+02 -0.21316554839E+02  0.57575991036E+02  0.51100000000E-03 0.  1.
         23    2    1    0    0    0 -0.12841451674E+00  0.23152519586E+02 -0.19031304195E+02  0.95029244374E+02  0.90179327418E+02 0.  0.
         11    1    3    3    0    0 -0.31459698033E+02 -0.20194336200E+02  0.22852506446E+01  0.37453253338E+02  0.51100000000E-03 0. -1.
         22    1    1    0    0    0  0.12841451674E+00 -0.23152519586E+02  0.19031304195E+02  0.29970755626E+02  0.00000000000E+00 0.  1.
</event>
<event>
 5    1  0.1659417E-003  0.9118800E+02  0.7818608E-02  0.1130116E+00
         25   -1    0    0    0    0  0.00000000000E+00  0.00000000000E+00  0.99999998245E-14  0.12500000000E+03  0.12500000000E+03 0.  0.
        -11    1    3    3    0    0 -0.38252102512E+02  0.11088264931E+02 -0.90671534609E+01  0.40845883978E+02  0.51100000000E-03 0. -1.
         23    2    1    0    0    0  0.85256953483E+01 -0.11056973778E+02 -0.26157329168E+02  0.95349535931E+02  0.90622204689E+02 0.  0.
         11    1    3    3    0    0  0.46777797861E+02 -0.22145238709E+02 -0.17090175707E+02  0.54503651953E+02  0.51100000000E-03 0.  1.
         22    1    1    0    0    0 -0.85256953483E+01  0.11056973778E+02  0.26157329168E+02  0.29650464069E+02  0.00000000000E+00 0.  1.
</event>
<event>
 5    1  0.1659417E-003  0.9118800E+02  0.7818608E-02  0.1130116E+00
         25   -1    0    0    0    0  0.00000000000E+00  0.00000000000E+00  0.99999998245E-14  0.12500000000E+03  0.12500000000E+03 0.  0.
        -11    1    3    3    0    0 -0.21081479842E+02 -0.18785642873E+02  0.28674012087E+02  0.40243361439E+02  0.51100000000E-03 0.  1.
         23    2    1    0    0    0 -0.76000607250E+01 -0.14333826341E+02 -0.24686034212E+02  0.95459861447E+02  0.90774254950E+02 0.  0.
         11    1    3    3    0    0  0.13481419117E+02  0.44518165328E+01 -0.53360046299E+02  0.55216500008E+02  0.51100000000E-03 0. -1.
         22    1    1    0    0    0  0.76000607250E+01  0.14333826341E+02  0.24686034212E+02  0.29540138553E+02  0.00000000000E+00 0. -1.
</event>
<event>
 5    1  0.1659417E-003  0.9118800E+02  0.7818608E-02  0.1130116E+00
         25   -1    0    0    0    0  0.00000000000E+00  0.00000000000E+00  0.99999998245E-14  0.12500000000E+03  0.12500000000E+03 0.  0.
        -11    1    3    3    0    0 -0.52348035210E+02 -0.30247541603E+02 -0.73769831831E+00  0.60463003254E+02  0.51100000000E-03 0. -1.
         23    2    1    0    0    0 -0.17877324179E+02 -0.22000708520E+02  0.45174526067E+01  0.96293950581E+02  0.91915655060E+02 0.  0.
         11    1    3    3    0    0  0.34470711031E+02  0.82468330824E+01  0.52551509250E+01  0.35830947327E+02  0.51100000000E-03 0.  1.
         22    1    1    0    0    0  0.17877324179E+02  0.22000708520E+02 -0.45174526067E+01  0.28706049419E+02  0.00000000000E+00 0. -1.
</event>
<event>
 5    1  0.1659417E-003  0.9118800E+02  0.7818608E-02  0.1130116E+00
         25   -1    0    0    0    0  0.00000000000E+00  0.00000000000E+00  0.99999998245E-14  0.12500000000E+03  0.12500000000E+03 0.  0.
        -11    1    3    3    0    0  0.27446351199E+02 -0.25555292079E+02  0.38436245404E+02  0.53700280338E+02  0.51100000000E-03 0.  1.
         23    2    1    0    0    0  0.26951877567E+01 -0.29395862018E+02  0.56736216982E+01  0.94940546844E+02  0.90056297454E+02 0.  0.
         11    1    3    3    0    0 -0.24751163442E+02 -0.38405699395E+01 -0.32762623705E+02  0.41240266507E+02  0.51100000000E-03 0. -1.
         22    1    1    0    0    0 -0.26951877567E+01  0.29395862018E+02 -0.56736216982E+01  0.30059453156E+02  0.00000000000E+00 0. -1.
</event>
<event>
 5    1  0.1659417E-003  0.9118800E+02  0.7818608E-02  0.1130116E+00
         25   -1    0    0    0    0  0.00000000000E+00  0.00000000000E+00  0.99999998245E-14  0.12500000000E+03  0.12500000000E+03 0.  0.
        -11    1    3    3    0    0  0.12742433241E+02 -0.60921518215E+02 -0.32326270595E+01  0.62323758427E+02  0.51100000000E-03 0.  1.
         23    2    1    0    0    0  0.37521024750E+01 -0.28943229167E+02  0.91836115273E+00  0.95800133993E+02  0.91241621524E+02 0.  0.
         11    1    3    3    0    0 -0.89903307656E+01  0.31978289047E+02  0.41509882122E+01  0.33476375567E+02  0.51100000000E-03 0. -1.
         22    1    1    0    0    0 -0.37521024750E+01  0.28943229167E+02 -0.91836115273E+00  0.29199866007E+02  0.00000000000E+00 0.  1.
</event>
<event>
 5    1  0.1659417E-003  0.9118800E+02  0.7818608E-02  0.1130116E+00
         25   -1    0    0    0    0  0.00000000000E+00  0.00000000000E+00  0.99999998245E-14  0.12500000000E+03  0.12500000000E+03 0.  0.
        -11    1    3    3    0    0 -0.32567601500E+02  0.19425107634E+02 -0.56514726140E+01  0.38339569859E+02  0.51100000000E-03 0. -1.
         23    2    1    0    0    0  0.19193155281E+02 -0.20404805389E+01 -0.21038487544E+02  0.96449015277E+02  0.92126292769E+02 0.  0.
         11    1    3    3    0    0  0.51760756781E+02 -0.21465588172E+02 -0.15387014930E+02  0.58109445418E+02  0.51100000000E-03 0.  1.
         22    1    1    0    0    0 -0.19193155281E+02  0.20404805389E+01  0.21038487544E+02  0.28550984723E+02  0.00000000000E+00 0.  1.
</event>
<event>
 5    1  0.1659417E-003  0.9118800E+02  0.7818608E-02  0.1130116E+00
         25   -1    0    0    0    0  0.00000000000E+00  0.00000000000E+00  0.99999998245E-14  0.12500000000E+03  0.12500000000E+03 0.  0.
        -11    1    3    3    0    0  0.37115046025E+02 -0.17942134795E+02  0.33163450387E+01  0.41357526366E+02  0.51100000000E-03 0.  1.
         23    2    1    0    0    0 -0.66564900823E+01 -0.26213422807E+01  0.29521094249E+02  0.94624429204E+02  0.89616445483E+02 0.  0.
         11    1    3    3    0    0 -0.43771536107E+02  0.15320792515E+02  0.26204749210E+02  0.53266902837E+02  0.51100000000E-03 0. -1.
         22    1    1    0    0    0  0.66564900823E+01  0.26213422807E+01 -0.29521094249E+02  0.30375570796E+02  0.00000000000E+00 0.  1.
</event>
<event>
 5    1  0.1659417E-003  0.9118800E+02  0.7818608E-02  0.1130116E+00
         25   -1    0    0    0    0  0.00000000000E+00  0.00000000000E+00  0.99999998245E-14  0.12500000000E+03  0.12500000000E+03 0.  0.
        -11    1    3    3    0    0 -0.72468631131E+01  0.50735678846E+01  0.57920567666E+02  0.58592237327E+02  0.51100000000E-03 0.  1.
         23    2    1    0    0    0 -0.37647793005E+01  0.17561530874E+02  0.23158944284E+02  0.95692703465E+02  0.91094324007E+02 0.  0.
         11    1    3    3    0    0  0.34820838126E+01  0.12487962989E+02 -0.34761623381E+02  0.37100466138E+02  0.51100000000E-03 0. -1.
         22    1    1    0    0    0  0.37647793005E+01 -0.17561530874E+02 -0.23158944284E+02  0.29307296535E+02  0.00000000000E+00 0.  1.
</event>
<event>
 5    1  0.1659417E-003  0.9118800E+02  0.7818608E-02  0.1130116E+00
         25   -1    0    0    0    0  0.00000000000E+00  0.00000000000E+00  0.99999998245E-14  0.12500000000E+03  0.12500000000E+03 0.  0.
        -11    1    3    3    0    0  0.41652115427E+02 -0.33621561200E+02 -0.83631039267E+01  0.54177943894E+02  0.51100000000E-03 0.  1.
         23    2    1    0    0    0  0.21065410266E+02 -0.39977559333E+01 -0.23400930949E+02  0.93261425183E+02  0.87694676553E+02 0.  0.
         11    1    3    3    0    0 -0.20586705161E+02  0.29623805266E+02 -0.15037827022E+02  0.39083481289E+02  0.51100000000E-03 0. -1.
         22    1    1    0    0    0 -0.21065410266E+02  0.39977559333E+01  0.23400930949E+02  0.31738574817E+02  0.00000000000E+00 0.  1.
</event>
<event>
 5    1  0.1659417E-003  0.9118800E+02  0.7818608E-02  0.1130116E+00
         25   -1    0    0    0    0  0.00000000000E+00  0.00000000000E+00  0.99999998245E-14  0.12500000000E+03  0.12500000000E+03 0.  0.
        -11    1    3    3    0    0 -0.27967935594E+02 -0.28751022127E+02 -0.99024640754E+01  0.41314470706E+02  0.51100000000E-03 0. -1.
         23    2    1    0    0    0 -0.65147561401E+01  0.19629140393E+02 -0.21148550041E+02  0.95419493430E+02  0.90718649447E+02 0.  0.
         11    1    3    3    0    0  0.21453179454E+02  0.48380162520E+02 -0.11246085965E+02  0.54105022723E+02  0.51100000000E-03 0.  1.
         22    1    1    0    0    0  0.65147561401E+01 -0.19629140393E+02  0.21148550041E+02  0.29580506570E+02  0.00000000000E+00 0.  1.
</event>
<event>
 5    1  0.1659417E-003  0.9118800E+02  0.7818608E-02  0.1130116E+00
         25   -1    0    0    0    0  0.00000000000E+00  0.00000000000E+00  0.99999998245E-14  0.12500000000E+03  0.12500000000E+03 0.  0.
        -11    1    3    3    0    0 -0.17727377432E+02  0.39377168021E+01  0.53587046763E+02  0.56580359713E+02  0.51100000000E-03 0.  1.
         23    2    1    0    0    0 -0.92278308996E+01  0.54630868628E+01 -0.30333903136E+01  0.11385551087E+03  0.11330877158E+03 0.  0.
         11    1    3    3    0    0  0.84995465322E+01  0.15253700608E+01 -0.56620437076E+02  0.57275151157E+02  0.51100000000E-03 0. -1.
         22    1    1    0    0    0  0.92278308996E+01 -0.54630868628E+01  0.30333903136E+01  0.11144489130E+02  0.00000000000E+00 0. -1.
</event>
<event>
 5    1  0.1659417E-003  0.9118800E+02  0.7818608E-02  0.1130116E+00
         25   -1    0    0    0    0  0.00000000000E+00  0.00000000000E+00  0.99999998245E-14  0.12500000000E+03  0.12500000000E+03 0.  0.
        -11    1    3    3    0    0  0.16751632724E+02 -0.26789147782E+02 -0.14221392391E+02  0.34648573414E+02  0.51100000000E-03 0. -1.
         23    2    1    0    0    0 -0.24261414249E+02  0.13506308150E+02  0.77044671080E+01  0.96183418062E+02  0.91765214081E+02 0.  0.
         11    1    3    3    0    0 -0.41013046972E+02  0.40295455933E+02  0.21925859499E+02  0.61534844648E+02  0.51100000000E-03 0.  1.
         22    1    1    0    0    0  0.24261414249E+02 -0.13506308150E+02 -0.77044671080E+01  0.28816581938E+02  0.00000000000E+00 0.  1.
</event>
<event>
 5    1  0.1659417E-003  0.9118800E+02  0.7818608E-02  0.1130116E+00
         25   -1    0    0    0    0  0.00000000000E+00  0.00000000000E+00  0.99999998245E-14  0.12500000000E+03  0.12500000000E+03 0.  0.
        -11    1    3    3    0    0 -0.12085058082E+02 -0.21169973864E+01 -0.52874833632E+02  0.54279630974E+02  0.51100000000E-03 0. -1.
         23    2    1    0    0    0 -0.24566861775E+02  0.91148232612E+00 -0.11022834459E+02  0.98058129667E+02  0.94284316919E+02 0.  0.
         11    1    3    3    0    0 -0.12481803693E+02  0.30284797125E+01  0.41851999173E+02  0.43778498693E+02  0.51100000000E-03 0.  1.
         22    1    1    0    0    0  0.24566861775E+02 -0.91148232612E+00  0.11022834459E+02  0.26941870333E+02  0.00000000000E+00 0. -1.
</event>
<event>
 5    1  0.1659417E-003  0.9118800E+02  0.7818608E-02  0.1130116E+00
         25   -1    0    0    0    0  0.00000000000E+00  0.00000000000E+00  0.99999998245E-14  0.12500000000E+03  0.12500000000E+03 0.  0.
        -11    1    3    3    0    0 -0.19096786860E+02  0.16488881998E+02 -0.52806171138E+02  0.58524031034E+02  0.51100000000E-03 0. -1.
         23    2    1    0    0    0  0.30548575687E+01 -0.15771410996E+01 -0.29206588116E+02  0.95591764450E+02  0.90955709620E+02 0.  0.
         11    1    3    3    0    0  0.22151644429E+02 -0.18066023098E+02  0.23599583022E+02  0.37067733416E+02  0.51100000000E-03 0.  1.
         22    1    1    0    0    0 -0.30548575687E+01  0.15771410996E+01  0.29206588116E+02  0.29408235550E+02  0.00000000000E+00 0. -1.
</event>
<event>
 5    1  0.1659417E-003  0.9118800E+02  0.7818608E-02  0.1130116E+00
         25   -1    0    0    0    0  0.00000000000E+00  0.00000000000E+00  0.99999998245E-14  0.12500000000E+03  0.12500000000E+03 0.  0.
        -11    1    3    3    0    0 -0.34012980309E+02 -0.11654627661E+02 -0.14300792060E+02  0.38694002497E+02  0.51100000000E-03 0.  1.
         23    2    1    0    0    0  0.11411164053E+01  0.21261270068E+02  0.18361692149E+02  0.96884248363E+02  0.92714950741E+02 0.  0.
         11    1    3    3    0    0  0.35154096714E+02  0.32915897728E+02  0.32662484209E+02  0.58190245867E+02  0.51100000000E-03 0. -1.
         22    1    1    0    0    0 -0.11411164053E+01 -0.21261270068E+02 -0.18361692149E+02  0.28115751637E+02  0.00000000000E+00 0. -1.
</event>
<event>
 5    1  0.1659417E-003  0.9118800E+02  0.7818608E-02  0.1130116E+00
         25   -1    0    0    0    0  0.00000000000E+00  0.00000000000E+00  0.99999998245E-14  0.12500000000E+03  0.12500000000E+03 0.  0.
        -11    1    3    3    0    0 -0.33676761150E+02  0.72380897832E+01  0.51717482606E+02  0.62138652968E+02  0.51100000000E-03 0.  1.
         23    2    1    0    0    0 -0.19776872420E+02  0.26954249105E+01  0.21775254939E+02  0.95461013460E+02  0.90775841306E+02 0.  0.
         11    1    3    3    0    0  0.13899888730E+02 -0.45426648727E+01 -0.29942227667E+02  0.33322360492E+02  0.51100000000E-03 0. -1.
         22    1    1    0    0    0  0.19776872420E+02 -0.26954249105E+01 -0.21775254939E+02  0.29538986540E+02  0.00000000000E+00 0.  1.
</event>
<event>
 5    1  0.1659417E-003  0.9118800E+02  0.7818608E-02  0.1130116E+00
         25   -1    0    0    0    0  0.00000000000E+00  0.00000000000E+00  0.99999998245E-14  0.12500000000E+03  0.12500000000E+03 0.  0.
        -11    1    3    3    0    0  0.30049970490E+02  0.17562356883E+02  0.54770843681E+01  0.35234011398E+02  0.51100000000E-03 0. -1.
         23    2    1    0    0    0 -0.23475250270E+02 -0.10935652057E+02  0.12436836422E+02  0.96271081445E+02  0.91884549089E+02 0.  0.
         11    1    3    3    0    0 -0.53525220760E+02 -0.28498008941E+02  0.69597520539E+01  0.61037070047E+02  0.51100000000E-03 0.  1.
         22    1    1    0    0    0  0.23475250270E+02  0.10935652057E+02 -0.12436836422E+02  0.28728918555E+02  0.00000000000E+00 0.  1.
</event>
<event>
 5    1  0.1659417E-003  0.9118800E+02  0.7818608E-02  0.1130116E+00
         25   -1    0    0    0    0  0.00000000000E+00  0.00000000000E+00  0.99999998245E-14  0.12500000000E+03  0.12500000000E+03 0.  0.
        -11    1    3    3    0    0  0.26923027034E+02  0.14122449599E+02 -0.77173309577E+01  0.31366385905E+02  0.51100000000E-03 0.  1.
         23    2    1    0    0    0 -0.22300820177E+02  0.40024250015E+01  0.24944805434E+02  0.91301494030E+02  0.84855014628E+02 0.  0.
         11    1    3    3    0    0 -0.49223847211E+02 -0.10120024597E+02  0.32662136391E+02  0.59935108126E+02  0.51100000000E-03 0. -1.
         22    1    1    0    0    0  0.22300820177E+02 -0.40024250015E+01 -0.24944805434E+02  0.33698505970E+02  0.00000000000E+00 0. -1.
</event>
<event>
 5    1  0.1659417E-003  0.9118800E+02  0.7818608E-02  0.1130116E+00
         25   -1    0    0    0    0  0.00000000000E+00  0.00000000000E+00  0.99999998245E-14  0.12500000000E+03  0.12500000000E+03 0.  0.
        -11    1    3    3    0    0  0.13051158414E+02 -0.26318979409E+02  0.19574726300E+02  0.35301435141E+02  0.51100000000E-03 0.  1.
         23    2    1    0    0    0 -0.23182791396E+02  0.18005445823E+02  0.51127118626E+00  0.95641878561E+02  0.91024555150E+02 0.  0.
         11    1    3    3    0    0 -0.36233949810E+02  0.44324425232E+02 -0.19063455113E+02  0.60340443420E+02  0.51100000000E-03 0. -1.
         22    1    1    0    0    0  0.23182791396E+02 -0.18005445823E+02 -0.51127118626E+00  0.29358121439E+02  0.00000000000E+00 0. -1.
</event>
<event>
 5    1  0.1659417E-003  0.9118800E+02  0.7818608E-02  0.1130116E+00
         25   -1    0    0    0    0  0.00000000000E+00  0.00000000000E+00  0.99999998245E-14  0.12500000000E+03  0.12500000000E+03 0.  0.
        -11    1    3    3    0    0  0.47828502864E+02 -0.34043061847E+01 -0.18987815743E+02  0.51572203112E+02  0.51100000000E-03 0. -1.
         23    2    1    0    0    0  0.10769774237E+02  0.21104174921E+02 -0.16607637707E+02  0.96065801093E+02  0.91604859441E+02 0.  0.
         11    1    3    3    0    0 -0.37058728627E+02  0.24508481105E+02  0.23801780361E+01  0.44493597981E+02  0.51100000000E-03 0.  1.
         22    1    1    0    0    0 -0.10769774237E+02 -0.21104174921E+02  0.16607637707E+02  0.28934198907E+02  0.00000000000E+00 0. -1.
</event>
<event>
 5    1  0.1659417E-003  0.9118800E+02  0.7818608E-02  0.1130116E+00
         25   -1    0    0    0    0  0.00000000000E+00  0.00000000000E+00  0.99999998245E-14  0.12500000000E+03  0.12500000000E+03 0.  0.
        -11    1    3    3    0    0 -0.19165591254E+02 -0.13033270889E+02  0.33082153436E+02  0.40393253327E+02  0.51100000000E-03 0. -1.
         23    2    1    0    0    0 -0.53298155431E+01  0.29687786859E+02  0.24780360238E+01  0.94735957230E+02  0.89771873699E+02 0.  0.
         11    1    3    3    0    0  0.13835775711E+02  0.42721057747E+02 -0.30604117412E+02  0.54342703902E+02  0.51100000000E-03 0.  1.
         22    1    1    0    0    0  0.53298155431E+01 -0.29687786859E+02 -0.24780360238E+01  0.30264042770E+02  0.00000000000E+00 0.  1.
</event>
<event>
 5    1  0.1659417E-003  0.9118800E+02  0.7818608E-02  0.1130116E+00
         25   -1    0    0    0    0  0.00000000000E+00  0.00000000000E+00  0.99999998245E-14  0.12500000000E+03  0.12500000000E+03 0.  0.
        -11    1    3    3    0    0 -0.44530665977E+02  0.41729744359E+01 -0.38464458123E+02  0.58990748994E+02  0.51100000000E-03 0. -1.
         23    2    1    0    0    0 -0.12940419331E+02 -0.74950771542E+01 -0.26203601671E+02  0.94829494957E+02  0.89902022999E+02 0.  0.
         11    1    3    3    0    0  0.31590246645E+02 -0.11668051590E+02  0.12260856452E+02  0.35838745963E+02  0.51100000000E-03 0.  1.
         22    1    1    0    0    0  0.12940419331E+02  0.74950771542E+01  0.26203601671E+02  0.30170505043E+02  0.00000000000E+00 0. -1.
</event>
<event>
 5    1  0.1659417E-003  0.9118800E+02  0.7818608E-02  0.1130116E+00
         25   -1    0    0    0    0  0.00000000000E+00  0.00000000000E+00  0.99999998245E-14  0.12500000000E+03  0.12500000000E+03 0.  0.
        -11    1    3    3    0    0  0.40267243489E+02  0.74431197609E+01 -0.46253095458E+02  0.61775397770E+02  0.51100000000E-03 0. -1.
         23    2    1    0    0    0  0.21555758481E+02 -0.21300067081E+01 -0.19036984528E+02  0.96162620920E+02  0.91736880424E+02 0.  0.
         11    1    3    3    0    0 -0.18711485007E+02 -0.95731264690E+01  0.27216110930E+02  0.34387223150E+02  0.51100000000E-03 0.  1.
         22    1    1    0    0    0 -0.21555758481E+02  0.21300067081E+01  0.19036984528E+02  0.28837379080E+02  0.00000000000E+00 0. -1.
</event>
<event>
 5    1  0.1659417E-003  0.9118800E+02  0.7818608E-02  0.1130116E+00
         25   -1    0    0    0    0  0.00000000000E+00  0.00000000000E+00  0.99999998245E-14  0.12500000000E+03  0.12500000000E+03 0.  0.
        -11    1    3    3    0    0  0.12813490473E+02 -0.79560853722E+01  0.34085593262E+02  0.37273482542E+02  0.51100000000E-03 0.  1.
         23    2    1    0    0    0  0.16449569234E+02  0.17061158168E+02 -0.18046437132E+02  0.95211657663E+02  0.90431821920E+02 0.  0.
         11    1    3    3    0    0  0.36360787603E+01  0.25017243540E+02 -0.52132030394E+02  0.57938175121E+02  0.51100000000E-03 0. -1.
         22    1    1    0    0    0 -0.16449569234E+02 -0.17061158168E+02  0.18046437132E+02  0.29788342337E+02  0.00000000000E+00 0. -1.
</event>
<event>
 5    1  0.1659417E-003  0.9118800E+02  0.7818608E-02  0.1130116E+00
         25   -1    0    0    0    0  0.00000000000E+00  0.00000000000E+00  0.99999998245E-14  0.12500000000E+03  0.12500000000E+03 0.  0.
        -11    1    3    3    0    0 -0.36769646809E+01 -0.94468597094E+01 -0.56874525500E+02  0.57770882620E+02  0.51100000000E-03 0. -1.
         23    2    1    0    0    0 -0.11261411316E+02  0.98803916807E+01 -0.26389679032E+02  0.94654379492E+02  0.89658211408E+02 0.  0.
         11    1    3    3    0    0 -0.75844466349E+01  0.19327251390E+02  0.30484846468E+02  0.36883496871E+02  0.51100000000E-03 0.  1.
         22    1    1    0    0    0  0.11261411316E+02 -0.98803916807E+01  0.26389679032E+02  0.30345620508E+02  0.00000000000E+00 0. -1.
</event>
<event>
 5    1  0.1659417E-003  0.9118800E+02  0.7818608E-02  0.1130116E+00
         25   -1    0    0    0    0  0.00000000000E+00  0.00000000000E+00  0.99999998245E-14  0.12500000000E+03  0.12500000000E+03 0.  0.
        -11    1    3    3    0    0 -0.19484628781E+02  0.24428286848E+02 -0.38951210719E+02  0.49935846581E+02  0.51100000000E-03 0.  1.
         23    2    1    0    0    0  0.13930543895E+02 -0.31457855496E+01 -0.26306940980E+02  0.95066554430E+02  0.90231029073E+02 0.  0.
         11    1    3    3    0    0  0.33415172675E+02 -0.27574072398E+02  0.12644269739E+02  0.45130707849E+02  0.51100000000E-03 0. -1.
         22    1    1    0    0    0 -0.13930543895E+02  0.31457855496E+01  0.26306940980E+02  0.29933445570E+02  0.00000000000E+00 0.  1.
</event>
<event>
 5    1  0.1659417E-003  0.9118800E+02  0.7818608E-02  0.1130116E+00
         25   -1    0    0    0    0  0.00000000000E+00  0.00000000000E+00  0.99999998245E-14  0.12500000000E+03  0.12500000000E+03 0.  0.
        -11    1    3    3    0    0 -0.31244622518E+02  0.85140623679E+00  0.42857532628E+02  0.53044504259E+02  0.51100000000E-03 0. -1.
         23    2    1    0    0    0 -0.69223524058E+01  0.23035065910E+02  0.12193420080E+02  0.98033118135E+02  0.94251151365E+02 0.  0.
         11    1    3    3    0    0  0.24322270112E+02  0.22183659673E+02 -0.30664112547E+02  0.44988613876E+02  0.51100000000E-03 0.  1.
         22    1    1    0    0    0  0.69223524058E+01 -0.23035065910E+02 -0.12193420080E+02  0.26966881865E+02  0.00000000000E+00 0. -1.
</event>
<event>
 5    1  0.1659417E-003  0.9118800E+02  0.7818608E-02  0.1130116E+00
         25   -1    0    0    0    0  0.00000000000E+00  0.00000000000E+00  0.99999998245E-14  0.12500000000E+03  0.12500000000E+03 0.  0.
        -11    1    3    3    0    0  0.61039075593E+00 -0.94589071388E+01  0.34638319116E+02  0.35911789882E+02  0.51100000000E-03 0. -1.
         23    2    1    0    0    0 -0.69591319265E+01  0.23009524142E+02 -0.15699329997E+02  0.96288735995E+02  0.91908563251E+02 0.  0.
         11    1    3    3    0    0 -0.75695226824E+01  0.32468431280E+02 -0.50337649113E+02  0.60376946113E+02  0.51100000000E-03 0.  1.
         22    1    1    0    0    0  0.69591319265E+01 -0.23009524142E+02  0.15699329997E+02  0.28711264005E+02  0.00000000000E+00 0.  1.
</event>
<event>
 5    1  0.1659417E-003  0.9118800E+02  0.7818608E-02  0.1130116E+00
         25   -1    0    0    0    0  0.00000000000E+00  0.00000000000E+00  0.99999998245E-14  0.12500000000E+03  0.12500000000E+03 0.  0.
        -11    1    3    3    0    0 -0.29102936632E+02 -0.38957144047E+02  0.13877753444E+02  0.50569081797E+02  0.51100000000E-03 0.  1.
         23    2    1    0    0    0 -0.13879229556E+02 -0.12675824348E+02 -0.20999258738E+02  0.96817054740E+02  0.92624314761E+02 0.  0.
         11    1    3    3    0    0  0.15223707075E+02  0.26281319699E+02 -0.34877012182E+02  0.46247972942E+02  0.51100000000E-03 0. -1.
         22    1    1    0    0    0  0.13879229556E+02  0.12675824348E+02  0.20999258738E+02  0.28182945260E+02  0.00000000000E+00 0.  1.
</event>
<event>
 5    1  0.1659417E-003  0.9118800E+02  0.7818608E-02  0.1130116E+00
         25   -1    0    0    0    0  0.00000000000E+00  0.00000000000E+00  0.99999998245E-14  0.12500000000E+03  0.12500000000E+03 0.  0.
        -11    1    3    3    0    0 -0.39835871679E+02 -0.11820238104E+02  0.21876911969E+02  0.46959705907E+02  0.51100000000E-03 0.  1.
         23    2    1    0    0    0 -0.10075266378E+02 -0.10469639018E+02 -0.21178066090E+02  0.99316643190E+02  0.95938317670E+02 0.  0.
         11    1    3    3    0    0  0.29760605300E+02  0.13505990869E+01 -0.43054978059E+02  0.52356937283E+02  0.51100000000E-03 0. -1.
         22    1    1    0    0    0  0.10075266378E+02  0.10469639018E+02  0.21178066090E+02  0.25683356810E+02  0.00000000000E+00 0.  1.
</event>
<event>
 5    1  0.1659417E-003  0.9118800E+02  0.7818608E-02  0.1130116E+00
         25   -1    0    0    0    0  0.00000000000E+00  0.00000000000E+00  0.99999998245E-14  0.12500000000E+03  0.12500000000E+03 0.  0.
        -11    1    3    3    0    0  0.42213772814E+02 -0.27229516317E+02  0.21885829932E+02  0.54794513650E+02  0.51100000000E-03 0.  1.
         23    2    1    0    0    0  0.89257190767E+01 -0.34287105219E+01  0.27301221363E+02  0.96072829299E+02  0.91614449323E+02 0.  0.
         11    1    3    3    0    0 -0.33288053738E+02  0.23800805796E+02  0.54153914307E+01  0.41278315648E+02  0.51100000000E-03 0. -1.
         22    1    1    0    0    0 -0.89257190767E+01  0.34287105219E+01 -0.27301221363E+02  0.28927170701E+02  0.00000000000E+00 0.  1.
</event>
<event>
 5    1  0.1659417E-003  0.9118800E+02  0.7818608E-02  0.1130116E+00
         25   -1    0    0    0    0  0.00000000000E+00  0.00000000000E+00  0.99999998245E-14  0.12500000000E+03  0.12500000000E+03 0.  0.
        -11    1    3    3    0    0  0.52074852610E+02 -0.25833267882E+02  0.18542230896E+02  0.61016082557E+02  0.51100000000E-03 0. -1.
         23    2    1    0    0    0  0.21427569919E+02 -0.21103831051E+02  0.68692852536E+01  0.94150372490E+02  0.88952757812E+02 0.  0.
         11    1    3    3    0    0 -0.30647282691E+02  0.47294368314E+01 -0.11672945642E+02  0.33134289932E+02  0.51100000000E-03 0.  1.
         22    1    1    0    0    0 -0.21427569919E+02  0.21103831051E+02 -0.68692852536E+01  0.30849627510E+02  0.00000000000E+00 0. -1.
</event>
<event>
 5    1  0.1659417E-003  0.9118800E+02  0.7818608E-02  0.1130116E+00
         25   -1    0    0    0    0  0.00000000000E+00  0.00000000000E+00  0.99999998245E-14  0.12500000000E+03  0.12500000000E+03 0.  0.
        -11    1    3    3    0    0  0.26411031905E+01  0.34237978465E+02  0.14745912850E+01  0.34371340026E+02  0.51100000000E-03 0. -1.
         23    2    1    0    0    0 -0.66028040421E+01 -0.27311389925E+02  0.37505268267E+01  0.96652592847E+02  0.92402100689E+02 0.  0.
         11    1    3    3    0    0 -0.92439072326E+01 -0.61549368390E+02  0.22759355417E+01  0.62281252821E+02  0.51100000000E-03 0.  1.
         22    1    1    0    0    0  0.66028040421E+01  0.27311389925E+02 -0.37505268267E+01  0.28347407153E+02  0.00000000000E+00 0.  1.
</event>
<event>
 5    1  0.1659417E-003  0.9118800E+02  0.7818608E-02  0.1130116E+00
         25   -1    0    0    0    0  0.00000000000E+00  0.00000000000E+00  0.99999998245E-14  0.12500000000E+03  0.12500000000E+03 0.  0.
        -11    1    3    3    0    0  0.35451046219E+02 -0.47602786435E+01 -0.81658091426E+01  0.36689472196E+02  0.51100000000E-03 0.  1.
         23    2    1    0    0    0 -0.21293852539E+02  0.12219527259E+02 -0.14867531914E+02  0.96298283892E+02  0.91921547925E+02 0.  0.
         11    1    3    3    0    0 -0.56744898757E+02  0.16979805902E+02 -0.67017227710E+01  0.59608811696E+02  0.51100000000E-03 0. -1.
         22    1    1    0    0    0  0.21293852539E+02 -0.12219527259E+02  0.14867531914E+02  0.28701716108E+02  0.00000000000E+00 0. -1.
</event>
<event>
 5    1  0.1659417E-003  0.9118800E+02  0.7818608E-02  0.1130116E+00
         25   -1    0    0    0    0  0.00000000000E+00  0.00000000000E+00  0.99999998245E-14  0.12500000000E+03  0.12500000000E+03 0.  0.
        -11    1    3    3    0    0 -0.10586823282E+02  0.21855327892E+02 -0.53453821333E+02  0.58711559337E+02  0.51100000000E-03 0. -1.
         23    2    1    0    0    0 -0.14865330912E+02 -0.18988768292E+01 -0.22560083362E+02  0.97916035045E+02  0.94095742525E+02 0.  0.
         11    1    3    3    0    0 -0.42785076304E+01 -0.23754204721E+02  0.30893737971E+02  0.39204475708E+02  0.51100000000E-03 0.  1.
         22    1    1    0    0    0  0.14865330912E+02  0.18988768292E+01  0.22560083362E+02  0.27083964955E+02  0.00000000000E+00 0. -1.
</event>
<event>
 5    1  0.1659417E-003  0.9118800E+02  0.7818608E-02  0.1130116E+00
         25   -1    0    0    0    0  0.00000000000E+00  0.00000000000E+00  0.99999998245E-14  0.12500000000E+03  0.12500000000E+03 0.  0.
        -11    1    3    3    0    0  0.13366148964E+02  0.29489153920E+01  0.34333899309E+02  0.36961692090E+02  0.51100000000E-03 0.  1.
         23    2    1    0    0    0  0.11919472588E+02 -0.34250850238E+02 -0.15947644703E+01  0.88699341018E+02  0.80931052474E+02 0.  0.
         11    1    3    3    0    0 -0.14466763754E+01 -0.37199765630E+02 -0.35928663779E+02  0.51737648929E+02  0.51100000000E-03 0. -1.
         22    1    1    0    0    0 -0.11919472588E+02  0.34250850238E+02  0.15947644703E+01  0.36300658982E+02  0.00000000000E+00 0. -1.
</event>
<event>
 5    1  0.1659417E-003  0.9118800E+02  0.7818608E-02  0.1130116E+00
         25   -1    0    0    0    0  0.00000000000E+00  0.00000000000E+00  0.99999998245E-14  0.12500000000E+03  0.12500000000E+03 0.  0.
        -11    1    3    3    0    0 -0.31103076431E+02  0.46356949671E+01  0.13678977999E+02  0.34292936163E+02  0.51100000000E-03 0. -1.
         23    2    1    0    0    0  0.27599945167E+02 -0.23177892946E+01 -0.61217303660E+01  0.96634445130E+02  0.92377547501E+02 0.  0.
         11    1    3    3    0    0  0.58703021598E+02 -0.69534842617E+01 -0.19800708365E+02  0.62341508966E+02  0.51100000000E-03 0.  1.
         22    1    1    0    0    0 -0.27599945167E+02  0.23177892946E+01  0.61217303660E+01  0.28365554870E+02  0.00000000000E+00 0.  1.
</event>
<event>
 5    1  0.1659417E-003  0.9118800E+02  0.7818608E-02  0.1130116E+00
         25   -1    0    0    0    0  0.00000000000E+00  0.00000000000E+00  0.99999998245E-14  0.12500000000E+03  0.12500000000E+03 0.  0.
        -11    1    3    3    0    0 -0.50375185254E+02 -0.53768198661E+00 -0.30308105798E+02  0.58792258577E+02  0.51100000000E-03 0. -1.
         23    2    1    0    0    0 -0.13050526852E+02 -0.18774324445E+01 -0.25293759600E+02  0.96476057804E+02  0.92162977659E+02 0.  0.
         11    1    3    3    0    0  0.37324658402E+02 -0.13397504579E+01  0.50143461975E+01  0.37683799226E+02  0.51100000000E-03 0.  1.
         22    1    1    0    0    0  0.13050526852E+02  0.18774324445E+01  0.25293759600E+02  0.28523942196E+02  0.00000000000E+00 0. -1.
</event>
<event>
 5    1  0.1659417E-003  0.9118800E+02  0.7818608E-02  0.1130116E+00
         25   -1    0    0    0    0  0.00000000000E+00  0.00000000000E+00  0.99999998245E-14  0.12500000000E+03  0.12500000000E+03 0.  0.
        -11    1    3    3    0    0 -0.46578477630E+01 -0.26066098305E+02  0.23809165841E+02  0.35609175853E+02  0.51100000000E-03 0.  1.
         23    2    1    0    0    0  0.97924380415E+01  0.27357388324E+02 -0.21530322772E+00  0.95942042498E+02  0.91435827905E+02 0.  0.
         11    1    3    3    0    0  0.14450285804E+02  0.53423486628E+02 -0.24024469069E+02  0.60332866645E+02  0.51100000000E-03 0. -1.
         22    1    1    0    0    0 -0.97924380415E+01 -0.27357388324E+02  0.21530322772E+00  0.29057957502E+02  0.00000000000E+00 0. -1.
</event>
<event>
 5    1  0.1659417E-003  0.9118800E+02  0.7818608E-02  0.1130116E+00
         25   -1    0    0    0    0  0.00000000000E+00  0.00000000000E+00  0.99999998245E-14  0.12500000000E+03  0.12500000000E+03 0.  0.
        -11    1    3    3    0    0  0.53802565674E+02  0.18916130754E+02  0.21661285916E+02  0.61006125788E+02  0.51100000000E-03 0. -1.
         23    2    1    0    0    0  0.31680612511E+02  0.61984456639E+01  0.30791476295E+01  0.92572186508E+02  0.86706670026E+02 0.  0.
         11    1    3    3    0    0 -0.22121953163E+02 -0.12717685090E+02 -0.18582138287E+02  0.31566060720E+02  0.51100000000E-03 0.  1.
         22    1    1    0    0    0 -0.31680612511E+02 -0.61984456639E+01 -0.30791476295E+01  0.32427813492E+02  0.00000000000E+00 0. -1.
</event>
<event>
 5    1  0.1659417E-003  0.9118800E+02  0.7818608E-02  0.1130116E+00
         25   -1    0    0    0    0  0.00000000000E+00  0.00000000000E+00  0.99999998245E-14  0.12500000000E+03  0.12500000000E+03 0.  0.
        -11    1    3    3    0    0  0.35494736570E+02 -0.49358209404E+00  0.47601759532E+02  0.59380530970E+02  0.51100000000E-03 0.  1.
         23    2    1    0    0    0  0.13484803249E+02 -0.13915924033E+02  0.21069376889E+02  0.96374635324E+02  0.92025316250E+02 0.  0.
         11    1    3    3    0    0 -0.22009933321E+02 -0.13422341939E+02 -0.26532382643E+02  0.36994104353E+02  0.51100000000E-03 0. -1.
         22    1    1    0    0    0 -0.13484803249E+02  0.13915924033E+02 -0.21069376889E+02  0.28625364676E+02  0.00000000000E+00 0.  1.
</event>
<event>
 5    1  0.1659417E-003  0.9118800E+02  0.7818608E-02  0.1130116E+00
         25   -1    0    0    0    0  0.00000000000E+00  0.00000000000E+00  0.99999998245E-14  0.12500000000E+03  0.12500000000E+03 0.  0.
        -11    1    3    3    0    0  0.38163319155E+02  0.71034936138E+01  0.78619669663E+01  0.39606932162E+02  0.51100000000E-03 0.  1.
         23    2    1    0    0    0 -0.17212860917E+02  0.14700312186E+02 -0.12556811115E+02  0.99114574280E+02  0.95674675698E+02 0.  0.
         11    1    3    3    0    0 -0.55376180072E+02  0.75968185724E+01 -0.20418778082E+02  0.59507642118E+02  0.51100000000E-03 0. -1.
         22    1    1    0    0    0  0.17212860917E+02 -0.14700312186E+02  0.12556811115E+02  0.25885425720E+02  0.00000000000E+00 0. -1.
</event>
<event>
 5    1  0.1659417E-003  0.9118800E+02  0.7818608E-02  0.1130116E+00
         25   -1    0    0    0    0  0.00000000000E+00  0.00000000000E+00  0.99999998245E-14  0.12500000000E+03  0.12500000000E+03 0.  0.
        -11    1    3    3    0    0  0.22397360283E+02 -0.44986015650E+02 -0.31326243657E+02  0.59217538733E+02  0.51100000000E-03 0.  1.
         23    2    1    0    0    0  0.18656479247E+02 -0.18039409053E+02 -0.23832283733E+01  0.98939219613E+02  0.95445297963E+02 0.  0.
         11    1    3    3    0    0 -0.37408810360E+01  0.26946606596E+02  0.28943015284E+02  0.39721680880E+02  0.51100000000E-03 0. -1.
         22    1    1    0    0    0 -0.18656479247E+02  0.18039409053E+02  0.23832283733E+01  0.26060780387E+02  0.00000000000E+00 0.  1.
</event>
<event>
 5    1  0.1659417E-003  0.9118800E+02  0.7818608E-02  0.1130116E+00
         25   -1    0    0    0    0  0.00000000000E+00  0.00000000000E+00  0.99999998245E-14  0.12500000000E+03  0.12500000000E+03 0.  0.
        -11    1    3    3    0    0 -0.31074941741E+02 -0.47282554644E+01 -0.17539491749E+02  0.35995029865E+02  0.51100000000E-03 0.  1.
         23    2    1    0    0    0  0.11583264730E+02 -0.10550243287E+02  0.24337174376E+02  0.96055610011E+02  0.91590952080E+02 0.  0.
         11    1    3    3    0    0  0.42658206471E+02 -0.58219878225E+01  0.41876666125E+02  0.60060580146E+02  0.51100000000E-03 0. -1.
         22    1    1    0    0    0 -0.11583264730E+02  0.10550243287E+02 -0.24337174376E+02  0.28944389989E+02  0.00000000000E+00 0. -1.
</event>
<event>
 5    1  0.1659417E-003  0.9118800E+02  0.7818608E-02  0.1130116E+00
         25   -1    0    0    0    0  0.00000000000E+00  0.00000000000E+00  0.99999998245E-14  0.12500000000E+03  0.12500000000E+03 0.  0.
        -11    1    3    3    0    0 -0.37905512073E+02  0.40331664193E+02  0.48916614456E+01  0.55564371085E+02  0.51100000000E-03 0. -1.
         23    2    1    0    0    0 -0.29453887691E+02  0.24582554343E+01  0.76577482702E+01  0.94467793586E+02  0.89397697938E+02 0.  0.
         11    1    3    3    0    0  0.84516243818E+01 -0.37873408759E+02  0.27660868246E+01  0.38903422501E+02  0.51100000000E-03 0.  1.
         22    1    1    0    0    0  0.29453887691E+02 -0.24582554343E+01 -0.76577482702E+01  0.30532206414E+02  0.00000000000E+00 0. -1.
</event>
<event>
 5    1  0.1659417E-003  0.9118800E+02  0.7818608E-02  0.1130116E+00
         25   -1    0    0    0    0  0.00000000000E+00  0.00000000000E+00  0.99999998245E-14  0.12500000000E+03  0.12500000000E+03 0.  0.
        -11    1    3    3    0    0 -0.23887308379E+02 -0.22867647542E+02  0.99337641045E+01  0.34528429956E+02  0.51100000000E-03 0. -1.
         23    2    1    0    0    0  0.17274133064E+02  0.17153675850E+02 -0.14213061126E+02  0.96810367600E+02  0.92615289775E+02 0.  0.
         11    1    3    3    0    0  0.41161441443E+02  0.40021323392E+02 -0.24146825230E+02  0.62281937644E+02  0.51100000000E-03 0.  1.
         22    1    1    0    0    0 -0.17274133064E+02 -0.17153675850E+02  0.14213061126E+02  0.28189632400E+02  0.00000000000E+00 0.  1.
</event>
<event>
 5    1  0.1659417E-003  0.9118800E+02  0.7818608E-02  0.1130116E+00
         25   -1    0    0    0    0  0.00000000000E+00  0.00000000000E+00  0.99999998245E-14  0.12500000000E+03  0.12500000000E+03 0.  0.
        -11    1    3    3    0    0  0.36531777912E+02 -0.29464658098E+02  0.74693224861E+01  0.47523969246E+02  0.51100000000E-03 0. -1.
         23    2    1    0    0    0 -0.10806104410E+02 -0.21566690454E+02  0.15702077386E+02  0.96217205420E+02  0.91811226737E+02 0.  0.
         11    1    3    3    0    0 -0.47337882321E+02  0.78979676448E+01  0.82327548996E+01  0.48693236174E+02  0.51100000000E-03 0.  1.
         22    1    1    0    0    0  0.10806104410E+02  0.21566690454E+02 -0.15702077386E+02  0.28782794580E+02  0.00000000000E+00 0. -1.
</event>
<event>
 5    1  0.1659417E-003  0.9118800E+02  0.7818608E-02  0.1130116E+00
         25   -1    0    0    0    0  0.00000000000E+00  0.00000000000E+00  0.99999998245E-14  0.12500000000E+03  0.12500000000E+03 0.  0.
        -11    1    3    3    0    0  0.25152505426E+01 -0.34895219973E+02  0.24425321075E+02  0.42668479844E+02  0.51100000000E-03 0.  1.
         23    2    1    0    0    0 -0.20230182232E+02 -0.97506008088E+01 -0.17457608044E+02  0.96555271703E+02  0.92270352366E+02 0.  0.
         11    1    3    3    0    0 -0.22745432775E+02  0.25144619165E+02 -0.41882929119E+02  0.53886791859E+02  0.51100000000E-03 0. -1.
         22    1    1    0    0    0  0.20230182232E+02  0.97506008088E+01  0.17457608044E+02  0.28444728297E+02  0.00000000000E+00 0. -1.
</event>
<event>
 5    1  0.1659417E-003  0.9118800E+02  0.7818608E-02  0.1130116E+00
         25   -1    0    0    0    0  0.00000000000E+00  0.00000000000E+00  0.99999998245E-14  0.12500000000E+03  0.12500000000E+03 0.  0.
        -11    1    3    3    0    0 -0.42685773450E+02  0.16012116500E+02 -0.32474799454E+02  0.55973884354E+02  0.51100000000E-03 0. -1.
         23    2    1    0    0    0 -0.25117263835E+02 -0.48036701130E+01  0.13369471612E+01  0.99392586683E+02  0.96037215030E+02 0.  0.
         11    1    3    3    0    0  0.17568509616E+02 -0.20815786613E+02  0.33811746615E+02  0.43418702328E+02  0.51100000000E-03 0.  1.
         22    1    1    0    0    0  0.25117263835E+02  0.48036701130E+01 -0.13369471612E+01  0.25607413317E+02  0.00000000000E+00 0. -1.
</event>
<event>
 5    1  0.1659417E-003  0.9118800E+02  0.7818608E-02  0.1130116E+00
         25   -1    0    0    0    0  0.00000000000E+00  0.00000000000E+00  0.99999998245E-14  0.12500000000E+03  0.12500000000E+03 0.  0.
        -11    1    3    3    0    0 -0.41127972442E+02  0.41717957052E+02 -0.39324033720E+00  0.58583723815E+02  0.51100000000E-03 0.  1.
         23    2    1    0    0    0 -0.18606955530E+02  0.17629580465E+02  0.15347289214E+02  0.95124254191E+02  0.90310927067E+02 0.  0.
         11    1    3    3    0    0  0.22521016912E+02 -0.24088376587E+02  0.15740529551E+02  0.36540530376E+02  0.51100000000E-03 0. -1.
         22    1    1    0    0    0  0.18606955530E+02 -0.17629580465E+02 -0.15347289214E+02  0.29875745809E+02  0.00000000000E+00 0.  1.
</event>
<event>
 5    1  0.1659417E-003  0.9118800E+02  0.7818608E-02  0.1130116E+00
         25   -1    0    0    0    0  0.00000000000E+00  0.00000000000E+00  0.99999998245E-14  0.12500000000E+03  0.12500000000E+03 0.  0.
        -11    1    3    3    0    0  0.25266767087E+02 -0.38679115171E+02 -0.24054597086E+02  0.52087494763E+02  0.51100000000E-03 0. -1.
         23    2    1    0    0    0 -0.65721617276E+00 -0.36271786062E+01 -0.28821026053E+02  0.95944193343E+02  0.91438768231E+02 0.  0.
         11    1    3    3    0    0 -0.25923983260E+02  0.35051936565E+02 -0.47664289673E+01  0.43856698580E+02  0.51100000000E-03 0.  1.
         22    1    1    0    0    0  0.65721617276E+00  0.36271786062E+01  0.28821026053E+02  0.29055806657E+02  0.00000000000E+00 0. -1.
</event>
<event>
 5    1  0.1659417E-003  0.9118800E+02  0.7818608E-02  0.1130116E+00
         25   -1    0    0    0    0  0.00000000000E+00  0.00000000000E+00  0.99999998245E-14  0.12500000000E+03  0.12500000000E+03 0.  0.
        -11    1    3    3    0    0  0.24631026632E+02  0.13964834707E+02 -0.18363678650E+02  0.33748018833E+02  0.51100000000E-03 0.  1.
         23    2    1    0    0    0 -0.26301545805E+02  0.78318802660E+01  0.13784925984E+02  0.94289515721E+02  0.89148073060E+02 0.  0.
         11    1    3    3    0    0 -0.50932572438E+02 -0.61329544410E+01  0.32148604634E+02  0.60541496888E+02  0.51100000000E-03 0. -1.
         22    1    1    0    0    0  0.26301545805E+02 -0.78318802660E+01 -0.13784925984E+02  0.30710484279E+02  0.00000000000E+00 0. -1.
</event>
<event>
 5    1  0.1659417E-003  0.9118800E+02  0.7818608E-02  0.1130116E+00
         25   -1    0    0    0    0  0.00000000000E+00  0.00000000000E+00  0.99999998245E-14  0.12500000000E+03  0.12500000000E+03 0.  0.
        -11    1    3    3    0    0 -0.46195880275E+02 -0.31004895709E+02  0.12949198330E+02  0.57123065831E+02  0.51100000000E-03 0. -1.
         23    2    1    0    0    0 -0.21839838724E+02 -0.13565373887E+02 -0.12484047886E+02  0.96419423102E+02  0.92086132374E+02 0.  0.
         11    1    3    3    0    0  0.24356041551E+02  0.17439521822E+02 -0.25433246216E+02  0.39296357271E+02  0.51100000000E-03 0.  1.
         22    1    1    0    0    0  0.21839838724E+02  0.13565373887E+02  0.12484047886E+02  0.28580576898E+02  0.00000000000E+00 0. -1.
</event>
<event>
 5    1  0.1659417E-003  0.9118800E+02  0.7818608E-02  0.1130116E+00
         25   -1    0    0    0    0  0.00000000000E+00  0.00000000000E+00  0.99999998245E-14  0.12500000000E+03  0.12500000000E+03 0.  0.
        -11    1    3    3    0    0 -0.34381185539E+02  0.22933713635E+02  0.45620554457E+02  0.61556934048E+02  0.51100000000E-03 0.  1.
         23    2    1    0    0    0 -0.26988977256E+02  0.17128377905E+02  0.24334192218E+02  0.84826138674E+02  0.74709669176E+02 0.  0.
         11    1    3    3    0    0  0.73922082821E+01 -0.58053357306E+01 -0.21286362240E+02  0.23269204625E+02  0.51100000000E-03 0. -1.
         22    1    1    0    0    0  0.26988977256E+02 -0.17128377905E+02 -0.24334192218E+02  0.40173861326E+02  0.00000000000E+00 0.  1.
</event>
<event>
 5    1  0.1659417E-003  0.9118800E+02  0.7818608E-02  0.1130116E+00
         25   -1    0    0    0    0  0.00000000000E+00  0.00000000000E+00  0.99999998245E-14  0.12500000000E+03  0.12500000000E+03 0.  0.
        -11    1    3    3    0    0  0.17013851924E+02  0.20453783529E+02  0.24577467065E+02  0.36219888260E+02  0.51100000000E-03 0.  1.
         23    2    1    0    0    0 -0.36604045062E+01 -0.57377631606E+00 -0.28136057528E+02  0.96621037481E+02  0.92359403259E+02 0.  0.
         11    1    3    3    0    0 -0.20674256431E+02 -0.21027559845E+02 -0.52713524593E+02  0.60401149222E+02  0.51100000000E-03 0. -1.
         22    1    1    0    0    0  0.36604045062E+01  0.57377631606E+00  0.28136057528E+02  0.28378962519E+02  0.00000000000E+00 0. -1.
</event>
<event>
 5    1  0.1659417E-003  0.9118800E+02  0.7818608E-02  0.1130116E+00
         25   -1    0    0    0    0  0.00000000000E+00  0.00000000000E+00  0.99999998245E-14  0.12500000000E+03  0.12500000000E+03 0.  0.
        -11    1    3    3    0    0  0.25656253808E+02  0.15309087683E+02  0.35445335083E+02  0.46357127872E+02  0.51100000000E-03 0.  1.
         23    2    1    0    0    0  0.21687676114E+02 -0.18560554488E+02 -0.12184601875E+01  0.96428438556E+02  0.92098369361E+02 0.  0.
         11    1    3    3    0    0 -0.39685776934E+01 -0.33869642171E+02 -0.36663795270E+02  0.50071310684E+02  0.51100000000E-03 0. -1.
         22    1    1    0    0    0 -0.21687676114E+02  0.18560554488E+02  0.12184601875E+01  0.28571561444E+02  0.00000000000E+00 0. -1.
</event>
<event>
 5    1  0.1659417E-003  0.9118800E+02  0.7818608E-02  0.1130116E+00
         25   -1    0    0    0    0  0.00000000000E+00  0.00000000000E+00  0.99999998245E-14  0.12500000000E+03  0.12500000000E+03 0.  0.
        -11    1    3    3    0    0  0.15542414550E+02 -0.14037984131E+01 -0.36481793248E+02  0.39679447311E+02  0.51100000000E-03 0. -1.
         23    2    1    0    0    0 -0.10142395144E+02 -0.26401293328E+02  0.68367784444E+01  0.95902955337E+02  0.91382377044E+02 0.  0.
         11    1    3    3    0    0 -0.25684809694E+02 -0.24997494915E+02  0.43318571692E+02  0.56223508026E+02  0.51100000000E-03 0.  1.
         22    1    1    0    0    0  0.10142395144E+02  0.26401293328E+02 -0.68367784444E+01  0.29097044663E+02  0.00000000000E+00 0.  1.
</event>
<event>
 5    1  0.1659417E-003  0.9118800E+02  0.7818608E-02  0.1130116E+00
         25   -1    0    0    0    0  0.00000000000E+00  0.00000000000E+00  0.99999998245E-14  0.12500000000E+03  0.12500000000E+03 0.  0.
        -11    1    3    3    0    0  0.11942257741E+02 -0.46436240813E+00 -0.39942130106E+02  0.41691808668E+02  0.51100000000E-03 0.  1.
         23    2    1    0    0    0  0.27807325572E+02 -0.17319187621E+01  0.10987617188E+02  0.95050465286E+02  0.90208737501E+02 0.  0.
         11    1    3    3    0    0  0.15865067831E+02 -0.12675563540E+01  0.50929747294E+02  0.53358656618E+02  0.51100000000E-03 0. -1.
         22    1    1    0    0    0 -0.27807325572E+02  0.17319187621E+01 -0.10987617188E+02  0.29949534714E+02  0.00000000000E+00 0. -1.
</event>
<event>
 5    1  0.1659417E-003  0.9118800E+02  0.7818608E-02  0.1130116E+00
         25   -1    0    0    0    0  0.00000000000E+00  0.00000000000E+00  0.99999998245E-14  0.12500000000E+03  0.12500000000E+03 0.  0.
        -11    1    3    3    0    0 -0.99183363878E+01 -0.30363501202E+02  0.82993001949E+01  0.33002939050E+02  0.51100000000E-03 0. -1.
         23    2    1    0    0    0  0.76395283786E+01  0.25535692085E+02 -0.12998380948E+02  0.95345457828E+02  0.90616579372E+02 0.  0.
         11    1    3    3    0    0  0.17557864766E+02  0.55899193287E+02 -0.21297681143E+02  0.62342518779E+02  0.51100000000E-03 0.  1.
         22    1    1    0    0    0 -0.76395283786E+01 -0.25535692085E+02  0.12998380948E+02  0.29654542172E+02  0.00000000000E+00 0.  1.
</event>
<event>
 5    1  0.1659417E-003  0.9118800E+02  0.7818608E-02  0.1130116E+00
         25   -1    0    0    0    0  0.00000000000E+00  0.00000000000E+00  0.99999998245E-14  0.12500000000E+03  0.12500000000E+03 0.  0.
        -11    1    3    3    0    0  0.34704271418E+02  0.15569870484E+02 -0.48770845666E+02  0.61849840006E+02  0.51100000000E-03 0.  1.
         23    2    1    0    0    0  0.21515399792E+02  0.73605034715E+01 -0.19259595865E+02  0.95200310866E+02  0.90416136373E+02 0.  0.
         11    1    3    3    0    0 -0.13188871626E+02 -0.82093670122E+01  0.29511249801E+02  0.33350470860E+02  0.51100000000E-03 0. -1.
         22    1    1    0    0    0 -0.21515399792E+02 -0.73605034715E+01  0.19259595865E+02  0.29799689134E+02  0.00000000000E+00 0.  1.
</event>
<event>
 5    1  0.1659417E-003  0.9118800E+02  0.7818608E-02  0.1130116E+00
         25   -1    0    0    0    0  0.00000000000E+00  0.00000000000E+00  0.99999998245E-14  0.12500000000E+03  0.12500000000E+03 0.  0.
        -11    1    3    3    0    0 -0.95025867123E+01  0.10180904324E+02 -0.45637519947E+02  0.47715125424E+02  0.51100000000E-03 0.  1.
         23    2    1    0    0    0 -0.16560077546E+02  0.20912363956E+02  0.31264448318E+01  0.98142267559E+02  0.94395799111E+02 0.  0.
         11    1    3    3    0    0 -0.70574908341E+01  0.10731459632E+02  0.48763964779E+02  0.50427142135E+02  0.51100000000E-03 0. -1.
         22    1    1    0    0    0  0.16560077546E+02 -0.20912363956E+02 -0.31264448318E+01  0.26857732441E+02  0.00000000000E+00 0. -1.
</event>
<event>
 5    1  0.1659417E-003  0.9118800E+02  0.7818608E-02  0.1130116E+00
         25   -1    0    0    0    0  0.00000000000E+00  0.00000000000E+00  0.99999998245E-14  0.12500000000E+03  0.12500000000E+03 0.  0.
        -11    1    3    3    0    0 -0.93072416839E+01  0.34750679109E+02 -0.81463128420E+01  0.36886269254E+02  0.51100000000E-03 0.  1.
         23    2    1    0    0    0 -0.16019348892E+02 -0.23169777849E+02  0.42926734380E+01  0.96506400899E+02  0.92204122602E+02 0.  0.
         11    1    3    3    0    0 -0.67121072078E+01 -0.57920456958E+02  0.12438986280E+02  0.59620131645E+02  0.51100000000E-03 0. -1.
         22    1    1    0    0    0  0.16019348892E+02  0.23169777849E+02 -0.42926734380E+01  0.28493599101E+02  0.00000000000E+00 0. -1.
</event>
<event>
 5    1  0.1659417E-003  0.9118800E+02  0.7818608E-02  0.1130116E+00
         25   -1    0    0    0    0  0.00000000000E+00  0.00000000000E+00  0.99999998245E-14  0.12500000000E+03  0.12500000000E+03 0.  0.
        -11    1    3    3    0    0 -0.19364342949E+02  0.34621272692E+02  0.12613297274E+02  0.41625780101E+02  0.51100000000E-03 0. -1.
         23    2    1    0    0    0  0.88518078667E+01 -0.10663211238E+02  0.25013896455E+02  0.96403608754E+02  0.92064663083E+02 0.  0.
         11    1    3    3    0    0  0.28216150815E+02 -0.45284483930E+02  0.12400599181E+02  0.54777828653E+02  0.51100000000E-03 0.  1.
         22    1    1    0    0    0 -0.88518078667E+01  0.10663211238E+02 -0.25013896455E+02  0.28596391246E+02  0.00000000000E+00 0.  1.
</event>
<event>
 5    1  0.1659417E-003  0.9118800E+02  0.7818608E-02  0.1130116E+00
         25   -1    0    0    0    0  0.00000000000E+00  0.00000000000E+00  0.99999998245E-14  0.12500000000E+03  0.12500000000E+03 0.  0.
        -11    1    3    3    0    0  0.86344279903E+01 -0.50467812601E+02  0.12176241292E+02  0.52629025335E+02  0.51100000000E-03 0. -1.
         23    2    1    0    0    0 -0.10057607054E+02 -0.21916268269E+02 -0.15300357073E+02  0.96441652690E+02  0.92116302426E+02 0.  0.
         11    1    3    3    0    0 -0.18692035044E+02  0.28551544332E+02 -0.27476598365E+02  0.43812627355E+02  0.51100000000E-03 0.  1.
         22    1    1    0    0    0  0.10057607054E+02  0.21916268269E+02  0.15300357073E+02  0.28558347310E+02  0.00000000000E+00 0.  1.
</event>
<event>
 5    1  0.1659417E-003  0.9118800E+02  0.7818608E-02  0.1130116E+00
         25   -1    0    0    0    0  0.00000000000E+00  0.00000000000E+00  0.99999998245E-14  0.12500000000E+03  0.12500000000E+03 0.  0.
        -11    1    3    3    0    0  0.31435416820E+02 -0.67256795956E+01  0.16329963416E+02  0.36056731717E+02  0.51100000000E-03 0.  1.
         23    2    1    0    0    0  0.14217759321E+01  0.19030159580E+02 -0.25189420603E+02  0.93398175199E+02  0.87889383885E+02 0.  0.
         11    1    3    3    0    0 -0.30013640888E+02  0.25755839175E+02 -0.41519384020E+02  0.57341443482E+02  0.51100000000E-03 0. -1.
         22    1    1    0    0    0 -0.14217759321E+01 -0.19030159580E+02  0.25189420603E+02  0.31601824801E+02  0.00000000000E+00 0. -1.
</event>
<event>
 5    1  0.1659417E-003  0.9118800E+02  0.7818608E-02  0.1130116E+00
         25   -1    0    0    0    0  0.00000000000E+00  0.00000000000E+00  0.99999998245E-14  0.12500000000E+03  0.12500000000E+03 0.  0.
        -11    1    3    3    0    0  0.25693865983E+02  0.12644452070E+02 -0.46170906238E+02  0.54330557704E+02  0.51100000000E-03 0.  1.
         23    2    1    0    0    0 -0.32495727678E+01 -0.97408262833E+01 -0.27984702350E+02  0.95190823804E+02  0.90403019590E+02 0.  0.
         11    1    3    3    0    0 -0.28943438751E+02 -0.22385278353E+02  0.18186203888E+02  0.40860266100E+02  0.51100000000E-03 0. -1.
         22    1    1    0    0    0  0.32495727678E+01  0.97408262833E+01  0.27984702350E+02  0.29809176196E+02  0.00000000000E+00 0.  1.
</event>
<event>
 5    1  0.1659417E-003  0.9118800E+02  0.7818608E-02  0.1130116E+00
         25   -1    0    0    0    0  0.00000000000E+00  0.00000000000E+00  0.99999998245E-14  0.12500000000E+03  0.12500000000E+03 0.  0.
        -11    1    3    3    0    0  0.43845043534E+02 -0.67082969279E+01  0.13529988096E+02  0.46372941122E+02  0.51100000000E-03 0. -1.
         23    2    1    0    0    0 -0.11042498938E+02 -0.91816844749E+01  0.18544984192E+02  0.10154458375E+03  0.98798511823E+02 0.  0.
         11    1    3    3    0    0 -0.54887542472E+02 -0.24733875470E+01  0.50149960966E+01  0.55171642632E+02  0.51100000000E-03 0.  1.
         22    1    1    0    0    0  0.11042498938E+02  0.91816844749E+01 -0.18544984192E+02  0.23455416246E+02  0.00000000000E+00 0. -1.
</event>
<event>
 5    1  0.1659417E-003  0.9118800E+02  0.7818608E-02  0.1130116E+00
         25   -1    0    0    0    0  0.00000000000E+00  0.00000000000E+00  0.99999998245E-14  0.12500000000E+03  0.12500000000E+03 0.  0.
        -11    1    3    3    0    0  0.48703111798E+02  0.32498744722E+02  0.70807327751E+01  0.58977099659E+02  0.51100000000E-03 0.  1.
         23    2    1    0    0    0  0.14891801898E+02  0.23175228492E+02  0.12988061746E+02  0.94544348187E+02  0.89504676117E+02 0.  0.
         11    1    3    3    0    0 -0.33811309899E+02 -0.93235162305E+01  0.59073289707E+01  0.35567248528E+02  0.51100000000E-03 0. -1.
         22    1    1    0    0    0 -0.14891801898E+02 -0.23175228492E+02 -0.12988061746E+02  0.30455651813E+02  0.00000000000E+00 0.  1.
</event>
<event>
 5    1  0.1659417E-003  0.9118800E+02  0.7818608E-02  0.1130116E+00
         25   -1    0    0    0    0  0.00000000000E+00  0.00000000000E+00  0.99999998245E-14  0.12500000000E+03  0.12500000000E+03 0.  0.
        -11    1    3    3    0    0 -0.11178366225E+02 -0.25297751062E+01 -0.61417804317E+02  0.62478014700E+02  0.51100000000E-03 0.  1.
         23    2    1    0    0    0 -0.62297023466E+01 -0.45090749245E+00 -0.29251701585E+02  0.95088889113E+02  0.90261964738E+02 0.  0.
         11    1    3    3    0    0  0.49486638780E+01  0.20788676138E+01  0.32166102732E+02  0.32610874413E+02  0.51100000000E-03 0. -1.
         22    1    1    0    0    0  0.62297023466E+01  0.45090749245E+00  0.29251701585E+02  0.29911110887E+02  0.00000000000E+00 0.  1.
</event>
<event>
 5    1  0.1659417E-003  0.9118800E+02  0.7818608E-02  0.1130116E+00
         25   -1    0    0    0    0  0.00000000000E+00  0.00000000000E+00  0.99999998245E-14  0.12500000000E+03  0.12500000000E+03 0.  0.
        -11    1    3    3    0    0 -0.82446022299E+01  0.38169919281E+02 -0.16246167110E+02  0.42294847793E+02  0.51100000000E-03 0.  1.
         23    2    1    0    0    0 -0.15604260261E+02  0.50510055899E+01  0.24625285820E+02  0.95412666604E+02  0.90709242368E+02 0.  0.
         11    1    3    3    0    0 -0.73596580312E+01 -0.33118913691E+02  0.40871452930E+02  0.53117818811E+02  0.51100000000E-03 0. -1.
         22    1    1    0    0    0  0.15604260261E+02 -0.50510055899E+01 -0.24625285820E+02  0.29587333396E+02  0.00000000000E+00 0. -1.
</event>
<event>
 5    1  0.1659417E-003  0.9118800E+02  0.7818608E-02  0.1130116E+00
         25   -1    0    0    0    0  0.00000000000E+00  0.00000000000E+00  0.99999998245E-14  0.12500000000E+03  0.12500000000E+03 0.  0.
        -11    1    3    3    0    0  0.50967452548E+01  0.46540782634E+02 -0.14162186812E+02  0.48914096086E+02  0.51100000000E-03 0. -1.
         23    2    1    0    0    0 -0.47341538425E+01  0.36253379848E+01 -0.29014709772E+02  0.95378915089E+02  0.90662719860E+02 0.  0.
         11    1    3    3    0    0 -0.98308990973E+01 -0.42915444649E+02 -0.14852522960E+02  0.46464819003E+02  0.51100000000E-03 0.  1.
         22    1    1    0    0    0  0.47341538425E+01 -0.36253379848E+01  0.29014709772E+02  0.29621084911E+02  0.00000000000E+00 0.  1.
</event>
<event>
 5    1  0.1659417E-003  0.9118800E+02  0.7818608E-02  0.1130116E+00
         25   -1    0    0    0    0  0.00000000000E+00  0.00000000000E+00  0.99999998245E-14  0.12500000000E+03  0.12500000000E+03 0.  0.
        -11    1    3    3    0    0 -0.24122670221E+02  0.28530814327E+02  0.87941440312E+00  0.37372235078E+02  0.51100000000E-03 0.  1.
         23    2    1    0    0    0  0.20894598457E+02  0.31543586483E+02  0.14467722336E+02  0.84492012115E+02  0.74148520071E+02 0.  0.
         11    1    3    3    0    0  0.45017268678E+02  0.30127721565E+01  0.13588307933E+02  0.47119777037E+02  0.51100000000E-03 0. -1.
         22    1    1    0    0    0 -0.20894598457E+02 -0.31543586483E+02 -0.14467722336E+02  0.40507987885E+02  0.00000000000E+00 0.  1.
</event>
<event>
 5    1  0.1659417E-003  0.9118800E+02  0.7818608E-02  0.1130116E+00
         25   -1    0    0    0    0  0.00000000000E+00  0.00000000000E+00  0.99999998245E-14  0.12500000000E+03  0.12500000000E+03 0.  0.
        -11    1    3    3    0    0 -0.11420338858E+02  0.25811447124E+02 -0.43565407796E+02  0.51909533797E+02  0.51100000000E-03 0. -1.
         23    2    1    0    0    0 -0.27722479535E+02  0.23430298759E+01 -0.11402071025E+02  0.94932860392E+02  0.90045627867E+02 0.  0.
         11    1    3    3    0    0 -0.16302140677E+02 -0.23468417248E+02  0.32163336771E+02  0.43023326595E+02  0.51100000000E-03 0.  1.
         22    1    1    0    0    0  0.27722479535E+02 -0.23430298759E+01  0.11402071025E+02  0.30067139608E+02  0.00000000000E+00 0. -1.
</event>
<event>
 5    1  0.1659417E-003  0.9118800E+02  0.7818608E-02  0.1130116E+00
         25   -1    0    0    0    0  0.00000000000E+00  0.00000000000E+00  0.99999998245E-14  0.12500000000E+03  0.12500000000E+03 0.  0.
        -11    1    3    3    0    0 -0.45716838489E+01 -0.30864540958E+02  0.24009368367E+02  0.39369657751E+02  0.51100000000E-03 0. -1.
         23    2    1    0    0    0 -0.24641044419E+02  0.15987530234E+02  0.19972772727E+00  0.95626166675E+02  0.91002976153E+02 0.  0.
         11    1    3    3    0    0 -0.20069360570E+02  0.46852071193E+02 -0.23809640639E+02  0.56256508924E+02  0.51100000000E-03 0.  1.
         22    1    1    0    0    0  0.24641044419E+02 -0.15987530234E+02 -0.19972772727E+00  0.29373833325E+02  0.00000000000E+00 0.  1.
</event>
<event>
 5    1  0.1659417E-003  0.9118800E+02  0.7818608E-02  0.1130116E+00
         25   -1    0    0    0    0  0.00000000000E+00  0.00000000000E+00  0.99999998245E-14  0.12500000000E+03  0.12500000000E+03 0.  0.
        -11    1    3    3    0    0 -0.23229635236E+02  0.19556409775E+02  0.11889751444E+02  0.32610355811E+02  0.51100000000E-03 0. -1.
         23    2    1    0    0    0  0.26972683922E+02  0.57394172622E+01 -0.17439802107E+02  0.92371587749E+02  0.86416994493E+02 0.  0.
         11    1    3    3    0    0  0.50202319158E+02 -0.13816992513E+02 -0.29329553550E+02  0.59761231938E+02  0.51100000000E-03 0.  1.
         22    1    1    0    0    0 -0.26972683922E+02 -0.57394172622E+01  0.17439802107E+02  0.32628412251E+02  0.00000000000E+00 0.  1.
</event>
<event>
 5    1  0.1659417E-003  0.9118800E+02  0.7818608E-02  0.1130116E+00
         25   -1    0    0    0    0  0.00000000000E+00  0.00000000000E+00  0.99999998245E-14  0.12500000000E+03  0.12500000000E+03 0.  0.
        -11    1    3    3    0    0 -0.27689265130E+02  0.30384808246E+02 -0.36349390318E+02  0.54874494552E+02  0.51100000000E-03 0.  1.
         23    2    1    0    0    0  0.47531118278E+01  0.26899129329E+02 -0.15571105177E+02  0.93557758554E+02  0.88116057779E+02 0.  0.
         11    1    3    3    0    0  0.32442376958E+02 -0.34856789174E+01  0.20778285141E+02  0.38683264002E+02  0.51100000000E-03 0. -1.
         22    1    1    0    0    0 -0.47531118278E+01 -0.26899129329E+02  0.15571105177E+02  0.31442241446E+02  0.00000000000E+00 0.  1.
</event>
<event>
 5    1  0.1659417E-003  0.9118800E+02  0.7818608E-02  0.1130116E+00
         25   -1    0    0    0    0  0.00000000000E+00  0.00000000000E+00  0.99999998245E-14  0.12500000000E+03  0.12500000000E+03 0.  0.
        -11    1    3    3    0    0  0.31135203873E+02  0.19171746730E+01  0.78684958201E+01  0.32171255892E+02  0.51100000000E-03 0.  1.
         23    2    1    0    0    0 -0.25037317404E+02 -0.11806418095E+02 -0.13983555735E+02  0.93987121998E+02  0.88723055061E+02 0.  0.
         11    1    3    3    0    0 -0.56172521276E+02 -0.13723592768E+02 -0.21852051555E+02  0.61815866106E+02  0.51100000000E-03 0. -1.
         22    1    1    0    0    0  0.25037317404E+02  0.11806418095E+02  0.13983555735E+02  0.31012878002E+02  0.00000000000E+00 0. -1.
</event>
<event>
 5    1  0.1659417E-003  0.9118800E+02  0.7818608E-02  0.1130116E+00
         25   -1    0    0    0    0  0.00000000000E+00  0.00000000000E+00  0.99999998245E-14  0.12500000000E+03  0.12500000000E+03 0.  0.
        -11    1    3    3    0    0 -0.76617245335E+01  0.37694436436E+02  0.16399130430E+02  0.41815117364E+02  0.51100000000E-03 0.  1.
         23    2    1    0    0    0 -0.51767879910E+01 -0.17796881113E+02  0.20315630133E+02  0.97499946565E+02  0.93541363263E+02 0.  0.
         11    1    3    3    0    0  0.24849365425E+01 -0.55491317549E+02  0.39164997033E+01  0.55684829201E+02  0.51100000000E-03 0. -1.
         22    1    1    0    0    0  0.51767879910E+01  0.17796881113E+02 -0.20315630133E+02  0.27500053435E+02  0.00000000000E+00 0. -1.
</event>
<event>
 5    1  0.1659417E-003  0.9118800E+02  0.7818608E-02  0.1130116E+00
         25   -1    0    0    0    0  0.00000000000E+00  0.00000000000E+00  0.99999998245E-14  0.12500000000E+03  0.12500000000E+03 0.  0.
        -11    1    3    3    0    0  0.27019788996E+02  0.71879966866E+00 -0.37602715067E+02  0.46309284717E+02  0.51100000000E-03 0.  1.
         23    2    1    0    0    0 -0.17238437136E+02 -0.94385393960E+01 -0.24541088976E+02  0.93559344966E+02  0.88118308209E+02 0.  0.
         11    1    3    3    0    0 -0.44258226131E+02 -0.10157339065E+02  0.13061626091E+02  0.47250060249E+02  0.51100000000E-03 0. -1.
         22    1    1    0    0    0  0.17238437136E+02  0.94385393960E+01  0.24541088976E+02  0.31440655034E+02  0.00000000000E+00 0.  1.
</event>
<event>
 5    1  0.1659417E-003  0.9118800E+02  0.7818608E-02  0.1130116E+00
         25   -1    0    0    0    0  0.00000000000E+00  0.00000000000E+00  0.99999998245E-14  0.12500000000E+03  0.12500000000E+03 0.  0.
        -11    1    3    3    0    0  0.10267141940E+02 -0.69775996265E+01 -0.29238601332E+02  0.31764711682E+02  0.51100000000E-03 0. -1.
         23    2    1    0    0    0 -0.24396830744E+02 -0.95489905275E+01  0.20002436323E+02  0.92038112474E+02  0.85933277131E+02 0.  0.
         11    1    3    3    0    0 -0.34663972684E+02 -0.25713909010E+01  0.49241037655E+02  0.60273400791E+02  0.51100000000E-03 0.  1.
         22    1    1    0    0    0  0.24396830744E+02  0.95489905275E+01 -0.20002436323E+02  0.32961887526E+02  0.00000000000E+00 0.  1.
</event>
<event>
 5    1  0.1659417E-003  0.9118800E+02  0.7818608E-02  0.1130116E+00
         25   -1    0    0    0    0  0.00000000000E+00  0.00000000000E+00  0.99999998245E-14  0.12500000000E+03  0.12500000000E+03 0.  0.
        -11    1    3    3    0    0  0.98440273720E+01  0.37824784221E+02  0.49270141743E+01  0.39394094040E+02  0.51100000000E-03 0.  1.
         23    2    1    0    0    0  0.16559330186E+02 -0.12710624833E+02 -0.19954609660E+02  0.96121671681E+02  0.91681066313E+02 0.  0.
         11    1    3    3    0    0  0.67153028136E+01 -0.50535409054E+02 -0.24881623834E+02  0.56727577641E+02  0.51100000000E-03 0. -1.
         22    1    1    0    0    0 -0.16559330186E+02  0.12710624833E+02  0.19954609660E+02  0.28878328319E+02  0.00000000000E+00 0. -1.
</event>
<event>
 5    1  0.1659417E-003  0.9118800E+02  0.7818608E-02  0.1130116E+00
         25   -1    0    0    0    0  0.00000000000E+00  0.00000000000E+00  0.99999998245E-14  0.12500000000E+03  0.12500000000E+03 0.  0.
        -11    1    3    3    0    0  0.31387586647E+02  0.18157450095E+02 -0.24903872439E+02  0.43989503887E+02  0.51100000000E-03 0.  1.
         23    2    1    0    0    0 -0.11963311298E+02  0.28994557025E+02 -0.38074971994E+01  0.93404079548E+02  0.87897780899E+02 0.  0.
         11    1    3    3    0    0 -0.43350897945E+02  0.10837106930E+02  0.21096375240E+02  0.49414575661E+02  0.51100000000E-03 0. -1.
         22    1    1    0    0    0  0.11963311298E+02 -0.28994557025E+02  0.38074971994E+01  0.31595920452E+02  0.00000000000E+00 0. -1.
</event>
<event>
 5    1  0.1659417E-003  0.9118800E+02  0.7818608E-02  0.1130116E+00
         25   -1    0    0    0    0  0.00000000000E+00  0.00000000000E+00  0.99999998245E-14  0.12500000000E+03  0.12500000000E+03 0.  0.
        -11    1    3    3    0    0 -0.39329684992E+02  0.44927751432E+02  0.93193980336E+01  0.60433253679E+02  0.51100000000E-03 0. -1.
         23    2    1    0    0    0 -0.83952294984E+01  0.26570323267E+02  0.53883713145E+01  0.96618729727E+02  0.92356279872E+02 0.  0.
         11    1    3    3    0    0  0.30934455493E+02 -0.18357428165E+02 -0.39310267191E+01  0.36185476048E+02  0.51100000000E-03 0.  1.
         22    1    1    0    0    0  0.83952294984E+01 -0.26570323267E+02 -0.53883713145E+01  0.28381270273E+02  0.00000000000E+00 0. -1.
</event>
<event>
 5    1  0.1659417E-003  0.9118800E+02  0.7818608E-02  0.1130116E+00
         25   -1    0    0    0    0  0.00000000000E+00  0.00000000000E+00  0.99999998245E-14  0.12500000000E+03  0.12500000000E+03 0.  0.
        -11    1    3    3    0    0 -0.22328750622E+01  0.27350943248E+02 -0.66170487757E+01  0.28228445979E+02  0.51100000000E-03 0. -1.
         23    2    1    0    0    0  0.43164271614E+01 -0.28665968199E+02  0.19173215770E+02  0.90243972045E+02  0.83282609297E+02 0.  0.
         11    1    3    3    0    0  0.65493022236E+01 -0.56016911447E+02  0.25790264546E+02  0.62015526067E+02  0.51100000000E-03 0.  1.
         22    1    1    0    0    0 -0.43164271614E+01  0.28665968199E+02 -0.19173215770E+02  0.34756027955E+02  0.00000000000E+00 0.  1.
</event>
<event>
 5    1  0.1659417E-003  0.9118800E+02  0.7818608E-02  0.1130116E+00
         25   -1    0    0    0    0  0.00000000000E+00  0.00000000000E+00  0.99999998245E-14  0.12500000000E+03  0.12500000000E+03 0.  0.
        -11    1    3    3    0    0  0.15093538055E+02 -0.29791014770E+01 -0.33423835724E+02  0.36794601933E+02  0.51100000000E-03 0.  1.
         23    2    1    0    0    0 -0.27686965825E+02  0.76405658287E+01  0.56836055515E+01  0.95721173268E+02  0.91133382012E+02 0.  0.
         11    1    3    3    0    0 -0.42780503879E+02  0.10619667306E+02  0.39107441276E+02  0.58926571335E+02  0.51100000000E-03 0. -1.
         22    1    1    0    0    0  0.27686965825E+02 -0.76405658287E+01 -0.56836055515E+01  0.29278826732E+02  0.00000000000E+00 0. -1.
</event>
<event>
 5    1  0.1659417E-003  0.9118800E+02  0.7818608E-02  0.1130116E+00
         25   -1    0    0    0    0  0.00000000000E+00  0.00000000000E+00  0.99999998245E-14  0.12500000000E+03  0.12500000000E+03 0.  0.
        -11    1    3    3    0    0 -0.41298561972E+02 -0.44013426051E+02  0.13840229063E+02  0.61921763819E+02  0.51100000000E-03 0. -1.
         23    2    1    0    0    0 -0.19019567303E+02 -0.22093607682E+02  0.66424766118E+00  0.95839878845E+02  0.91296055288E+02 0.  0.
         11    1    3    3    0    0  0.22278994669E+02  0.21919818368E+02 -0.13175981401E+02  0.33918115026E+02  0.51100000000E-03 0.  1.
         22    1    1    0    0    0  0.19019567303E+02  0.22093607682E+02 -0.66424766118E+00  0.29160121155E+02  0.00000000000E+00 0. -1.
</event>
<event>
 5    1  0.1659417E-003  0.9118800E+02  0.7818608E-02  0.1130116E+00
         25   -1    0    0    0    0  0.00000000000E+00  0.00000000000E+00  0.99999998245E-14  0.12500000000E+03  0.12500000000E+03 0.  0.
        -11    1    3    3    0    0  0.71945785397E+01 -0.52747741151E+02  0.28236934652E+02  0.60261186809E+02  0.51100000000E-03 0. -1.
         23    2    1    0    0    0 -0.12951970607E+01 -0.10600950603E+02  0.17374640844E+02  0.10460549502E+03  0.10259811769E+03 0.  0.
         11    1    3    3    0    0 -0.84897756004E+01  0.42146790548E+02 -0.10862293808E+02  0.44344308206E+02  0.51100000000E-03 0.  1.
         22    1    1    0    0    0  0.12951970607E+01  0.10600950603E+02 -0.17374640844E+02  0.20394504985E+02  0.00000000000E+00 0. -1.
</event>
<event>
 5    1  0.1659417E-003  0.9118800E+02  0.7818608E-02  0.1130116E+00
         25   -1    0    0    0    0  0.00000000000E+00  0.00000000000E+00  0.99999998245E-14  0.12500000000E+03  0.12500000000E+03 0.  0.
        -11    1    3    3    0    0  0.37688657381E+01  0.38747970314E+02  0.10206809480E+02  0.40246596284E+02  0.51100000000E-03 0. -1.
         23    2    1    0    0    0 -0.23081011064E+02 -0.11978070713E+02  0.84149776930E+01  0.97668349861E+02  0.93766131761E+02 0.  0.
         11    1    3    3    0    0 -0.26849876802E+02 -0.50726041027E+02 -0.17918317868E+01  0.57421753578E+02  0.51100000000E-03 0.  1.
         22    1    1    0    0    0  0.23081011064E+02  0.11978070713E+02 -0.84149776930E+01  0.27331650139E+02  0.00000000000E+00 0.  1.
</event>
<event>
 5    1  0.1659417E-003  0.9118800E+02  0.7818608E-02  0.1130116E+00
         25   -1    0    0    0    0  0.00000000000E+00  0.00000000000E+00  0.99999998245E-14  0.12500000000E+03  0.12500000000E+03 0.  0.
        -11    1    3    3    0    0 -0.20700251191E+01 -0.28308627976E+02  0.43411344134E+02  0.51867217216E+02  0.51100000000E-03 0.  1.
         23    2    1    0    0    0  0.23574469448E+02 -0.17334310401E+02  0.13474989306E+02  0.92784952838E+02  0.87012862323E+02 0.  0.
         11    1    3    3    0    0  0.25644494567E+02  0.10974317575E+02 -0.29936354828E+02  0.40917735623E+02  0.51100000000E-03 0. -1.
         22    1    1    0    0    0 -0.23574469448E+02  0.17334310401E+02 -0.13474989306E+02  0.32215047162E+02  0.00000000000E+00 0.  1.
</event>
<event>
 5    1  0.1659417E-003  0.9118800E+02  0.7818608E-02  0.1130116E+00
         25   -1    0    0    0    0  0.00000000000E+00  0.00000000000E+00  0.99999998245E-14  0.12500000000E+03  0.12500000000E+03 0.  0.
        -11    1    3    3    0    0  0.12657453355E+01  0.58866210152E+02  0.10616885677E+02  0.59829349576E+02  0.51100000000E-03 0.  1.
         23    2    1    0    0    0  0.99490133957E+01  0.36182781750E+02 -0.24214575035E+01  0.87396276525E+02  0.78892769829E+02 0.  0.
         11    1    3    3    0    0  0.86832680602E+01 -0.22683428402E+02 -0.13038343181E+02  0.27566926949E+02  0.51100000000E-03 0. -1.
         22    1    1    0    0    0 -0.99490133957E+01 -0.36182781750E+02  0.24214575035E+01  0.37603723475E+02  0.00000000000E+00 0.  1.
</event>
<event>
 5    1  0.1659417E-003  0.9118800E+02  0.7818608E-02  0.1130116E+00
         25   -1    0    0    0    0  0.00000000000E+00  0.00000000000E+00  0.99999998245E-14  0.12500000000E+03  0.12500000000E+03 0.  0.
        -11    1    3    3    0    0 -0.20112272329E+02  0.50080081832E+01 -0.39929637114E+02  0.44988438120E+02  0.51100000000E-03 0.  1.
         23    2    1    0    0    0 -0.29660407345E+02 -0.10186057116E+01  0.80265082827E+01  0.94255859800E+02  0.89100869524E+02 0.  0.
         11    1    3    3    0    0 -0.95481350161E+01 -0.60266138948E+01  0.47956145397E+02  0.49267421679E+02  0.51100000000E-03 0. -1.
         22    1    1    0    0    0  0.29660407345E+02  0.10186057116E+01 -0.80265082827E+01  0.30744140200E+02  0.00000000000E+00 0.  1.
</event>
<event>
 5    1  0.1659417E-003  0.9118800E+02  0.7818608E-02  0.1130116E+00
         25   -1    0    0    0    0  0.00000000000E+00  0.00000000000E+00  0.99999998245E-14  0.12500000000E+03  0.12500000000E+03 0.  0.
        -11    1    3    3    0    0 -0.14016018367E+02 -0.73721495475E+01  0.27871368622E+02  0.32056365186E+02  0.51100000000E-03 0.  1.
         23    2    1    0    0    0 -0.46078685352E+00 -0.25238639769E+00 -0.31563687491E+02  0.93431940328E+02  0.87937392968E+02 0.  0.
         11    1    3    3    0    0  0.13555231513E+02  0.71197631498E+01 -0.59435056113E+02  0.61375575143E+02  0.51100000000E-03 0. -1.
         22    1    1    0    0    0  0.46078685352E+00  0.25238639769E+00  0.31563687491E+02  0.31568059672E+02  0.00000000000E+00 0. -1.
</event>
<event>
 5    1  0.1659417E-003  0.9118800E+02  0.7818608E-02  0.1130116E+00
         25   -1    0    0    0    0  0.00000000000E+00  0.00000000000E+00  0.99999998245E-14  0.12500000000E+03  0.12500000000E+03 0.  0.
        -11    1    3    3    0    0  0.50881021371E+02  0.22670618075E+02  0.26070146888E+02  0.61501933455E+02  0.51100000000E-03 0. -1.
         23    2    1    0    0    0  0.21318978515E+02  0.52035570106E+01  0.30429252552E+01  0.10284519816E+03  0.10043057074E+03 0.  0.
         11    1    3    3    0    0 -0.29562042856E+02 -0.17467061064E+02 -0.23027221633E+02  0.41343264704E+02  0.51100000000E-03 0.  1.
         22    1    1    0    0    0 -0.21318978515E+02 -0.52035570106E+01 -0.30429252552E+01  0.22154801841E+02  0.00000000000E+00 0. -1.
</event>
<event>
 5    1  0.1659417E-003  0.9118800E+02  0.7818608E-02  0.1130116E+00
         25   -1    0    0    0    0  0.00000000000E+00  0.00000000000E+00  0.99999998245E-14  0.12500000000E+03  0.12500000000E+03 0.  0.
        -11    1    3    3    0    0 -0.78476423595E+01 -0.54333446827E+01 -0.30938649645E+02  0.32377565800E+02  0.51100000000E-03 0. -1.
         23    2    1    0    0    0 -0.36677895452E+02  0.18075241051E+02  0.46339228025E+01  0.83848382846E+02  0.73055429035E+02 0.  0.
         11    1    3    3    0    0 -0.28830253093E+02  0.23508585733E+02  0.35572572447E+02  0.51470817046E+02  0.51100000000E-03 0.  1.
         22    1    1    0    0    0  0.36677895452E+02 -0.18075241051E+02 -0.46339228025E+01  0.41151617154E+02  0.00000000000E+00 0.  1.
</event>
<event>
 5    1  0.1659417E-003  0.9118800E+02  0.7818608E-02  0.1130116E+00
         25   -1    0    0    0    0  0.00000000000E+00  0.00000000000E+00  0.99999998245E-14  0.12500000000E+03  0.12500000000E+03 0.  0.
        -11    1    3    3    0    0 -0.21854930980E+02 -0.18465125899E+02 -0.18219332887E+02  0.33919654681E+02  0.51100000000E-03 0.  1.
         23    2    1    0    0    0  0.24773370908E+02  0.23565868974E+01  0.16021999973E+02  0.95403076324E+02  0.90696025718E+02 0.  0.
         11    1    3    3    0    0  0.46628301887E+02  0.20821712796E+02  0.34241332860E+02  0.61483421643E+02  0.51100000000E-03 0. -1.
         22    1    1    0    0    0 -0.24773370908E+02 -0.23565868974E+01 -0.16021999973E+02  0.29596923676E+02  0.00000000000E+00 0. -1.
</event>
<event>
 5    1  0.1659417E-003  0.9118800E+02  0.7818608E-02  0.1130116E+00
         25   -1    0    0    0    0  0.00000000000E+00  0.00000000000E+00  0.99999998245E-14  0.12500000000E+03  0.12500000000E+03 0.  0.
        -11    1    3    3    0    0 -0.89806926994E+01 -0.45203168748E+02  0.37779997727E+02  0.59592848017E+02  0.51100000000E-03 0.  1.
         23    2    1    0    0    0 -0.10300603429E+02 -0.29853012593E+02  0.91235796262E+01  0.92128363334E+02  0.86064457435E+02 0.  0.
         11    1    3    3    0    0 -0.13199107300E+01  0.15350156155E+02 -0.28656418101E+02  0.32535515317E+02  0.51100000000E-03 0. -1.
         22    1    1    0    0    0  0.10300603429E+02  0.29853012593E+02 -0.91235796262E+01  0.32871636666E+02  0.00000000000E+00 0.  1.
</event>
<event>
 5    1  0.1659417E-003  0.9118800E+02  0.7818608E-02  0.1130116E+00
         25   -1    0    0    0    0  0.00000000000E+00  0.00000000000E+00  0.99999998245E-14  0.12500000000E+03  0.12500000000E+03 0.  0.
        -11    1    3    3    0    0  0.36621940436E+02  0.30994709050E+02 -0.32978042087E+02  0.58218465889E+02  0.51100000000E-03 0. -1.
         23    2    1    0    0    0  0.16897902450E+02 -0.10060417466E+01 -0.21726880492E+02  0.97457150418E+02  0.93484156970E+02 0.  0.
         11    1    3    3    0    0 -0.19724037986E+02 -0.32000750796E+02  0.11251161595E+02  0.39238684528E+02  0.51100000000E-03 0.  1.
         22    1    1    0    0    0 -0.16897902450E+02  0.10060417466E+01  0.21726880492E+02  0.27542849582E+02  0.00000000000E+00 0. -1.
</event>
<event>
 5    1  0.1659417E-003  0.9118800E+02  0.7818608E-02  0.1130116E+00
         25   -1    0    0    0    0  0.00000000000E+00  0.00000000000E+00  0.99999998245E-14  0.12500000000E+03  0.12500000000E+03 0.  0.
        -11    1    3    3    0    0 -0.26656231307E+02 -0.21797881621E+02 -0.14656143589E+02  0.37423319679E+02  0.51100000000E-03 0. -1.
         23    2    1    0    0    0  0.18356333329E+02  0.12524718709E+02 -0.21052579387E+02  0.94388978278E+02  0.89287426716E+02 0.  0.
         11    1    3    3    0    0  0.45012564636E+02  0.34322600330E+02 -0.63964357978E+01  0.56965658599E+02  0.51100000000E-03 0.  1.
         22    1    1    0    0    0 -0.18356333329E+02 -0.12524718709E+02  0.21052579387E+02  0.30611021722E+02  0.00000000000E+00 0.  1.
</event>
<event>
 5    1  0.1659417E-003  0.9118800E+02  0.7818608E-02  0.1130116E+00
         25   -1    0    0    0    0  0.00000000000E+00  0.00000000000E+00  0.99999998245E-14  0.12500000000E+03  0.12500000000E+03 0.  0.
        -11    1    3    3    0    0  0.11412726279E+02 -0.58215694439E+01  0.20680120484E+02  0.24327111941E+02  0.51100000000E-03 0. -1.
         23    2    1    0    0    0 -0.41292732042E+02  0.73987210344E+01 -0.15121637292E+01  0.83022417512E+02  0.71628237294E+02 0.  0.
         11    1    3    3    0    0 -0.52705458321E+02  0.13220290478E+02 -0.22192284213E+02  0.58695305570E+02  0.51100000000E-03 0.  1.
         22    1    1    0    0    0  0.41292732042E+02 -0.73987210344E+01  0.15121637292E+01  0.41977582488E+02  0.00000000000E+00 0.  1.
</event>
<event>
 5    1  0.1659417E-003  0.9118800E+02  0.7818608E-02  0.1130116E+00
         25   -1    0    0    0    0  0.00000000000E+00  0.00000000000E+00  0.99999998245E-14  0.12500000000E+03  0.12500000000E+03 0.  0.
        -11    1    3    3    0    0  0.19202241782E+01  0.43647204112E+02  0.30049703314E+02  0.53025940418E+02  0.51100000000E-03 0. -1.
         23    2    1    0    0    0  0.23565047862E+02  0.10820584880E+02  0.14340332840E+02  0.95368231847E+02  0.90647989287E+02 0.  0.
         11    1    3    3    0    0  0.21644823684E+02 -0.32826619232E+02 -0.15709370474E+02  0.42342291429E+02  0.51100000000E-03 0.  1.
         22    1    1    0    0    0 -0.23565047862E+02 -0.10820584880E+02 -0.14340332840E+02  0.29631768153E+02  0.00000000000E+00 0. -1.
</event>
<event>
 5    1  0.1659417E-003  0.9118800E+02  0.7818608E-02  0.1130116E+00
         25   -1    0    0    0    0  0.00000000000E+00  0.00000000000E+00  0.99999998245E-14  0.12500000000E+03  0.12500000000E+03 0.  0.
        -11    1    3    3    0    0  0.20737733572E+02 -0.92464020565E+01 -0.31583547333E+02  0.38898200564E+02  0.51100000000E-03 0. -1.
         23    2    1    0    0    0  0.19349376829E+02  0.18279270733E+02  0.16040524856E+02  0.93922217585E+02  0.88631565462E+02 0.  0.
         11    1    3    3    0    0 -0.13883567430E+01  0.27525672789E+02  0.47624072189E+02  0.55024017021E+02  0.51100000000E-03 0.  1.
         22    1    1    0    0    0 -0.19349376829E+02 -0.18279270733E+02 -0.16040524856E+02  0.31077782415E+02  0.00000000000E+00 0.  1.
</event>
<event>
 5    1  0.1659417E-003  0.9118800E+02  0.7818608E-02  0.1130116E+00
         25   -1    0    0    0    0  0.00000000000E+00  0.00000000000E+00  0.99999998245E-14  0.12500000000E+03  0.12500000000E+03 0.  0.
        -11    1    3    3    0    0 -0.56998594350E+02  0.12170502802E+01 -0.16996578307E+02  0.59491214845E+02  0.51100000000E-03 0.  1.
         23    2    1    0    0    0 -0.20406546530E+02  0.10155246505E+02 -0.15961457898E+02  0.97173316564E+02  0.93103862116E+02 0.  0.
         11    1    3    3    0    0  0.36592047820E+02  0.89381962249E+01  0.10351204098E+01  0.37682101719E+02  0.51100000000E-03 0. -1.
         22    1    1    0    0    0  0.20406546530E+02 -0.10155246505E+02  0.15961457898E+02  0.27826683436E+02  0.00000000000E+00 0.  1.
</event>
<event>
 5    1  0.1659417E-003  0.9118800E+02  0.7818608E-02  0.1130116E+00
         25   -1    0    0    0    0  0.00000000000E+00  0.00000000000E+00  0.99999998245E-14  0.12500000000E+03  0.12500000000E+03 0.  0.
        -11    1    3    3    0    0 -0.11261553907E+02  0.26363929276E+02  0.50481677982E+02  0.58054105586E+02  0.51100000000E-03 0.  1.
         23    2    1    0    0    0  0.15207373656E+01 -0.28296444896E+01  0.27420433931E+02  0.97392035080E+02  0.93397049043E+02 0.  0.
         11    1    3    3    0    0  0.12782291273E+02 -0.29193573766E+02 -0.23061244051E+02  0.39337929494E+02  0.51100000000E-03 0. -1.
         22    1    1    0    0    0 -0.15207373656E+01  0.28296444896E+01 -0.27420433931E+02  0.27607964920E+02  0.00000000000E+00 0.  1.
</event>
<event>
 5    1  0.1659417E-003  0.9118800E+02  0.7818608E-02  0.1130116E+00
         25   -1    0    0    0    0  0.00000000000E+00  0.00000000000E+00  0.99999998245E-14  0.12500000000E+03  0.12500000000E+03 0.  0.
        -11    1    3    3    0    0 -0.10287041791E+02 -0.66937980500E+01 -0.46952760204E+02  0.48530318896E+02  0.51100000000E-03 0. -1.
         23    2    1    0    0    0 -0.17845257467E+02 -0.22828133575E+02 -0.31062624598E+01  0.95858521606E+02  0.91321576867E+02 0.  0.
         11    1    3    3    0    0 -0.75582156752E+01 -0.16134335525E+02  0.43846497744E+02  0.47328202709E+02  0.51100000000E-03 0.  1.
         22    1    1    0    0    0  0.17845257467E+02  0.22828133575E+02  0.31062624598E+01  0.29141478394E+02  0.00000000000E+00 0. -1.
</event>
<event>
 5    1  0.1659417E-003  0.9118800E+02  0.7818608E-02  0.1130116E+00
         25   -1    0    0    0    0  0.00000000000E+00  0.00000000000E+00  0.99999998245E-14  0.12500000000E+03  0.12500000000E+03 0.  0.
        -11    1    3    3    0    0  0.41268485160E+02 -0.28694930194E+02 -0.34087097259E+01  0.50379620766E+02  0.51100000000E-03 0.  1.
         23    2    1    0    0    0 -0.46956450346E+01 -0.23687824861E+02  0.10507136896E+02  0.98664433655E+02  0.95084743328E+02 0.  0.
         11    1    3    3    0    0 -0.45964130194E+02  0.50071053331E+01  0.13915846622E+02  0.48284812890E+02  0.51100000000E-03 0. -1.
         22    1    1    0    0    0  0.46956450346E+01  0.23687824861E+02 -0.10507136896E+02  0.26335566345E+02  0.00000000000E+00 0.  1.
</event>
<event>
 5    1  0.1659417E-003  0.9118800E+02  0.7818608E-02  0.1130116E+00
         25   -1    0    0    0    0  0.00000000000E+00  0.00000000000E+00  0.99999998245E-14  0.12500000000E+03  0.12500000000E+03 0.  0.
        -11    1    3    3    0    0 -0.53261286911E+02 -0.39895691336E+01 -0.30031947581E+02  0.61274784545E+02  0.51100000000E-03 0. -1.
         23    2    1    0    0    0 -0.22241115808E+02 -0.10277036271E+02 -0.14481990886E+02  0.96539276768E+02  0.92248681248E+02 0.  0.
         11    1    3    3    0    0  0.31020171103E+02 -0.62874671369E+01  0.15549956695E+02  0.35264492223E+02  0.51100000000E-03 0.  1.
         22    1    1    0    0    0  0.22241115808E+02  0.10277036271E+02  0.14481990886E+02  0.28460723232E+02  0.00000000000E+00 0. -1.
</event>
<event>
 5    1  0.1659417E-003  0.9118800E+02  0.7818608E-02  0.1130116E+00
         25   -1    0    0    0    0  0.00000000000E+00  0.00000000000E+00  0.99999998245E-14  0.12500000000E+03  0.12500000000E+03 0.  0.
        -11    1    3    3    0    0  0.40692103972E+02  0.26571692776E+02 -0.14851228559E+02  0.50817921766E+02  0.51100000000E-03 0.  1.
         23    2    1    0    0    0  0.27528065308E+02 -0.44693986860E+01  0.12696111571E+02  0.94357526973E+02  0.89243384871E+02 0.  0.
         11    1    3    3    0    0 -0.13164038664E+02 -0.31041091462E+02  0.27547340129E+02  0.43539605207E+02  0.51100000000E-03 0. -1.
         22    1    1    0    0    0 -0.27528065308E+02  0.44693986860E+01 -0.12696111571E+02  0.30642473027E+02  0.00000000000E+00 0. -1.
</event>
<event>
 5    1  0.1659417E-003  0.9118800E+02  0.7818608E-02  0.1130116E+00
         25   -1    0    0    0    0  0.00000000000E+00  0.00000000000E+00  0.99999998245E-14  0.12500000000E+03  0.12500000000E+03 0.  0.
        -11    1    3    3    0    0  0.19331185969E+02  0.26789985198E+02 -0.29931792486E+01  0.33171632160E+02  0.51100000000E-03 0.  1.
         23    2    1    0    0    0 -0.17738604790E+02 -0.10094572626E+02 -0.27361850076E+02  0.90864544298E+02  0.84208883584E+02 0.  0.
         11    1    3    3    0    0 -0.37069790759E+02 -0.36884557824E+02 -0.24368670827E+02  0.57692912138E+02  0.51100000000E-03 0. -1.
         22    1    1    0    0    0  0.17738604790E+02  0.10094572626E+02  0.27361850076E+02  0.34135455702E+02  0.00000000000E+00 0. -1.
</event>
<event>
 5    1  0.1659417E-003  0.9118800E+02  0.7818608E-02  0.1130116E+00
         25   -1    0    0    0    0  0.00000000000E+00  0.00000000000E+00  0.99999998245E-14  0.12500000000E+03  0.12500000000E+03 0.  0.
        -11    1    3    3    0    0  0.41987727991E+01 -0.16387361138E+02  0.30916142285E+02  0.35241781342E+02  0.51100000000E-03 0.  1.
         23    2    1    0    0    0 -0.14114249900E+00  0.17667577419E+02 -0.21046295306E+02  0.97520739471E+02  0.93569144849E+02 0.  0.
         11    1    3    3    0    0 -0.43399152981E+01  0.34054938558E+02 -0.51962437591E+02  0.62278958129E+02  0.51100000000E-03 0. -1.
         22    1    1    0    0    0  0.14114249900E+00 -0.17667577419E+02  0.21046295306E+02  0.27479260529E+02  0.00000000000E+00 0. -1.
</event>
<event>
 5    1  0.1659417E-003  0.9118800E+02  0.7818608E-02  0.1130116E+00
         25   -1    0    0    0    0  0.00000000000E+00  0.00000000000E+00  0.99999998245E-14  0.12500000000E+03  0.12500000000E+03 0.  0.
        -11    1    3    3    0    0 -0.24673945824E+02 -0.21728290989E+02 -0.13526851312E+02  0.35551342289E+02  0.51100000000E-03 0. -1.
         23    2    1    0    0    0  0.26159779760E+02  0.91303947274E+01 -0.11349578341E+02  0.95058204572E+02  0.90219460999E+02 0.  0.
         11    1    3    3    0    0  0.50833725584E+02  0.30858685716E+02  0.21772729711E+01  0.59506862283E+02  0.51100000000E-03 0.  1.
         22    1    1    0    0    0 -0.26159779760E+02 -0.91303947274E+01  0.11349578341E+02  0.29941795428E+02  0.00000000000E+00 0.  1.
</event>
<event>
 5    1  0.1659417E-003  0.9118800E+02  0.7818608E-02  0.1130116E+00
         25   -1    0    0    0    0  0.00000000000E+00  0.00000000000E+00  0.99999998245E-14  0.12500000000E+03  0.12500000000E+03 0.  0.
        -11    1    3    3    0    0  0.23872730349E+02 -0.33697455198E+01  0.54679145616E+02  0.59758442121E+02  0.51100000000E-03 0. -1.
         23    2    1    0    0    0  0.17414342149E+02 -0.11949046679E+02  0.20568549683E+02  0.95519425632E+02  0.90856240336E+02 0.  0.
         11    1    3    3    0    0 -0.64583882001E+01 -0.85793011595E+01 -0.34110595933E+02  0.35760983511E+02  0.51100000000E-03 0.  1.
         22    1    1    0    0    0 -0.17414342149E+02  0.11949046679E+02 -0.20568549683E+02  0.29480574368E+02  0.00000000000E+00 0. -1.
</event>
<event>
 5    1  0.1659417E-003  0.9118800E+02  0.7818608E-02  0.1130116E+00
         25   -1    0    0    0    0  0.00000000000E+00  0.00000000000E+00  0.99999998245E-14  0.12500000000E+03  0.12500000000E+03 0.  0.
        -11    1    3    3    0    0 -0.48082426839E+02 -0.85597785121E-01  0.33388221780E+02  0.58538025690E+02  0.51100000000E-03 0.  1.
         23    2    1    0    0    0 -0.27158446323E+02 -0.86467257303E+01  0.31044535737E+01  0.96329724373E+02  0.91964292491E+02 0.  0.
         11    1    3    3    0    0  0.20923980517E+02 -0.85611279451E+01 -0.30283768206E+02  0.37791698683E+02  0.51100000000E-03 0. -1.
         22    1    1    0    0    0  0.27158446323E+02  0.86467257303E+01 -0.31044535737E+01  0.28670275627E+02  0.00000000000E+00 0.  1.
</event>
<event>
 5    1  0.1659417E-003  0.9118800E+02  0.7818608E-02  0.1130116E+00
         25   -1    0    0    0    0  0.00000000000E+00  0.00000000000E+00  0.99999998245E-14  0.12500000000E+03  0.12500000000E+03 0.  0.
        -11    1    3    3    0    0  0.27252690280E+02  0.11369852976E+02 -0.96585231597E+01  0.31068790676E+02  0.51100000000E-03 0.  1.
         23    2    1    0    0    0 -0.26754598305E+02  0.10629531914E+02  0.17276974765E+02  0.91424870272E+02  0.85036566065E+02 0.  0.
         11    1    3    3    0    0 -0.54007288585E+02 -0.74032106160E+00  0.26935497925E+02  0.60356079597E+02  0.51100000000E-03 0. -1.
         22    1    1    0    0    0  0.26754598305E+02 -0.10629531914E+02 -0.17276974765E+02  0.33575129728E+02  0.00000000000E+00 0. -1.
</event>
<event>
 5    1  0.1659417E-003  0.9118800E+02  0.7818608E-02  0.1130116E+00
         25   -1    0    0    0    0  0.00000000000E+00  0.00000000000E+00  0.99999998245E-14  0.12500000000E+03  0.12500000000E+03 0.  0.
        -11    1    3    3    0    0 -0.48662046886E+02 -0.34885924981E+01 -0.21736075712E+02  0.53409943572E+02  0.51100000000E-03 0.  1.
         23    2    1    0    0    0 -0.22733526219E+02  0.17894765761E+02  0.40705213823E+01  0.95783480694E+02  0.91218803838E+02 0.  0.
         11    1    3    3    0    0  0.25928520667E+02  0.21383358260E+02  0.25806597094E+02  0.42373537122E+02  0.51100000000E-03 0. -1.
         22    1    1    0    0    0  0.22733526219E+02 -0.17894765761E+02 -0.40705213823E+01  0.29216519306E+02  0.00000000000E+00 0.  1.
</event>
<event>
 5    1  0.1659417E-003  0.9118800E+02  0.7818608E-02  0.1130116E+00
         25   -1    0    0    0    0  0.00000000000E+00  0.00000000000E+00  0.99999998245E-14  0.12500000000E+03  0.12500000000E+03 0.  0.
        -11    1    3    3    0    0 -0.24906136387E+02  0.22704977931E+02 -0.39708201962E+02  0.52082367034E+02  0.51100000000E-03 0.  1.
         23    2    1    0    0    0 -0.23493379666E+02  0.18159042153E+02  0.30917235382E+01  0.95146215408E+02  0.90341318631E+02 0.  0.
         11    1    3    3    0    0  0.14127567214E+01 -0.45459357778E+01  0.42799925500E+02  0.43063848373E+02  0.51100000000E-03 0. -1.
         22    1    1    0    0    0  0.23493379666E+02 -0.18159042153E+02 -0.30917235382E+01  0.29853784592E+02  0.00000000000E+00 0.  1.
</event>
<event>
 5    1  0.1659417E-003  0.9118800E+02  0.7818608E-02  0.1130116E+00
         25   -1    0    0    0    0  0.00000000000E+00  0.00000000000E+00  0.99999998245E-14  0.12500000000E+03  0.12500000000E+03 0.  0.
        -11    1    3    3    0    0 -0.45525913617E+02  0.32538381518E+02 -0.10160582017E+02  0.56873478087E+02  0.51100000000E-03 0. -1.
         23    2    1    0    0    0 -0.39018875170E+01  0.20630727843E+02 -0.13075024781E+02  0.10026524852E+03  0.97166414625E+02 0.  0.
         11    1    3    3    0    0  0.41624026100E+02 -0.11907653675E+02 -0.29144427641E+01  0.43391770438E+02  0.51100000000E-03 0.  1.
         22    1    1    0    0    0  0.39018875170E+01 -0.20630727843E+02  0.13075024781E+02  0.24734751476E+02  0.00000000000E+00 0. -1.
</event>
<event>
 5    1  0.1659417E-003  0.9118800E+02  0.7818608E-02  0.1130116E+00
         25   -1    0    0    0    0  0.00000000000E+00  0.00000000000E+00  0.99999998245E-14  0.12500000000E+03  0.12500000000E+03 0.  0.
        -11    1    3    3    0    0 -0.20537645993E+02 -0.31320876450E+02 -0.19181720088E+01  0.37502954399E+02  0.51100000000E-03 0.  1.
         23    2    1    0    0    0  0.34140905883E+01  0.77051186099E+01  0.30337837910E+02  0.93513347647E+02  0.88053034653E+02 0.  0.
         11    1    3    3    0    0  0.23951736581E+02  0.39025995060E+02  0.32256009919E+02  0.56010393248E+02  0.51100000000E-03 0. -1.
         22    1    1    0    0    0 -0.34140905883E+01 -0.77051186099E+01 -0.30337837910E+02  0.31486652353E+02  0.00000000000E+00 0. -1.
</event>
<event>
 5    1  0.1659417E-003  0.9118800E+02  0.7818608E-02  0.1130116E+00
         25   -1    0    0    0    0  0.00000000000E+00  0.00000000000E+00  0.99999998245E-14  0.12500000000E+03  0.12500000000E+03 0.  0.
        -11    1    3    3    0    0 -0.30273725082E+01 -0.13020234371E+02  0.40413506752E+02  0.42566923963E+02  0.51100000000E-03 0.  1.
         23    2    1    0    0    0  0.30047934447E+02  0.27309061128E+01  0.34121050348E+01  0.94635898276E+02  0.89632441499E+02 0.  0.
         11    1    3    3    0    0  0.33075306955E+02  0.15751140483E+02 -0.37001401717E+02  0.52068974313E+02  0.51100000000E-03 0. -1.
         22    1    1    0    0    0 -0.30047934447E+02 -0.27309061128E+01 -0.34121050348E+01  0.30364101724E+02  0.00000000000E+00 0. -1.
</event>
<event>
 5    1  0.1659417E-003  0.9118800E+02  0.7818608E-02  0.1130116E+00
         25   -1    0    0    0    0  0.00000000000E+00  0.00000000000E+00  0.99999998245E-14  0.12500000000E+03  0.12500000000E+03 0.  0.
        -11    1    3    3    0    0  0.20229216552E+02 -0.21391237171E+02 -0.45822566350E+02  0.54465712308E+02  0.51100000000E-03 0. -1.
         23    2    1    0    0    0  0.22865845400E+01 -0.26415829991E+02 -0.69247326086E+01  0.97596050199E+02  0.93669699209E+02 0.  0.
         11    1    3    3    0    0 -0.17942632012E+02 -0.50245928200E+01  0.38897833742E+02  0.43130337891E+02  0.51100000000E-03 0.  1.
         22    1    1    0    0    0 -0.22865845400E+01  0.26415829991E+02  0.69247326086E+01  0.27403949801E+02  0.00000000000E+00 0. -1.
</event>
<event>
 5    1  0.1659417E-003  0.9118800E+02  0.7818608E-02  0.1130116E+00
         25   -1    0    0    0    0  0.00000000000E+00  0.00000000000E+00  0.99999998245E-14  0.12500000000E+03  0.12500000000E+03 0.  0.
        -11    1    3    3    0    0  0.40196870181E+02  0.35377952744E+02  0.14976461303E+02  0.55602898361E+02  0.51100000000E-03 0.  1.
         23    2    1    0    0    0  0.35829008570E+01  0.26289234434E+02 -0.45475661211E+01  0.98080836133E+02  0.94314415829E+02 0.  0.
         11    1    3    3    0    0 -0.36613969324E+02 -0.90887183099E+01 -0.19524027424E+02  0.42477937772E+02  0.51100000000E-03 0. -1.
         22    1    1    0    0    0 -0.35829008570E+01 -0.26289234434E+02  0.45475661211E+01  0.26919163867E+02  0.00000000000E+00 0.  1.
</event>
<event>
 5    1  0.1659417E-003  0.9118800E+02  0.7818608E-02  0.1130116E+00
         25   -1    0    0    0    0  0.00000000000E+00  0.00000000000E+00  0.99999998245E-14  0.12500000000E+03  0.12500000000E+03 0.  0.
        -11    1    3    3    0    0  0.15514160796E+02  0.76237038151E+00  0.39470346235E+02  0.42416725781E+02  0.51100000000E-03 0.  1.
         23    2    1    0    0    0 -0.16324048125E+02 -0.87781087285E+01 -0.11442323342E+02  0.10321797752E+03  0.10089348036E+03 0.  0.
         11    1    3    3    0    0 -0.31838208921E+02 -0.95404791100E+01 -0.50912669577E+02  0.60801251735E+02  0.51100000000E-03 0. -1.
         22    1    1    0    0    0  0.16324048125E+02  0.87781087285E+01  0.11442323342E+02  0.21782022484E+02  0.00000000000E+00 0. -1.
</event>
<event>
 5    1  0.1659417E-003  0.9118800E+02  0.7818608E-02  0.1130116E+00
         25   -1    0    0    0    0  0.00000000000E+00  0.00000000000E+00  0.99999998245E-14  0.12500000000E+03  0.12500000000E+03 0.  0.
        -11    1    3    3    0    0  0.27845571811E+02 -0.40351872433E+02  0.16786467166E+02  0.51821182527E+02  0.51100000000E-03 0. -1.
         23    2    1    0    0    0 -0.85536010065E+01 -0.15038757231E+02  0.22601676088E+02  0.96536618767E+02  0.92245079499E+02 0.  0.
         11    1    3    3    0    0 -0.36399172817E+02  0.25313115203E+02  0.58152089217E+01  0.44715436240E+02  0.51100000000E-03 0.  1.
         22    1    1    0    0    0  0.85536010065E+01  0.15038757231E+02 -0.22601676088E+02  0.28463381233E+02  0.00000000000E+00 0. -1.
</event>
<event>
 5    1  0.1659417E-003  0.9118800E+02  0.7818608E-02  0.1130116E+00
         25   -1    0    0    0    0  0.00000000000E+00  0.00000000000E+00  0.99999998245E-14  0.12500000000E+03  0.12500000000E+03 0.  0.
        -11    1    3    3    0    0 -0.13225714475E+02 -0.25236128940E+02  0.23829412668E+02  0.37143271741E+02  0.51100000000E-03 0.  1.
         23    2    1    0    0    0  0.19275319314E+02 -0.11756977788E+02 -0.21023046250E+02  0.94149830876E+02  0.88951996711E+02 0.  0.
         11    1    3    3    0    0  0.32501033789E+02  0.13479151152E+02 -0.44852458918E+02  0.57006559135E+02  0.51100000000E-03 0. -1.
         22    1    1    0    0    0 -0.19275319314E+02  0.11756977788E+02  0.21023046250E+02  0.30850169124E+02  0.00000000000E+00 0. -1.
</event>
<event>
 5    1  0.1659417E-003  0.9118800E+02  0.7818608E-02  0.1130116E+00
         25   -1    0    0    0    0  0.00000000000E+00  0.00000000000E+00  0.99999998245E-14  0.12500000000E+03  0.12500000000E+03 0.  0.
        -11    1    3    3    0    0 -0.54831236311E+01 -0.26060404752E+02 -0.48011632486E+02  0.54902879658E+02  0.51100000000E-03 0. -1.
         23    2    1    0    0    0  0.12804966832E+02 -0.24084639089E+02 -0.12290616343E+02  0.95081840536E+02  0.90252202932E+02 0.  0.
         11    1    3    3    0    0  0.18288090463E+02  0.19757656631E+01  0.35721016142E+02  0.40178960878E+02  0.51100000000E-03 0.  1.
         22    1    1    0    0    0 -0.12804966832E+02  0.24084639089E+02  0.12290616343E+02  0.29918159464E+02  0.00000000000E+00 0.  1.
</event>
<event>
 5    1  0.1659417E-003  0.9118800E+02  0.7818608E-02  0.1130116E+00
         25   -1    0    0    0    0  0.00000000000E+00  0.00000000000E+00  0.99999998245E-14  0.12500000000E+03  0.12500000000E+03 0.  0.
        -11    1    3    3    0    0  0.65145218886E+01 -0.20328259238E+02 -0.42740349772E+02  0.47774623159E+02  0.51100000000E-03 0. -1.
         23    2    1    0    0    0  0.66040826066E+01  0.21158499913E+02 -0.20309851351E+02  0.94936964764E+02  0.90051325316E+02 0.  0.
         11    1    3    3    0    0  0.89560718013E-01  0.41486759152E+02  0.22430498421E+02  0.47162341605E+02  0.51100000000E-03 0.  1.
         22    1    1    0    0    0 -0.66040826066E+01 -0.21158499913E+02  0.20309851351E+02  0.30063035236E+02  0.00000000000E+00 0.  1.
</event>
<event>
 5    1  0.1659417E-003  0.9118800E+02  0.7818608E-02  0.1130116E+00
         25   -1    0    0    0    0  0.00000000000E+00  0.00000000000E+00  0.99999998245E-14  0.12500000000E+03  0.12500000000E+03 0.  0.
        -11    1    3    3    0    0  0.32684019242E+02 -0.51422055531E+02 -0.11976030446E+02  0.62095879206E+02  0.51100000000E-03 0.  1.
         23    2    1    0    0    0  0.11250545855E+02 -0.24328280070E+02 -0.88022923843E+01  0.96787939734E+02  0.92585014627E+02 0.  0.
         11    1    3    3    0    0 -0.21433473386E+02  0.27093775461E+02  0.31737380620E+01  0.34692060528E+02  0.51100000000E-03 0. -1.
         22    1    1    0    0    0 -0.11250545855E+02  0.24328280070E+02  0.88022923843E+01  0.28212060266E+02  0.00000000000E+00 0.  1.
</event>
<event>
 5    1  0.1659417E-003  0.9118800E+02  0.7818608E-02  0.1130116E+00
         25   -1    0    0    0    0  0.00000000000E+00  0.00000000000E+00  0.99999998245E-14  0.12500000000E+03  0.12500000000E+03 0.  0.
        -11    1    3    3    0    0  0.26770740030E+02  0.95699773520E+01 -0.41943932366E+02  0.50671002071E+02  0.51100000000E-03 0. -1.
         23    2    1    0    0    0  0.27648606689E+02 -0.80844151013E+01  0.68394536991E-02  0.96193693986E+02  0.91779210591E+02 0.  0.
         11    1    3    3    0    0  0.87786665853E+00 -0.17654392453E+02  0.41950771819E+02  0.45522691916E+02  0.51100000000E-03 0.  1.
         22    1    1    0    0    0 -0.27648606689E+02  0.80844151013E+01 -0.68394536991E-02  0.28806306014E+02  0.00000000000E+00 0.  1.
</event>
<event>
 5    1  0.1659417E-003  0.9118800E+02  0.7818608E-02  0.1130116E+00
         25   -1    0    0    0    0  0.00000000000E+00  0.00000000000E+00  0.99999998245E-14  0.12500000000E+03  0.12500000000E+03 0.  0.
        -11    1    3    3    0    0  0.14675847413E+02  0.21054399178E+02  0.19138350725E+02  0.32014757390E+02  0.51100000000E-03 0. -1.
         23    2    1    0    0    0 -0.22521880736E+02 -0.19380423598E+02 -0.92807049049E+01  0.93871758574E+02  0.88560372874E+02 0.  0.
         11    1    3    3    0    0 -0.37197728150E+02 -0.40434822775E+02 -0.28419055630E+02  0.61857001184E+02  0.51100000000E-03 0.  1.
         22    1    1    0    0    0  0.22521880736E+02  0.19380423598E+02  0.92807049049E+01  0.31128241426E+02  0.00000000000E+00 0.  1.
</event>
<event>
 5    1  0.1659417E-003  0.9118800E+02  0.7818608E-02  0.1130116E+00
         25   -1    0    0    0    0  0.00000000000E+00  0.00000000000E+00  0.99999998245E-14  0.12500000000E+03  0.12500000000E+03 0.  0.
        -11    1    3    3    0    0 -0.21296821252E+02  0.39874467118E+02  0.36828690169E+02  0.58308491176E+02  0.51100000000E-03 0.  1.
         23    2    1    0    0    0 -0.23339351743E+02  0.95762689717E+01  0.16230086715E+02  0.95002567077E+02  0.90142341712E+02 0.  0.
         11    1    3    3    0    0 -0.20425304906E+01 -0.30298198146E+02 -0.20598603454E+02  0.36694075901E+02  0.51100000000E-03 0. -1.
         22    1    1    0    0    0  0.23339351743E+02 -0.95762689717E+01 -0.16230086715E+02  0.29997432923E+02  0.00000000000E+00 0.  1.
</event>
<event>
 5    1  0.1659417E-003  0.9118800E+02  0.7818608E-02  0.1130116E+00
         25   -1    0    0    0    0  0.00000000000E+00  0.00000000000E+00  0.99999998245E-14  0.12500000000E+03  0.12500000000E+03 0.  0.
        -11    1    3    3    0    0  0.23236529872E+01 -0.26872277938E+02 -0.23321018857E+02  0.35656536646E+02  0.51100000000E-03 0. -1.
         23    2    1    0    0    0 -0.16150061149E+02  0.15549616382E+02  0.16868577946E+02  0.96943557483E+02  0.92794877934E+02 0.  0.
         11    1    3    3    0    0 -0.18473714136E+02  0.42421894320E+02  0.40189596803E+02  0.61287020838E+02  0.51100000000E-03 0.  1.
         22    1    1    0    0    0  0.16150061149E+02 -0.15549616382E+02 -0.16868577946E+02  0.28056442517E+02  0.00000000000E+00 0.  1.
</event>
<event>
 5    1  0.1659417E-003  0.9118800E+02  0.7818608E-02  0.1130116E+00
         25   -1    0    0    0    0  0.00000000000E+00  0.00000000000E+00  0.99999998245E-14  0.12500000000E+03  0.12500000000E+03 0.  0.
        -11    1    3    3    0    0 -0.82323551376E+01  0.17827971846E+01  0.53991447440E+02  0.54644546241E+02  0.51100000000E-03 0. -1.
         23    2    1    0    0    0  0.34574746381E+01 -0.19674284169E+02  0.30504286935E+02  0.88537099542E+02  0.80680077376E+02 0.  0.
         11    1    3    3    0    0  0.11689829776E+02 -0.21457081353E+02 -0.23487160505E+02  0.33892553301E+02  0.51100000000E-03 0.  1.
         22    1    1    0    0    0 -0.34574746381E+01  0.19674284169E+02 -0.30504286935E+02  0.36462900458E+02  0.00000000000E+00 0. -1.
</event>
<event>
 5    1  0.1659417E-003  0.9118800E+02  0.7818608E-02  0.1130116E+00
         25   -1    0    0    0    0  0.00000000000E+00  0.00000000000E+00  0.99999998245E-14  0.12500000000E+03  0.12500000000E+03 0.  0.
        -11    1    3    3    0    0 -0.16719065192E+02  0.48235302449E+02  0.94465026489E+01  0.51917318458E+02  0.51100000000E-03 0.  1.
         23    2    1    0    0    0  0.16115681504E+02  0.25310327688E+02 -0.51798860271E+01  0.94550712697E+02  0.89513564191E+02 0.  0.
         11    1    3    3    0    0  0.32834746696E+02 -0.22924974761E+02 -0.14626388676E+02  0.42633394239E+02  0.51100000000E-03 0. -1.
         22    1    1    0    0    0 -0.16115681504E+02 -0.25310327688E+02  0.51798860271E+01  0.30449287303E+02  0.00000000000E+00 0. -1.
</event>
<event>
 5    1  0.1659417E-003  0.9118800E+02  0.7818608E-02  0.1130116E+00
         25   -1    0    0    0    0  0.00000000000E+00  0.00000000000E+00  0.99999998245E-14  0.12500000000E+03  0.12500000000E+03 0.  0.
        -11    1    3    3    0    0  0.11679813273E+02 -0.21237976452E+02 -0.40335532374E+02  0.47057675825E+02  0.51100000000E-03 0. -1.
         23    2    1    0    0    0 -0.22996390115E+02  0.16004439457E+01 -0.24127281120E+02  0.91630536813E+02  0.85338351303E+02 0.  0.
         11    1    3    3    0    0 -0.34676203388E+02  0.22838420398E+02  0.16208251253E+02  0.44572860988E+02  0.51100000000E-03 0.  1.
         22    1    1    0    0    0  0.22996390115E+02 -0.16004439457E+01  0.24127281120E+02  0.33369463187E+02  0.00000000000E+00 0.  1.
</event>
<event>
 5    1  0.1659417E-003  0.9118800E+02  0.7818608E-02  0.1130116E+00
         25   -1    0    0    0    0  0.00000000000E+00  0.00000000000E+00  0.99999998245E-14  0.12500000000E+03  0.12500000000E+03 0.  0.
        -11    1    3    3    0    0 -0.52448903281E+02 -0.11724319012E+02 -0.27875241082E+02  0.60542350280E+02  0.51100000000E-03 0.  1.
         23    2    1    0    0    0 -0.26132537608E+02 -0.14297416365E+02 -0.65782604913E+01  0.94494276805E+02  0.89434720334E+02 0.  0.
         11    1    3    3    0    0  0.26316365673E+02 -0.25730973532E+01  0.21296980591E+02  0.33951926526E+02  0.51100000000E-03 0. -1.
         22    1    1    0    0    0  0.26132537608E+02  0.14297416365E+02  0.65782604913E+01  0.30505723195E+02  0.00000000000E+00 0.  1.
</event>
<event>
 5    1  0.1659417E-003  0.9118800E+02  0.7818608E-02  0.1130116E+00
         25   -1    0    0    0    0  0.00000000000E+00  0.00000000000E+00  0.99999998245E-14  0.12500000000E+03  0.12500000000E+03 0.  0.
        -11    1    3    3    0    0  0.19068617559E+02  0.17975227020E+02 -0.32567787224E+02  0.41801695264E+02  0.51100000000E-03 0.  1.
         23    2    1    0    0    0  0.78905006715E+01 -0.26505121990E+02 -0.12899543556E+01  0.97315248334E+02  0.93294223206E+02 0.  0.
         11    1    3    3    0    0 -0.11178116887E+02 -0.44480349010E+02  0.31277832869E+02  0.55513553070E+02  0.51100000000E-03 0. -1.
         22    1    1    0    0    0 -0.78905006715E+01  0.26505121990E+02  0.12899543556E+01  0.27684751666E+02  0.00000000000E+00 0. -1.
</event>
<event>
 5    1  0.1659417E-003  0.9118800E+02  0.7818608E-02  0.1130116E+00
         25   -1    0    0    0    0  0.00000000000E+00  0.00000000000E+00  0.99999998245E-14  0.12500000000E+03  0.12500000000E+03 0.  0.
        -11    1    3    3    0    0 -0.25591707504E+02  0.38607875944E+01  0.30232465949E+02  0.39797527203E+02  0.51100000000E-03 0.  1.
         23    2    1    0    0    0 -0.55559582635E+01  0.37559282282E+02  0.25446476539E+02  0.79293419226E+02  0.64794712798E+02 0.  0.
         11    1    3    3    0    0  0.20035749240E+02  0.33698494688E+02 -0.47859894105E+01  0.39495892024E+02  0.51100000000E-03 0. -1.
         22    1    1    0    0    0  0.55559582635E+01 -0.37559282282E+02 -0.25446476539E+02  0.45706580774E+02  0.00000000000E+00 0.  1.
</event>
<event>
 5    1  0.1659417E-003  0.9118800E+02  0.7818608E-02  0.1130116E+00
         25   -1    0    0    0    0  0.00000000000E+00  0.00000000000E+00  0.99999998245E-14  0.12500000000E+03  0.12500000000E+03 0.  0.
        -11    1    3    3    0    0  0.20056300623E+02  0.57010348201E+02  0.10404697361E+02  0.61324487150E+02  0.51100000000E-03 0.  1.
         23    2    1    0    0    0  0.11429550755E+01  0.28654477303E+02  0.33960183043E+01  0.96122355426E+02  0.91681998541E+02 0.  0.
         11    1    3    3    0    0 -0.18913345547E+02 -0.28355870898E+02 -0.70086790569E+01  0.34797868276E+02  0.51100000000E-03 0. -1.
         22    1    1    0    0    0 -0.11429550755E+01 -0.28654477303E+02 -0.33960183043E+01  0.28877644574E+02  0.00000000000E+00 0.  1.
</event>
<event>
 5    1  0.1659417E-003  0.9118800E+02  0.7818608E-02  0.1130116E+00
         25   -1    0    0    0    0  0.00000000000E+00  0.00000000000E+00  0.99999998245E-14  0.12500000000E+03  0.12500000000E+03 0.  0.
        -11    1    3    3    0    0 -0.11360882976E+02 -0.50597171426E+02 -0.32259119960E+02  0.61072041387E+02  0.51100000000E-03 0.  1.
         23    2    1    0    0    0 -0.95565964653E+00 -0.31211544641E+02 -0.27061635268E+02  0.83679231522E+02  0.72765430533E+02 0.  0.
         11    1    3    3    0    0  0.10405223329E+02  0.19385626786E+02  0.51974846927E+01  0.22607190135E+02  0.51100000000E-03 0. -1.
         22    1    1    0    0    0  0.95565964653E+00  0.31211544641E+02  0.27061635268E+02  0.41320768478E+02  0.00000000000E+00 0.  1.
</event>
<event>
 5    1  0.1659417E-003  0.9118800E+02  0.7818608E-02  0.1130116E+00
         25   -1    0    0    0    0  0.00000000000E+00  0.00000000000E+00  0.99999998245E-14  0.12500000000E+03  0.12500000000E+03 0.  0.
        -11    1    3    3    0    0  0.32540631576E+02  0.81704076130E+01 -0.60998723507E+01  0.34100684845E+02  0.51100000000E-03 0. -1.
         23    2    1    0    0    0 -0.67981009585E+01 -0.13090370184E+02  0.29999730243E+02  0.91570136362E+02  0.85249833376E+02 0.  0.
         11    1    3    3    0    0 -0.39338732535E+02 -0.21260777797E+02  0.36099602593E+02  0.57469451517E+02  0.51100000000E-03 0.  1.
         22    1    1    0    0    0  0.67981009585E+01  0.13090370184E+02 -0.29999730243E+02  0.33429863638E+02  0.00000000000E+00 0.  1.
</event>
<event>
 5    1  0.1659417E-003  0.9118800E+02  0.7818608E-02  0.1130116E+00
         25   -1    0    0    0    0  0.00000000000E+00  0.00000000000E+00  0.99999998245E-14  0.12500000000E+03  0.12500000000E+03 0.  0.
        -11    1    3    3    0    0  0.20728962098E+02 -0.32409807487E+02 -0.31032678052E+02  0.49427852455E+02  0.51100000000E-03 0.  1.
         23    2    1    0    0    0 -0.12622143001E+02 -0.83511399362E+00 -0.26572025903E+02  0.95570618934E+02  0.90926644794E+02 0.  0.
         11    1    3    3    0    0 -0.33351105099E+02  0.31574693493E+02  0.44606521493E+01  0.46142766479E+02  0.51100000000E-03 0. -1.
         22    1    1    0    0    0  0.12622143001E+02  0.83511399362E+00  0.26572025903E+02  0.29429381066E+02  0.00000000000E+00 0.  1.
</event>
<event>
 5    1  0.1659417E-003  0.9118800E+02  0.7818608E-02  0.1130116E+00
         25   -1    0    0    0    0  0.00000000000E+00  0.00000000000E+00  0.99999998245E-14  0.12500000000E+03  0.12500000000E+03 0.  0.
        -11    1    3    3    0    0 -0.69083677362E+01 -0.14807696750E+02 -0.41838802847E+02  0.44916353946E+02  0.51100000000E-03 0.  1.
         23    2    1    0    0    0 -0.15467094814E+02  0.23308707168E+02 -0.10069282878E+02  0.95269253129E+02  0.90511398632E+02 0.  0.
         11    1    3    3    0    0 -0.85587270777E+01  0.38116403918E+02  0.31769519969E+02  0.50352899184E+02  0.51100000000E-03 0. -1.
         22    1    1    0    0    0  0.15467094814E+02 -0.23308707168E+02  0.10069282878E+02  0.29730746871E+02  0.00000000000E+00 0. -1.
</event>
<event>
 5    1  0.1659417E-003  0.9118800E+02  0.7818608E-02  0.1130116E+00
         25   -1    0    0    0    0  0.00000000000E+00  0.00000000000E+00  0.99999998245E-14  0.12500000000E+03  0.12500000000E+03 0.  0.
        -11    1    3    3    0    0 -0.86078621192E+01  0.40587997470E+01 -0.34678200148E+02  0.35960349156E+02  0.51100000000E-03 0.  1.
         23    2    1    0    0    0  0.20785675004E+01 -0.22914768193E+02  0.17789831596E+02  0.95915895193E+02  0.91400075483E+02 0.  0.
         11    1    3    3    0    0  0.10686429620E+02 -0.26973567940E+02  0.52468031743E+02  0.59955546038E+02  0.51100000000E-03 0. -1.
         22    1    1    0    0    0 -0.20785675004E+01  0.22914768193E+02 -0.17789831596E+02  0.29084104807E+02  0.00000000000E+00 0. -1.
</event>
<event>
 5    1  0.1659417E-003  0.9118800E+02  0.7818608E-02  0.1130116E+00
         25   -1    0    0    0    0  0.00000000000E+00  0.00000000000E+00  0.99999998245E-14  0.12500000000E+03  0.12500000000E+03 0.  0.
        -11    1    3    3    0    0 -0.24427262773E+02 -0.14768517667E+01  0.40545762470E+02  0.47358537902E+02  0.51100000000E-03 0. -1.
         23    2    1    0    0    0  0.11020890623E+02  0.21295929559E+02  0.12650433046E+02  0.97888930266E+02  0.94059728718E+02 0.  0.
         11    1    3    3    0    0  0.35448153396E+02  0.22772781325E+02 -0.27895329424E+02  0.50530392364E+02  0.51100000000E-03 0.  1.
         22    1    1    0    0    0 -0.11020890623E+02 -0.21295929559E+02 -0.12650433046E+02  0.27111069734E+02  0.00000000000E+00 0.  1.
</event>
<event>
 5    1  0.1659417E-003  0.9118800E+02  0.7818608E-02  0.1130116E+00
         25   -1    0    0    0    0  0.00000000000E+00  0.00000000000E+00  0.99999998245E-14  0.12500000000E+03  0.12500000000E+03 0.  0.
        -11    1    3    3    0    0 -0.29929463309E+02 -0.43614881866E+02 -0.14911523346E+01  0.52917428412E+02  0.51100000000E-03 0.  1.
         23    2    1    0    0    0 -0.84459489535E+01 -0.14531954679E+02 -0.24141561344E+02  0.95583563359E+02  0.90944438202E+02 0.  0.
         11    1    3    3    0    0  0.21483514355E+02  0.29082927187E+02 -0.22650409009E+02  0.42666134948E+02  0.51100000000E-03 0. -1.
         22    1    1    0    0    0  0.84459489535E+01  0.14531954679E+02  0.24141561344E+02  0.29416436641E+02  0.00000000000E+00 0.  1.
</event>
<event>
 5    1  0.1659417E-003  0.9118800E+02  0.7818608E-02  0.1130116E+00
         25   -1    0    0    0    0  0.00000000000E+00  0.00000000000E+00  0.99999998245E-14  0.12500000000E+03  0.12500000000E+03 0.  0.
        -11    1    3    3    0    0 -0.41843027851E+02  0.27070541157E+02 -0.24028652535E+01  0.49894157373E+02  0.51100000000E-03 0.  1.
         23    2    1    0    0    0  0.22136830359E+01  0.24859505974E+02 -0.15140750411E+02  0.95808601389E+02  0.91253221024E+02 0.  0.
         11    1    3    3    0    0  0.44056710887E+02 -0.22110351824E+01 -0.12737885158E+02  0.45914444016E+02  0.51100000000E-03 0. -1.
         22    1    1    0    0    0 -0.22136830359E+01 -0.24859505974E+02  0.15140750411E+02  0.29191398611E+02  0.00000000000E+00 0.  1.
</event>
<event>
 5    1  0.1659417E-003  0.9118800E+02  0.7818608E-02  0.1130116E+00
         25   -1    0    0    0    0  0.00000000000E+00  0.00000000000E+00  0.99999998245E-14  0.12500000000E+03  0.12500000000E+03 0.  0.
        -11    1    3    3    0    0  0.23879473962E+02  0.14391343159E+02 -0.54396478269E+02  0.61125419287E+02  0.51100000000E-03 0.  1.
         23    2    1    0    0    0  0.23829164733E+01  0.65823481091E+01 -0.28397287502E+02  0.95752580712E+02  0.91176450787E+02 0.  0.
         11    1    3    3    0    0 -0.21496557489E+02 -0.78089950501E+01  0.25999190768E+02  0.34627161425E+02  0.51100000000E-03 0. -1.
         22    1    1    0    0    0 -0.23829164733E+01 -0.65823481091E+01  0.28397287502E+02  0.29247419288E+02  0.00000000000E+00 0.  1.
</event>
<event>
 5    1  0.1659417E-003  0.9118800E+02  0.7818608E-02  0.1130116E+00
         25   -1    0    0    0    0  0.00000000000E+00  0.00000000000E+00  0.99999998245E-14  0.12500000000E+03  0.12500000000E+03 0.  0.
        -11    1    3    3    0    0  0.41438569824E+02  0.36933585553E+01  0.65432267528E+01  0.42114246795E+02  0.51100000000E-03 0. -1.
         23    2    1    0    0    0 -0.59470188061E+01  0.26810263215E+02 -0.72202175989E+01  0.96604775252E+02  0.92337391196E+02 0.  0.
         11    1    3    3    0    0 -0.47385588630E+02  0.23116904659E+02 -0.13763444352E+02  0.54490528457E+02  0.51100000000E-03 0.  1.
         22    1    1    0    0    0  0.59470188061E+01 -0.26810263215E+02  0.72202175989E+01  0.28395224748E+02  0.00000000000E+00 0.  1.
</event>
<event>
 5    1  0.1659417E-003  0.9118800E+02  0.7818608E-02  0.1130116E+00
         25   -1    0    0    0    0  0.00000000000E+00  0.00000000000E+00  0.99999998245E-14  0.12500000000E+03  0.12500000000E+03 0.  0.
        -11    1    3    3    0    0  0.52147604784E+02 -0.12099704074E+02  0.27316822049E+02  0.60099786110E+02  0.51100000000E-03 0. -1.
         23    2    1    0    0    0  0.23810907815E+02  0.68538133432E+01  0.11203524374E+02  0.97807114042E+02  0.93950936720E+02 0.  0.
         11    1    3    3    0    0 -0.28336696969E+02  0.18953517417E+02 -0.16113297675E+02  0.37707327932E+02  0.51100000000E-03 0.  1.
         22    1    1    0    0    0 -0.23810907815E+02 -0.68538133432E+01 -0.11203524374E+02  0.27192885958E+02  0.00000000000E+00 0. -1.
</event>
<event>
 5    1  0.1659417E-003  0.9118800E+02  0.7818608E-02  0.1130116E+00
         25   -1    0    0    0    0  0.00000000000E+00  0.00000000000E+00  0.99999998245E-14  0.12500000000E+03  0.12500000000E+03 0.  0.
        -11    1    3    3    0    0 -0.36697242523E+02  0.13173540428E+02  0.21739636819E+02  0.44641254300E+02  0.51100000000E-03 0.  1.
         23    2    1    0    0    0 -0.12967507831E+02 -0.23819679805E+02 -0.67939055562E+01  0.97041270450E+02  0.92926409661E+02 0.  0.
         11    1    3    3    0    0  0.23729734691E+02 -0.36993220233E+02 -0.28533542376E+02  0.52400016150E+02  0.51100000000E-03 0. -1.
         22    1    1    0    0    0  0.12967507831E+02  0.23819679805E+02  0.67939055562E+01  0.27958729550E+02  0.00000000000E+00 0. -1.
</event>
<event>
 5    1  0.1659417E-003  0.9118800E+02  0.7818608E-02  0.1130116E+00
         25   -1    0    0    0    0  0.00000000000E+00  0.00000000000E+00  0.99999998245E-14  0.12500000000E+03  0.12500000000E+03 0.  0.
        -11    1    3    3    0    0  0.10091224994E+02 -0.27653641957E+02 -0.20269278036E+02  0.35740738209E+02  0.51100000000E-03 0. -1.
         23    2    1    0    0    0 -0.23128070026E+02  0.32671290402E+00  0.19587842584E+02  0.94689969622E+02  0.89707816858E+02 0.  0.
         11    1    3    3    0    0 -0.33219295019E+02  0.27980354861E+02  0.39857120620E+02  0.58949231413E+02  0.51100000000E-03 0.  1.
         22    1    1    0    0    0  0.23128070026E+02 -0.32671290402E+00 -0.19587842584E+02  0.30310030378E+02  0.00000000000E+00 0.  1.
</event>
<event>
 5    1  0.1659417E-003  0.9118800E+02  0.7818608E-02  0.1130116E+00
         25   -1    0    0    0    0  0.00000000000E+00  0.00000000000E+00  0.99999998245E-14  0.12500000000E+03  0.12500000000E+03 0.  0.
        -11    1    3    3    0    0 -0.66891970317E+01 -0.13809237717E+02 -0.30031896868E+02  0.33724697671E+02  0.51100000000E-03 0. -1.
         23    2    1    0    0    0 -0.71996864766E+01  0.12869137412E+02  0.25617998209E+02  0.95441041708E+02  0.90748335670E+02 0.  0.
         11    1    3    3    0    0 -0.51048944497E+00  0.26678375129E+02  0.55649895077E+02  0.61716344037E+02  0.51100000000E-03 0.  1.
         22    1    1    0    0    0  0.71996864766E+01 -0.12869137412E+02 -0.25617998209E+02  0.29558958292E+02  0.00000000000E+00 0.  1.
</event>
<event>
 5    1  0.1659417E-003  0.9118800E+02  0.7818608E-02  0.1130116E+00
         25   -1    0    0    0    0  0.00000000000E+00  0.00000000000E+00  0.99999998245E-14  0.12500000000E+03  0.12500000000E+03 0.  0.
        -11    1    3    3    0    0  0.69646669411E+01  0.19561351136E+02 -0.46855415120E+02  0.51250199709E+02  0.51100000000E-03 0. -1.
         23    2    1    0    0    0  0.59173622837E+01  0.30667895885E+02 -0.65288626858E+01  0.93091363827E+02  0.87451935124E+02 0.  0.
         11    1    3    3    0    0 -0.10473046574E+01  0.11106544750E+02  0.40326552434E+02  0.41841164119E+02  0.51100000000E-03 0.  1.
         22    1    1    0    0    0 -0.59173622837E+01 -0.30667895885E+02  0.65288626858E+01  0.31908636173E+02  0.00000000000E+00 0. -1.
</event>
<event>
 5    1  0.1659417E-003  0.9118800E+02  0.7818608E-02  0.1130116E+00
         25   -1    0    0    0    0  0.00000000000E+00  0.00000000000E+00  0.99999998245E-14  0.12500000000E+03  0.12500000000E+03 0.  0.
        -11    1    3    3    0    0 -0.17017996424E+02  0.43156689048E+02  0.67200739288E+01  0.46875061661E+02  0.51100000000E-03 0. -1.
         23    2    1    0    0    0 -0.37744705988E+00 -0.93195224218E+01  0.19494410731E+02  0.10338916905E+03  0.10110535230E+03 0.  0.
         11    1    3    3    0    0  0.16640549365E+02 -0.52476211469E+02  0.12774336802E+02  0.56514107392E+02  0.51100000000E-03 0.  1.
         22    1    1    0    0    0  0.37744705988E+00  0.93195224218E+01 -0.19494410731E+02  0.21610830947E+02  0.00000000000E+00 0.  1.
</event>
<event>
 5    1  0.1659417E-003  0.9118800E+02  0.7818608E-02  0.1130116E+00
         25   -1    0    0    0    0  0.00000000000E+00  0.00000000000E+00  0.99999998245E-14  0.12500000000E+03  0.12500000000E+03 0.  0.
        -11    1    3    3    0    0  0.49200513608E+02 -0.31015246534E+02 -0.98198964340E+01  0.58983611479E+02  0.51100000000E-03 0. -1.
         23    2    1    0    0    0  0.20693683571E+02 -0.10103093295E+02  0.10422245153E+02  0.99723049474E+02  0.96466379473E+02 0.  0.
         11    1    3    3    0    0 -0.28506830038E+02  0.20912153239E+02  0.20242141587E+02  0.40739437995E+02  0.51100000000E-03 0.  1.
         22    1    1    0    0    0 -0.20693683571E+02  0.10103093295E+02 -0.10422245153E+02  0.25276950526E+02  0.00000000000E+00 0. -1.
</event>
<event>
 5    1  0.1659417E-003  0.9118800E+02  0.7818608E-02  0.1130116E+00
         25   -1    0    0    0    0  0.00000000000E+00  0.00000000000E+00  0.99999998245E-14  0.12500000000E+03  0.12500000000E+03 0.  0.
        -11    1    3    3    0    0 -0.39590120147E+01 -0.43706460923E+02  0.71096466979E+01  0.44457570547E+02  0.51100000000E-03 0.  1.
         23    2    1    0    0    0  0.12085635384E+02 -0.65110536457E+01 -0.25220200030E+02  0.96285632660E+02  0.91904342471E+02 0.  0.
         11    1    3    3    0    0  0.16044647398E+02  0.37195407277E+02 -0.32329846728E+02  0.51828062113E+02  0.51100000000E-03 0. -1.
         22    1    1    0    0    0 -0.12085635384E+02  0.65110536457E+01  0.25220200030E+02  0.28714367340E+02  0.00000000000E+00 0. -1.
</event>
<event>
 5    1  0.1659417E-003  0.9118800E+02  0.7818608E-02  0.1130116E+00
         25   -1    0    0    0    0  0.00000000000E+00  0.00000000000E+00  0.99999998245E-14  0.12500000000E+03  0.12500000000E+03 0.  0.
        -11    1    3    3    0    0  0.28289971509E+02  0.72912561712E+01  0.94816725013E+01  0.30714605943E+02  0.51100000000E-03 0.  1.
         23    2    1    0    0    0 -0.14083719407E+02 -0.87232847600E+01 -0.29951226762E+02  0.90772484258E+02  0.84072118234E+02 0.  0.
         11    1    3    3    0    0 -0.42373690916E+02 -0.16014540931E+02 -0.39432899263E+02  0.60057878315E+02  0.51100000000E-03 0. -1.
         22    1    1    0    0    0  0.14083719407E+02  0.87232847600E+01  0.29951226762E+02  0.34227515742E+02  0.00000000000E+00 0. -1.
</event>
<event>
 5    1  0.1659417E-003  0.9118800E+02  0.7818608E-02  0.1130116E+00
         25   -1    0    0    0    0  0.00000000000E+00  0.00000000000E+00  0.99999998245E-14  0.12500000000E+03  0.12500000000E+03 0.  0.
        -11    1    3    3    0    0  0.47776607623E+01  0.87405161395E+01  0.35384293417E+02  0.36759636637E+02  0.51100000000E-03 0.  1.
         23    2    1    0    0    0  0.15374017163E+02  0.12031039782E+02 -0.22219775139E+02  0.95422563850E+02  0.90722880039E+02 0.  0.
         11    1    3    3    0    0  0.10596356401E+02  0.32905236420E+01 -0.57604068556E+02  0.58662927214E+02  0.51100000000E-03 0. -1.
         22    1    1    0    0    0 -0.15374017163E+02 -0.12031039782E+02  0.22219775139E+02  0.29577436150E+02  0.00000000000E+00 0. -1.
</event>
<event>
 5    1  0.1659417E-003  0.9118800E+02  0.7818608E-02  0.1130116E+00
         25   -1    0    0    0    0  0.00000000000E+00  0.00000000000E+00  0.99999998245E-14  0.12500000000E+03  0.12500000000E+03 0.  0.
        -11    1    3    3    0    0  0.97444779854E-01  0.26905298802E+02 -0.23004836025E+02  0.35399535024E+02  0.51100000000E-03 0.  1.
         23    2    1    0    0    0 -0.11703395581E+02 -0.14793424123E+02  0.20732438510E+02  0.96970571323E+02  0.92831259986E+02 0.  0.
         11    1    3    3    0    0 -0.11800840361E+02 -0.41698722925E+02  0.43737274535E+02  0.61571036298E+02  0.51100000000E-03 0. -1.
         22    1    1    0    0    0  0.11703395581E+02  0.14793424123E+02 -0.20732438510E+02  0.28029428677E+02  0.00000000000E+00 0. -1.
</event>
<event>
 5    1  0.1659417E-003  0.9118800E+02  0.7818608E-02  0.1130116E+00
         25   -1    0    0    0    0  0.00000000000E+00  0.00000000000E+00  0.99999998245E-14  0.12500000000E+03  0.12500000000E+03 0.  0.
        -11    1    3    3    0    0  0.17248934068E+02  0.18999721803E+02  0.52178655295E+02  0.58147461026E+02  0.51100000000E-03 0. -1.
         23    2    1    0    0    0  0.22418175011E+02  0.52360229395E+01  0.16678194514E+02  0.96571973700E+02  0.92292976033E+02 0.  0.
         11    1    3    3    0    0  0.51692409429E+01 -0.13763698863E+02 -0.35500460781E+02  0.38424512674E+02  0.51100000000E-03 0.  1.
         22    1    1    0    0    0 -0.22418175011E+02 -0.52360229395E+01 -0.16678194514E+02  0.28428026300E+02  0.00000000000E+00 0. -1.
</event>
<event>
 5    1  0.1659417E-003  0.9118800E+02  0.7818608E-02  0.1130116E+00
         25   -1    0    0    0    0  0.00000000000E+00  0.00000000000E+00  0.99999998245E-14  0.12500000000E+03  0.12500000000E+03 0.  0.
        -11    1    3    3    0    0 -0.39354957068E+02  0.41860272256E+02 -0.10435174764E+02  0.58395101779E+02  0.51100000000E-03 0. -1.
         23    2    1    0    0    0 -0.73443468328E+01  0.24013598440E+02 -0.15645804258E+02  0.95413118932E+02  0.90709865688E+02 0.  0.
         11    1    3    3    0    0  0.32010610236E+02 -0.17846673816E+02 -0.52106294945E+01  0.37018017153E+02  0.51100000000E-03 0.  1.
         22    1    1    0    0    0  0.73443468328E+01 -0.24013598440E+02  0.15645804258E+02  0.29586881068E+02  0.00000000000E+00 0. -1.
</event>
<event>
 5    1  0.1659417E-003  0.9118800E+02  0.7818608E-02  0.1130116E+00
         25   -1    0    0    0    0  0.00000000000E+00  0.00000000000E+00  0.99999998245E-14  0.12500000000E+03  0.12500000000E+03 0.  0.
        -11    1    3    3    0    0 -0.29440994831E+02  0.92556754466E+01 -0.32886496150E+02  0.45099460461E+02  0.51100000000E-03 0.  1.
         23    2    1    0    0    0 -0.17515147091E+02 -0.27798651958E+02 -0.21784172159E+02  0.85577980963E+02  0.75957193476E+02 0.  0.
         11    1    3    3    0    0  0.11925847741E+02 -0.37054327405E+02  0.11102323991E+02  0.40478520502E+02  0.51100000000E-03 0. -1.
         22    1    1    0    0    0  0.17515147091E+02  0.27798651958E+02  0.21784172159E+02  0.39422019037E+02  0.00000000000E+00 0.  1.
</event>
<event>
 5    1  0.1659417E-003  0.9118800E+02  0.7818608E-02  0.1130116E+00
         25   -1    0    0    0    0  0.00000000000E+00  0.00000000000E+00  0.99999998245E-14  0.12500000000E+03  0.12500000000E+03 0.  0.
        -11    1    3    3    0    0  0.53757828564E+02  0.16907925937E+02  0.19740211231E+02  0.59711456447E+02  0.51100000000E-03 0.  1.
         23    2    1    0    0    0  0.18218992453E+02  0.18397827997E+02  0.13412568864E+02  0.95839945738E+02  0.91296146877E+02 0.  0.
         11    1    3    3    0    0 -0.35538836111E+02  0.14899020608E+01 -0.63276423673E+01  0.36128489291E+02  0.51100000000E-03 0. -1.
         22    1    1    0    0    0 -0.18218992453E+02 -0.18397827997E+02 -0.13412568864E+02  0.29160054262E+02  0.00000000000E+00 0.  1.
</event>
<event>
 5    1  0.1659417E-003  0.9118800E+02  0.7818608E-02  0.1130116E+00
         25   -1    0    0    0    0  0.00000000000E+00  0.00000000000E+00  0.99999998245E-14  0.12500000000E+03  0.12500000000E+03 0.  0.
        -11    1    3    3    0    0  0.76636949604E+01 -0.32210998395E+01 -0.10941751106E+02  0.13741529105E+02  0.51100000000E-03 0.  1.
         23    2    1    0    0    0 -0.28311575954E+02  0.99915865542E+01  0.38423870356E+02  0.76237607236E+02  0.58603769581E+02 0.  0.
         11    1    3    3    0    0 -0.35975270915E+02  0.13212686394E+02  0.49365621462E+02  0.62496078131E+02  0.51100000000E-03 0. -1.
         22    1    1    0    0    0  0.28311575954E+02 -0.99915865542E+01 -0.38423870356E+02  0.48762392764E+02  0.00000000000E+00 0. -1.
</event>
<event>
 5    1  0.1659417E-003  0.9118800E+02  0.7818608E-02  0.1130116E+00
         25   -1    0    0    0    0  0.00000000000E+00  0.00000000000E+00  0.99999998245E-14  0.12500000000E+03  0.12500000000E+03 0.  0.
        -11    1    3    3    0    0  0.36037111526E+02  0.11264131349E+01  0.24025045710E+01  0.36134668148E+02  0.51100000000E-03 0.  1.
         23    2    1    0    0    0 -0.20958049918E+02  0.10344296349E+02  0.17489157701E+02  0.95808991788E+02  0.91253755797E+02 0.  0.
         11    1    3    3    0    0 -0.56995161444E+02  0.92178832142E+01  0.15086653130E+02  0.59674323640E+02  0.51100000000E-03 0. -1.
         22    1    1    0    0    0  0.20958049918E+02 -0.10344296349E+02 -0.17489157701E+02  0.29191008212E+02  0.00000000000E+00 0. -1.
</event>
<event>
 5    1  0.1659417E-003  0.9118800E+02  0.7818608E-02  0.1130116E+00
         25   -1    0    0    0    0  0.00000000000E+00  0.00000000000E+00  0.99999998245E-14  0.12500000000E+03  0.12500000000E+03 0.  0.
        -11    1    3    3    0    0  0.28842429212E+02 -0.28619999276E+02  0.40819356991E+02  0.57595225382E+02  0.51100000000E-03 0.  1.
         23    2    1    0    0    0  0.21311013516E+02 -0.18765045697E+02  0.41528972050E+01  0.96302738941E+02  0.91927605947E+02 0.  0.
         11    1    3    3    0    0 -0.75314156954E+01  0.98549535787E+01 -0.36666459786E+02  0.38707513559E+02  0.51100000000E-03 0. -1.
         22    1    1    0    0    0 -0.21311013516E+02  0.18765045697E+02 -0.41528972050E+01  0.28697261059E+02  0.00000000000E+00 0.  1.
</event>
<event>
 5    1  0.1659417E-003  0.9118800E+02  0.7818608E-02  0.1130116E+00
         25   -1    0    0    0    0  0.00000000000E+00  0.00000000000E+00  0.99999998245E-14  0.12500000000E+03  0.12500000000E+03 0.  0.
        -11    1    3    3    0    0  0.40024501058E+02 -0.53953853356E+01 -0.32891560491E+02  0.52085752559E+02  0.51100000000E-03 0.  1.
         23    2    1    0    0    0  0.27440649368E+02 -0.74929910753E+01  0.84300038536E+01  0.95331850108E+02  0.90597806414E+02 0.  0.
         11    1    3    3    0    0 -0.12583851689E+02 -0.20976057396E+01  0.41321564344E+02  0.43246097550E+02  0.51100000000E-03 0. -1.
         22    1    1    0    0    0 -0.27440649368E+02  0.74929910753E+01 -0.84300038536E+01  0.29668149892E+02  0.00000000000E+00 0. -1.
</event>
<event>
 5    1  0.1659417E-003  0.9118800E+02  0.7818608E-02  0.1130116E+00
         25   -1    0    0    0    0  0.00000000000E+00  0.00000000000E+00  0.99999998245E-14  0.12500000000E+03  0.12500000000E+03 0.  0.
        -11    1    3    3    0    0  0.35489116603E+02  0.59353054098E+01 -0.56950224337E+01  0.36429912549E+02  0.51100000000E-03 0.  1.
         23    2    1    0    0    0 -0.19361039548E+02  0.23593197419E+02 -0.51073662053E+01  0.94055307299E+02  0.88819067912E+02 0.  0.
         11    1    3    3    0    0 -0.54850156151E+02  0.17657892009E+02  0.58765622839E+00  0.57625394750E+02  0.51100000000E-03 0. -1.
         22    1    1    0    0    0  0.19361039548E+02 -0.23593197419E+02  0.51073662053E+01  0.30944692701E+02  0.00000000000E+00 0. -1.
</event>
<event>
 5    1  0.1659417E-003  0.9118800E+02  0.7818608E-02  0.1130116E+00
         25   -1    0    0    0    0  0.00000000000E+00  0.00000000000E+00  0.99999998245E-14  0.12500000000E+03  0.12500000000E+03 0.  0.
        -11    1    3    3    0    0 -0.47988099616E+01 -0.61356460141E+01 -0.35186374288E+02  0.36038252800E+02  0.51100000000E-03 0.  1.
         23    2    1    0    0    0 -0.13336815355E+02 -0.36450452787E+01  0.24760281849E+02  0.96641076252E+02  0.92386519921E+02 0.  0.
         11    1    3    3    0    0 -0.85380053932E+01  0.24906007355E+01  0.59946656137E+02  0.60602823452E+02  0.51100000000E-03 0. -1.
         22    1    1    0    0    0  0.13336815355E+02  0.36450452787E+01 -0.24760281849E+02  0.28358923748E+02  0.00000000000E+00 0. -1.
</event>
<event>
 5    1  0.1659417E-003  0.9118800E+02  0.7818608E-02  0.1130116E+00
         25   -1    0    0    0    0  0.00000000000E+00  0.00000000000E+00  0.99999998245E-14  0.12500000000E+03  0.12500000000E+03 0.  0.
        -11    1    3    3    0    0  0.11114224623E+02 -0.57490026103E+02  0.15813674174E+02  0.60652299062E+02  0.51100000000E-03 0. -1.
         23    2    1    0    0    0  0.15501614421E+02 -0.24111002282E+02  0.60701491590E+01  0.95700047926E+02  0.91104401549E+02 0.  0.
         11    1    3    3    0    0  0.43873897984E+01  0.33379023821E+02 -0.97435250154E+01  0.35047748865E+02  0.51100000000E-03 0.  1.
         22    1    1    0    0    0 -0.15501614421E+02  0.24111002282E+02 -0.60701491590E+01  0.29299952074E+02  0.00000000000E+00 0. -1.
</event>
<event>
 5    1  0.1659417E-003  0.9118800E+02  0.7818608E-02  0.1130116E+00
         25   -1    0    0    0    0  0.00000000000E+00  0.00000000000E+00  0.99999998245E-14  0.12500000000E+03  0.12500000000E+03 0.  0.
        -11    1    3    3    0    0 -0.57809150000E+01  0.23026231020E+02  0.48792597317E+02  0.54261808359E+02  0.51100000000E-03 0.  1.
         23    2    1    0    0    0 -0.10568778022E+02  0.31013862712E+02  0.15647788754E+02  0.88690055879E+02  0.80916710078E+02 0.  0.
         11    1    3    3    0    0 -0.47878630225E+01  0.79876316919E+01 -0.33144808563E+02  0.34428247520E+02  0.51100000000E-03 0. -1.
         22    1    1    0    0    0  0.10568778022E+02 -0.31013862712E+02 -0.15647788754E+02  0.36309944121E+02  0.00000000000E+00 0.  1.
</event>
<event>
 5    1  0.1659417E-003  0.9118800E+02  0.7818608E-02  0.1130116E+00
         25   -1    0    0    0    0  0.00000000000E+00  0.00000000000E+00  0.99999998245E-14  0.12500000000E+03  0.12500000000E+03 0.  0.
        -11    1    3    3    0    0 -0.33230434133E+02 -0.19696508238E+02 -0.16434943548E+02  0.41980013805E+02  0.51100000000E-03 0.  1.
         23    2    1    0    0    0  0.46132343382E+01  0.17123984490E+02 -0.23829188337E+02  0.95295741169E+02  0.90547972326E+02 0.  0.
         11    1    3    3    0    0  0.37843668471E+02  0.36820492728E+02 -0.73942447895E+01  0.53315727364E+02  0.51100000000E-03 0. -1.
         22    1    1    0    0    0 -0.46132343382E+01 -0.17123984490E+02  0.23829188337E+02  0.29704258831E+02  0.00000000000E+00 0. -1.
</event>
<event>
 5    1  0.1659417E-003  0.9118800E+02  0.7818608E-02  0.1130116E+00
         25   -1    0    0    0    0  0.00000000000E+00  0.00000000000E+00  0.99999998245E-14  0.12500000000E+03  0.12500000000E+03 0.  0.
        -11    1    3    3    0    0  0.14184161732E+02 -0.48145325411E+02 -0.29630542670E+02  0.58284919680E+02  0.51100000000E-03 0.  1.
         23    2    1    0    0    0  0.76827865144E+00 -0.13893040996E+02 -0.26331154164E+02  0.95218520523E+02  0.90441307658E+02 0.  0.
         11    1    3    3    0    0 -0.13415883081E+02  0.34252284415E+02  0.32993885056E+01  0.36933600843E+02  0.51100000000E-03 0. -1.
         22    1    1    0    0    0 -0.76827865144E+00  0.13893040996E+02  0.26331154164E+02  0.29781479477E+02  0.00000000000E+00 0. -1.
</event>
<event>
 5    1  0.1659417E-003  0.9118800E+02  0.7818608E-02  0.1130116E+00
         25   -1    0    0    0    0  0.00000000000E+00  0.00000000000E+00  0.99999998245E-14  0.12500000000E+03  0.12500000000E+03 0.  0.
        -11    1    3    3    0    0  0.28131566625E+02 -0.25099254250E+02 -0.16600742865E+02  0.41193959127E+02  0.51100000000E-03 0. -1.
         23    2    1    0    0    0 -0.23109787342E+02 -0.14712920553E+01 -0.14537739678E+02  0.97658221597E+02  0.93752628759E+02 0.  0.
         11    1    3    3    0    0 -0.51241353967E+02  0.23627962194E+02  0.20630031866E+01  0.56464262470E+02  0.51100000000E-03 0.  1.
         22    1    1    0    0    0  0.23109787342E+02  0.14712920553E+01  0.14537739678E+02  0.27341778403E+02  0.00000000000E+00 0. -1.
</event>
<event>
 5    1  0.1659417E-003  0.9118800E+02  0.7818608E-02  0.1130116E+00
         25   -1    0    0    0    0  0.00000000000E+00  0.00000000000E+00  0.99999998245E-14  0.12500000000E+03  0.12500000000E+03 0.  0.
        -11    1    3    3    0    0  0.35082153515E+02  0.39496232510E+02  0.19607840829E+02  0.56348711609E+02  0.51100000000E-03 0.  1.
         23    2    1    0    0    0  0.24690344798E+01  0.21978711676E+02  0.22459993272E+02  0.93478401120E+02  0.88003410615E+02 0.  0.
         11    1    3    3    0    0 -0.32613119035E+02 -0.17517520834E+02  0.28521524431E+01  0.37129689511E+02  0.51100000000E-03 0. -1.
         22    1    1    0    0    0 -0.24690344798E+01 -0.21978711676E+02 -0.22459993272E+02  0.31521598880E+02  0.00000000000E+00 0.  1.
</event>
<event>
 5    1  0.1659417E-003  0.9118800E+02  0.7818608E-02  0.1130116E+00
         25   -1    0    0    0    0  0.00000000000E+00  0.00000000000E+00  0.99999998245E-14  0.12500000000E+03  0.12500000000E+03 0.  0.
        -11    1    3    3    0    0  0.37643192780E+02  0.39494294408E+02  0.11907909663E+02  0.55844494502E+02  0.51100000000E-03 0. -1.
         23    2    1    0    0    0  0.22690876652E+02  0.26180329957E+02 -0.13171845329E+02  0.87935420288E+02  0.79742429559E+02 0.  0.
         11    1    3    3    0    0 -0.14952316128E+02 -0.13313964451E+02 -0.25079754993E+02  0.32090925785E+02  0.51100000000E-03 0.  1.
         22    1    1    0    0    0 -0.22690876652E+02 -0.26180329957E+02  0.13171845329E+02  0.37064579712E+02  0.00000000000E+00 0. -1.
</event>
<event>
 5    1  0.1659417E-003  0.9118800E+02  0.7818608E-02  0.1130116E+00
         25   -1    0    0    0    0  0.00000000000E+00  0.00000000000E+00  0.99999998245E-14  0.12500000000E+03  0.12500000000E+03 0.  0.
        -11    1    3    3    0    0 -0.26982492417E+01  0.42924264633E+00 -0.47786758901E+02  0.47864800477E+02  0.51100000000E-03 0. -1.
         23    2    1    0    0    0  0.26229723056E+02  0.20461192584E+01 -0.38651531520E+02  0.78243975100E+02  0.62737498955E+02 0.  0.
         11    1    3    3    0    0  0.28927972297E+02  0.16168766121E+01  0.91352273812E+01  0.30379174623E+02  0.51100000000E-03 0.  1.
         22    1    1    0    0    0 -0.26229723056E+02 -0.20461192584E+01  0.38651531520E+02  0.46756024900E+02  0.00000000000E+00 0. -1.
</event>
<event>
 5    1  0.1659417E-003  0.9118800E+02  0.7818608E-02  0.1130116E+00
         25   -1    0    0    0    0  0.00000000000E+00  0.00000000000E+00  0.99999998245E-14  0.12500000000E+03  0.12500000000E+03 0.  0.
        -11    1    3    3    0    0 -0.46396203133E+01  0.29652790610E+02  0.22369840325E+02  0.37432924332E+02  0.51100000000E-03 0.  1.
         23    2    1    0    0    0  0.13823372387E+02 -0.23947380345E+02  0.37907553434E+01  0.97090638209E+02  0.92992793012E+02 0.  0.
         11    1    3    3    0    0  0.18462992700E+02 -0.53600170955E+02 -0.18579084982E+02  0.59657713876E+02  0.51100000000E-03 0. -1.
         22    1    1    0    0    0 -0.13823372387E+02  0.23947380345E+02 -0.37907553434E+01  0.27909361791E+02  0.00000000000E+00 0.  1.
</event>
<event>
 5    1  0.1659417E-003  0.9118800E+02  0.7818608E-02  0.1130116E+00
         25   -1    0    0    0    0  0.00000000000E+00  0.00000000000E+00  0.99999998245E-14  0.12500000000E+03  0.12500000000E+03 0.  0.
        -11    1    3    3    0    0 -0.23872015626E+02  0.45249322993E+02  0.96349633123E+01  0.52059647325E+02  0.51100000000E-03 0. -1.
         23    2    1    0    0    0 -0.25694452179E+02  0.25119003948E+01 -0.74623581769E+01  0.98126196661E+02  0.94374515443E+02 0.  0.
         11    1    3    3    0    0 -0.18224365527E+01 -0.42737422598E+02 -0.17097321489E+02  0.46066549335E+02  0.51100000000E-03 0.  1.
         22    1    1    0    0    0  0.25694452179E+02 -0.25119003948E+01  0.74623581769E+01  0.26873803339E+02  0.00000000000E+00 0. -1.
</event>
<event>
 5    1  0.1659417E-003  0.9118800E+02  0.7818608E-02  0.1130116E+00
         25   -1    0    0    0    0  0.00000000000E+00  0.00000000000E+00  0.99999998245E-14  0.12500000000E+03  0.12500000000E+03 0.  0.
        -11    1    3    3    0    0 -0.37301070686E+02 -0.28620304854E+02 -0.93087484517E+01  0.47928535574E+02  0.51100000000E-03 0. -1.
         23    2    1    0    0    0 -0.14816342986E+02 -0.54260797648E+01  0.25244294380E+02  0.95230203900E+02  0.90457453949E+02 0.  0.
         11    1    3    3    0    0  0.22484727700E+02  0.23194225090E+02  0.34553042832E+02  0.47301668326E+02  0.51100000000E-03 0.  1.
         22    1    1    0    0    0  0.14816342986E+02  0.54260797648E+01 -0.25244294380E+02  0.29769796100E+02  0.00000000000E+00 0.  1.
</event>
<event>
 5    1  0.1659417E-003  0.9118800E+02  0.7818608E-02  0.1130116E+00
         25   -1    0    0    0    0  0.00000000000E+00  0.00000000000E+00  0.99999998245E-14  0.12500000000E+03  0.12500000000E+03 0.  0.
        -11    1    3    3    0    0 -0.25541827689E+02  0.22144796220E+02 -0.47578734665E+01  0.34138165175E+02  0.51100000000E-03 0. -1.
         23    2    1    0    0    0  0.21469455534E+02 -0.18192281806E+02  0.35455414584E+01  0.96636863670E+02  0.92380820074E+02 0.  0.
         11    1    3    3    0    0  0.47011283223E+02 -0.40337078026E+02  0.83034149249E+01  0.62498698495E+02  0.51100000000E-03 0.  1.
         22    1    1    0    0    0 -0.21469455534E+02  0.18192281806E+02 -0.35455414584E+01  0.28363136330E+02  0.00000000000E+00 0.  1.
</event>
<event>
 5    1  0.1659417E-003  0.9118800E+02  0.7818608E-02  0.1130116E+00
         25   -1    0    0    0    0  0.00000000000E+00  0.00000000000E+00  0.99999998245E-14  0.12500000000E+03  0.12500000000E+03 0.  0.
        -11    1    3    3    0    0 -0.10129355054E+02 -0.60386681655E+02 -0.41198558114E+01  0.61368789847E+02  0.51100000000E-03 0.  1.
         23    2    1    0    0    0 -0.86951639838E+01 -0.27113937905E+02  0.54261627570E+01  0.96013541994E+02  0.91533521174E+02 0.  0.
         11    1    3    3    0    0  0.14341910699E+01  0.33272743749E+02  0.95460185683E+01  0.34644752148E+02  0.51100000000E-03 0. -1.
         22    1    1    0    0    0  0.86951639838E+01  0.27113937905E+02 -0.54261627570E+01  0.28986458006E+02  0.00000000000E+00 0.  1.
</event>
<event>
 5    1  0.1659417E-003  0.9118800E+02  0.7818608E-02  0.1130116E+00
         25   -1    0    0    0    0  0.00000000000E+00  0.00000000000E+00  0.99999998245E-14  0.12500000000E+03  0.12500000000E+03 0.  0.
        -11    1    3    3    0    0  0.10381370812E+02  0.29400551214E+02  0.14011915645E+02  0.34183315403E+02  0.51100000000E-03 0. -1.
         23    2    1    0    0    0 -0.90871928677E+01 -0.15654513917E+02 -0.23054572315E+02  0.95688667980E+02  0.91088786329E+02 0.  0.
         11    1    3    3    0    0 -0.19468563679E+02 -0.45055065131E+02 -0.37066487960E+02  0.61505352577E+02  0.51100000000E-03 0.  1.
         22    1    1    0    0    0  0.90871928677E+01  0.15654513917E+02  0.23054572315E+02  0.29311332020E+02  0.00000000000E+00 0.  1.
</event>
<event>
 5    1  0.1659417E-003  0.9118800E+02  0.7818608E-02  0.1130116E+00
         25   -1    0    0    0    0  0.00000000000E+00  0.00000000000E+00  0.99999998245E-14  0.12500000000E+03  0.12500000000E+03 0.  0.
        -11    1    3    3    0    0  0.17529783273E+02 -0.28913658226E+02  0.42943637350E+02  0.54657560527E+02  0.51100000000E-03 0.  1.
         23    2    1    0    0    0 -0.12717009363E+02 -0.71118729475E+01  0.25064984471E+02  0.96007681871E+02  0.91525518123E+02 0.  0.
         11    1    3    3    0    0 -0.30246792637E+02  0.21801785278E+02 -0.17878652879E+02  0.41350121344E+02  0.51100000000E-03 0. -1.
         22    1    1    0    0    0  0.12717009363E+02  0.71118729475E+01 -0.25064984471E+02  0.28992318129E+02  0.00000000000E+00 0.  1.
</event>
<event>
 5    1  0.1659417E-003  0.9118800E+02  0.7818608E-02  0.1130116E+00
         25   -1    0    0    0    0  0.00000000000E+00  0.00000000000E+00  0.99999998245E-14  0.12500000000E+03  0.12500000000E+03 0.  0.
        -11    1    3    3    0    0  0.22585437407E+02 -0.53004381688E+02  0.13482959529E+02  0.59172262581E+02  0.51100000000E-03 0. -1.
         23    2    1    0    0    0  0.19901390800E+02 -0.21311955210E+02 -0.41626531591E+01  0.95545077288E+02  0.90891525028E+02 0.  0.
         11    1    3    3    0    0 -0.26840466071E+01  0.31692426478E+02 -0.17645612688E+02  0.36372814706E+02  0.51100000000E-03 0.  1.
         22    1    1    0    0    0 -0.19901390800E+02  0.21311955210E+02  0.41626531591E+01  0.29454922712E+02  0.00000000000E+00 0. -1.
</event>
<event>
 5    1  0.1659417E-003  0.9118800E+02  0.7818608E-02  0.1130116E+00
         25   -1    0    0    0    0  0.00000000000E+00  0.00000000000E+00  0.99999998245E-14  0.12500000000E+03  0.12500000000E+03 0.  0.
        -11    1    3    3    0    0 -0.30023598692E+02  0.32526966892E+02  0.16137974290E+02  0.47115329438E+02  0.51100000000E-03 0.  1.
         23    2    1    0    0    0 -0.15382464107E+02  0.62841845477E+01 -0.23103577944E+02  0.96541495274E+02  0.92251687347E+02 0.  0.
         11    1    3    3    0    0  0.14641134585E+02 -0.26242782345E+02 -0.39241552235E+02  0.49426165835E+02  0.51100000000E-03 0. -1.
         22    1    1    0    0    0  0.15382464107E+02 -0.62841845477E+01  0.23103577944E+02  0.28458504726E+02  0.00000000000E+00 0.  1.
</event>
<event>
 5    1  0.1659417E-003  0.9118800E+02  0.7818608E-02  0.1130116E+00
         25   -1    0    0    0    0  0.00000000000E+00  0.00000000000E+00  0.99999998245E-14  0.12500000000E+03  0.12500000000E+03 0.  0.
        -11    1    3    3    0    0  0.39337006362E+02 -0.21932775782E+02 -0.19470664437E+01  0.45080348169E+02  0.51100000000E-03 0. -1.
         23    2    1    0    0    0  0.15648297216E+02  0.19574364502E+02 -0.16449095897E+02  0.95023380657E+02  0.90171199195E+02 0.  0.
         11    1    3    3    0    0 -0.23688709146E+02  0.41507140284E+02 -0.14502029453E+02  0.49943032488E+02  0.51100000000E-03 0.  1.
         22    1    1    0    0    0 -0.15648297216E+02 -0.19574364502E+02  0.16449095897E+02  0.29976619343E+02  0.00000000000E+00 0.  1.
</event>
<event>
 5    1  0.1659417E-003  0.9118800E+02  0.7818608E-02  0.1130116E+00
         25   -1    0    0    0    0  0.00000000000E+00  0.00000000000E+00  0.99999998245E-14  0.12500000000E+03  0.12500000000E+03 0.  0.
        -11    1    3    3    0    0  0.23268376177E+02 -0.13572874807E+02  0.21405292559E+02  0.34406784363E+02  0.51100000000E-03 0. -1.
         23    2    1    0    0    0 -0.75844778738E+01  0.14477606135E+02 -0.23942058595E+02  0.96011251255E+02  0.91530392842E+02 0.  0.
         11    1    3    3    0    0 -0.30852854051E+02  0.28050480942E+02 -0.45347351154E+02  0.61604466892E+02  0.51100000000E-03 0.  1.
         22    1    1    0    0    0  0.75844778738E+01 -0.14477606135E+02  0.23942058595E+02  0.28988748745E+02  0.00000000000E+00 0.  1.
</event>
<event>
 5    1  0.1659417E-003  0.9118800E+02  0.7818608E-02  0.1130116E+00
         25   -1    0    0    0    0  0.00000000000E+00  0.00000000000E+00  0.99999998245E-14  0.12500000000E+03  0.12500000000E+03 0.  0.
        -11    1    3    3    0    0 -0.92660676592E+01 -0.22633506077E+02 -0.27268352949E+02  0.36629205287E+02  0.51100000000E-03 0. -1.
         23    2    1    0    0    0  0.18726575746E+02 -0.46290880272E+01  0.21781114384E+02  0.95904810725E+02  0.91384914955E+02 0.  0.
         11    1    3    3    0    0  0.27992643406E+02  0.18004418050E+02  0.49049467332E+02  0.59275605438E+02  0.51100000000E-03 0.  1.
         22    1    1    0    0    0 -0.18726575746E+02  0.46290880272E+01 -0.21781114384E+02  0.29095189275E+02  0.00000000000E+00 0.  1.
</event>
<event>
 5    1  0.1659417E-003  0.9118800E+02  0.7818608E-02  0.1130116E+00
         25   -1    0    0    0    0  0.00000000000E+00  0.00000000000E+00  0.99999998245E-14  0.12500000000E+03  0.12500000000E+03 0.  0.
        -11    1    3    3    0    0  0.28226690404E+02 -0.72023301274E+01 -0.49709455217E+02  0.57616399997E+02  0.51100000000E-03 0. -1.
         23    2    1    0    0    0  0.12397776947E+02  0.14199491098E+02 -0.21652858070E+02  0.96291522450E+02  0.91912352883E+02 0.  0.
         11    1    3    3    0    0 -0.15828913456E+02  0.21401821225E+02  0.28056597148E+02  0.38675122453E+02  0.51100000000E-03 0.  1.
         22    1    1    0    0    0 -0.12397776947E+02 -0.14199491098E+02  0.21652858070E+02  0.28708477550E+02  0.00000000000E+00 0. -1.
</event>
<event>
 5    1  0.1659417E-003  0.9118800E+02  0.7818608E-02  0.1130116E+00
         25   -1    0    0    0    0  0.00000000000E+00  0.00000000000E+00  0.99999998245E-14  0.12500000000E+03  0.12500000000E+03 0.  0.
        -11    1    3    3    0    0 -0.14634025185E+02 -0.12607902318E+01  0.59556399298E+02  0.61340924209E+02  0.51100000000E-03 0.  1.
         23    2    1    0    0    0 -0.14159522150E+02 -0.41114516966E+01  0.25314098932E+02  0.95704954219E+02  0.91111132990E+02 0.  0.
         11    1    3    3    0    0  0.47450303473E+00 -0.28506614648E+01 -0.34242300366E+02  0.34364030010E+02  0.51100000000E-03 0. -1.
         22    1    1    0    0    0  0.14159522150E+02  0.41114516966E+01 -0.25314098932E+02  0.29295045781E+02  0.00000000000E+00 0.  1.
</event>
<event>
 5    1  0.1659417E-003  0.9118800E+02  0.7818608E-02  0.1130116E+00
         25   -1    0    0    0    0  0.00000000000E+00  0.00000000000E+00  0.99999998245E-14  0.12500000000E+03  0.12500000000E+03 0.  0.
        -11    1    3    3    0    0 -0.15640883695E+02  0.44061612809E+02  0.27419514655E+01  0.46835683663E+02  0.51100000000E-03 0.  1.
         23    2    1    0    0    0 -0.24809048610E+02 -0.67565046154E+01  0.60675425369E+01  0.98581174894E+02  0.94975226893E+02 0.  0.
         11    1    3    3    0    0 -0.91681649149E+01 -0.50818117424E+02  0.33255910714E+01  0.51745491231E+02  0.51100000000E-03 0. -1.
         22    1    1    0    0    0  0.24809048610E+02  0.67565046154E+01 -0.60675425369E+01  0.26418825106E+02  0.00000000000E+00 0.  1.
</event>
<event>
 5    1  0.1659417E-003  0.9118800E+02  0.7818608E-02  0.1130116E+00
         25   -1    0    0    0    0  0.00000000000E+00  0.00000000000E+00  0.99999998245E-14  0.12500000000E+03  0.12500000000E+03 0.  0.
        -11    1    3    3    0    0 -0.39323688477E+02  0.17068435911E+02 -0.18651757736E+02  0.46750102104E+02  0.51100000000E-03 0.  1.
         23    2    1    0    0    0 -0.53537917387E+01  0.21903809794E+02  0.17398662678E+02  0.96519244525E+02  0.92221532904E+02 0.  0.
         11    1    3    3    0    0  0.33969896738E+02  0.48353738829E+01  0.36050420414E+02  0.49769142421E+02  0.51100000000E-03 0. -1.
         22    1    1    0    0    0  0.53537917387E+01 -0.21903809794E+02 -0.17398662678E+02  0.28480755475E+02  0.00000000000E+00 0. -1.
</event>
<event>
 5    1  0.1659417E-003  0.9118800E+02  0.7818608E-02  0.1130116E+00
         25   -1    0    0    0    0  0.00000000000E+00  0.00000000000E+00  0.99999998245E-14  0.12500000000E+03  0.12500000000E+03 0.  0.
        -11    1    3    3    0    0  0.11644178574E+02 -0.46843423610E+02 -0.59282422803E+01  0.48631649026E+02  0.51100000000E-03 0. -1.
         23    2    1    0    0    0 -0.14650143143E+02 -0.31329544446E+02 -0.22859896080E+02  0.83542287833E+02  0.72529800484E+02 0.  0.
         11    1    3    3    0    0 -0.26294321717E+02  0.15513879164E+02 -0.16931653800E+02  0.34910638807E+02  0.51100000000E-03 0.  1.
         22    1    1    0    0    0  0.14650143143E+02  0.31329544446E+02  0.22859896080E+02  0.41457712167E+02  0.00000000000E+00 0.  1.
</event>
<event>
 5    1  0.1659417E-003  0.9118800E+02  0.7818608E-02  0.1130116E+00
         25   -1    0    0    0    0  0.00000000000E+00  0.00000000000E+00  0.99999998245E-14  0.12500000000E+03  0.12500000000E+03 0.  0.
        -11    1    3    3    0    0  0.21620713137E+02  0.47340202901E+02 -0.59439424390E+01  0.52382062763E+02  0.51100000000E-03 0. -1.
         23    2    1    0    0    0  0.31247902753E+02  0.91755975305E+01  0.13163408609E+01  0.92406200440E+02  0.86467046382E+02 0.  0.
         11    1    3    3    0    0  0.96271896156E+01 -0.38164605371E+02  0.72602832999E+01  0.40024137678E+02  0.51100000000E-03 0.  1.
         22    1    1    0    0    0 -0.31247902753E+02 -0.91755975305E+01 -0.13163408609E+01  0.32593799560E+02  0.00000000000E+00 0. -1.
</event>
<event>
 5    1  0.1659417E-003  0.9118800E+02  0.7818608E-02  0.1130116E+00
         25   -1    0    0    0    0  0.00000000000E+00  0.00000000000E+00  0.99999998245E-14  0.12500000000E+03  0.12500000000E+03 0.  0.
        -11    1    3    3    0    0  0.30003401214E+02 -0.94784214654E+01  0.20882890848E+02  0.37764264700E+02  0.51100000000E-03 0.  1.
         23    2    1    0    0    0 -0.61409203840E+01 -0.10666506648E+02 -0.25562661640E+02  0.96628624684E+02  0.92369671272E+02 0.  0.
         11    1    3    3    0    0 -0.36144321598E+02 -0.11880851822E+01 -0.46445552487E+02  0.58864359984E+02  0.51100000000E-03 0. -1.
         22    1    1    0    0    0  0.61409203840E+01  0.10666506648E+02  0.25562661640E+02  0.28371375316E+02  0.00000000000E+00 0. -1.
</event>
<event>
 5    1  0.1659417E-003  0.9118800E+02  0.7818608E-02  0.1130116E+00
         25   -1    0    0    0    0  0.00000000000E+00  0.00000000000E+00  0.99999998245E-14  0.12500000000E+03  0.12500000000E+03 0.  0.
        -11    1    3    3    0    0 -0.28345434618E+02  0.53017796781E+02  0.34594755896E+01  0.60218920705E+02  0.51100000000E-03 0. -1.
         23    2    1    0    0    0 -0.18649324691E+02  0.15794464643E+02  0.87402027559E+01  0.99045162898E+02  0.95583945955E+02 0.  0.
         11    1    3    3    0    0  0.96961099267E+01 -0.37223332138E+02  0.52807271663E+01  0.38826242193E+02  0.51100000000E-03 0.  1.
         22    1    1    0    0    0  0.18649324691E+02 -0.15794464643E+02 -0.87402027559E+01  0.25954837102E+02  0.00000000000E+00 0. -1.
</event>
<event>
 5    1  0.1659417E-003  0.9118800E+02  0.7818608E-02  0.1130116E+00
         25   -1    0    0    0    0  0.00000000000E+00  0.00000000000E+00  0.99999998245E-14  0.12500000000E+03  0.12500000000E+03 0.  0.
        -11    1    3    3    0    0  0.27348939446E+02  0.30576092289E+02  0.11149391287E+02  0.42510831971E+02  0.51100000000E-03 0.  1.
         23    2    1    0    0    0  0.10931134088E+02 -0.19285556093E+02  0.19266357600E+02  0.95629693541E+02  0.91007820463E+02 0.  0.
         11    1    3    3    0    0 -0.16417805358E+02 -0.49861648383E+02  0.81169663136E+01  0.53118861571E+02  0.51100000000E-03 0. -1.
         22    1    1    0    0    0 -0.10931134088E+02  0.19285556093E+02 -0.19266357600E+02  0.29370306459E+02  0.00000000000E+00 0. -1.
</event>
<event>
 5    1  0.1659417E-003  0.9118800E+02  0.7818608E-02  0.1130116E+00
         25   -1    0    0    0    0  0.00000000000E+00  0.00000000000E+00  0.99999998245E-14  0.12500000000E+03  0.12500000000E+03 0.  0.
        -11    1    3    3    0    0  0.37579232291E+02 -0.20147060234E+01  0.43779197444E+02  0.57731065026E+02  0.51100000000E-03 0. -1.
         23    2    1    0    0    0  0.24042712555E+02 -0.13171038823E+02  0.99528586810E+01  0.95835163525E+02  0.91289598977E+02 0.  0.
         11    1    3    3    0    0 -0.13536519736E+02 -0.11156332799E+02 -0.33826338763E+02  0.38104098500E+02  0.51100000000E-03 0.  1.
         22    1    1    0    0    0 -0.24042712555E+02  0.13171038823E+02 -0.99528586810E+01  0.29164836475E+02  0.00000000000E+00 0. -1.
</event>
<event>
 5    1  0.1659417E-003  0.9118800E+02  0.7818608E-02  0.1130116E+00
         25   -1    0    0    0    0  0.00000000000E+00  0.00000000000E+00  0.99999998245E-14  0.12500000000E+03  0.12500000000E+03 0.  0.
        -11    1    3    3    0    0 -0.12243263688E+02 -0.22770465250E+02  0.20992086369E+02  0.33302541703E+02  0.51100000000E-03 0.  1.
         23    2    1    0    0    0  0.95688234698E+01  0.75602665370E+01 -0.27734436409E+02  0.94702822315E+02  0.89725724176E+02 0.  0.
         11    1    3    3    0    0  0.21812087158E+02  0.30330731787E+02 -0.48726522779E+02  0.61400280613E+02  0.51100000000E-03 0. -1.
         22    1    1    0    0    0 -0.95688234698E+01 -0.75602665370E+01  0.27734436409E+02  0.30297177685E+02  0.00000000000E+00 0. -1.
</event>
<event>
 5    1  0.1659417E-003  0.9118800E+02  0.7818608E-02  0.1130116E+00
         25   -1    0    0    0    0  0.00000000000E+00  0.00000000000E+00  0.99999998245E-14  0.12500000000E+03  0.12500000000E+03 0.  0.
        -11    1    3    3    0    0  0.16401627850E+02  0.28961720607E+02  0.40653908534E+01  0.33530912003E+02  0.51100000000E-03 0.  1.
         23    2    1    0    0    0 -0.19372539264E+02 -0.20130984081E+02  0.11616466765E+02  0.94742866995E+02  0.89781494467E+02 0.  0.
         11    1    3    3    0    0 -0.35774167114E+02 -0.49092704688E+02  0.75510759119E+01  0.61211954992E+02  0.51100000000E-03 0. -1.
         22    1    1    0    0    0  0.19372539264E+02  0.20130984081E+02 -0.11616466765E+02  0.30257133005E+02  0.00000000000E+00 0. -1.
</event>
<event>
 5    1  0.1659417E-003  0.9118800E+02  0.7818608E-02  0.1130116E+00
         25   -1    0    0    0    0  0.00000000000E+00  0.00000000000E+00  0.99999998245E-14  0.12500000000E+03  0.12500000000E+03 0.  0.
        -11    1    3    3    0    0  0.17456507919E+02 -0.39088750205E+02  0.24883318884E+02  0.49516054167E+02  0.51100000000E-03 0. -1.
         23    2    1    0    0    0  0.14598563971E+02 -0.19276511826E+02 -0.16663609945E+02  0.95633728963E+02  0.91013362980E+02 0.  0.
         11    1    3    3    0    0 -0.28579439474E+01  0.19812238379E+02 -0.41546928829E+02  0.46117674796E+02  0.51100000000E-03 0.  1.
         22    1    1    0    0    0 -0.14598563971E+02  0.19276511826E+02  0.16663609945E+02  0.29366271037E+02  0.00000000000E+00 0. -1.
</event>
<event>
 5    1  0.1659417E-003  0.9118800E+02  0.7818608E-02  0.1130116E+00
         25   -1    0    0    0    0  0.00000000000E+00  0.00000000000E+00  0.99999998245E-14  0.12500000000E+03  0.12500000000E+03 0.  0.
        -11    1    3    3    0    0 -0.86210522449E+01  0.19153284995E+02 -0.26120112105E+02  0.33517624089E+02  0.51100000000E-03 0. -1.
         23    2    1    0    0    0  0.17396592652E+02 -0.17206104211E+02  0.16661194639E+02  0.95397857091E+02  0.90688832128E+02 0.  0.
         11    1    3    3    0    0  0.26017644897E+02 -0.36359389206E+02  0.42781306744E+02  0.61880233002E+02  0.51100000000E-03 0.  1.
         22    1    1    0    0    0 -0.17396592652E+02  0.17206104211E+02 -0.16661194639E+02  0.29602142909E+02  0.00000000000E+00 0.  1.
</event>
<event>
 5    1  0.1659417E-003  0.9118800E+02  0.7818608E-02  0.1130116E+00
         25   -1    0    0    0    0  0.00000000000E+00  0.00000000000E+00  0.99999998245E-14  0.12500000000E+03  0.12500000000E+03 0.  0.
        -11    1    3    3    0    0 -0.29504150858E+02  0.30708693312E+02  0.28988946069E+01  0.42683982394E+02  0.51100000000E-03 0. -1.
         23    2    1    0    0    0 -0.19862629325E+02 -0.21426256740E+02 -0.22989196715E-01  0.95783411389E+02  0.91218708866E+02 0.  0.
         11    1    3    3    0    0  0.96415215331E+01 -0.52134950052E+02 -0.29218838036E+01  0.53099428995E+02  0.51100000000E-03 0.  1.
         22    1    1    0    0    0  0.19862629325E+02  0.21426256740E+02  0.22989196715E-01  0.29216588611E+02  0.00000000000E+00 0.  1.
</event>
<event>
 5    1  0.1659417E-003  0.9118800E+02  0.7818608E-02  0.1130116E+00
         25   -1    0    0    0    0  0.00000000000E+00  0.00000000000E+00  0.99999998245E-14  0.12500000000E+03  0.12500000000E+03 0.  0.
        -11    1    3    3    0    0  0.16338306159E+02 -0.53236426286E+02 -0.15598226376E+02  0.57830459087E+02  0.51100000000E-03 0. -1.
         23    2    1    0    0    0 -0.87715044438E+01 -0.24062797327E+02 -0.12649549066E+02  0.96434835954E+02  0.92107051785E+02 0.  0.
         11    1    3    3    0    0 -0.25109810603E+02  0.29173628959E+02  0.29486773094E+01  0.38604376867E+02  0.51100000000E-03 0.  1.
         22    1    1    0    0    0  0.87715044438E+01  0.24062797327E+02  0.12649549066E+02  0.28565164046E+02  0.00000000000E+00 0. -1.
</event>
<event>
 5    1  0.1659417E-003  0.9118800E+02  0.7818608E-02  0.1130116E+00
         25   -1    0    0    0    0  0.00000000000E+00  0.00000000000E+00  0.99999998245E-14  0.12500000000E+03  0.12500000000E+03 0.  0.
        -11    1    3    3    0    0 -0.43551594788E+02  0.26237540117E+02  0.35093114966E+02  0.61779257346E+02  0.51100000000E-03 0.  1.
         23    2    1    0    0    0 -0.17526637537E+02  0.17997642425E+02  0.14310969146E+02  0.96088030262E+02  0.91635187377E+02 0.  0.
         11    1    3    3    0    0  0.26024957251E+02 -0.82398976918E+01 -0.20782145820E+02  0.34308772916E+02  0.51100000000E-03 0. -1.
         22    1    1    0    0    0  0.17526637537E+02 -0.17997642425E+02 -0.14310969146E+02  0.28911969738E+02  0.00000000000E+00 0.  1.
</event>
<event>
 5    1  0.1659417E-003  0.9118800E+02  0.7818608E-02  0.1130116E+00
         25   -1    0    0    0    0  0.00000000000E+00  0.00000000000E+00  0.99999998245E-14  0.12500000000E+03  0.12500000000E+03 0.  0.
        -11    1    3    3    0    0  0.21615090084E+02 -0.34492985444E+02 -0.51359762914E+01  0.41028726728E+02  0.51100000000E-03 0.  1.
         23    2    1    0    0    0  0.12830677122E+02  0.18009601565E+02 -0.18787540978E+02  0.95983733528E+02  0.91492805084E+02 0.  0.
         11    1    3    3    0    0 -0.87844129618E+01  0.52502587010E+02 -0.13651564687E+02  0.54955006800E+02  0.51100000000E-03 0. -1.
         22    1    1    0    0    0 -0.12830677122E+02 -0.18009601565E+02  0.18787540978E+02  0.29016266472E+02  0.00000000000E+00 0. -1.
</event>
<event>
 5    1  0.1659417E-003  0.9118800E+02  0.7818608E-02  0.1130116E+00
         25   -1    0    0    0    0  0.00000000000E+00  0.00000000000E+00  0.99999998245E-14  0.12500000000E+03  0.12500000000E+03 0.  0.
        -11    1    3    3    0    0 -0.53191251152E+01  0.49681748635E+01  0.37572536705E+02  0.38271025178E+02  0.51100000000E-03 0. -1.
         23    2    1    0    0    0  0.28136672965E+02 -0.17158585018E+01 -0.84607058643E+01  0.95568722765E+02  0.90924038028E+02 0.  0.
         11    1    3    3    0    0  0.33455798080E+02 -0.66840333652E+01 -0.46033242569E+02  0.57297697588E+02  0.51100000000E-03 0.  1.
         22    1    1    0    0    0 -0.28136672965E+02  0.17158585018E+01  0.84607058643E+01  0.29431277235E+02  0.00000000000E+00 0.  1.
</event>
<event>
 5    1  0.1659417E-003  0.9118800E+02  0.7818608E-02  0.1130116E+00
         25   -1    0    0    0    0  0.00000000000E+00  0.00000000000E+00  0.99999998245E-14  0.12500000000E+03  0.12500000000E+03 0.  0.
        -11    1    3    3    0    0  0.31015123710E+02  0.22378126624E+02 -0.36639931998E+02  0.52964167765E+02  0.51100000000E-03 0.  1.
         23    2    1    0    0    0  0.10550962144E+02 -0.14049751078E+02 -0.21098485316E+02  0.97543408985E+02  0.93599424391E+02 0.  0.
         11    1    3    3    0    0 -0.20464161566E+02 -0.36427877703E+02  0.15541446682E+02  0.44579241220E+02  0.51100000000E-03 0. -1.
         22    1    1    0    0    0 -0.10550962144E+02  0.14049751078E+02  0.21098485316E+02  0.27456591015E+02  0.00000000000E+00 0.  1.
</event>
<event>
 5    1  0.1659417E-003  0.9118800E+02  0.7818608E-02  0.1130116E+00
         25   -1    0    0    0    0  0.00000000000E+00  0.00000000000E+00  0.99999998245E-14  0.12500000000E+03  0.12500000000E+03 0.  0.
        -11    1    3    3    0    0 -0.37090957661E+02  0.11566223476E+02 -0.18643330648E+02  0.43093972243E+02  0.51100000000E-03 0. -1.
         23    2    1    0    0    0  0.13960347892E+02  0.20665439640E+02 -0.16699477549E+02  0.94986265491E+02  0.90119733537E+02 0.  0.
         11    1    3    3    0    0  0.51051305553E+02  0.90992161636E+01  0.19438530994E+01  0.51892293249E+02  0.51100000000E-03 0.  1.
         22    1    1    0    0    0 -0.13960347892E+02 -0.20665439640E+02  0.16699477549E+02  0.30013734509E+02  0.00000000000E+00 0.  1.
</event>
<event>
 5    1  0.1659417E-003  0.9118800E+02  0.7818608E-02  0.1130116E+00
         25   -1    0    0    0    0  0.00000000000E+00  0.00000000000E+00  0.99999998245E-14  0.12500000000E+03  0.12500000000E+03 0.  0.
        -11    1    3    3    0    0 -0.12293244092E+02 -0.26105169462E+02  0.21543676327E+02  0.36010189015E+02  0.51100000000E-03 0. -1.
         23    2    1    0    0    0  0.27178146223E+02 -0.15847870693E+01 -0.13881208347E+02  0.94441022148E+02  0.89360257032E+02 0.  0.
         11    1    3    3    0    0  0.39471390315E+02  0.24520382393E+02 -0.35424884674E+02  0.58430833133E+02  0.51100000000E-03 0.  1.
         22    1    1    0    0    0 -0.27178146223E+02  0.15847870693E+01  0.13881208347E+02  0.30558977852E+02  0.00000000000E+00 0.  1.
</event>
<event>
 4    1  0.1659417E-003  0.9118800E+02  0.7818608E-02  0.1130116E+00
         25   -1    0    0    0    0  0.00000000000E+00  0.00000000000E+00  0.99999998245E-14  0.12500000000E+03  0.12500000000E+03 0.  0.
        -11    1    1    0    0    0  0.20620162204E+00  0.80339669163E+01 -0.31091818239E+01  0.86170850870E+01  0.51100000000E-03 0. -1.
         11    1    1    0    0    0  0.30958946145E+02 -0.14739780351E+02 -0.46280588693E+02  0.57598701038E+02  0.51100000000E-03 0.  1.
         22    1    1    0    0    0 -0.31165147767E+02  0.67058134350E+01  0.49389770517E+02  0.58784213875E+02  0.00000000000E+00 0.  1.
</event>
<event>
 5    1  0.1659417E-003  0.9118800E+02  0.7818608E-02  0.1130116E+00
         25   -1    0    0    0    0  0.00000000000E+00  0.00000000000E+00  0.99999998245E-14  0.12500000000E+03  0.12500000000E+03 0.  0.
        -11    1    3    3    0    0  0.22591741238E+02 -0.13835660489E+02  0.46539031447E+02  0.53550851736E+02  0.51100000000E-03 0. -1.
         23    2    1    0    0    0  0.32148264401E+02 -0.11118433652E+02  0.12911430020E+02  0.88615449761E+02  0.80801376475E+02 0.  0.
         11    1    3    3    0    0  0.95565231635E+01  0.27172268364E+01 -0.33627601427E+02  0.35064598025E+02  0.51100000000E-03 0.  1.
         22    1    1    0    0    0 -0.32148264401E+02  0.11118433652E+02 -0.12911430020E+02  0.36384550239E+02  0.00000000000E+00 0. -1.
</event>
<event>
 5    1  0.1659417E-003  0.9118800E+02  0.7818608E-02  0.1130116E+00
         25   -1    0    0    0    0  0.00000000000E+00  0.00000000000E+00  0.99999998245E-14  0.12500000000E+03  0.12500000000E+03 0.  0.
        -11    1    3    3    0    0 -0.41684059724E+02 -0.95833046380E+01 -0.40715484436E+02  0.59052106110E+02  0.51100000000E-03 0. -1.
         23    2    1    0    0    0 -0.24645031950E+02 -0.13766323887E+02 -0.88714843771E+01  0.95409587562E+02  0.90704999258E+02 0.  0.
         11    1    3    3    0    0  0.17039027774E+02 -0.41830192495E+01  0.31844000059E+02  0.36357481452E+02  0.51100000000E-03 0.  1.
         22    1    1    0    0    0  0.24645031950E+02  0.13766323887E+02  0.88714843771E+01  0.29590412438E+02  0.00000000000E+00 0. -1.
</event>
<event>
 5    1  0.1659417E-003  0.9118800E+02  0.7818608E-02  0.1130116E+00
         25   -1    0    0    0    0  0.00000000000E+00  0.00000000000E+00  0.99999998245E-14  0.12500000000E+03  0.12500000000E+03 0.  0.
        -11    1    3    3    0    0  0.14386045930E+02  0.30193425062E+02 -0.24031948349E+02  0.41184169000E+02  0.51100000000E-03 0.  1.
         23    2    1    0    0    0 -0.93474235787E+01  0.14382963178E+02  0.23073194563E+02  0.96249064977E+02  0.91854592941E+02 0.  0.
         11    1    3    3    0    0 -0.23733469509E+02 -0.15810461884E+02  0.47105142912E+02  0.55064895977E+02  0.51100000000E-03 0. -1.
         22    1    1    0    0    0  0.93474235787E+01 -0.14382963178E+02 -0.23073194563E+02  0.28750935023E+02  0.00000000000E+00 0. -1.
</event>
<event>
 5    1  0.1659417E-003  0.9118800E+02  0.7818608E-02  0.1130116E+00
         25   -1    0    0    0    0  0.00000000000E+00  0.00000000000E+00  0.99999998245E-14  0.12500000000E+03  0.12500000000E+03 0.  0.
        -11    1    3    3    0    0 -0.12574676418E+02 -0.38790623335E+02 -0.40965671019E+02  0.57801567003E+02  0.51100000000E-03 0. -1.
         23    2    1    0    0    0 -0.21654685360E+02 -0.14149253049E+02 -0.13423618523E+02  0.95856899717E+02  0.91319356815E+02 0.  0.
         11    1    3    3    0    0 -0.90800089424E+01  0.24641370286E+02  0.27542052496E+02  0.38055332713E+02  0.51100000000E-03 0.  1.
         22    1    1    0    0    0  0.21654685360E+02  0.14149253049E+02  0.13423618523E+02  0.29143100283E+02  0.00000000000E+00 0. -1.
</event>
<event>
 5    1  0.1659417E-003  0.9118800E+02  0.7818608E-02  0.1130116E+00
         25   -1    0    0    0    0  0.00000000000E+00  0.00000000000E+00  0.99999998245E-14  0.12500000000E+03  0.12500000000E+03 0.  0.
        -11    1    3    3    0    0  0.19747114735E+02 -0.38406040560E+02 -0.13472401343E+02  0.45238015983E+02  0.51100000000E-03 0.  1.
         23    2    1    0    0    0  0.10089017215E+02 -0.81816664609E+01  0.26031843567E+02  0.95907306520E+02  0.91388328741E+02 0.  0.
         11    1    3    3    0    0 -0.96580975201E+01  0.30224374099E+02  0.39504244910E+02  0.50669290537E+02  0.51100000000E-03 0. -1.
         22    1    1    0    0    0 -0.10089017215E+02  0.81816664609E+01 -0.26031843567E+02  0.29092693480E+02  0.00000000000E+00 0.  1.
</event>
<event>
 5    1  0.1659417E-003  0.9118800E+02  0.7818608E-02  0.1130116E+00
         25   -1    0    0    0    0  0.00000000000E+00  0.00000000000E+00  0.99999998245E-14  0.12500000000E+03  0.12500000000E+03 0.  0.
        -11    1    3    3    0    0 -0.43594081942E+02  0.57340078192E+01  0.31094251159E+02  0.53853275494E+02  0.51100000000E-03 0.  1.
         23    2    1    0    0    0 -0.17422836768E+02  0.23183736258E+02  0.33304328514E+01  0.95808688778E+02  0.91253340730E+02 0.  0.
         11    1    3    3    0    0  0.26171245174E+02  0.17449728439E+02 -0.27763818308E+02  0.41955413284E+02  0.51100000000E-03 0. -1.
         22    1    1    0    0    0  0.17422836768E+02 -0.23183736258E+02 -0.33304328514E+01  0.29191311222E+02  0.00000000000E+00 0.  1.
</event>
<event>
 5    1  0.1659417E-003  0.9118800E+02  0.7818608E-02  0.1130116E+00
         25   -1    0    0    0    0  0.00000000000E+00  0.00000000000E+00  0.99999998245E-14  0.12500000000E+03  0.12500000000E+03 0.  0.
        -11    1    3    3    0    0 -0.58989717407E+01  0.96760730398E+01  0.34700210338E+02  0.36503819729E+02  0.51100000000E-03 0.  1.
         23    2    1    0    0    0  0.19208320917E+02  0.30883995187E+01 -0.20029645036E+02  0.97077169121E+02  0.92974686233E+02 0.  0.
         11    1    3    3    0    0  0.25107292657E+02 -0.65876735211E+01 -0.54729855374E+02  0.60573349392E+02  0.51100000000E-03 0. -1.
         22    1    1    0    0    0 -0.19208320917E+02 -0.30883995187E+01  0.20029645036E+02  0.27922830879E+02  0.00000000000E+00 0. -1.
</event>
<event>
 5    1  0.1659417E-003  0.9118800E+02  0.7818608E-02  0.1130116E+00
         25   -1    0    0    0    0  0.00000000000E+00  0.00000000000E+00  0.99999998245E-14  0.12500000000E+03  0.12500000000E+03 0.  0.
        -11    1    3    3    0    0  0.28629211935E+02  0.18677868766E+02 -0.11358851130E+02  0.36021077953E+02  0.51100000000E-03 0.  1.
         23    2    1    0    0    0 -0.16064057334E+02 -0.20503031314E+02 -0.13831964364E+02  0.95508450884E+02  0.90841140025E+02 0.  0.
         11    1    3    3    0    0 -0.44693269269E+02 -0.39180900079E+02 -0.24731132332E+01  0.59487372931E+02  0.51100000000E-03 0. -1.
         22    1    1    0    0    0  0.16064057334E+02  0.20503031314E+02  0.13831964364E+02  0.29491549116E+02  0.00000000000E+00 0. -1.
</event>
<event>
 5    1  0.1659417E-003  0.9118800E+02  0.7818608E-02  0.1130116E+00
         25   -1    0    0    0    0  0.00000000000E+00  0.00000000000E+00  0.99999998245E-14  0.12500000000E+03  0.12500000000E+03 0.  0.
        -11    1    3    3    0    0 -0.12738132957E+02 -0.15163306004E+01  0.44663018381E+02  0.46468747571E+02  0.51100000000E-03 0. -1.
         23    2    1    0    0    0  0.21435969071E+02 -0.15532809398E+02  0.11392145933E+02  0.96180736880E+02  0.91761561779E+02 0.  0.
         11    1    3    3    0    0  0.34174102028E+02 -0.14016478798E+02 -0.33270872448E+02  0.49711989309E+02  0.51100000000E-03 0.  1.
         22    1    1    0    0    0 -0.21435969071E+02  0.15532809398E+02 -0.11392145933E+02  0.28819263120E+02  0.00000000000E+00 0. -1.
</event>
<event>
 5    1  0.1659417E-003  0.9118800E+02  0.7818608E-02  0.1130116E+00
         25   -1    0    0    0    0  0.00000000000E+00  0.00000000000E+00  0.99999998245E-14  0.12500000000E+03  0.12500000000E+03 0.  0.
        -11    1    3    3    0    0 -0.36847513150E+02 -0.28241557034E+02 -0.23584308322E+02  0.52072491474E+02  0.51100000000E-03 0. -1.
         23    2    1    0    0    0 -0.25387937330E+02 -0.10573085474E+02  0.13227696202E+02  0.94482636989E+02  0.89418450262E+02 0.  0.
         11    1    3    3    0    0  0.11459575820E+02  0.17668471560E+02  0.36812004524E+02  0.42410145515E+02  0.51100000000E-03 0.  1.
         22    1    1    0    0    0  0.25387937330E+02  0.10573085474E+02 -0.13227696202E+02  0.30517363011E+02  0.00000000000E+00 0. -1.
</event>
<event>
 5    1  0.1659417E-003  0.9118800E+02  0.7818608E-02  0.1130116E+00
         25   -1    0    0    0    0  0.00000000000E+00  0.00000000000E+00  0.99999998245E-14  0.12500000000E+03  0.12500000000E+03 0.  0.
        -11    1    3    3    0    0 -0.23380908869E+02  0.42527374436E+01  0.22401564660E+02  0.32658578885E+02  0.51100000000E-03 0.  1.
         23    2    1    0    0    0  0.25455134155E+02  0.34450144988E+01 -0.15954153161E+02  0.94761498336E+02  0.89807430562E+02 0.  0.
         11    1    3    3    0    0  0.48836043024E+02 -0.80772294479E+00 -0.38355717821E+02  0.62102919452E+02  0.51100000000E-03 0. -1.
         22    1    1    0    0    0 -0.25455134155E+02 -0.34450144988E+01  0.15954153161E+02  0.30238501664E+02  0.00000000000E+00 0. -1.
</event>
<event>
 5    1  0.1659417E-003  0.9118800E+02  0.7818608E-02  0.1130116E+00
         25   -1    0    0    0    0  0.00000000000E+00  0.00000000000E+00  0.99999998245E-14  0.12500000000E+03  0.12500000000E+03 0.  0.
        -11    1    3    3    0    0 -0.34174564710E+02 -0.50698731561E+01 -0.44836094822E+02  0.56602825779E+02  0.51100000000E-03 0. -1.
         23    2    1    0    0    0 -0.10900687644E+01 -0.94368097949E+01 -0.30733628196E+02  0.92831730990E+02  0.87080036446E+02 0.  0.
         11    1    3    3    0    0  0.33084495946E+02 -0.43669366388E+01  0.14102466626E+02  0.36228905211E+02  0.51100000000E-03 0.  1.
         22    1    1    0    0    0  0.10900687644E+01  0.94368097949E+01  0.30733628196E+02  0.32168269010E+02  0.00000000000E+00 0. -1.
</event>
<event>
 5    1  0.1659417E-003  0.9118800E+02  0.7818608E-02  0.1130116E+00
         25   -1    0    0    0    0  0.00000000000E+00  0.00000000000E+00  0.99999998245E-14  0.12500000000E+03  0.12500000000E+03 0.  0.
        -11    1    3    3    0    0  0.21251500872E+02  0.71654680286E+01 -0.46643143630E+02  0.51754739583E+02  0.51100000000E-03 0. -1.
         23    2    1    0    0    0 -0.10151874273E+02  0.20091583865E+02 -0.18988156639E+02  0.95550341496E+02  0.90898764425E+02 0.  0.
         11    1    3    3    0    0 -0.31403375146E+02  0.12926115837E+02  0.27654986991E+02  0.43795601913E+02  0.51100000000E-03 0.  1.
         22    1    1    0    0    0  0.10151874273E+02 -0.20091583865E+02  0.18988156639E+02  0.29449658504E+02  0.00000000000E+00 0. -1.
</event>
<event>
 5    1  0.1659417E-003  0.9118800E+02  0.7818608E-02  0.1130116E+00
         25   -1    0    0    0    0  0.00000000000E+00  0.00000000000E+00  0.99999998245E-14  0.12500000000E+03  0.12500000000E+03 0.  0.
        -11    1    3    3    0    0 -0.36584495480E+02  0.12210475400E+02 -0.25701311411E+02  0.46347366996E+02  0.51100000000E-03 0. -1.
         23    2    1    0    0    0  0.56989251920E+01  0.26769942243E+02 -0.61440142458E+00  0.97623275486E+02  0.93706023667E+02 0.  0.
         11    1    3    3    0    0  0.42283420672E+02  0.14559466843E+02  0.25086909986E+02  0.51275908489E+02  0.51100000000E-03 0.  1.
         22    1    1    0    0    0 -0.56989251920E+01 -0.26769942243E+02  0.61440142458E+00  0.27376724514E+02  0.00000000000E+00 0.  1.
</event>
<event>
 5    1  0.1659417E-003  0.9118800E+02  0.7818608E-02  0.1130116E+00
         25   -1    0    0    0    0  0.00000000000E+00  0.00000000000E+00  0.99999998245E-14  0.12500000000E+03  0.12500000000E+03 0.  0.
        -11    1    3    3    0    0  0.47586272271E+02  0.25528106429E+01 -0.28688706964E+02  0.55623844333E+02  0.51100000000E-03 0. -1.
         23    2    1    0    0    0  0.29611158872E+02  0.19266816684E+02 -0.57721439708E+01  0.89204070051E+02  0.81706900031E+02 0.  0.
         11    1    3    3    0    0 -0.17975113399E+02  0.16714006041E+02  0.22916562993E+02  0.33580225718E+02  0.51100000000E-03 0.  1.
         22    1    1    0    0    0 -0.29611158872E+02 -0.19266816684E+02  0.57721439708E+01  0.35795929949E+02  0.00000000000E+00 0. -1.
</event>
<event>
 5    1  0.1659417E-003  0.9118800E+02  0.7818608E-02  0.1130116E+00
         25   -1    0    0    0    0  0.00000000000E+00  0.00000000000E+00  0.99999998245E-14  0.12500000000E+03  0.12500000000E+03 0.  0.
        -11    1    3    3    0    0 -0.33546005605E+02  0.44737413287E+02  0.22156400915E+01  0.55961412606E+02  0.51100000000E-03 0.  1.
         23    2    1    0    0    0 -0.22957740819E+02  0.95830091775E+01  0.16270717102E+02  0.95274116272E+02  0.90518114584E+02 0.  0.
         11    1    3    3    0    0  0.10588264786E+02 -0.35154404109E+02  0.14055077011E+02  0.39312703665E+02  0.51100000000E-03 0. -1.
         22    1    1    0    0    0  0.22957740819E+02 -0.95830091775E+01 -0.16270717102E+02  0.29725883728E+02  0.00000000000E+00 0.  1.
</event>
<event>
 5    1  0.1659417E-003  0.9118800E+02  0.7818608E-02  0.1130116E+00
         25   -1    0    0    0    0  0.00000000000E+00  0.00000000000E+00  0.99999998245E-14  0.12500000000E+03  0.12500000000E+03 0.  0.
        -11    1    3    3    0    0  0.11246665463E+02  0.31573662748E+02  0.13922807663E+01  0.33545821042E+02  0.51100000000E-03 0. -1.
         23    2    1    0    0    0 -0.23586741941E+01 -0.27894258644E+02  0.10247378629E+02  0.95189569308E+02  0.90401284986E+02 0.  0.
         11    1    3    3    0    0 -0.13605339657E+02 -0.59467921392E+02  0.88550978626E+01  0.61643748266E+02  0.51100000000E-03 0.  1.
         22    1    1    0    0    0  0.23586741941E+01  0.27894258644E+02 -0.10247378629E+02  0.29810430692E+02  0.00000000000E+00 0.  1.
</event>
<event>
 5    1  0.1659417E-003  0.9118800E+02  0.7818608E-02  0.1130116E+00
         25   -1    0    0    0    0  0.00000000000E+00  0.00000000000E+00  0.99999998245E-14  0.12500000000E+03  0.12500000000E+03 0.  0.
        -11    1    3    3    0    0 -0.50627408580E+02  0.32523587243E+02 -0.11633048287E+02  0.61288221049E+02  0.51100000000E-03 0. -1.
         23    2    1    0    0    0 -0.17677298014E+02  0.21432252387E+02 -0.68857611132E+01  0.96377595951E+02  0.92029337646E+02 0.  0.
         11    1    3    3    0    0  0.32950110566E+02 -0.11091334856E+02  0.47472871735E+01  0.35089374901E+02  0.51100000000E-03 0.  1.
         22    1    1    0    0    0  0.17677298014E+02 -0.21432252387E+02  0.68857611132E+01  0.28622404049E+02  0.00000000000E+00 0. -1.
</event>
<event>
 5    1  0.1659417E-003  0.9118800E+02  0.7818608E-02  0.1130116E+00
         25   -1    0    0    0    0  0.00000000000E+00  0.00000000000E+00  0.99999998245E-14  0.12500000000E+03  0.12500000000E+03 0.  0.
        -11    1    3    3    0    0  0.35440793908E+02 -0.20466096632E+02 -0.29152964826E+01  0.41029378962E+02  0.51100000000E-03 0.  1.
         23    2    1    0    0    0  0.28912326899E+01  0.41029043307E+01  0.30708163508E+02  0.93884339048E+02  0.88578128012E+02 0.  0.
         11    1    3    3    0    0 -0.32549561218E+02  0.24569000963E+02  0.33623459991E+02  0.52854960087E+02  0.51100000000E-03 0. -1.
         22    1    1    0    0    0 -0.28912326899E+01 -0.41029043307E+01 -0.30708163508E+02  0.31115660952E+02  0.00000000000E+00 0. -1.
</event>
<event>
 5    1  0.1659417E-003  0.9118800E+02  0.7818608E-02  0.1130116E+00
         25   -1    0    0    0    0  0.00000000000E+00  0.00000000000E+00  0.99999998245E-14  0.12500000000E+03  0.12500000000E+03 0.  0.
        -11    1    3    3    0    0  0.37905936182E+01 -0.15663278603E+01 -0.52934612715E+02  0.53093268938E+02  0.51100000000E-03 0. -1.
         23    2    1    0    0    0  0.37195099433E+01 -0.23868550459E+02 -0.16730355139E+02  0.95615527258E+02  0.90988360874E+02 0.  0.
         11    1    3    3    0    0 -0.71083674983E-01 -0.22302222599E+02  0.36204257577E+02  0.42522258320E+02  0.51100000000E-03 0.  1.
         22    1    1    0    0    0 -0.37195099433E+01  0.23868550459E+02  0.16730355139E+02  0.29384472742E+02  0.00000000000E+00 0. -1.
</event>
<event>
 5    1  0.1659417E-003  0.9118800E+02  0.7818608E-02  0.1130116E+00
         25   -1    0    0    0    0  0.00000000000E+00  0.00000000000E+00  0.99999998245E-14  0.12500000000E+03  0.12500000000E+03 0.  0.
        -11    1    3    3    0    0 -0.53702244374E+02 -0.22791830466E+02  0.13850519304E+02  0.59960282454E+02  0.51100000000E-03 0. -1.
         23    2    1    0    0    0 -0.28607836115E+02  0.13832843310E+01  0.76757340909E+01  0.95348041269E+02  0.90620143000E+02 0.  0.
         11    1    3    3    0    0  0.25094408258E+02  0.24175114797E+02 -0.61747852130E+01  0.35387758815E+02  0.51100000000E-03 0.  1.
         22    1    1    0    0    0  0.28607836115E+02 -0.13832843310E+01 -0.76757340909E+01  0.29651958731E+02  0.00000000000E+00 0. -1.
</event>
<event>
 5    1  0.1659417E-003  0.9118800E+02  0.7818608E-02  0.1130116E+00
         25   -1    0    0    0    0  0.00000000000E+00  0.00000000000E+00  0.99999998245E-14  0.12500000000E+03  0.12500000000E+03 0.  0.
        -11    1    3    3    0    0 -0.29805384656E+02  0.19297797877E+02  0.45964710194E-01  0.35507296016E+02  0.51100000000E-03 0. -1.
         23    2    1    0    0    0  0.21311041877E+02 -0.15855560052E+02 -0.57744941932E+01  0.97817209973E+02  0.93964368211E+02 0.  0.
         11    1    3    3    0    0  0.51116426533E+02 -0.35153357929E+02 -0.58204589034E+01  0.62309913957E+02  0.51100000000E-03 0.  1.
         22    1    1    0    0    0 -0.21311041877E+02  0.15855560052E+02  0.57744941932E+01  0.27182790027E+02  0.00000000000E+00 0.  1.
</event>
<event>
 5    1  0.1659417E-003  0.9118800E+02  0.7818608E-02  0.1130116E+00
         25   -1    0    0    0    0  0.00000000000E+00  0.00000000000E+00  0.99999998245E-14  0.12500000000E+03  0.12500000000E+03 0.  0.
        -11    1    3    3    0    0 -0.92238469788E+01  0.22289255242E+02 -0.18555738868E+02  0.30433627742E+02  0.51100000000E-03 0.  1.
         23    2    1    0    0    0 -0.63244478217E+01 -0.28123760689E+02  0.16387517111E+02  0.91841362021E+02  0.85646602416E+02 0.  0.
         11    1    3    3    0    0  0.28993991571E+01 -0.50413015931E+02  0.34943255979E+02  0.61407734280E+02  0.51100000000E-03 0. -1.
         22    1    1    0    0    0  0.63244478217E+01  0.28123760689E+02 -0.16387517111E+02  0.33158637979E+02  0.00000000000E+00 0. -1.
</event>
<event>
 5    1  0.1659417E-003  0.9118800E+02  0.7818608E-02  0.1130116E+00
         25   -1    0    0    0    0  0.00000000000E+00  0.00000000000E+00  0.99999998245E-14  0.12500000000E+03  0.12500000000E+03 0.  0.
        -11    1    3    3    0    0 -0.22246200479E+02  0.10250092866E+02 -0.45334812069E+02  0.51528662171E+02  0.51100000000E-03 0.  1.
         23    2    1    0    0    0  0.14067303214E+02 -0.55327500637E+01 -0.24346557979E+02  0.96342449016E+02  0.91981586495E+02 0.  0.
         11    1    3    3    0    0  0.36313503693E+02 -0.15782842930E+02  0.20988254090E+02  0.44813786845E+02  0.51100000000E-03 0. -1.
         22    1    1    0    0    0 -0.14067303214E+02  0.55327500637E+01  0.24346557979E+02  0.28657550984E+02  0.00000000000E+00 0.  1.
</event>
<event>
 5    1  0.1659417E-003  0.9118800E+02  0.7818608E-02  0.1130116E+00
         25   -1    0    0    0    0  0.00000000000E+00  0.00000000000E+00  0.99999998245E-14  0.12500000000E+03  0.12500000000E+03 0.  0.
        -11    1    3    3    0    0  0.28110740164E+02 -0.33707477854E+02  0.10915218748E+02  0.45227754492E+02  0.51100000000E-03 0. -1.
         23    2    1    0    0    0 -0.18525335399E+02 -0.20940984552E+02  0.14104387762E+02  0.93684721943E+02  0.88295982273E+02 0.  0.
         11    1    3    3    0    0 -0.46636075563E+02  0.12766493302E+02  0.31891690146E+01  0.48456967450E+02  0.51100000000E-03 0.  1.
         22    1    1    0    0    0  0.18525335399E+02  0.20940984552E+02 -0.14104387762E+02  0.31315278057E+02  0.00000000000E+00 0.  1.
</event>
<event>
 5    1  0.1659417E-003  0.9118800E+02  0.7818608E-02  0.1130116E+00
         25   -1    0    0    0    0  0.00000000000E+00  0.00000000000E+00  0.99999998245E-14  0.12500000000E+03  0.12500000000E+03 0.  0.
        -11    1    3    3    0    0  0.23092170491E+02 -0.51394947321E+02  0.14562857352E+02  0.58195925653E+02  0.51100000000E-03 0.  1.
         23    2    1    0    0    0  0.16871658779E+02 -0.21647322114E+02 -0.84123051470E+01  0.96294141669E+02  0.91915914929E+02 0.  0.
         11    1    3    3    0    0 -0.62205117119E+01  0.29747625208E+02 -0.22975162499E+02  0.38098216015E+02  0.51100000000E-03 0. -1.
         22    1    1    0    0    0 -0.16871658779E+02  0.21647322114E+02  0.84123051470E+01  0.28705858331E+02  0.00000000000E+00 0.  1.
</event>
<event>
 5    1  0.1659417E-003  0.9118800E+02  0.7818608E-02  0.1130116E+00
         25   -1    0    0    0    0  0.00000000000E+00  0.00000000000E+00  0.99999998245E-14  0.12500000000E+03  0.12500000000E+03 0.  0.
        -11    1    3    3    0    0 -0.29162748891E+02  0.49148104112E+00  0.26323193282E+02  0.39288904048E+02  0.51100000000E-03 0.  1.
         23    2    1    0    0    0  0.61757235203E+01 -0.25359751242E+02 -0.10858221063E+02  0.96730625958E+02  0.92507602333E+02 0.  0.
         11    1    3    3    0    0  0.35338472411E+02 -0.25851232283E+02 -0.37181414346E+02  0.57441721910E+02  0.51100000000E-03 0. -1.
         22    1    1    0    0    0 -0.61757235203E+01  0.25359751242E+02  0.10858221063E+02  0.28269374042E+02  0.00000000000E+00 0. -1.
</event>
<event>
 5    1  0.1659417E-003  0.9118800E+02  0.7818608E-02  0.1130116E+00
         25   -1    0    0    0    0  0.00000000000E+00  0.00000000000E+00  0.99999998245E-14  0.12500000000E+03  0.12500000000E+03 0.  0.
        -11    1    3    3    0    0 -0.30532270676E+02 -0.19680460922E+02 -0.44148285214E+02  0.57171769103E+02  0.51100000000E-03 0. -1.
         23    2    1    0    0    0 -0.17891881555E+02 -0.21777265766E+02 -0.77354544358E+01  0.95773197487E+02  0.91204711346E+02 0.  0.
         11    1    3    3    0    0  0.12640389121E+02 -0.20968048439E+01  0.36412830779E+02  0.38601428384E+02  0.51100000000E-03 0.  1.
         22    1    1    0    0    0  0.17891881555E+02  0.21777265766E+02  0.77354544358E+01  0.29226802513E+02  0.00000000000E+00 0. -1.
</event>
<event>
 5    1  0.1659417E-003  0.9118800E+02  0.7818608E-02  0.1130116E+00
         25   -1    0    0    0    0  0.00000000000E+00  0.00000000000E+00  0.99999998245E-14  0.12500000000E+03  0.12500000000E+03 0.  0.
        -11    1    3    3    0    0  0.30058457918E+01  0.57929451396E+02 -0.57310052569E+01  0.58289800733E+02  0.51100000000E-03 0. -1.
         23    2    1    0    0    0  0.16808171139E+02  0.25176178694E+02  0.19967863187E+01  0.94662865226E+02  0.89670041299E+02 0.  0.
         11    1    3    3    0    0  0.13802325347E+02 -0.32753272702E+02  0.77277915756E+01  0.36373064493E+02  0.51100000000E-03 0.  1.
         22    1    1    0    0    0 -0.16808171139E+02 -0.25176178694E+02 -0.19967863187E+01  0.30337134774E+02  0.00000000000E+00 0. -1.
</event>
<event>
 5    1  0.1659417E-003  0.9118800E+02  0.7818608E-02  0.1130116E+00
         25   -1    0    0    0    0  0.00000000000E+00  0.00000000000E+00  0.99999998245E-14  0.12500000000E+03  0.12500000000E+03 0.  0.
        -11    1    3    3    0    0  0.12446711409E+01  0.46670054988E+02 -0.15529258788E+02  0.49201637346E+02  0.51100000000E-03 0. -1.
         23    2    1    0    0    0  0.86923143884E+01  0.19913759388E+02  0.20793128667E+02  0.94925619837E+02  0.90035576076E+02 0.  0.
         11    1    3    3    0    0  0.74476432475E+01 -0.26756295599E+02  0.36322387455E+02  0.45723982491E+02  0.51100000000E-03 0.  1.
         22    1    1    0    0    0 -0.86923143884E+01 -0.19913759388E+02 -0.20793128667E+02  0.30074380163E+02  0.00000000000E+00 0. -1.
</event>
<event>
 5    1  0.1659417E-003  0.9118800E+02  0.7818608E-02  0.1130116E+00
         25   -1    0    0    0    0  0.00000000000E+00  0.00000000000E+00  0.99999998245E-14  0.12500000000E+03  0.12500000000E+03 0.  0.
        -11    1    3    3    0    0 -0.26244798496E+02 -0.93874313938E+01  0.26329792787E+02  0.38342812948E+02  0.51100000000E-03 0. -1.
         23    2    1    0    0    0 -0.12721249928E+02  0.15265539031E+02 -0.22680120692E+02  0.94846148567E+02  0.89925175239E+02 0.  0.
         11    1    3    3    0    0  0.13523548568E+02  0.24652970424E+02 -0.49009913479E+02  0.56503335619E+02  0.51100000000E-03 0.  1.
         22    1    1    0    0    0  0.12721249928E+02 -0.15265539031E+02  0.22680120692E+02  0.30153851433E+02  0.00000000000E+00 0.  1.
</event>
<event>
 5    1  0.1659417E-003  0.9118800E+02  0.7818608E-02  0.1130116E+00
         25   -1    0    0    0    0  0.00000000000E+00  0.00000000000E+00  0.99999998245E-14  0.12500000000E+03  0.12500000000E+03 0.  0.
        -11    1    3    3    0    0  0.66496381411E+01 -0.37776482595E+02 -0.12657144963E+02  0.40391628384E+02  0.51100000000E-03 0. -1.
         23    2    1    0    0    0  0.14229557970E+02  0.20092525466E+02 -0.86933029122E+01  0.98889400330E+02  0.95380029789E+02 0.  0.
         11    1    3    3    0    0  0.75799198289E+01  0.57869008061E+02  0.39638420513E+01  0.58497771946E+02  0.51100000000E-03 0.  1.
         22    1    1    0    0    0 -0.14229557970E+02 -0.20092525466E+02  0.86933029122E+01  0.26110599670E+02  0.00000000000E+00 0.  1.
</event>
<event>
 5    1  0.1659417E-003  0.9118800E+02  0.7818608E-02  0.1130116E+00
         25   -1    0    0    0    0  0.00000000000E+00  0.00000000000E+00  0.99999998245E-14  0.12500000000E+03  0.12500000000E+03 0.  0.
        -11    1    3    3    0    0 -0.29017753394E+02  0.28308275294E+02 -0.44143674122E+02  0.59933733635E+02  0.51100000000E-03 0. -1.
         23    2    1    0    0    0 -0.49762299546E+01  0.99808641093E+01 -0.29375300846E+02  0.93578847686E+02  0.88145969400E+02 0.  0.
         11    1    3    3    0    0  0.24041523440E+02 -0.18327411185E+02  0.14768373275E+02  0.33645114051E+02  0.51100000000E-03 0.  1.
         22    1    1    0    0    0  0.49762299546E+01 -0.99808641093E+01  0.29375300846E+02  0.31421152314E+02  0.00000000000E+00 0. -1.
</event>
<event>
 5    1  0.1659417E-003  0.9118800E+02  0.7818608E-02  0.1130116E+00
         25   -1    0    0    0    0  0.00000000000E+00  0.00000000000E+00  0.99999998245E-14  0.12500000000E+03  0.12500000000E+03 0.  0.
        -11    1    3    3    0    0 -0.48188070158E+02  0.23643502391E+01  0.17675721878E+02  0.51382014380E+02  0.51100000000E-03 0.  1.
         23    2    1    0    0    0 -0.18152195493E+02 -0.23193533166E+02 -0.20466860003E+01  0.95476600712E+02  0.90797302702E+02 0.  0.
         11    1    3    3    0    0  0.30035874665E+02 -0.25557883405E+02 -0.19722407878E+02  0.44094586332E+02  0.51100000000E-03 0. -1.
         22    1    1    0    0    0  0.18152195493E+02  0.23193533166E+02  0.20466860003E+01  0.29523399288E+02  0.00000000000E+00 0.  1.
</event>
<event>
 5    1  0.1659417E-003  0.9118800E+02  0.7818608E-02  0.1130116E+00
         25   -1    0    0    0    0  0.00000000000E+00  0.00000000000E+00  0.99999998245E-14  0.12500000000E+03  0.12500000000E+03 0.  0.
        -11    1    3    3    0    0 -0.14153391240E+02  0.52391594538E+02  0.12503417398E+02  0.55691409649E+02  0.51100000000E-03 0. -1.
         23    2    1    0    0    0 -0.17510501216E+02  0.11058051601E+02  0.18047262959E+02  0.97529982557E+02  0.93581491969E+02 0.  0.
         11    1    3    3    0    0 -0.33571099759E+01 -0.41333542937E+02  0.55438455608E+01  0.41838572908E+02  0.51100000000E-03 0.  1.
         22    1    1    0    0    0  0.17510501216E+02 -0.11058051601E+02 -0.18047262959E+02  0.27470017443E+02  0.00000000000E+00 0. -1.
</event>
<event>
 5    1  0.1659417E-003  0.9118800E+02  0.7818608E-02  0.1130116E+00
         25   -1    0    0    0    0  0.00000000000E+00  0.00000000000E+00  0.99999998245E-14  0.12500000000E+03  0.12500000000E+03 0.  0.
        -11    1    3    3    0    0 -0.37460733816E+01 -0.57420917980E+02  0.19979612834E+02  0.60912887115E+02  0.51100000000E-03 0.  1.
         23    2    1    0    0    0 -0.64624625092E+01 -0.22187103615E+02  0.16871028403E+02  0.96387719632E+02  0.92043087236E+02 0.  0.
         11    1    3    3    0    0 -0.27163891276E+01  0.35233814366E+02 -0.31085844307E+01  0.35474832516E+02  0.51100000000E-03 0. -1.
         22    1    1    0    0    0  0.64624625092E+01  0.22187103615E+02 -0.16871028403E+02  0.28612280368E+02  0.00000000000E+00 0.  1.
</event>
<event>
 5    1  0.1659417E-003  0.9118800E+02  0.7818608E-02  0.1130116E+00
         25   -1    0    0    0    0  0.00000000000E+00  0.00000000000E+00  0.99999998245E-14  0.12500000000E+03  0.12500000000E+03 0.  0.
        -11    1    3    3    0    0  0.36842923976E+02 -0.25357801153E+02  0.11948906880E+02  0.46294659544E+02  0.51100000000E-03 0.  1.
         23    2    1    0    0    0 -0.78703915780E+01 -0.23991808909E+02 -0.12008493975E+02  0.97040137950E+02  0.92924886266E+02 0.  0.
         11    1    3    3    0    0 -0.44713315554E+02  0.13659922437E+01 -0.23957400855E+02  0.50745478406E+02  0.51100000000E-03 0. -1.
         22    1    1    0    0    0  0.78703915780E+01  0.23991808909E+02  0.12008493975E+02  0.27959862050E+02  0.00000000000E+00 0. -1.
</event>
<event>
 5    1  0.1659417E-003  0.9118800E+02  0.7818608E-02  0.1130116E+00
         25   -1    0    0    0    0  0.00000000000E+00  0.00000000000E+00  0.99999998245E-14  0.12500000000E+03  0.12500000000E+03 0.  0.
        -11    1    3    3    0    0 -0.24682498143E+02 -0.56852620666E+02 -0.48244992297E+01  0.62166888166E+02  0.51100000000E-03 0. -1.
         23    2    1    0    0    0 -0.13817058471E+02 -0.25347548257E+02 -0.60023567514E+01  0.95513772808E+02  0.90848462849E+02 0.  0.
         11    1    3    3    0    0  0.10865439671E+02  0.31505072409E+02 -0.11778575217E+01  0.33346884642E+02  0.51100000000E-03 0.  1.
         22    1    1    0    0    0  0.13817058471E+02  0.25347548257E+02  0.60023567514E+01  0.29486227192E+02  0.00000000000E+00 0. -1.
</event>
<event>
 5    1  0.1659417E-003  0.9118800E+02  0.7818608E-02  0.1130116E+00
         25   -1    0    0    0    0  0.00000000000E+00  0.00000000000E+00  0.99999998245E-14  0.12500000000E+03  0.12500000000E+03 0.  0.
        -11    1    3    3    0    0 -0.28174558519E+00  0.29046931986E+02 -0.19653547043E+02  0.35072290344E+02  0.51100000000E-03 0. -1.
         23    2    1    0    0    0 -0.10531803585E+02 -0.25670626652E+02 -0.20090268193E+02  0.90743338815E+02  0.84028773071E+02 0.  0.
         11    1    3    3    0    0 -0.10250058000E+02 -0.54717558638E+02 -0.43672115000E+00  0.55671048471E+02  0.51100000000E-03 0.  1.
         22    1    1    0    0    0  0.10531803585E+02  0.25670626652E+02  0.20090268193E+02  0.34256661185E+02  0.00000000000E+00 0.  1.
</event>
<event>
 5    1  0.1659417E-003  0.9118800E+02  0.7818608E-02  0.1130116E+00
         25   -1    0    0    0    0  0.00000000000E+00  0.00000000000E+00  0.99999998245E-14  0.12500000000E+03  0.12500000000E+03 0.  0.
        -11    1    3    3    0    0  0.39724428150E+02 -0.34043129241E+02 -0.17103923097E+02  0.55040975881E+02  0.51100000000E-03 0.  1.
         23    2    1    0    0    0  0.26583053677E+02 -0.54527944702E+01  0.95024668729E+01  0.96247807266E+02  0.91852881373E+02 0.  0.
         11    1    3    3    0    0 -0.13141374472E+02  0.28590334771E+02  0.26606389970E+02  0.41206831385E+02  0.51100000000E-03 0. -1.
         22    1    1    0    0    0 -0.26583053677E+02  0.54527944702E+01 -0.95024668729E+01  0.28752192734E+02  0.00000000000E+00 0.  1.
</event>
<event>
 5    1  0.1659417E-003  0.9118800E+02  0.7818608E-02  0.1130116E+00
         25   -1    0    0    0    0  0.00000000000E+00  0.00000000000E+00  0.99999998245E-14  0.12500000000E+03  0.12500000000E+03 0.  0.
        -11    1    3    3    0    0  0.27470497353E+02 -0.71397084927E+01 -0.10577617183E+01  0.28402861164E+02  0.51100000000E-03 0. -1.
         23    2    1    0    0    0  0.24552137732E+02  0.30648110658E+02  0.28509876305E+02  0.76472407838E+02  0.59102469996E+02 0.  0.
         11    1    3    3    0    0 -0.29183596207E+01  0.37787819150E+02  0.29567638023E+02  0.48069546675E+02  0.51100000000E-03 0.  1.
         22    1    1    0    0    0 -0.24552137732E+02 -0.30648110658E+02 -0.28509876305E+02  0.48527592162E+02  0.00000000000E+00 0.  1.
</event>
<event>
 5    1  0.1659417E-003  0.9118800E+02  0.7818608E-02  0.1130116E+00
         25   -1    0    0    0    0  0.00000000000E+00  0.00000000000E+00  0.99999998245E-14  0.12500000000E+03  0.12500000000E+03 0.  0.
        -11    1    3    3    0    0 -0.16328172666E+02 -0.35209113814E+02 -0.98042451258E+01  0.40030165387E+02  0.51100000000E-03 0. -1.
         23    2    1    0    0    0  0.30206712681E+01 -0.15883331008E+00  0.29033751956E+02  0.95809103550E+02  0.91253908889E+02 0.  0.
         11    1    3    3    0    0  0.19348843934E+02  0.35050280504E+02  0.38837997081E+02  0.55778938163E+02  0.51100000000E-03 0.  1.
         22    1    1    0    0    0 -0.30206712681E+01  0.15883331008E+00 -0.29033751956E+02  0.29190896450E+02  0.00000000000E+00 0.  1.
</event>
<event>
 5    1  0.1659417E-003  0.9118800E+02  0.7818608E-02  0.1130116E+00
         25   -1    0    0    0    0  0.00000000000E+00  0.00000000000E+00  0.99999998245E-14  0.12500000000E+03  0.12500000000E+03 0.  0.
        -11    1    3    3    0    0  0.44178229399E+02 -0.35404022045E+02 -0.13158245592E+02  0.58123146483E+02  0.51100000000E-03 0.  1.
         23    2    1    0    0    0  0.11376815032E+02 -0.29396693600E+02 -0.11273357666E+02  0.91523349810E+02  0.85181203634E+02 0.  0.
         11    1    3    3    0    0 -0.32801414367E+02  0.60073284447E+01  0.18848879254E+01  0.33400203327E+02  0.51100000000E-03 0. -1.
         22    1    1    0    0    0 -0.11376815032E+02  0.29396693600E+02  0.11273357666E+02  0.33476650190E+02  0.00000000000E+00 0.  1.
</event>
<event>
 5    1  0.1659417E-003  0.9118800E+02  0.7818608E-02  0.1130116E+00
         25   -1    0    0    0    0  0.00000000000E+00  0.00000000000E+00  0.99999998245E-14  0.12500000000E+03  0.12500000000E+03 0.  0.
        -11    1    3    3    0    0  0.49903911404E+01 -0.37663033589E+02 -0.44044883631E+02  0.58166656060E+02  0.51100000000E-03 0.  1.
         23    2    1    0    0    0 -0.20086722741E+01 -0.44442487328E+01 -0.29500261395E+02  0.95099305469E+02  0.90276388758E+02 0.  0.
         11    1    3    3    0    0 -0.69990634145E+01  0.33218784857E+02  0.14544622237E+02  0.36932649408E+02  0.51100000000E-03 0. -1.
         22    1    1    0    0    0  0.20086722741E+01  0.44442487328E+01  0.29500261395E+02  0.29900694531E+02  0.00000000000E+00 0.  1.
</event>
<event>
 5    1  0.1659417E-003  0.9118800E+02  0.7818608E-02  0.1130116E+00
         25   -1    0    0    0    0  0.00000000000E+00  0.00000000000E+00  0.99999998245E-14  0.12500000000E+03  0.12500000000E+03 0.  0.
        -11    1    3    3    0    0  0.75952281202E+01 -0.91473287811E+01  0.50346699308E+02  0.51731530477E+02  0.51100000000E-03 0.  1.
         23    2    1    0    0    0 -0.66483419965E+01  0.19844440388E+02  0.19698852981E+02  0.96258965322E+02  0.91868064802E+02 0.  0.
         11    1    3    3    0    0 -0.14243570117E+02  0.28991769169E+02 -0.30647846326E+02  0.44527434845E+02  0.51100000000E-03 0. -1.
         22    1    1    0    0    0  0.66483419965E+01 -0.19844440388E+02 -0.19698852981E+02  0.28741034678E+02  0.00000000000E+00 0.  1.
</event>
<event>
 5    1  0.1659417E-003  0.9118800E+02  0.7818608E-02  0.1130116E+00
         25   -1    0    0    0    0  0.00000000000E+00  0.00000000000E+00  0.99999998245E-14  0.12500000000E+03  0.12500000000E+03 0.  0.
        -11    1    3    3    0    0  0.26843920247E+02 -0.21043152926E+02 -0.97667490823E+01  0.35479567743E+02  0.51100000000E-03 0. -1.
         23    2    1    0    0    0 -0.28942261232E+01  0.27175446612E+02  0.10609031367E+02  0.95683912438E+02  0.91082260125E+02 0.  0.
         11    1    3    3    0    0 -0.29738146370E+02  0.48218599538E+02  0.20375780450E+02  0.60204344695E+02  0.51100000000E-03 0.  1.
         22    1    1    0    0    0  0.28942261232E+01 -0.27175446612E+02 -0.10609031367E+02  0.29316087562E+02  0.00000000000E+00 0.  1.
</event>
<event>
 5    1  0.1659417E-003  0.9118800E+02  0.7818608E-02  0.1130116E+00
         25   -1    0    0    0    0  0.00000000000E+00  0.00000000000E+00  0.99999998245E-14  0.12500000000E+03  0.12500000000E+03 0.  0.
        -11    1    3    3    0    0 -0.10496997217E+02 -0.24987292620E+02 -0.96538957122E+01  0.28770635129E+02  0.51100000000E-03 0.  1.
         23    2    1    0    0    0  0.12543632660E+02  0.27585472744E+02  0.14935477155E+02  0.91215839441E+02  0.84728742822E+02 0.  0.
         11    1    3    3    0    0  0.23040629877E+02  0.52572765365E+02  0.24589372867E+02  0.62445204311E+02  0.51100000000E-03 0. -1.
         22    1    1    0    0    0 -0.12543632660E+02 -0.27585472744E+02 -0.14935477155E+02  0.33784160559E+02  0.00000000000E+00 0. -1.
</event>
<event>
 5    1  0.1659417E-003  0.9118800E+02  0.7818608E-02  0.1130116E+00
         25   -1    0    0    0    0  0.00000000000E+00  0.00000000000E+00  0.99999998245E-14  0.12500000000E+03  0.12500000000E+03 0.  0.
        -11    1    3    3    0    0  0.11252596721E+02  0.13103908179E+02 -0.37608462721E+02  0.41385139978E+02  0.51100000000E-03 0.  1.
         23    2    1    0    0    0 -0.18166795678E+02 -0.21546660503E+02 -0.77468958969E+01  0.95771496103E+02  0.91202379496E+02 0.  0.
         11    1    3    3    0    0 -0.29419392399E+02 -0.34650568681E+02  0.29861566824E+02  0.54386356125E+02  0.51100000000E-03 0. -1.
         22    1    1    0    0    0  0.18166795678E+02  0.21546660503E+02  0.77468958969E+01  0.29228503897E+02  0.00000000000E+00 0. -1.
</event>
<event>
 5    1  0.1659417E-003  0.9118800E+02  0.7818608E-02  0.1130116E+00
         25   -1    0    0    0    0  0.00000000000E+00  0.00000000000E+00  0.99999998245E-14  0.12500000000E+03  0.12500000000E+03 0.  0.
        -11    1    3    3    0    0 -0.93489171204E+01 -0.45948125449E+02  0.14041709856E+02  0.48946931463E+02  0.51100000000E-03 0.  1.
         23    2    1    0    0    0 -0.98320109395E+01 -0.78751986716E+00  0.27264648199E+02  0.96006040834E+02  0.91523276868E+02 0.  0.
         11    1    3    3    0    0 -0.48309381916E+00  0.45160605582E+02  0.13222938343E+02  0.47059109372E+02  0.51100000000E-03 0. -1.
         22    1    1    0    0    0  0.98320109395E+01  0.78751986716E+00 -0.27264648199E+02  0.28993959166E+02  0.00000000000E+00 0.  1.
</event>
<event>
 5    1  0.1659417E-003  0.9118800E+02  0.7818608E-02  0.1130116E+00
         25   -1    0    0    0    0  0.00000000000E+00  0.00000000000E+00  0.99999998245E-14  0.12500000000E+03  0.12500000000E+03 0.  0.
        -11    1    3    3    0    0 -0.11627032877E+01 -0.16644637613E+01  0.54537414247E+02  0.54575194654E+02  0.51100000000E-03 0.  1.
         23    2    1    0    0    0  0.18063916859E+02 -0.12084642876E+02  0.34437924373E+02  0.84277594363E+02  0.73786168018E+02 0.  0.
         11    1    3    3    0    0  0.19226620147E+02 -0.10420179115E+02 -0.20099489874E+02  0.29702399709E+02  0.51100000000E-03 0. -1.
         22    1    1    0    0    0 -0.18063916859E+02  0.12084642876E+02 -0.34437924373E+02  0.40722405637E+02  0.00000000000E+00 0.  1.
</event>
<event>
 5    1  0.1659417E-003  0.9118800E+02  0.7818608E-02  0.1130116E+00
         25   -1    0    0    0    0  0.00000000000E+00  0.00000000000E+00  0.99999998245E-14  0.12500000000E+03  0.12500000000E+03 0.  0.
        -11    1    3    3    0    0  0.14760064291E+02  0.13055203597E+02  0.44957840048E+02  0.49086711246E+02  0.51100000000E-03 0.  1.
         23    2    1    0    0    0  0.27933971185E+02 -0.10990432568E+01  0.10944931200E+01  0.97022999492E+02  0.92901829223E+02 0.  0.
         11    1    3    3    0    0  0.13173906894E+02 -0.14154246854E+02 -0.43863346928E+02  0.47936288247E+02  0.51100000000E-03 0. -1.
         22    1    1    0    0    0 -0.27933971185E+02  0.10990432568E+01 -0.10944931200E+01  0.27977000508E+02  0.00000000000E+00 0.  1.
</event>
<event>
 5    1  0.1659417E-003  0.9118800E+02  0.7818608E-02  0.1130116E+00
         25   -1    0    0    0    0  0.00000000000E+00  0.00000000000E+00  0.99999998245E-14  0.12500000000E+03  0.12500000000E+03 0.  0.
        -11    1    3    3    0    0  0.24192419759E+02 -0.55092804813E+01  0.32609806315E+02  0.40975905278E+02  0.51100000000E-03 0.  1.
         23    2    1    0    0    0 -0.10161154325E+02 -0.28609936125E+02 -0.14794438018E+01  0.94603186742E+02  0.89586810890E+02 0.  0.
         11    1    3    3    0    0 -0.34353574084E+02 -0.23100655643E+02 -0.34089250117E+02  0.53627281464E+02  0.51100000000E-03 0. -1.
         22    1    1    0    0    0  0.10161154325E+02  0.28609936125E+02  0.14794438018E+01  0.30396813258E+02  0.00000000000E+00 0. -1.
</event>
<event>
 5    1  0.1659417E-003  0.9118800E+02  0.7818608E-02  0.1130116E+00
         25   -1    0    0    0    0  0.00000000000E+00  0.00000000000E+00  0.99999998245E-14  0.12500000000E+03  0.12500000000E+03 0.  0.
        -11    1    3    3    0    0  0.31441314417E+02  0.12136737293E+02 -0.51664521414E+02  0.61685325788E+02  0.51100000000E-03 0.  1.
         23    2    1    0    0    0  0.13820369714E+02 -0.16012923893E+01 -0.24146606275E+02  0.97132001311E+02  0.93048376277E+02 0.  0.
         11    1    3    3    0    0 -0.17620944702E+02 -0.13738029682E+02  0.27517915139E+02  0.35446675523E+02  0.51100000000E-03 0. -1.
         22    1    1    0    0    0 -0.13820369714E+02  0.16012923893E+01  0.24146606275E+02  0.27867998689E+02  0.00000000000E+00 0.  1.
</event>
<event>
 5    1  0.1659417E-003  0.9118800E+02  0.7818608E-02  0.1130116E+00
         25   -1    0    0    0    0  0.00000000000E+00  0.00000000000E+00  0.99999998245E-14  0.12500000000E+03  0.12500000000E+03 0.  0.
        -11    1    3    3    0    0  0.12332195373E+01 -0.31123922427E+02  0.34607781292E+02  0.46560905317E+02  0.51100000000E-03 0. -1.
         23    2    1    0    0    0 -0.22339500709E+02 -0.18004670761E+02 -0.63584036070E+01  0.95612064422E+02  0.90983603498E+02 0.  0.
         11    1    3    3    0    0 -0.23572720246E+02  0.13119251666E+02 -0.40966184899E+02  0.49051159105E+02  0.51100000000E-03 0.  1.
         22    1    1    0    0    0  0.22339500709E+02  0.18004670761E+02  0.63584036070E+01  0.29387935578E+02  0.00000000000E+00 0. -1.
</event>
<event>
 5    1  0.1659417E-003  0.9118800E+02  0.7818608E-02  0.1130116E+00
         25   -1    0    0    0    0  0.00000000000E+00  0.00000000000E+00  0.99999998245E-14  0.12500000000E+03  0.12500000000E+03 0.  0.
        -11    1    3    3    0    0  0.64543061289E+01 -0.13689721588E+02  0.37888238851E+02  0.40799328282E+02  0.51100000000E-03 0. -1.
         23    2    1    0    0    0 -0.22524185230E+02  0.16310144475E+02 -0.62108342465E-01  0.97190584498E+02  0.93127042928E+02 0.  0.
         11    1    3    3    0    0 -0.28978491359E+02  0.29999866063E+02 -0.37950347194E+02  0.56391256216E+02  0.51100000000E-03 0.  1.
         22    1    1    0    0    0  0.22524185230E+02 -0.16310144475E+02  0.62108342465E-01  0.27809415502E+02  0.00000000000E+00 0.  1.
</event>
